Generated by trjconv : CNT in water t= 567.00000
33518
    1C        C    1   2.845   2.772   4.746
    1C        C    2   2.894   2.719   4.868
    1C        C    3   2.838   2.768   4.987
    1C        C    4   2.846   2.769   4.260
    1C        C    5   2.902   2.728   4.383
    1C        C    6   2.841   2.767   4.505
    1C        C    7   3.009   2.636   4.625
    1C        C    8   2.892   2.716   4.626
    1C        C    9   3.074   2.603   4.746
    1C        C   10   3.006   2.634   4.866
    1C        C   11   3.183   2.494   4.981
    1C        C   12   3.061   2.562   4.974
    1C        C   13   2.845   2.766   3.771
    1C        C   14   2.899   2.721   3.894
    1C        C   15   2.844   2.765   4.017
    1C        C   16   3.013   2.636   4.139
    1C        C   17   2.899   2.720   4.139
    1C        C   18   3.078   2.611   4.261
    1C        C   19   3.017   2.646   4.383
    1C        C   20   3.208   2.552   4.503
    1C        C   21   3.077   2.606   4.505
    1C        C   22   3.275   2.539   4.626
    1C        C   23   3.205   2.548   4.748
    1C        C   24   3.411   2.484   4.865
    1C        C   25   3.269   2.501   4.866
    1C        C   26   3.488   2.476   4.981
    1C        C   27   2.840   2.759   3.283
    1C        C   28   2.898   2.719   3.405
    1C        C   29   2.846   2.767   3.527
    1C        C   30   3.012   2.635   3.649
    1C        C   31   2.899   2.719   3.649
    1C        C   32   3.074   2.604   3.772
    1C        C   33   3.014   2.641   3.894
    1C        C   34   3.208   2.556   4.018
    1C        C   35   3.075   2.603   4.016
    1C        C   36   3.279   2.540   4.140
    1C        C   37   3.212   2.565   4.262
    1C        C   38   3.419   2.515   4.383
    1C        C   39   3.280   2.537   4.382
    1C        C   40   3.487   2.507   4.507
    1C        C   41   3.414   2.512   4.628
    1C        C   42   3.631   2.491   4.745
    1C        C   43   3.488   2.490   4.746
    1C        C   44   3.705   2.490   4.865
    1C        C   45   3.627   2.484   4.981
    1C        C   46   2.836   2.752   2.793
    1C        C   47   2.892   2.709   2.915
    1C        C   48   2.841   2.759   3.038
    1C        C   49   3.013   2.637   3.161
    1C        C   50   2.895   2.714   3.160
    1C        C   51   3.075   2.601   3.283
    1C        C   52   3.013   2.638   3.405
    1C        C   53   3.207   2.552   3.527
    1C        C   54   3.074   2.599   3.527
    1C        C   55   3.275   2.535   3.650
    1C        C   56   3.206   2.554   3.772
    1C        C   57   3.414   2.512   3.893
    1C        C   58   3.275   2.535   3.895
    1C        C   59   3.487   2.508   4.014
    1C        C   60   3.417   2.514   4.137
    1C        C   61   3.629   2.511   4.256
    1C        C   62   3.488   2.509   4.259
    1C        C   63   3.697   2.513   4.380
    1C        C   64   3.628   2.502   4.503
    1C        C   65   3.837   2.545   4.621
    1C        C   66   3.701   2.508   4.623
    1C        C   67   3.907   2.555   4.743
    1C        C   68   3.843   2.521   4.864
    1C        C   69   4.054   2.585   4.981
    1C        C   70   3.925   2.531   4.977
    1C        C   71   2.826   2.738   2.307
    1C        C   72   2.884   2.694   2.429
    1C        C   73   2.830   2.743   2.550
    1C        C   74   3.008   2.626   2.673
    1C        C   75   2.888   2.701   2.672
    1C        C   76   3.073   2.596   2.795
    1C        C   77   3.009   2.630   2.916
    1C        C   78   3.204   2.548   3.038
    1C        C   79   3.071   2.596   3.039
    1C        C   80   3.274   2.531   3.159
    1C        C   81   3.207   2.550   3.282
    1C        C   82   3.414   2.512   3.403
    1C        C   83   3.274   2.532   3.405
    1C        C   84   3.484   2.506   3.526
    1C        C   85   3.414   2.511   3.648
    1C        C   86   3.625   2.507   3.770
    1C        C   87   3.484   2.503   3.771
    1C        C   88   3.698   2.519   3.891
    1C        C   89   3.628   2.510   4.013
    1C        C   90   3.837   2.552   4.136
    1C        C   91   3.700   2.516   4.134
    1C        C   92   3.903   2.575   4.259
    1C        C   93   3.834   2.548   4.379
    1C        C   94   4.030   2.636   4.499
    1C        C   95   3.904   2.572   4.499
    1C        C   96   4.093   2.669   4.621
    1C        C   97   4.032   2.623   4.740
    1C        C   98   4.188   2.764   4.861
    1C        C   99   4.097   2.654   4.862
    1C        C  100   4.212   2.843   4.975
    1C        C  101   2.822   2.729   2.068
    1C        C  102   2.989   2.591   2.192
    1C        C  103   2.878   2.681   2.188
    1C        C  104   3.063   2.575   2.312
    1C        C  105   3.005   2.623   2.431
    1C        C  106   3.200   2.533   2.552
    1C        C  107   3.070   2.589   2.552
    1C        C  108   3.271   2.523   2.674
    1C        C  109   3.202   2.539   2.796
    1C        C  110   3.412   2.502   2.915
    1C        C  111   3.273   2.522   2.917
    1C        C  112   3.482   2.494   3.038
    1C        C  113   3.413   2.505   3.160
    1C        C  114   3.627   2.503   3.283
    1C        C  115   3.485   2.501   3.282
    1C        C  116   3.696   2.511   3.406
    1C        C  117   3.625   2.507   3.528
    1C        C  118   3.835   2.545   3.646
    1C        C  119   3.698   2.512   3.649
    1C        C  120   3.903   2.571   3.768
    1C        C  121   3.836   2.548   3.890
    1C        C  122   4.029   2.636   4.014
    1C        C  123   3.902   2.573   4.012
    1C        C  124   4.091   2.671   4.135
    1C        C  125   4.031   2.634   4.257
    1C        C  126   4.205   2.759   4.376
    1C        C  127   4.092   2.674   4.378
    1C        C  128   4.250   2.811   4.500
    1C        C  129   4.202   2.758   4.622
    1C        C  130   4.329   2.932   4.741
    1C        C  131   4.246   2.817   4.743
    1C        C  132   4.360   2.997   4.863
    1C        C  133   4.282   2.962   4.974
    1C        C  134   3.172   2.468   2.083
    1C        C  135   3.038   2.510   2.084
    1C        C  136   3.260   2.479   2.191
    1C        C  137   3.196   2.524   2.309
    1C        C  138   3.406   2.480   2.428
    1C        C  139   3.267   2.506   2.430
    1C        C  140   3.479   2.482   2.549
    1C        C  141   3.410   2.500   2.671
    1C        C  142   3.623   2.495   2.792
    1C        C  143   3.482   2.496   2.792
    1C        C  144   3.694   2.506   2.914
    1C        C  145   3.624   2.501   3.036
    1C        C  146   3.830   2.542   3.158
    1C        C  147   3.693   2.510   3.159
    1C        C  148   3.900   2.565   3.279
    1C        C  149   3.835   2.539   3.402
    1C        C  150   4.028   2.629   3.522
    1C        C  151   3.901   2.567   3.523
    1C        C  152   4.085   2.671   3.644
    1C        C  153   4.029   2.635   3.769
    1C        C  154   4.199   2.760   3.887
    1C        C  155   4.089   2.672   3.891
    1C        C  156   4.251   2.807   4.009
    1C        C  157   4.202   2.759   4.133
    1C        C  158   4.343   2.920   4.253
    1C        C  159   4.256   2.808   4.254
    1C        C  160   4.376   2.981   4.376
    1C        C  161   4.337   2.922   4.499
    1C        C  162   4.441   3.111   4.614
    1C        C  163   4.376   2.985   4.619
    1C        C  164   4.468   3.182   4.733
    1C        C  165   4.437   3.115   4.854
    1C        C  166   4.514   3.315   4.972
    1C        C  167   4.482   3.180   4.969
    1C        C  168   3.481   2.437   2.074
    1C        C  169   3.400   2.462   2.186
    1C        C  170   3.617   2.470   2.307
    1C        C  171   3.475   2.467   2.305
    1C        C  172   3.692   2.490   2.425
    1C        C  173   3.620   2.491   2.547
    1C        C  174   3.827   2.538   2.668
    1C        C  175   3.692   2.499   2.668
    1C        C  176   3.895   2.564   2.789
    1C        C  177   3.832   2.539   2.913
    1C        C  178   4.024   2.627   3.033
    1C        C  179   3.898   2.561   3.036
    1C        C  180   4.088   2.663   3.154
    1C        C  181   4.027   2.627   3.276
    1C        C  182   4.198   2.752   3.397
    1C        C  183   4.088   2.664   3.398
    1C        C  184   4.250   2.801   3.519
    1C        C  185   4.199   2.754   3.642
    1C        C  186   4.343   2.912   3.763
    1C        C  187   4.254   2.802   3.763
    1C        C  188   4.381   2.972   3.885
    1C        C  189   4.342   2.915   4.008
    1C        C  190   4.446   3.101   4.126
    1C        C  191   4.383   2.975   4.129
    1C        C  192   4.464   3.172   4.247
    1C        C  193   4.434   3.109   4.371
    1C        C  194   4.502   3.313   4.491
    1C        C  195   4.461   3.178   4.491
    1C        C  196   4.521   3.386   4.611
    1C        C  197   4.510   3.318   4.734
    1C        C  198   4.556   3.531   4.851
    1C        C  199   4.530   3.391   4.854
    1C        C  200   4.578   3.618   4.963
    1C        C  201   3.620   2.418   2.072
    1C        C  202   3.829   2.505   2.185
    1C        C  203   3.692   2.463   2.187
    1C        C  204   3.901   2.538   2.304
    1C        C  205   3.830   2.521   2.424
    1C        C  206   4.022   2.617   2.542
    1C        C  207   3.894   2.556   2.545
    1C        C  208   4.083   2.653   2.664
    1C        C  209   4.023   2.624   2.788
    1C        C  210   4.199   2.743   2.907
    1C        C  211   4.081   2.664   2.910
    1C        C  212   4.250   2.794   3.028
    1C        C  213   4.202   2.746   3.152
    1C        C  214   4.338   2.908   3.272
    1C        C  215   4.252   2.795   3.274
    1C        C  216   4.376   2.968   3.394
    1C        C  217   4.342   2.908   3.517
    1C        C  218   4.431   3.101   3.639
    1C        C  219   4.379   2.970   3.639
    1C        C  220   4.461   3.168   3.760
    1C        C  221   4.441   3.100   3.882
    1C        C  222   4.501   3.304   4.005
    1C        C  223   4.471   3.166   4.004
    1C        C  224   4.517   3.377   4.125
    1C        C  225   4.505   3.307   4.248
    1C        C  226   4.511   3.522   4.366
    1C        C  227   4.509   3.381   4.368
    1C        C  228   4.515   3.595   4.487
    1C        C  229   4.528   3.527   4.611
    1C        C  230   4.505   3.741   4.726
    1C        C  231   4.537   3.602   4.730
    1C        C  232   4.496   3.820   4.843
    1C        C  233   4.544   3.753   4.956
    1C        C  234   4.013   2.615   2.061
    1C        C  235   3.894   2.544   2.067
    1C        C  236   4.085   2.644   2.178
    1C        C  237   4.028   2.603   2.300
    1C        C  238   4.202   2.730   2.421
    1C        C  239   4.086   2.648   2.420
    1C        C  240   4.254   2.780   2.542
    1C        C  241   4.196   2.738   2.664
    1C        C  242   4.342   2.897   2.785
    1C        C  243   4.252   2.788   2.784
    1C        C  244   4.382   2.958   2.906
    1C        C  245   4.339   2.904   3.029
    1C        C  246   4.440   3.093   3.147
    1C        C  247   4.380   2.965   3.150
    1C        C  248   4.461   3.160   3.270
    1C        C  249   4.433   3.097   3.393
    1C        C  250   4.493   3.301   3.513
    1C        C  251   4.453   3.166   3.515
    1C        C  252   4.500   3.371   3.636
    1C        C  253   4.491   3.306   3.760
    1C        C  254   4.519   3.515   3.879
    1C        C  255   4.511   3.374   3.883
    1C        C  256   4.510   3.586   4.000
    1C        C  257   4.516   3.518   4.123
    1C        C  258   4.487   3.732   4.238
    1C        C  259   4.508   3.592   4.243
    1C        C  260   4.470   3.801   4.360
    1C        C  261   4.484   3.732   4.483
    1C        C  262   4.426   3.938   4.602
    1C        C  263   4.473   3.805   4.604
    1C        C  264   4.403   4.010   4.721
    1C        C  265   4.436   3.947   4.843
    1C        C  266   4.318   4.129   4.957
    1C        C  267   4.392   4.011   4.959
    1C        C  268   4.263   2.775   2.064
    1C        C  269   4.202   2.724   2.179
    1C        C  270   4.350   2.883   2.298
    1C        C  271   4.257   2.775   2.298
    1C        C  272   4.387   2.947   2.418
    1C        C  273   4.345   2.888   2.540
    1C        C  274   4.446   3.076   2.659
    1C        C  275   4.383   2.950   2.661
    1C        C  276   4.469   3.148   2.778
    1C        C  277   4.446   3.084   2.902
    1C        C  278   4.503   3.290   3.020
    1C        C  279   4.470   3.153   3.023
    1C        C  280   4.507   3.362   3.142
    1C        C  281   4.497   3.296   3.267
    1C        C  282   4.509   3.508   3.387
    1C        C  283   4.507   3.367   3.389
    1C        C  284   4.506   3.580   3.509
    1C        C  285   4.510   3.512   3.633
    1C        C  286   4.481   3.721   3.752
    1C        C  287   4.512   3.583   3.755
    1C        C  288   4.462   3.792   3.873
    1C        C  289   4.485   3.725   3.995
    1C        C  290   4.425   3.932   4.116
    1C        C  291   4.473   3.799   4.115
    1C        C  292   4.395   3.996   4.238
    1C        C  293   4.420   3.933   4.362
    1C        C  294   4.322   4.125   4.478
    1C        C  295   4.392   4.003   4.481
    1C        C  296   4.285   4.188   4.599
    1C        C  297   4.330   4.133   4.721
    1C        C  298   4.195   4.309   4.839
    1C        C  299   4.279   4.193   4.839
    1C        C  300   4.169   4.401   4.946
    1C        C  301   4.351   2.882   2.061
    1C        C  302   4.466   3.069   2.177
    1C        C  303   4.398   2.943   2.179
    1C        C  304   4.484   3.141   2.299
    1C        C  305   4.450   3.074   2.418
    1C        C  306   4.503   3.283   2.535
    1C        C  307   4.473   3.145   2.538
    1C        C  308   4.510   3.358   2.655
    1C        C  309   4.499   3.286   2.776
    1C        C  310   4.523   3.499   2.897
    1C        C  311   4.514   3.358   2.897
    1C        C  312   4.513   3.570   3.018
    1C        C  313   4.510   3.503   3.143
    1C        C  314   4.478   3.715   3.263
    1C        C  315   4.506   3.576   3.263
    1C        C  316   4.463   3.786   3.384
    1C        C  317   4.480   3.719   3.507
    1C        C  318   4.419   3.922   3.627
    1C        C  319   4.466   3.789   3.629
    1C        C  320   4.391   3.990   3.748
    1C        C  321   4.418   3.926   3.872
    1C        C  322   4.315   4.112   3.992
    1C        C  323   4.393   3.994   3.993
    1C        C  324   4.272   4.169   4.114
    1C        C  325   4.321   4.116   4.235
    1C        C  326   4.188   4.286   4.354
    1C        C  327   4.282   4.181   4.355
    1C        C  328   4.142   4.344   4.474
    1C        C  329   4.196   4.298   4.596
    1C        C  330   4.026   4.436   4.714
    1C        C  331   4.140   4.351   4.715
    1C        C  332   3.972   4.494   4.831
    1C        C  333   4.051   4.477   4.945
    1C        C  334   4.555   3.265   2.061
    1C        C  335   4.532   3.127   2.064
    1C        C  336   4.535   3.349   2.171
    1C        C  337   4.514   3.279   2.293
    1C        C  338   4.516   3.494   2.411
    1C        C  339   4.519   3.353   2.413
    1C        C  340   4.517   3.569   2.530
    1C        C  341   4.524   3.498   2.652
    1C        C  342   4.490   3.708   2.776
    1C        C  343   4.514   3.569   2.774
    1C        C  344   4.466   3.776   2.897
    1C        C  345   4.483   3.708   3.019
    1C        C  346   4.422   3.915   3.136
    1C        C  347   4.465   3.781   3.139
    1C        C  348   4.390   3.982   3.256
    1C        C  349   4.423   3.921   3.380
    1C        C  350   4.317   4.104   3.500
    1C        C  351   4.393   3.985   3.503
    1C        C  352   4.274   4.161   3.622
    1C        C  353   4.316   4.110   3.746
    1C        C  354   4.180   4.272   3.866
    1C        C  355   4.275   4.167   3.868
    1C        C  356   4.126   4.321   3.987
    1C        C  357   4.177   4.274   4.110
    1C        C  358   4.014   4.408   4.231
    1C        C  359   4.131   4.329   4.232
    1C        C  360   3.955   4.447   4.353
    1C        C  361   4.023   4.421   4.473
    1C        C  362   3.828   4.514   4.593
    1C        C  363   3.960   4.463   4.592
    1C        C  364   3.764   4.549   4.714
    1C        C  365   3.840   4.544   4.832
    1C        C  366   3.629   4.592   4.953
    1C        C  367   3.767   4.576   4.947
    1C        C  368   4.502   3.563   2.054
    1C        C  369   4.518   3.489   2.171
    1C        C  370   4.492   3.706   2.285
    1C        C  371   4.508   3.566   2.289
    1C        C  372   4.477   3.775   2.407
    1C        C  373   4.494   3.709   2.531
    1C        C  374   4.422   3.908   2.651
    1C        C  375   4.475   3.777   2.653
    1C        C  376   4.394   3.977   2.771
    1C        C  377   4.419   3.910   2.893
    1C        C  378   4.317   4.099   3.009
    1C        C  379   4.389   3.977   3.013
    1C        C  380   4.275   4.156   3.131
    1C        C  381   4.317   4.103   3.255
    1C        C  382   4.176   4.261   3.376
    1C        C  383   4.273   4.159   3.377
    1C        C  384   4.122   4.308   3.498
    1C        C  385   4.174   4.262   3.621
    1C        C  386   4.007   4.391   3.741
    1C        C  387   4.126   4.314   3.742
    1C        C  388   3.948   4.431   3.863
    1C        C  389   4.011   4.403   3.986
    1C        C  390   3.820   4.492   4.107
    1C        C  391   3.951   4.439   4.109
    1C        C  392   3.752   4.514   4.229
    1C        C  393   3.824   4.500   4.351
    1C        C  394   3.617   4.548   4.475
    1C        C  395   3.756   4.526   4.472
    1C        C  396   3.546   4.558   4.597
    1C        C  397   3.623   4.561   4.715
    1C        C  398   3.414   4.555   4.838
    1C        C  399   3.553   4.578   4.837
    1C        C  400   3.343   4.523   4.955
    1C        C  401   4.498   3.702   2.050
    1C        C  402   4.458   3.919   2.167
    1C        C  403   4.490   3.781   2.165
    1C        C  404   4.413   3.978   2.287
    1C        C  405   4.427   3.907   2.408
    1C        C  406   4.320   4.093   2.524
    1C        C  407   4.393   3.972   2.528
    1C        C  408   4.279   4.153   2.645
    1C        C  409   4.318   4.096   2.768
    1C        C  410   4.174   4.257   2.889
    1C        C  411   4.273   4.156   2.888
    1C        C  412   4.126   4.306   3.012
    1C        C  413   4.178   4.258   3.134
    1C        C  414   4.000   4.381   3.251
    1C        C  415   4.118   4.304   3.254
    1C        C  416   3.942   4.415   3.375
    1C        C  417   4.001   4.381   3.499
    1C        C  418   3.811   4.477   3.621
    1C        C  419   3.941   4.421   3.620
    1C        C  420   3.748   4.504   3.744
    1C        C  421   3.816   4.482   3.866
    1C        C  422   3.608   4.531   3.985
    1C        C  423   3.747   4.504   3.987
    1C        C  424   3.541   4.541   4.109
    1C        C  425   3.613   4.538   4.231
    1C        C  426   3.403   4.551   4.355
    1C        C  427   3.544   4.551   4.354
    1C        C  428   3.333   4.547   4.478
    1C        C  429   3.405   4.557   4.599
    1C        C  430   3.196   4.517   4.723
    1C        C  431   3.335   4.547   4.722
    1C        C  432   3.127   4.491   4.844
    1C        C  433   3.208   4.492   4.958
    1C        C  434   4.381   4.122   2.049
    1C        C  435   4.444   3.997   2.051
    1C        C  436   4.301   4.162   2.161
    1C        C  437   4.332   4.095   2.283
    1C        C  438   4.180   4.251   2.399
    1C        C  439   4.277   4.148   2.401
    1C        C  440   4.123   4.294   2.521
    1C        C  441   4.178   4.252   2.644
    1C        C  442   4.007   4.381   2.762
    1C        C  443   4.125   4.302   2.764
    1C        C  444   3.943   4.414   2.883
    1C        C  445   4.005   4.379   3.005
    1C        C  446   3.812   4.469   3.129
    1C        C  447   3.942   4.413   3.126
    1C        C  448   3.748   4.493   3.253
    1C        C  449   3.815   4.477   3.376
    1C        C  450   3.608   4.529   3.494
    1C        C  451   3.745   4.496   3.498
    1C        C  452   3.542   4.543   3.618
    1C        C  453   3.611   4.539   3.741
    1C        C  454   3.397   4.537   3.866
    1C        C  455   3.539   4.542   3.863
    1C        C  456   3.329   4.530   3.990
    1C        C  457   3.400   4.538   4.112
    1C        C  458   3.193   4.503   4.239
    1C        C  459   3.331   4.533   4.235
    1C        C  460   3.125   4.488   4.362
    1C        C  461   3.196   4.516   4.481
    1C        C  462   2.998   4.432   4.603
    1C        C  463   3.128   4.489   4.602
    1C        C  464   2.931   4.400   4.723
    1C        C  465   2.992   4.442   4.845
    1C        C  466   2.800   4.337   4.962
    1C        C  467   2.907   4.428   4.959
    1C        C  468   4.130   4.294   2.037
    1C        C  469   4.190   4.252   2.157
    1C        C  470   4.010   4.376   2.276
    1C        C  471   4.130   4.300   2.276
    1C        C  472   3.942   4.404   2.397
    1C        C  473   4.002   4.367   2.520
    1C        C  474   3.809   4.461   2.640
    1C        C  475   3.938   4.404   2.641
    1C        C  476   3.743   4.487   2.762
    1C        C  477   3.812   4.468   2.884
    1C        C  478   3.606   4.517   3.006
    1C        C  479   3.745   4.490   3.006
    1C        C  480   3.537   4.531   3.128
    1C        C  481   3.610   4.520   3.249
    1C        C  482   3.398   4.526   3.375
    1C        C  483   3.539   4.534   3.370
    1C        C  484   3.331   4.527   3.499
    1C        C  485   3.401   4.541   3.622
    1C        C  486   3.191   4.503   3.745
    1C        C  487   3.329   4.531   3.743
    1C        C  488   3.126   4.477   3.868
    1C        C  489   3.192   4.497   3.991
    1C        C  490   3.001   4.417   4.113
    1C        C  491   3.127   4.480   4.116
    1C        C  492   2.941   4.384   4.237
    1C        C  493   2.999   4.426   4.359
    1C        C  494   2.827   4.304   4.485
    1C        C  495   2.937   4.392   4.482
    1C        C  496   2.770   4.260   4.606
    1C        C  497   2.820   4.311   4.728
    1C        C  498   2.667   4.162   4.847
    1C        C  499   2.752   4.275   4.846
    1C        C  500   2.594   4.113   4.956
    1C        C  501   4.001   4.347   2.039
    1C        C  502   3.813   4.454   2.152
    1C        C  503   3.944   4.402   2.154
    1C        C  504   3.743   4.472   2.273
    1C        C  505   3.810   4.454   2.395
    1C        C  506   3.604   4.504   2.520
    1C        C  507   3.744   4.482   2.516
    1C        C  508   3.533   4.518   2.641
    1C        C  509   3.605   4.516   2.763
    1C        C  510   3.393   4.521   2.886
    1C        C  511   3.534   4.525   2.885
    1C        C  512   3.322   4.520   3.008
    1C        C  513   3.396   4.535   3.128
    1C        C  514   3.192   4.494   3.255
    1C        C  515   3.329   4.527   3.252
    1C        C  516   3.127   4.469   3.378
    1C        C  517   3.194   4.493   3.501
    1C        C  518   3.002   4.406   3.623
    1C        C  519   3.125   4.477   3.623
    1C        C  520   2.943   4.370   3.746
    1C        C  521   3.001   4.411   3.868
    1C        C  522   2.838   4.281   3.997
    1C        C  523   2.942   4.376   3.991
    1C        C  524   2.788   4.236   4.121
    1C        C  525   2.833   4.293   4.242
    1C        C  526   2.694   4.135   4.365
    1C        C  527   2.779   4.248   4.364
    1C        C  528   2.654   4.078   4.488
    1C        C  529   2.685   4.148   4.607
    1C        C  530   2.585   3.959   4.730
    1C        C  531   2.641   4.089   4.728
    1C        C  532   2.539   3.898   4.851
    1C        C  533   2.525   3.991   4.959
    1C        C  534   3.616   4.555   2.040
    1C        C  535   3.748   4.510   2.041
    1C        C  536   3.536   4.534   2.156
    1C        C  537   3.605   4.507   2.278
    1C        C  538   3.391   4.518   2.399
    1C        C  539   3.532   4.508   2.399
    1C        C  540   3.320   4.513   2.521
    1C        C  541   3.392   4.513   2.643
    1C        C  542   3.181   4.487   2.765
    1C        C  543   3.321   4.508   2.765
    1C        C  544   3.117   4.468   2.889
    1C        C  545   3.185   4.487   3.011
    1C        C  546   2.997   4.399   3.136
    1C        C  547   3.123   4.463   3.136
    1C        C  548   2.940   4.363   3.260
    1C        C  549   2.998   4.411   3.380
    1C        C  550   2.833   4.278   3.506
    1C        C  551   2.938   4.372   3.502
    1C        C  552   2.783   4.229   3.628
    1C        C  553   2.832   4.283   3.750
    1C        C  554   2.699   4.123   3.876
    1C        C  555   2.786   4.235   3.874
    1C        C  556   2.661   4.065   3.998
    1C        C  557   2.699   4.126   4.119
    1C        C  558   2.604   3.942   4.246
    1C        C  559   2.659   4.072   4.244
    1C        C  560   2.575   3.879   4.369
    1C        C  561   2.593   3.951   4.490
    1C        C  562   2.533   3.747   4.615
    1C        C  563   2.563   3.885   4.612
    1C        C  564   2.524   3.677   4.737
    1C        C  565   2.523   3.756   4.855
    1C        C  566   2.525   3.545   4.977
    1C        C  567   2.531   3.684   4.974
    1C        C  568   3.327   4.473   2.039
    1C        C  569   3.396   4.506   2.156
    1C        C  570   3.183   4.475   2.281
    1C        C  571   3.321   4.510   2.277
    1C        C  572   3.112   4.455   2.402
    1C        C  573   3.183   4.480   2.521
    1C        C  574   2.985   4.405   2.649
    1C        C  575   3.113   4.465   2.643
    1C        C  576   2.927   4.366   2.772
    1C        C  577   2.991   4.403   2.892
    1C        C  578   2.825   4.273   3.015
    1C        C  579   2.936   4.361   3.015
    1C        C  580   2.775   4.227   3.138
    1C        C  581   2.831   4.273   3.259
    1C        C  582   2.696   4.115   3.383
    1C        C  583   2.786   4.225   3.384
    1C        C  584   2.660   4.058   3.507
    1C        C  585   2.698   4.116   3.630
    1C        C  586   2.593   3.937   3.756
    1C        C  587   2.661   4.061   3.755
    1C        C  588   2.574   3.871   3.879
    1C        C  589   2.606   3.934   4.001
    1C        C  590   2.545   3.735   4.128
    1C        C  591   2.581   3.872   4.125
    1C        C  592   2.528   3.670   4.252
    1C        C  593   2.538   3.743   4.372
    1C        C  594   2.513   3.533   4.498
    1C        C  595   2.524   3.674   4.495
    1C        C  596   2.522   3.462   4.619
    1C        C  597   2.527   3.534   4.740
    1C        C  598   2.531   3.323   4.867
    1C        C  599   2.524   3.464   4.863
    1C        C  600   2.536   3.249   4.985
    1C        C  601   3.193   4.439   2.044
    1C        C  602   2.981   4.390   2.160
    1C        C  603   3.116   4.437   2.161
    1C        C  604   2.918   4.362   2.285
    1C        C  605   2.983   4.398   2.405
    1C        C  606   2.815   4.276   2.529
    1C        C  607   2.921   4.369   2.528
    1C        C  608   2.768   4.221   2.651
    1C        C  609   2.819   4.274   2.771
    1C        C  610   2.688   4.109   2.895
    1C        C  611   2.773   4.222   2.894
    1C        C  612   2.651   4.052   3.019
    1C        C  613   2.688   4.115   3.140
    1C        C  614   2.592   3.927   3.266
    1C        C  615   2.656   4.054   3.263
    1C        C  616   2.572   3.864   3.391
    1C        C  617   2.600   3.930   3.513
    1C        C  618   2.535   3.729   3.636
    1C        C  619   2.573   3.866   3.636
    1C        C  620   2.526   3.662   3.760
    1C        C  621   2.541   3.733   3.881
    1C        C  622   2.514   3.527   4.010
    1C        C  623   2.529   3.667   4.005
    1C        C  624   2.519   3.457   4.133
    1C        C  625   2.517   3.529   4.255
    1C        C  626   2.543   3.320   4.379
    1C        C  627   2.517   3.459   4.378
    1C        C  628   2.561   3.252   4.502
    1C        C  629   2.536   3.321   4.622
    1C        C  630   2.591   3.118   4.746
    1C        C  631   2.545   3.252   4.745
    1C        C  632   2.614   3.046   4.866
    1C        C  633   2.564   3.112   4.983
    1C        C  634   2.780   4.302   2.052
    1C        C  635   2.888   4.390   2.051
    1C        C  636   2.744   4.233   2.169
    1C        C  637   2.803   4.279   2.288
    1C        C  638   2.679   4.106   2.409
    1C        C  639   2.760   4.222   2.410
    1C        C  640   2.641   4.047   2.532
    1C        C  641   2.683   4.108   2.652
    1C        C  642   2.587   3.919   2.775
    1C        C  643   2.647   4.047   2.775
    1C        C  644   2.563   3.856   2.899
    1C        C  645   2.589   3.925   3.020
    1C        C  646   2.532   3.725   3.147
    1C        C  647   2.564   3.862   3.144
    1C        C  648   2.515   3.657   3.270
    1C        C  649   2.531   3.729   3.390
    1C        C  650   2.514   3.520   3.518
    1C        C  651   2.518   3.661   3.514
    1C        C  652   2.522   3.451   3.641
    1C        C  653   2.523   3.521   3.764
    1C        C  654   2.540   3.315   3.892
    1C        C  655   2.520   3.455   3.889
    1C        C  656   2.557   3.246   4.014
    1C        C  657   2.543   3.318   4.134
    1C        C  658   2.609   3.118   4.258
    1C        C  659   2.559   3.250   4.257
    1C        C  660   2.634   3.054   4.382
    1C        C  661   2.603   3.118   4.504
    1C        C  662   2.707   2.935   4.623
    1C        C  663   2.626   3.050   4.626
    1C        C  664   2.747   2.875   4.744
    1C        C  665   2.697   2.929   4.866
    1C        C  666   2.741   2.867   4.983
    1C        C  667   2.678   4.024   2.050
    1C        C  668   2.685   4.105   2.164
    1C        C  669   2.591   3.914   2.288
    1C        C  670   2.648   4.045   2.286
    1C        C  671   2.559   3.849   2.409
    1C        C  672   2.583   3.919   2.530
    1C        C  673   2.522   3.717   2.658
    1C        C  674   2.561   3.853   2.653
    1C        C  675   2.509   3.650   2.782
    1C        C  676   2.527   3.720   2.903
    1C        C  677   2.510   3.511   3.030
    1C        C  678   2.520   3.652   3.027
    1C        C  679   2.513   3.442   3.153
    1C        C  680   2.511   3.515   3.273
    1C        C  681   2.537   3.309   3.401
    1C        C  682   2.511   3.447   3.397
    1C        C  683   2.559   3.242   3.523
    1C        C  684   2.540   3.311   3.646
    1C        C  685   2.604   3.113   3.771
    1C        C  686   2.554   3.245   3.770
    1C        C  687   2.638   3.051   3.893
    1C        C  688   2.604   3.113   4.015
    1C        C  689   2.710   2.929   4.139
    1C        C  690   2.634   3.048   4.137
    1C        C  691   2.750   2.873   4.262
    1C        C  692   2.706   2.933   4.382
    1C        C  693   2.748   2.873   4.503
    1C        C  694   2.631   3.892   2.051
    1C        C  695   2.532   3.706   2.174
    1C        C  696   2.579   3.839   2.170
    1C        C  697   2.511   3.637   2.295
    1C        C  698   2.520   3.713   2.414
    1C        C  699   2.491   3.506   2.543
    1C        C  700   2.503   3.646   2.537
    1C        C  701   2.505   3.436   2.665
    1C        C  702   2.499   3.509   2.786
    1C        C  703   2.529   3.300   2.909
    1C        C  704   2.506   3.439   2.908
    1C        C  705   2.548   3.234   3.033
    1C        C  706   2.534   3.302   3.156
    1C        C  707   2.596   3.102   3.278
    1C        C  708   2.554   3.237   3.280
    1C        C  709   2.629   3.043   3.402
    1C        C  710   2.608   3.110   3.524
    1C        C  711   2.711   2.930   3.648
    1C        C  712   2.634   3.048   3.649
    1C        C  713   2.755   2.875   3.771
    1C        C  714   2.715   2.933   3.894
    1C        C  715   2.754   2.874   4.016
    1C        C  716   2.449   3.500   2.063
    1C        C  717   2.496   3.632   2.060
    1C        C  718   2.470   3.422   2.181
    1C        C  719   2.492   3.496   2.300
    1C        C  720   2.511   3.290   2.425
    1C        C  721   2.490   3.430   2.424
    1C        C  722   2.537   3.222   2.546
    1C        C  723   2.533   3.297   2.665
    1C        C  724   2.590   3.095   2.791
    1C        C  725   2.543   3.228   2.788
    1C        C  726   2.617   3.031   2.914
    1C        C  727   2.594   3.101   3.035
    1C        C  728   2.705   2.919   3.157
    1C        C  729   2.628   3.037   3.157
    1C        C  730   2.747   2.866   3.281
    1C        C  731   2.707   2.925   3.403
    1C        C  732   2.750   2.871   3.526
    1C        C  733   2.486   3.195   2.070
    1C        C  734   2.489   3.280   2.181
    1C        C  735   2.578   3.086   2.305
    1C        C  736   2.523   3.217   2.304
    1C        C  737   2.611   3.020   2.426
    1C        C  738   2.585   3.089   2.546
    1C        C  739   2.692   2.908   2.669
    1C        C  740   2.622   3.031   2.669
    1C        C  741   2.739   2.854   2.791
    1C        C  742   2.701   2.917   2.912
    1C        C  743   2.748   2.864   3.034
    1C        C  744   2.548   3.071   2.073
    1C        C  745   2.688   2.901   2.184
    1C        C  746   2.617   3.022   2.185
    1C        C  747   2.728   2.841   2.306
    1C        C  748   2.691   2.903   2.427
    1C        C  749   2.734   2.847   2.549
    1C        C  750   2.735   2.838   2.069
    1C        C  751   3.678   2.340   1.960
    1C        O  752   3.711   2.219   1.965
    1C        O  753   3.659   2.379   1.827
    1C        C  754   4.634   3.049   1.990
    1C        O  755   4.608   2.992   1.881
    1C        O  756   4.771   3.046   2.023
    1C        C  757   4.446   4.222   1.962
    1C        O  758   4.531   4.299   2.015
    1C        O  759   4.413   4.266   1.833
    1C        C  760   3.579   4.666   1.949
    1C        O  761   3.630   4.781   1.956
    1C        O  762   3.554   4.634   1.815
    1C        C  763   2.882   4.501   1.953
    1C        O  764   2.909   4.479   1.832
    1C        O  765   2.822   4.623   1.989
    1C        C  766   2.336   3.479   1.969
    1C        O  767   2.341   3.504   1.846
    1C        O  768   2.203   3.491   2.011
    1C        C  769   4.701   3.592   5.041
    1C        O  770   4.712   3.537   5.154
    1C        O  771   4.821   3.655   5.005
    1C        C  772   4.270   4.454   5.040
    1C        O  773   4.300   4.395   5.147
    1C        O  774   4.317   4.586   5.026
    1C        C  775   4.153   2.516   5.066
    1C        O  776   4.165   2.390   5.073
    1C        O  777   4.169   2.567   5.195
    1C        C  778   2.883   4.543   5.048
    1C        O  779   2.868   4.659   4.999
    1C        O  780   2.851   4.522   5.182
    1C        C  781   2.500   3.033   5.092
    1C        O  782   2.399   2.962   5.067
    1C        O  783   2.502   3.081   5.222
    1C        C  784   2.437   3.968   5.076
    1C        O  785   2.312   3.954   5.070
    1C        O  786   2.489   4.005   5.201
    1C        C  787   2.948   2.418   2.011
    1C        O  788   2.935   2.416   1.886
    1C        O  789   2.896   2.309   2.081
    1C        C  790   3.182   2.368   5.059
    1C        O  791   3.079   2.297   5.065
    1C        O  792   3.248   2.371   5.183
    1C        H  793   4.280   3.021   5.063
    1C        H  794   4.181   2.800   5.068
    1C        H  795   4.492   3.122   5.058
    1C        H  796   4.575   3.343   5.055
    1C        H  797   4.594   3.813   5.030
    1C        H  798   4.399   3.966   5.056
    1C        H  799   4.300   4.176   5.052
    1C        H  800   4.049   4.558   5.014
    1C        H  801   3.820   4.616   5.031
    1C        H  802   3.589   4.643   5.038
    1C        H  803   3.383   4.548   5.052
    1C        H  804   3.180   4.431   5.041
    1C        H  805   3.891   2.480   5.065
    1C        H  806   3.671   2.498   5.078
    1C        H  807   2.993   2.538   5.053
    1C        H  808   3.437   2.474   5.076
    1C        H  809   2.885   2.754   5.082
    1C        H  810   2.748   2.929   5.071
    1C        H  811   2.548   3.297   5.080
    1C        H  812   2.476   3.499   5.061
    1C        H  813   2.555   3.732   5.067
    1C        H  814   2.565   4.185   5.029
    1C        H  815   2.795   4.282   5.053
    1C        H  816   2.733   2.889   1.975
    1C        H  817   2.824   2.674   1.976
    1C        H  818   3.202   2.393   2.012
    1C        H  819   3.421   2.422   1.987
    1C        H  820   3.868   2.499   1.974
    1C        H  821   4.024   2.681   1.977
    1C        H  822   4.254   2.719   1.972
    1C        H  823   4.411   2.891   1.973
    1C        H  824   4.552   3.306   1.962
    1C        H  825   4.477   3.513   1.963
    1C        H  826   4.470   3.746   1.957
    1C        H  827   3.797   4.513   1.945
    1C        H  828   3.945   4.339   1.948
    1C        H  829   4.178   4.274   1.944
    1C        H  830   4.505   3.973   1.967
    1C        H  831   2.668   3.823   1.978
    1C        H  832   2.744   4.048   1.969
    1C        H  833   2.706   4.302   1.974
    1C        H  834   3.378   4.453   1.947
    1C        H  835   3.147   4.397   1.957
    1C        H  836   2.494   3.000   2.014
    1C        H  837   2.397   3.193   2.011
    1C        H  838   2.514   3.672   1.963
    2V3OU   H29  839   2.804   3.548   6.179
    2V3OU   C27  840   2.781   3.499   6.277
    2V3OU   H27  841   2.718   3.569   6.338
    2V3OU   H28  842   2.730   3.402   6.254
    2V3OU   O11  843   2.907   3.477   6.341
    2V3OU   C15  844   2.920   3.390   6.447
    2V3OU   C13  845   3.051   3.376   6.495
    2V3OU   C14  846   3.072   3.271   6.586
    2V3OU   C16  847   2.970   3.192   6.639
    2V3OU    H6  848   2.992   3.106   6.705
    2V3OU   C12  849   3.210   3.228   6.616
    2V3OU    O2  850   3.236   3.129   6.688
    2V3OU   C10  851   3.323   3.306   6.565
    2V3OU    C8  852   3.455   3.270   6.588
    2V3OU   O10  853   3.492   3.155   6.650
    2V3OU   H26  854   3.410   3.116   6.683
    2V3OU    C6  855   3.565   3.351   6.545
    2V3OU    C5  856   3.537   3.470   6.478
    2V3OU    C4  857   3.703   3.296   6.536
    2V3OU    H4  858   3.725   3.227   6.623
    2V3OU    H5  859   3.708   3.231   6.444
    2V3OU    C2  860   3.818   3.397   6.538
    2V3OU    O6  861   3.806   3.476   6.656
    2V3OU   H21  862   3.765   3.560   6.632
    2V3OU    C3  863   3.780   3.500   6.431
    2V3OU    H2  864   3.860   3.576   6.415
    2V3OU    H3  865   3.782   3.439   6.337
    2V3OU   C25  866   3.954   3.332   6.513
    2V3OU    O7  867   3.997   3.297   6.403
    2V3OU   C26  868   4.030   3.293   6.638
    2V3OU   H22  869   4.064   3.377   6.703
    2V3OU   H23  870   4.114   3.223   6.612
    2V3OU    O8  871   3.955   3.206   6.720
    2V3OU   H24  872   3.921   3.259   6.794
    2V3OU    C1  873   3.645   3.568   6.445
    2V3OU    H1  874   3.622   3.619   6.347
    2V3OU    O3  875   3.666   3.660   6.553
    2V3OU   C19  876   3.621   3.793   6.527
    2V3OU    H9  877   3.517   3.809   6.485
    2V3OU    O4  878   3.717   3.857   6.445
    2V3OU   C20  879   3.849   3.875   6.496
    2V3OU   H10  880   3.896   3.772   6.508
    2V3OU   C24  881   3.610   3.855   6.666
    2V3OU   H16  882   3.543   3.787   6.725
    2V3OU   H17  883   3.563   3.956   6.655
    2V3OU   C23  884   3.749   3.876   6.726
    2V3OU   H15  885   3.793   3.773   6.747
    2V3OU    N1  886   3.736   3.954   6.848
    2V3OU   H19  887   3.805   3.931   6.917
    2V3OU   H20  888   3.646   3.937   6.889
    2V3OU   C21  889   3.847   3.950   6.629
    2V3OU   H11  890   3.950   3.923   6.664
    2V3OU    O5  891   3.824   4.090   6.642
    2V3OU   H18  892   3.782   4.103   6.729
    2V3OU   C22  893   3.917   3.955   6.386
    2V3OU   H12  894   3.861   4.050   6.367
    2V3OU   H13  895   3.908   3.901   6.288
    2V3OU   H14  896   4.026   3.963   6.407
    2V3OU   C11  897   3.159   3.472   6.468
    2V3OU    O1  898   3.135   3.582   6.413
    2V3OU    C9  899   3.297   3.422   6.487
    2V3OU    C7  900   3.402   3.504   6.447
    2V3OU    O9  901   3.384   3.620   6.375
    2V3OU   H25  902   3.292   3.628   6.346
    2V3OU   C17  903   2.817   3.315   6.508
    2V3OU    H7  904   2.715   3.343   6.483
    2V3OU   C18  905   2.839   3.213   6.600
    2V3OU    H8  906   2.753   3.153   6.633
    3SOL     OW  907   2.919   3.791   4.985
    3SOL    HW1  908   2.836   3.799   4.930
    3SOL    HW2  909   2.993   3.844   4.942
    4SOL     OW  910   0.805   0.272   0.668
    4SOL    HW1  911   0.803   0.175   0.645
    4SOL    HW2  912   0.899   0.300   0.687
    5SOL     OW  913   4.030   1.791   0.953
    5SOL    HW1  914   4.128   1.814   0.951
    5SOL    HW2  915   4.002   1.757   0.863
    6SOL     OW  916   3.673   1.661   2.613
    6SOL    HW1  917   3.766   1.636   2.589
    6SOL    HW2  918   3.609   1.595   2.573
    7SOL     OW  919   2.285   2.814   4.861
    7SOL    HW1  920   2.194   2.776   4.880
    7SOL    HW2  921   2.307   2.884   4.929
    8SOL     OW  922   1.482   1.927   6.225
    8SOL    HW1  923   1.416   1.896   6.157
    8SOL    HW2  924   1.454   2.017   6.259
    9SOL     OW  925   2.027   2.119   5.918
    9SOL    HW1  926   2.070   2.187   5.976
    9SOL    HW2  927   2.025   2.031   5.966
   10SOL     OW  928   5.624   5.315   1.047
   10SOL    HW1  929   5.623   5.414   1.037
   10SOL    HW2  930   5.718   5.281   1.037
   11SOL     OW  931   3.719   1.630   0.299
   11SOL    HW1  932   3.664   1.559   0.343
   11SOL    HW2  933   3.710   1.715   0.351
   12SOL     OW  934   5.582   4.521   1.076
   12SOL    HW1  935   5.566   4.496   1.171
   12SOL    HW2  936   5.495   4.522   1.026
   13SOL     OW  937   4.630   5.521   1.685
   13SOL    HW1  938   4.673   5.611   1.692
   13SOL    HW2  939   4.530   5.532   1.684
   14SOL     OW  940   4.190   5.562   1.276
   14SOL    HW1  941   4.147   5.499   1.212
   14SOL    HW2  942   4.152   5.654   1.262
   15SOL     OW  943   0.826   6.984   6.756
   15SOL    HW1  944   0.853   6.983   6.660
   15SOL    HW2  945   0.897   0.007   6.810
   16SOL     OW  946   1.991   5.374   5.557
   16SOL    HW1  947   1.916   5.309   5.563
   16SOL    HW2  948   2.034   5.368   5.466
   17SOL     OW  949   0.061   1.898   3.991
   17SOL    HW1  950   0.134   1.925   3.928
   17SOL    HW2  951   7.001   1.879   3.938
   18SOL     OW  952   2.603   0.532   5.677
   18SOL    HW1  953   2.538   0.604   5.653
   18SOL    HW2  954   2.611   0.526   5.776
   19SOL     OW  955   3.840   5.726   3.205
   19SOL    HW1  956   3.764   5.785   3.178
   19SOL    HW2  957   3.881   5.762   3.289
   20SOL     OW  958   0.098   1.808   5.073
   20SOL    HW1  959   0.063   1.840   4.985
   20SOL    HW2  960   0.166   1.872   5.107
   21SOL     OW  961   1.258   3.259   1.865
   21SOL    HW1  962   1.226   3.330   1.928
   21SOL    HW2  963   1.290   3.180   1.918
   22SOL     OW  964   0.553   1.147   0.144
   22SOL    HW1  965   0.482   1.127   0.213
   22SOL    HW2  966   0.564   1.246   0.135
   23SOL     OW  967   0.161   5.103   0.284
   23SOL    HW1  968   0.185   5.090   0.380
   23SOL    HW2  969   0.140   5.199   0.267
   24SOL     OW  970   5.153   0.657   0.443
   24SOL    HW1  971   5.073   0.610   0.406
   24SOL    HW2  972   5.137   0.756   0.443
   25SOL     OW  973   0.978   0.993   4.986
   25SOL    HW1  974   1.071   1.027   4.976
   25SOL    HW2  975   0.913   1.068   4.976
   26SOL     OW  976   1.929   6.661   5.821
   26SOL    HW1  977   2.027   6.669   5.803
   26SOL    HW2  978   1.904   6.719   5.898
   27SOL     OW  979   7.020   6.738   2.440
   27SOL    HW1  980   0.073   6.759   2.378
   27SOL    HW2  981   6.938   6.721   2.386
   28SOL     OW  982   1.668   0.610   5.114
   28SOL    HW1  983   1.659   0.513   5.095
   28SOL    HW2  984   1.713   0.623   5.203
   29SOL     OW  985   5.622   1.038   1.336
   29SOL    HW1  986   5.530   1.068   1.361
   29SOL    HW2  987   5.677   1.027   1.419
   30SOL     OW  988   4.625   6.914   4.475
   30SOL    HW1  989   4.714   6.885   4.509
   30SOL    HW2  990   4.555   6.896   4.544
   31SOL     OW  991   6.173   4.652   4.268
   31SOL    HW1  992   6.136   4.698   4.349
   31SOL    HW2  993   6.210   4.721   4.205
   32SOL     OW  994   3.388   1.219   1.143
   32SOL    HW1  995   3.458   1.280   1.107
   32SOL    HW2  996   3.399   1.210   1.242
   33SOL     OW  997   1.835   4.255   5.843
   33SOL    HW1  998   1.850   4.180   5.907
   33SOL    HW2  999   1.922   4.294   5.815
   34SOL     OW 1000   2.381   6.462   5.111
   34SOL    HW1 1001   2.449   6.488   5.043
   34SOL    HW2 1002   2.356   6.541   5.166
   35SOL     OW 1003   1.924   2.883   4.670
   35SOL    HW1 1004   1.879   2.972   4.659
   35SOL    HW2 1005   1.949   2.847   4.580
   36SOL     OW 1006   5.398   1.252   4.339
   36SOL    HW1 1007   5.480   1.246   4.396
   36SOL    HW2 1008   5.361   1.344   4.344
   37SOL     OW 1009   1.667   6.576   4.342
   37SOL    HW1 1010   1.597   6.583   4.413
   37SOL    HW2 1011   1.624   6.575   4.252
   38SOL     OW 1012   1.033   3.727   1.548
   38SOL    HW1 1013   0.994   3.664   1.616
   38SOL    HW2 1014   1.118   3.688   1.511
   39SOL     OW 1015   6.660   5.475   1.515
   39SOL    HW1 1016   6.623   5.391   1.476
   39SOL    HW2 1017   6.649   5.550   1.450
   40SOL     OW 1018   3.915   0.597   6.601
   40SOL    HW1 1019   4.004   0.635   6.575
   40SOL    HW2 1020   3.850   0.671   6.619
   41SOL     OW 1021   6.432   3.462   1.683
   41SOL    HW1 1022   6.394   3.459   1.776
   41SOL    HW2 1023   6.408   3.378   1.635
   42SOL     OW 1024   2.600   3.581   0.630
   42SOL    HW1 1025   2.513   3.616   0.594
   42SOL    HW2 1026   2.629   3.638   0.706
   43SOL     OW 1027   4.916   0.669   3.660
   43SOL    HW1 1028   4.962   0.641   3.576
   43SOL    HW2 1029   4.983   0.675   3.734
   44SOL     OW 1030   6.990   0.642   0.119
   44SOL    HW1 1031   0.049   0.608   0.164
   44SOL    HW2 1032   6.963   0.578   0.047
   45SOL     OW 1033   2.313   3.592   5.517
   45SOL    HW1 1034   2.367   3.628   5.441
   45SOL    HW2 1035   2.361   3.609   5.603
   46SOL     OW 1036   1.309   4.427   4.482
   46SOL    HW1 1037   1.376   4.353   4.490
   46SOL    HW2 1038   1.356   4.513   4.462
   47SOL     OW 1039   6.859   4.198   6.479
   47SOL    HW1 1040   6.868   4.220   6.576
   47SOL    HW2 1041   6.775   4.145   6.465
   48SOL     OW 1042   0.883   4.051   0.213
   48SOL    HW1 1043   0.944   3.975   0.192
   48SOL    HW2 1044   0.933   4.120   0.266
   49SOL     OW 1045   2.910   1.110   7.003
   49SOL    HW1 1046   2.832   1.129   6.944
   49SOL    HW2 1047   2.984   1.068   6.949
   50SOL     OW 1048   4.853   1.927   5.713
   50SOL    HW1 1049   4.943   1.966   5.693
   50SOL    HW2 1050   4.862   1.858   5.785
   51SOL     OW 1051   1.686   6.390   2.267
   51SOL    HW1 1052   1.702   6.313   2.205
   51SOL    HW2 1053   1.737   6.376   2.352
   52SOL     OW 1054   5.556   3.066   2.795
   52SOL    HW1 1055   5.586   3.149   2.747
   52SOL    HW2 1056   5.635   3.022   2.838
   53SOL     OW 1057   4.424   0.274   0.809
   53SOL    HW1 1058   4.476   0.343   0.860
   53SOL    HW2 1059   4.480   0.192   0.797
   54SOL     OW 1060   0.464   1.517   5.990
   54SOL    HW1 1061   0.561   1.509   6.015
   54SOL    HW2 1062   0.439   1.444   5.928
   55SOL     OW 1063   2.052   3.247   6.605
   55SOL    HW1 1064   1.977   3.272   6.667
   55SOL    HW2 1065   2.025   3.266   6.511
   56SOL     OW 1066   1.139   2.009   6.611
   56SOL    HW1 1067   1.235   1.998   6.637
   56SOL    HW2 1068   1.108   2.101   6.636
   57SOL     OW 1069   3.909   5.461   1.453
   57SOL    HW1 1070   3.957   5.547   1.433
   57SOL    HW2 1071   3.872   5.464   1.545
   58SOL     OW 1072   0.575   1.101   6.870
   58SOL    HW1 1073   0.550   1.025   6.930
   58SOL    HW2 1074   0.607   1.178   6.925
   59SOL     OW 1075   3.951   2.893   6.971
   59SOL    HW1 1076   4.033   2.892   6.914
   59SOL    HW2 1077   3.902   2.979   6.958
   60SOL     OW 1078   6.134   2.660   2.718
   60SOL    HW1 1079   6.170   2.570   2.742
   60SOL    HW2 1080   6.095   2.703   2.799
   61SOL     OW 1081   1.920   5.306   2.758
   61SOL    HW1 1082   1.847   5.239   2.775
   61SOL    HW2 1083   1.880   5.394   2.735
   62SOL     OW 1084   4.768   2.948   3.204
   62SOL    HW1 1085   4.781   2.948   3.303
   62SOL    HW2 1086   4.673   2.924   3.183
   63SOL     OW 1087   3.770   6.875   6.302
   63SOL    HW1 1088   3.752   6.780   6.324
   63SOL    HW2 1089   3.712   6.904   6.226
   64SOL     OW 1090   2.083   2.031   6.861
   64SOL    HW1 1091   2.087   2.102   6.791
   64SOL    HW2 1092   2.029   2.063   6.939
   65SOL     OW 1093   0.785   5.286   5.092
   65SOL    HW1 1094   0.800   5.385   5.098
   65SOL    HW2 1095   0.840   5.248   5.018
   66SOL     OW 1096   4.112   1.247   1.371
   66SOL    HW1 1097   4.026   1.224   1.416
   66SOL    HW2 1098   4.108   1.220   1.275
   67SOL     OW 1099   0.077   3.185   2.032
   67SOL    HW1 1100   0.057   3.266   2.087
   67SOL    HW2 1101   0.044   3.200   1.939
   68SOL     OW 1102   0.932   1.085   6.167
   68SOL    HW1 1103   0.861   1.015   6.159
   68SOL    HW2 1104   0.915   1.158   6.101
   69SOL     OW 1105   1.747   0.313   6.219
   69SOL    HW1 1106   1.736   0.401   6.266
   69SOL    HW2 1107   1.808   0.324   6.141
   70SOL     OW 1108   4.752   4.970   3.467
   70SOL    HW1 1109   4.657   4.943   3.479
   70SOL    HW2 1110   4.793   4.917   3.393
   71SOL     OW 1111   5.289   0.474   5.156
   71SOL    HW1 1112   5.351   0.407   5.116
   71SOL    HW2 1113   5.214   0.491   5.092
   72SOL     OW 1114   6.453   1.364   2.666
   72SOL    HW1 1115   6.447   1.414   2.753
   72SOL    HW2 1116   6.542   1.317   2.662
   73SOL     OW 1117   3.042   0.990   0.840
   73SOL    HW1 1118   2.984   0.936   0.902
   73SOL    HW2 1119   2.992   1.010   0.756
   74SOL     OW 1120   2.632   0.663   0.496
   74SOL    HW1 1121   2.716   0.673   0.550
   74SOL    HW2 1122   2.655   0.650   0.400
   75SOL     OW 1123   2.539   2.725   1.594
   75SOL    HW1 1124   2.482   2.714   1.513
   75SOL    HW2 1125   2.613   2.657   1.591
   76SOL     OW 1126   3.188   5.198   6.583
   76SOL    HW1 1127   3.109   5.154   6.540
   76SOL    HW2 1128   3.250   5.128   6.618
   77SOL     OW 1129   0.068   4.870   4.864
   77SOL    HW1 1130   0.087   4.824   4.777
   77SOL    HW2 1131   0.142   4.933   4.886
   78SOL     OW 1132   5.209   1.335   1.505
   78SOL    HW1 1133   5.189   1.305   1.412
   78SOL    HW2 1134   5.300   1.304   1.531
   79SOL     OW 1135   1.924   4.074   3.881
   79SOL    HW1 1136   1.887   4.153   3.929
   79SOL    HW2 1137   1.953   4.005   3.948
   80SOL     OW 1138   3.890   2.372   5.342
   80SOL    HW1 1139   3.847   2.443   5.397
   80SOL    HW2 1140   3.823   2.301   5.320
   81SOL     OW 1141   2.952   4.787   3.427
   81SOL    HW1 1142   2.924   4.863   3.484
   81SOL    HW2 1143   2.891   4.709   3.442
   82SOL     OW 1144   2.786   0.676   1.355
   82SOL    HW1 1145   2.884   0.685   1.374
   82SOL    HW2 1146   2.739   0.645   1.437
   83SOL     OW 1147   5.652   2.200   3.700
   83SOL    HW1 1148   5.688   2.109   3.722
   83SOL    HW2 1149   5.596   2.233   3.775
   84SOL     OW 1150   5.269   2.441   2.774
   84SOL    HW1 1151   5.171   2.429   2.790
   84SOL    HW2 1152   5.293   2.405   2.684
   85SOL     OW 1153   2.592   5.417   3.488
   85SOL    HW1 1154   2.681   5.373   3.478
   85SOL    HW2 1155   2.605   5.509   3.527
   86SOL     OW 1156   4.774   0.771   6.971
   86SOL    HW1 1157   4.832   0.697   6.936
   86SOL    HW2 1158   4.820   0.814   0.026
   87SOL     OW 1159   2.916   2.804   6.468
   87SOL    HW1 1160   2.878   2.800   6.560
   87SOL    HW2 1161   3.007   2.847   6.471
   88SOL     OW 1162   1.565   2.151   1.173
   88SOL    HW1 1163   1.472   2.118   1.155
   88SOL    HW2 1164   1.601   2.106   1.254
   89SOL     OW 1165   4.206   3.440   5.013
   89SOL    HW1 1166   4.245   3.419   5.104
   89SOL    HW2 1167   4.245   3.377   4.946
   90SOL     OW 1168   6.663   3.907   2.150
   90SOL    HW1 1169   6.593   3.836   2.139
   90SOL    HW2 1170   6.744   3.867   2.192
   91SOL     OW 1171   4.999   5.240   0.216
   91SOL    HW1 1172   4.994   5.195   0.305
   91SOL    HW2 1173   4.920   5.300   0.204
   92SOL     OW 1174   5.757   5.957   6.753
   92SOL    HW1 1175   5.752   6.052   6.784
   92SOL    HW2 1176   5.801   5.901   6.823
   93SOL     OW 1177   2.894   3.736   1.717
   93SOL    HW1 1178   2.797   3.760   1.713
   93SOL    HW2 1179   2.918   3.680   1.637
   94SOL     OW 1180   3.436   1.287   4.612
   94SOL    HW1 1181   3.347   1.245   4.627
   94SOL    HW2 1182   3.427   1.366   4.550
   95SOL     OW 1183   1.060   6.564   4.645
   95SOL    HW1 1184   1.092   6.589   4.736
   95SOL    HW2 1185   1.114   6.487   4.611
   96SOL     OW 1186   6.902   6.420   6.800
   96SOL    HW1 1187   6.916   6.331   6.758
   96SOL    HW2 1188   6.963   6.487   6.758
   97SOL     OW 1189   3.755   5.378   4.694
   97SOL    HW1 1190   3.852   5.356   4.704
   97SOL    HW2 1191   3.727   5.359   4.600
   98SOL     OW 1192   0.378   2.535   4.750
   98SOL    HW1 1193   0.375   2.457   4.813
   98SOL    HW2 1194   0.419   2.613   4.797
   99SOL     OW 1195   4.530   4.423   4.706
   99SOL    HW1 1196   4.505   4.481   4.783
   99SOL    HW2 1197   4.495   4.462   4.621
  100SOL     OW 1198   1.682   1.802   4.993
  100SOL    HW1 1199   1.695   1.819   4.895
  100SOL    HW2 1200   1.763   1.757   5.030
  101SOL     OW 1201   5.138   2.983   2.799
  101SOL    HW1 1202   5.131   2.988   2.699
  101SOL    HW2 1203   5.076   2.913   2.834
  102SOL     OW 1204   4.402   6.300   0.757
  102SOL    HW1 1205   4.334   6.374   0.756
  102SOL    HW2 1206   4.462   6.311   0.836
  103SOL     OW 1207   1.952   2.169   1.191
  103SOL    HW1 1208   2.016   2.244   1.172
  103SOL    HW2 1209   1.906   2.141   1.107
  104SOL     OW 1210   0.599   4.076   1.412
  104SOL    HW1 1211   0.608   4.157   1.470
  104SOL    HW2 1212   0.660   4.084   1.334
  105SOL     OW 1213   6.578   2.231   4.949
  105SOL    HW1 1214   6.675   2.218   4.930
  105SOL    HW2 1215   6.552   2.178   5.030
  106SOL     OW 1216   4.595   3.616   1.654
  106SOL    HW1 1217   4.532   3.668   1.598
  106SOL    HW2 1218   4.689   3.637   1.627
  107SOL     OW 1219   4.369   0.536   2.028
  107SOL    HW1 1220   4.466   0.515   2.034
  107SOL    HW2 1221   4.356   0.616   1.969
  108SOL     OW 1222   3.395   1.419   5.062
  108SOL    HW1 1223   3.372   1.416   5.159
  108SOL    HW2 1224   3.420   1.513   5.037
  109SOL     OW 1225   2.248   1.627   5.135
  109SOL    HW1 1226   2.187   1.573   5.076
  109SOL    HW2 1227   2.313   1.677   5.078
  110SOL     OW 1228   4.145   4.609   5.344
  110SOL    HW1 1229   4.173   4.513   5.351
  110SOL    HW2 1230   4.116   4.641   5.434
  111SOL     OW 1231   6.681   3.381   1.108
  111SOL    HW1 1232   6.602   3.329   1.141
  111SOL    HW2 1233   6.760   3.360   1.165
  112SOL     OW 1234   4.084   6.620   4.894
  112SOL    HW1 1235   4.139   6.695   4.932
  112SOL    HW2 1236   3.987   6.636   4.913
  113SOL     OW 1237   1.553   5.141   2.495
  113SOL    HW1 1238   1.561   5.087   2.411
  113SOL    HW2 1239   1.585   5.234   2.478
  114SOL     OW 1240   6.904   2.142   1.644
  114SOL    HW1 1241   6.917   2.054   1.690
  114SOL    HW2 1242   6.905   2.215   1.712
  115SOL     OW 1243   4.192   1.368   2.949
  115SOL    HW1 1244   4.249   1.317   3.014
  115SOL    HW2 1245   4.181   1.314   2.865
  116SOL     OW 1246   5.742   5.837   0.061
  116SOL    HW1 1247   5.825   5.830   0.006
  116SOL    HW2 1248   5.704   5.929   0.052
  117SOL     OW 1249   2.422   1.277   0.550
  117SOL    HW1 1250   2.481   1.203   0.517
  117SOL    HW2 1251   2.334   1.240   0.578
  118SOL     OW 1252   1.096   2.185   1.993
  118SOL    HW1 1253   1.066   2.214   2.084
  118SOL    HW2 1254   1.067   2.252   1.925
  119SOL     OW 1255   5.356   5.261   5.249
  119SOL    HW1 1256   5.382   5.297   5.159
  119SOL    HW2 1257   5.314   5.334   5.303
  120SOL     OW 1258   4.607   1.869   4.526
  120SOL    HW1 1259   4.602   1.940   4.596
  120SOL    HW2 1260   4.702   1.842   4.512
  121SOL     OW 1261   0.216   4.992   6.002
  121SOL    HW1 1262   0.179   5.022   6.090
  121SOL    HW2 1263   0.316   4.998   6.004
  122SOL     OW 1264   0.401   4.339   5.998
  122SOL    HW1 1265   0.496   4.324   6.024
  122SOL    HW2 1266   0.346   4.358   6.079
  123SOL     OW 1267   0.804   2.760   1.044
  123SOL    HW1 1268   0.892   2.737   1.086
  123SOL    HW2 1269   0.740   2.684   1.055
  124SOL     OW 1270   2.107   3.733   0.193
  124SOL    HW1 1271   2.068   3.779   0.113
  124SOL    HW2 1272   2.169   3.660   0.162
  125SOL     OW 1273   4.112   2.694   0.207
  125SOL    HW1 1274   4.019   2.714   0.177
  125SOL    HW2 1275   4.155   2.777   0.243
  126SOL     OW 1276   3.652   3.207   5.129
  126SOL    HW1 1277   3.709   3.147   5.073
  126SOL    HW2 1278   3.626   3.159   5.213
  127SOL     OW 1279   0.511   4.528   5.836
  127SOL    HW1 1280   0.451   4.539   5.756
  127SOL    HW2 1281   0.469   4.464   5.900
  128SOL     OW 1282   4.769   4.292   5.850
  128SOL    HW1 1283   4.746   4.380   5.891
  128SOL    HW2 1284   4.851   4.302   5.793
  129SOL     OW 1285   1.277   5.787   1.975
  129SOL    HW1 1286   1.316   5.700   2.005
  129SOL    HW2 1287   1.321   5.815   1.890
  130SOL     OW 1288   6.627   3.238   4.739
  130SOL    HW1 1289   6.598   3.324   4.781
  130SOL    HW2 1290   6.632   3.250   4.640
  131SOL     OW 1291   0.535   3.592   2.586
  131SOL    HW1 1292   0.573   3.520   2.529
  131SOL    HW2 1293   0.435   3.592   2.578
  132SOL     OW 1294   4.154   3.153   1.951
  132SOL    HW1 1295   4.114   3.078   1.899
  132SOL    HW2 1296   4.252   3.137   1.965
  133SOL     OW 1297   4.030   4.369   5.524
  133SOL    HW1 1298   4.077   4.424   5.592
  133SOL    HW2 1299   4.097   4.328   5.462
  134SOL     OW 1300   6.749   1.774   6.851
  134SOL    HW1 1301   6.827   1.762   6.912
  134SOL    HW2 1302   6.676   1.823   6.899
  135SOL     OW 1303   4.799   5.474   3.895
  135SOL    HW1 1304   4.777   5.416   3.974
  135SOL    HW2 1305   4.737   5.552   3.892
  136SOL     OW 1306   3.836   6.074   6.013
  136SOL    HW1 1307   3.751   6.127   6.016
  136SOL    HW2 1308   3.818   5.980   6.042
  137SOL     OW 1309   2.107   4.429   0.513
  137SOL    HW1 1310   2.202   4.426   0.483
  137SOL    HW2 1311   2.070   4.336   0.518
  138SOL     OW 1312   0.868   5.183   1.102
  138SOL    HW1 1313   0.932   5.110   1.126
  138SOL    HW2 1314   0.776   5.159   1.134
  139SOL     OW 1315   0.777   0.590   1.300
  139SOL    HW1 1316   0.797   0.552   1.210
  139SOL    HW2 1317   0.862   0.609   1.349
  140SOL     OW 1318   2.394   6.975   1.838
  140SOL    HW1 1319   2.312   6.918   1.841
  140SOL    HW2 1320   2.393   0.015   1.915
  141SOL     OW 1321   2.155   1.768   6.981
  141SOL    HW1 1322   2.105   1.850   6.954
  141SOL    HW2 1323   2.253   1.784   6.970
  142SOL     OW 1324   2.023   4.077   6.265
  142SOL    HW1 1325   2.006   4.169   6.301
  142SOL    HW2 1326   2.080   4.027   6.330
  143SOL     OW 1327   5.770   5.929   2.125
  143SOL    HW1 1328   5.840   5.990   2.086
  143SOL    HW2 1329   5.759   5.850   2.065
  144SOL     OW 1330   1.986   5.223   3.104
  144SOL    HW1 1331   2.037   5.139   3.085
  144SOL    HW2 1332   1.913   5.205   3.169
  145SOL     OW 1333   6.647   6.113   3.056
  145SOL    HW1 1334   6.662   6.018   3.031
  145SOL    HW2 1335   6.645   6.170   2.974
  146SOL     OW 1336   6.814   0.716   4.882
  146SOL    HW1 1337   6.857   0.657   4.951
  146SOL    HW2 1338   6.753   0.781   4.928
  147SOL     OW 1339   5.864   0.074   4.787
  147SOL    HW1 1340   5.936   0.109   4.728
  147SOL    HW2 1341   5.879   0.107   4.880
  148SOL     OW 1342   1.537   6.660   2.736
  148SOL    HW1 1343   1.513   6.723   2.663
  148SOL    HW2 1344   1.459   6.649   2.798
  149SOL     OW 1345   1.922   1.959   5.327
  149SOL    HW1 1346   1.997   1.933   5.386
  149SOL    HW2 1347   1.944   2.046   5.281
  150SOL     OW 1348   5.303   2.851   4.764
  150SOL    HW1 1349   5.377   2.918   4.752
  150SOL    HW2 1350   5.262   2.863   4.854
  151SOL     OW 1351   5.507   3.011   1.670
  151SOL    HW1 1352   5.561   3.096   1.669
  151SOL    HW2 1353   5.470   2.997   1.762
  152SOL     OW 1354   6.846   2.676   0.558
  152SOL    HW1 1355   6.807   2.668   0.466
  152SOL    HW2 1356   6.945   2.692   0.550
  153SOL     OW 1357   2.284   1.778   4.099
  153SOL    HW1 1358   2.294   1.805   4.003
  153SOL    HW2 1359   2.282   1.860   4.156
  154SOL     OW 1360   0.245   0.871   4.019
  154SOL    HW1 1361   0.146   0.870   4.038
  154SOL    HW2 1362   0.267   0.800   3.953
  155SOL     OW 1363   5.906   5.172   3.337
  155SOL    HW1 1364   5.949   5.134   3.255
  155SOL    HW2 1365   5.967   5.159   3.415
  156SOL     OW 1366   4.297   0.535   1.051
  156SOL    HW1 1367   4.334   0.554   1.142
  156SOL    HW2 1368   4.217   0.592   1.036
  157SOL     OW 1369   5.412   0.220   0.841
  157SOL    HW1 1370   5.358   0.188   0.763
  157SOL    HW2 1371   5.388   0.166   0.922
  158SOL     OW 1372   1.337   2.419   5.508
  158SOL    HW1 1373   1.294   2.454   5.591
  158SOL    HW2 1374   1.278   2.350   5.466
  159SOL     OW 1375   7.012   4.727   6.707
  159SOL    HW1 1376   7.009   4.703   6.610
  159SOL    HW2 1377   0.041   4.812   6.718
  160SOL     OW 1378   4.041   0.263   1.788
  160SOL    HW1 1379   3.962   0.319   1.764
  160SOL    HW2 1380   4.084   0.298   1.871
  161SOL     OW 1381   6.261   6.944   0.882
  161SOL    HW1 1382   6.294   6.890   0.960
  161SOL    HW2 1383   6.288   6.900   0.797
  162SOL     OW 1384   4.601   0.284   5.228
  162SOL    HW1 1385   4.596   0.233   5.143
  162SOL    HW2 1386   4.520   0.342   5.237
  163SOL     OW 1387   1.056   3.706   2.956
  163SOL    HW1 1388   0.999   3.640   2.908
  163SOL    HW2 1389   1.012   3.731   3.043
  164SOL     OW 1390   2.124   2.511   2.992
  164SOL    HW1 1391   2.154   2.455   3.069
  164SOL    HW2 1392   2.137   2.461   2.907
  165SOL     OW 1393   0.128   6.192   5.164
  165SOL    HW1 1394   0.059   6.238   5.109
  165SOL    HW2 1395   0.085   6.118   5.217
  166SOL     OW 1396   0.589   5.049   4.154
  166SOL    HW1 1397   0.655   5.105   4.105
  166SOL    HW2 1398   0.634   4.967   4.189
  167SOL     OW 1399   6.859   1.683   3.315
  167SOL    HW1 1400   6.904   1.606   3.270
  167SOL    HW2 1401   6.863   1.763   3.255
  168SOL     OW 1402   3.550   4.038   4.149
  168SOL    HW1 1403   3.562   3.952   4.099
  168SOL    HW2 1404   3.593   4.031   4.238
  169SOL     OW 1405   4.844   2.856   6.165
  169SOL    HW1 1406   4.824   2.762   6.136
  169SOL    HW2 1407   4.769   2.916   6.139
  170SOL     OW 1408   0.061   5.366   2.635
  170SOL    HW1 1409   0.134   5.298   2.646
  170SOL    HW2 1410   0.022   5.360   2.543
  171SOL     OW 1411   3.591   2.702   0.835
  171SOL    HW1 1412   3.689   2.684   0.844
  171SOL    HW2 1413   3.544   2.617   0.813
  172SOL     OW 1414   1.488   1.078   0.169
  172SOL    HW1 1415   1.460   1.028   0.250
  172SOL    HW2 1416   1.413   1.080   0.103
  173SOL     OW 1417   5.876   0.552   4.824
  173SOL    HW1 1418   5.925   0.470   4.852
  173SOL    HW2 1419   5.824   0.588   4.902
  174SOL     OW 1420   6.750   3.854   4.897
  174SOL    HW1 1421   6.652   3.874   4.894
  174SOL    HW2 1422   6.781   3.830   4.805
  175SOL     OW 1423   0.748   5.207   2.715
  175SOL    HW1 1424   0.833   5.183   2.668
  175SOL    HW2 1425   0.716   5.296   2.681
  176SOL     OW 1426   5.977   4.308   0.822
  176SOL    HW1 1427   5.943   4.215   0.837
  176SOL    HW2 1428   5.943   4.368   0.895
  177SOL     OW 1429   5.705   3.089   3.227
  177SOL    HW1 1430   5.803   3.068   3.222
  177SOL    HW2 1431   5.653   3.010   3.195
  178SOL     OW 1432   1.429   5.449   4.852
  178SOL    HW1 1433   1.388   5.540   4.853
  178SOL    HW2 1434   1.469   5.429   4.941
  179SOL     OW 1435   3.604   4.187   2.049
  179SOL    HW1 1436   3.580   4.283   2.067
  179SOL    HW2 1437   3.521   4.137   2.024
  180SOL     OW 1438   4.556   0.873   6.299
  180SOL    HW1 1439   4.559   0.876   6.399
  180SOL    HW2 1440   4.483   0.934   6.267
  181SOL     OW 1441   3.659   0.521   5.478
  181SOL    HW1 1442   3.719   0.529   5.558
  181SOL    HW2 1443   3.584   0.588   5.486
  182SOL     OW 1444   2.938   3.023   5.612
  182SOL    HW1 1445   2.890   2.935   5.615
  182SOL    HW2 1446   2.906   3.075   5.532
  183SOL     OW 1447   2.556   1.170   3.065
  183SOL    HW1 1448   2.501   1.127   2.993
  183SOL    HW2 1449   2.523   1.140   3.154
  184SOL     OW 1450   5.616   6.434   3.470
  184SOL    HW1 1451   5.592   6.369   3.543
  184SOL    HW2 1452   5.660   6.385   3.395
  185SOL     OW 1453   0.431   5.981   5.512
  185SOL    HW1 1454   0.424   5.885   5.484
  185SOL    HW2 1455   0.481   5.986   5.598
  186SOL     OW 1456   3.218   5.623   6.786
  186SOL    HW1 1457   3.227   5.527   6.813
  186SOL    HW2 1458   3.309   5.666   6.784
  187SOL     OW 1459   3.340   5.111   0.507
  187SOL    HW1 1460   3.309   5.026   0.464
  187SOL    HW2 1461   3.377   5.172   0.437
  188SOL     OW 1462   1.826   4.258   4.106
  188SOL    HW1 1463   1.859   4.233   4.197
  188SOL    HW2 1464   1.750   4.198   4.080
  189SOL     OW 1465   6.258   4.297   6.144
  189SOL    HW1 1466   6.199   4.223   6.175
  189SOL    HW2 1467   6.329   4.260   6.085
  190SOL     OW 1468   6.180   6.436   6.916
  190SOL    HW1 1469   6.223   6.457   6.829
  190SOL    HW2 1470   6.209   6.503   6.985
  191SOL     OW 1471   2.101   3.476   6.250
  191SOL    HW1 1472   2.009   3.466   6.287
  191SOL    HW2 1473   2.102   3.446   6.154
  192SOL     OW 1474   0.716   0.063   1.599
  192SOL    HW1 1475   0.656   0.138   1.627
  192SOL    HW2 1476   0.810   0.096   1.592
  193SOL     OW 1477   3.323   6.968   1.458
  193SOL    HW1 1478   3.384   7.013   1.524
  193SOL    HW2 1479   3.362   6.881   1.430
  194SOL     OW 1480   4.268   6.273   2.958
  194SOL    HW1 1481   4.269   6.233   2.866
  194SOL    HW2 1482   4.228   6.208   3.022
  195SOL     OW 1483   3.251   0.930   1.282
  195SOL    HW1 1484   3.299   0.853   1.240
  195SOL    HW2 1485   3.318   0.996   1.318
  196SOL     OW 1486   4.055   2.779   0.906
  196SOL    HW1 1487   4.061   2.875   0.932
  196SOL    HW2 1488   4.110   2.724   0.969
  197SOL     OW 1489   1.049   6.076   1.320
  197SOL    HW1 1490   1.135   6.080   1.269
  197SOL    HW2 1491   0.994   6.156   1.299
  198SOL     OW 1492   6.218   0.160   5.760
  198SOL    HW1 1493   6.145   0.206   5.708
  198SOL    HW2 1494   6.227   0.203   5.850
  199SOL     OW 1495   1.626   1.124   3.133
  199SOL    HW1 1496   1.640   1.137   3.035
  199SOL    HW2 1497   1.543   1.172   3.161
  200SOL     OW 1498   1.546   3.624   3.565
  200SOL    HW1 1499   1.620   3.558   3.551
  200SOL    HW2 1500   1.556   3.667   3.655
  201SOL     OW 1501   5.183   0.777   0.125
  201SOL    HW1 1502   5.241   0.791   0.044
  201SOL    HW2 1503   5.237   0.731   0.196
  202SOL     OW 1504   4.280   0.501   2.784
  202SOL    HW1 1505   4.280   0.493   2.684
  202SOL    HW2 1506   4.361   0.454   2.821
  203SOL     OW 1507   5.986   3.132   0.511
  203SOL    HW1 1508   5.942   3.097   0.428
  203SOL    HW2 1509   5.976   3.065   0.585
  204SOL     OW 1510   2.449   5.935   0.697
  204SOL    HW1 1511   2.446   6.035   0.695
  204SOL    HW2 1512   2.477   5.904   0.788
  205SOL     OW 1513   5.557   0.573   1.242
  205SOL    HW1 1514   5.642   0.619   1.268
  205SOL    HW2 1515   5.574   0.510   1.167
  206SOL     OW 1516   0.238   5.748   0.936
  206SOL    HW1 1517   0.164   5.787   0.991
  206SOL    HW2 1518   0.201   5.703   0.855
  207SOL     OW 1519   6.451   2.548   5.805
  207SOL    HW1 1520   6.448   2.643   5.836
  207SOL    HW2 1521   6.520   2.497   5.856
  208SOL     OW 1522   4.174   3.889   0.839
  208SOL    HW1 1523   4.250   3.941   0.878
  208SOL    HW2 1524   4.121   3.846   0.912
  209SOL     OW 1525   6.683   0.133   4.110
  209SOL    HW1 1526   6.741   0.072   4.163
  209SOL    HW2 1527   6.593   0.092   4.098
  210SOL     OW 1528   4.309   1.637   0.495
  210SOL    HW1 1529   4.401   1.644   0.455
  210SOL    HW2 1530   4.266   1.727   0.495
  211SOL     OW 1531   0.023   3.918   2.721
  211SOL    HW1 1532   0.077   3.958   2.795
  211SOL    HW2 1533   0.008   3.987   2.650
  212SOL     OW 1534   1.849   5.045   5.424
  212SOL    HW1 1535   1.757   5.049   5.385
  212SOL    HW2 1536   1.914   5.082   5.358
  213SOL     OW 1537   4.419   2.771   1.078
  213SOL    HW1 1538   4.433   2.854   1.025
  213SOL    HW2 1539   4.325   2.740   1.068
  214SOL     OW 1540   0.419   6.258   4.066
  214SOL    HW1 1541   0.363   6.181   4.036
  214SOL    HW2 1542   0.508   6.224   4.096
  215SOL     OW 1543   3.741   4.115   3.573
  215SOL    HW1 1544   3.675   4.095   3.501
  215SOL    HW2 1545   3.693   4.139   3.657
  216SOL     OW 1546   3.332   0.076   5.791
  216SOL    HW1 1547   3.308   0.162   5.746
  216SOL    HW2 1548   3.419   0.087   5.838
  217SOL     OW 1549   6.535   2.441   5.418
  217SOL    HW1 1550   6.514   2.468   5.324
  217SOL    HW2 1551   6.629   2.466   5.440
  218SOL     OW 1552   2.892   4.528   5.918
  218SOL    HW1 1553   2.874   4.624   5.939
  218SOL    HW2 1554   2.808   4.475   5.932
  219SOL     OW 1555   3.219   5.815   6.542
  219SOL    HW1 1556   3.180   5.762   6.616
  219SOL    HW2 1557   3.247   5.905   6.577
  220SOL     OW 1558   1.652   4.889   0.237
  220SOL    HW1 1559   1.627   4.802   0.279
  220SOL    HW2 1560   1.671   4.874   0.140
  221SOL     OW 1561   6.295   3.516   4.552
  221SOL    HW1 1562   6.241   3.538   4.634
  221SOL    HW2 1563   6.282   3.419   4.530
  222SOL     OW 1564   1.865   6.925   3.935
  222SOL    HW1 1565   1.939   6.985   3.966
  222SOL    HW2 1566   1.880   6.833   3.972
  223SOL     OW 1567   5.334   5.119   2.509
  223SOL    HW1 1568   5.266   5.147   2.577
  223SOL    HW2 1569   5.416   5.176   2.518
  224SOL     OW 1570   5.101   3.940   2.952
  224SOL    HW1 1571   5.156   4.013   2.912
  224SOL    HW2 1572   5.130   3.924   3.046
  225SOL     OW 1573   4.604   5.823   1.993
  225SOL    HW1 1574   4.679   5.864   2.045
  225SOL    HW2 1575   4.527   5.803   2.054
  226SOL     OW 1576   1.279   5.662   2.597
  226SOL    HW1 1577   1.289   5.720   2.678
  226SOL    HW2 1578   1.270   5.719   2.515
  227SOL     OW 1579   0.823   4.117   3.296
  227SOL    HW1 1580   0.836   4.018   3.295
  227SOL    HW2 1581   0.778   4.146   3.212
  228SOL     OW 1582   3.963   6.040   3.261
  228SOL    HW1 1583   3.896   6.026   3.333
  228SOL    HW2 1584   3.969   5.958   3.204
  229SOL     OW 1585   6.143   5.979   2.400
  229SOL    HW1 1586   6.106   5.912   2.466
  229SOL    HW2 1587   6.126   6.071   2.434
  230SOL     OW 1588   1.294   4.647   5.904
  230SOL    HW1 1589   1.388   4.633   5.936
  230SOL    HW2 1590   1.249   4.715   5.963
  231SOL     OW 1591   0.534   1.786   6.343
  231SOL    HW1 1592   0.559   1.692   6.319
  231SOL    HW2 1593   0.541   1.844   6.262
  232SOL     OW 1594   1.580   3.641   5.860
  232SOL    HW1 1595   1.544   3.629   5.767
  232SOL    HW2 1596   1.575   3.737   5.886
  233SOL     OW 1597   3.474   0.041   0.044
  233SOL    HW1 1598   3.391   0.097   0.055
  233SOL    HW2 1599   3.505   0.047   6.972
  234SOL     OW 1600   1.489   4.757   6.771
  234SOL    HW1 1601   1.555   4.682   6.783
  234SOL    HW2 1602   1.405   4.735   6.820
  235SOL     OW 1603   3.839   3.290   6.106
  235SOL    HW1 1604   3.852   3.200   6.146
  235SOL    HW2 1605   3.918   3.348   6.127
  236SOL     OW 1606   6.978   0.970   5.935
  236SOL    HW1 1607   6.935   1.048   5.888
  236SOL    HW2 1608   7.000   0.996   6.029
  237SOL     OW 1609   6.773   6.683   2.304
  237SOL    HW1 1610   6.827   6.699   2.221
  237SOL    HW2 1611   6.681   6.653   2.278
  238SOL     OW 1612   0.981   2.512   3.321
  238SOL    HW1 1613   0.936   2.565   3.393
  238SOL    HW2 1614   1.007   2.572   3.246
  239SOL     OW 1615   6.223   4.988   0.397
  239SOL    HW1 1616   6.259   4.916   0.338
  239SOL    HW2 1617   6.294   5.057   0.413
  240SOL     OW 1618   0.471   2.042   4.463
  240SOL    HW1 1619   0.457   2.129   4.415
  240SOL    HW2 1620   0.546   2.052   4.529
  241SOL     OW 1621   6.009   2.249   4.938
  241SOL    HW1 1622   6.062   2.189   4.878
  241SOL    HW2 1623   6.019   2.344   4.906
  242SOL     OW 1624   2.848   2.147   3.482
  242SOL    HW1 1625   2.908   2.158   3.561
  242SOL    HW2 1626   2.900   2.110   3.405
  243SOL     OW 1627   4.960   1.314   6.707
  243SOL    HW1 1628   4.865   1.338   6.729
  243SOL    HW2 1629   4.962   1.265   6.620
  244SOL     OW 1630   0.751   1.476   6.064
  244SOL    HW1 1631   0.808   1.558   6.056
  244SOL    HW2 1632   0.775   1.411   5.992
  245SOL     OW 1633   5.578   1.751   3.846
  245SOL    HW1 1634   5.562   1.652   3.848
  245SOL    HW2 1635   5.501   1.796   3.801
  246SOL     OW 1636   5.375   3.580   4.262
  246SOL    HW1 1637   5.417   3.665   4.292
  246SOL    HW2 1638   5.401   3.506   4.324
  247SOL     OW 1639   2.588   0.591   2.848
  247SOL    HW1 1640   2.532   0.533   2.790
  247SOL    HW2 1641   2.568   0.687   2.829
  248SOL     OW 1642   0.184   2.501   3.576
  248SOL    HW1 1643   0.229   2.447   3.505
  248SOL    HW2 1644   0.253   2.540   3.637
  249SOL     OW 1645   2.402   5.669   5.082
  249SOL    HW1 1646   2.396   5.738   5.010
  249SOL    HW2 1647   2.313   5.662   5.128
  250SOL     OW 1648   5.273   2.420   6.831
  250SOL    HW1 1649   5.241   2.505   6.790
  250SOL    HW2 1650   5.235   2.410   6.922
  251SOL     OW 1651   1.657   0.257   1.549
  251SOL    HW1 1652   1.677   0.348   1.512
  251SOL    HW2 1653   1.633   0.195   1.475
  252SOL     OW 1654   6.965   2.453   0.293
  252SOL    HW1 1655   6.920   2.501   0.368
  252SOL    HW2 1656   6.980   2.516   0.217
  253SOL     OW 1657   2.067   4.884   6.028
  253SOL    HW1 1658   1.997   4.935   5.978
  253SOL    HW2 1659   2.157   4.903   5.989
  254SOL     OW 1660   4.743   3.198   6.350
  254SOL    HW1 1661   4.786   3.186   6.260
  254SOL    HW2 1662   4.647   3.223   6.338
  255SOL     OW 1663   4.343   2.379   2.440
  255SOL    HW1 1664   4.287   2.329   2.375
  255SOL    HW2 1665   4.326   2.345   2.533
  256SOL     OW 1666   0.308   6.352   1.276
  256SOL    HW1 1667   0.398   6.309   1.275
  256SOL    HW2 1668   0.257   6.319   1.355
  257SOL     OW 1669   3.089   5.835   6.277
  257SOL    HW1 1670   3.148   5.802   6.350
  257SOL    HW2 1671   3.130   5.813   6.188
  258SOL     OW 1672   4.770   5.268   4.515
  258SOL    HW1 1673   4.744   5.336   4.584
  258SOL    HW2 1674   4.702   5.194   4.515
  259SOL     OW 1675   0.560   1.488   2.209
  259SOL    HW1 1676   0.532   1.564   2.151
  259SOL    HW2 1677   0.659   1.476   2.203
  260SOL     OW 1678   6.729   6.465   5.905
  260SOL    HW1 1679   6.655   6.498   5.847
  260SOL    HW2 1680   6.778   6.391   5.858
  261SOL     OW 1681   0.700   0.953   3.975
  261SOL    HW1 1682   0.629   0.884   3.968
  261SOL    HW2 1683   0.738   0.953   4.067
  262SOL     OW 1684   1.857   5.286   1.045
  262SOL    HW1 1685   1.898   5.363   0.995
  262SOL    HW2 1686   1.927   5.217   1.063
  263SOL     OW 1687   0.720   4.666   4.505
  263SOL    HW1 1688   0.723   4.719   4.421
  263SOL    HW2 1689   0.630   4.677   4.548
  264SOL     OW 1690   3.647   3.419   1.309
  264SOL    HW1 1691   3.695   3.459   1.231
  264SOL    HW2 1692   3.559   3.383   1.279
  265SOL     OW 1693   4.332   5.753   3.920
  265SOL    HW1 1694   4.381   5.701   3.849
  265SOL    HW2 1695   4.316   5.693   3.999
  266SOL     OW 1696   4.466   3.599   0.071
  266SOL    HW1 1697   4.518   3.542   0.007
  266SOL    HW2 1698   4.529   3.658   0.122
  267SOL     OW 1699   2.518   2.477   6.011
  267SOL    HW1 1700   2.585   2.414   5.973
  267SOL    HW2 1701   2.426   2.453   5.979
  268SOL     OW 1702   1.641   3.908   3.424
  268SOL    HW1 1703   1.676   3.981   3.483
  268SOL    HW2 1704   1.619   3.828   3.479
  269SOL     OW 1705   3.309   1.545   6.010
  269SOL    HW1 1706   3.325   1.469   5.948
  269SOL    HW2 1707   3.270   1.622   5.960
  270SOL     OW 1708   5.513   5.693   4.866
  270SOL    HW1 1709   5.597   5.642   4.882
  270SOL    HW2 1710   5.533   5.775   4.812
  271SOL     OW 1711   2.831   1.566   0.002
  271SOL    HW1 1712   2.817   1.615   6.939
  271SOL    HW2 1713   2.911   1.508   7.018
  272SOL     OW 1714   5.417   4.907   6.699
  272SOL    HW1 1715   5.497   4.927   6.643
  272SOL    HW2 1716   5.428   4.817   6.742
  273SOL     OW 1717   0.746   6.286   3.803
  273SOL    HW1 1718   0.727   6.343   3.882
  273SOL    HW2 1719   0.669   6.289   3.739
  274SOL     OW 1720   5.479   2.973   2.540
  274SOL    HW1 1721   5.490   2.991   2.638
  274SOL    HW2 1722   5.385   2.993   2.513
  275SOL     OW 1723   5.985   5.063   5.392
  275SOL    HW1 1724   5.987   5.159   5.364
  275SOL    HW2 1725   6.059   5.013   5.347
  276SOL     OW 1726   1.107   0.212   4.345
  276SOL    HW1 1727   1.125   0.283   4.412
  276SOL    HW2 1728   1.014   0.178   4.357
  277SOL     OW 1729   3.967   3.267   5.729
  277SOL    HW1 1730   3.988   3.311   5.642
  277SOL    HW2 1731   4.046   3.272   5.790
  278SOL     OW 1732   5.978   4.598   2.103
  278SOL    HW1 1733   6.056   4.641   2.058
  278SOL    HW2 1734   6.006   4.509   2.140
  279SOL     OW 1735   0.570   3.622   4.553
  279SOL    HW1 1736   0.642   3.689   4.568
  279SOL    HW2 1737   0.572   3.593   4.457
  280SOL     OW 1738   4.921   1.788   2.882
  280SOL    HW1 1739   4.938   1.694   2.855
  280SOL    HW2 1740   5.003   1.827   2.924
  281SOL     OW 1741   4.953   5.176   5.436
  281SOL    HW1 1742   4.947   5.095   5.495
  281SOL    HW2 1743   4.999   5.151   5.350
  282SOL     OW 1744   0.415   2.367   0.083
  282SOL    HW1 1745   0.439   2.274   0.057
  282SOL    HW2 1746   0.328   2.366   0.133
  283SOL     OW 1747   5.765   3.859   2.418
  283SOL    HW1 1748   5.734   3.883   2.510
  283SOL    HW2 1749   5.770   3.760   2.409
  284SOL     OW 1750   5.582   6.833   3.133
  284SOL    HW1 1751   5.620   6.817   3.042
  284SOL    HW2 1752   5.597   6.753   3.191
  285SOL     OW 1753   4.283   6.250   6.484
  285SOL    HW1 1754   4.244   6.283   6.570
  285SOL    HW2 1755   4.332   6.164   6.500
  286SOL     OW 1756   3.555   5.087   5.215
  286SOL    HW1 1757   3.584   4.992   5.218
  286SOL    HW2 1758   3.478   5.101   5.278
  287SOL     OW 1759   3.954   6.396   0.738
  287SOL    HW1 1760   3.878   6.356   0.788
  287SOL    HW2 1761   3.961   6.354   0.648
  288SOL     OW 1762   4.183   0.945   0.386
  288SOL    HW1 1763   4.265   0.900   0.352
  288SOL    HW2 1764   4.187   0.950   0.486
  289SOL     OW 1765   5.196   4.884   5.088
  289SOL    HW1 1766   5.296   4.891   5.087
  289SOL    HW2 1767   5.159   4.955   5.148
  290SOL     OW 1768   3.075   0.560   5.229
  290SOL    HW1 1769   3.073   0.499   5.307
  290SOL    HW2 1770   3.159   0.544   5.176
  291SOL     OW 1771   5.800   1.096   4.829
  291SOL    HW1 1772   5.808   1.031   4.753
  291SOL    HW2 1773   5.886   1.144   4.842
  292SOL     OW 1774   2.476   0.797   3.456
  292SOL    HW1 1775   2.382   0.788   3.421
  292SOL    HW2 1776   2.541   0.766   3.386
  293SOL     OW 1777   5.268   1.137   2.867
  293SOL    HW1 1778   5.344   1.163   2.807
  293SOL    HW2 1779   5.228   1.051   2.834
  294SOL     OW 1780   6.543   1.460   6.731
  294SOL    HW1 1781   6.608   1.450   6.807
  294SOL    HW2 1782   6.464   1.512   6.761
  295SOL     OW 1783   6.795   0.242   4.965
  295SOL    HW1 1784   6.769   0.188   5.046
  295SOL    HW2 1785   6.884   0.284   4.981
  296SOL     OW 1786   6.773   1.768   0.503
  296SOL    HW1 1787   6.774   1.813   0.592
  296SOL    HW2 1788   6.819   1.680   0.509
  297SOL     OW 1789   4.869   3.326   3.687
  297SOL    HW1 1790   4.914   3.256   3.632
  297SOL    HW2 1791   4.873   3.301   3.784
  298SOL     OW 1792   4.139   0.002   5.419
  298SOL    HW1 1793   4.209   6.955   5.404
  298SOL    HW2 1794   4.087   0.015   5.335
  299SOL     OW 1795   0.383   1.077   6.024
  299SOL    HW1 1796   0.307   1.123   5.977
  299SOL    HW2 1797   0.425   1.011   5.962
  300SOL     OW 1798   4.710   6.176   4.339
  300SOL    HW1 1799   4.669   6.191   4.429
  300SOL    HW2 1800   4.644   6.201   4.268
  301SOL     OW 1801   6.782   6.213   5.302
  301SOL    HW1 1802   6.851   6.283   5.284
  301SOL    HW2 1803   6.786   6.143   5.230
  302SOL     OW 1804   6.927   6.901   1.667
  302SOL    HW1 1805   6.912   6.992   1.704
  302SOL    HW2 1806   6.932   6.906   1.567
  303SOL     OW 1807   5.179   5.201   2.737
  303SOL    HW1 1808   5.185   5.123   2.799
  303SOL    HW2 1809   5.189   5.286   2.788
  304SOL     OW 1810   0.960   1.030   3.732
  304SOL    HW1 1811   0.922   1.081   3.810
  304SOL    HW2 1812   0.992   0.941   3.763
  305SOL     OW 1813   2.830   1.751   1.220
  305SOL    HW1 1814   2.778   1.788   1.143
  305SOL    HW2 1815   2.786   1.666   1.252
  306SOL     OW 1816   0.292   6.504   2.441
  306SOL    HW1 1817   0.221   6.483   2.508
  306SOL    HW2 1818   0.359   6.566   2.482
  307SOL     OW 1819   4.110   3.594   4.602
  307SOL    HW1 1820   4.128   3.624   4.696
  307SOL    HW2 1821   4.196   3.588   4.552
  308SOL     OW 1822   6.378   2.406   1.552
  308SOL    HW1 1823   6.405   2.343   1.625
  308SOL    HW2 1824   6.303   2.464   1.584
  309SOL     OW 1825   2.024   4.586   0.227
  309SOL    HW1 1826   1.976   4.569   0.313
  309SOL    HW2 1827   2.106   4.528   0.222
  310SOL     OW 1828   4.775   6.412   5.055
  310SOL    HW1 1829   4.831   6.381   4.977
  310SOL    HW2 1830   4.781   6.512   5.062
  311SOL     OW 1831   2.049   6.078   2.384
  311SOL    HW1 1832   2.066   6.130   2.300
  311SOL    HW2 1833   2.110   6.110   2.456
  312SOL     OW 1834   3.494   1.019   4.546
  312SOL    HW1 1835   3.476   1.098   4.604
  312SOL    HW2 1836   3.471   0.935   4.597
  313SOL     OW 1837   3.486   3.464   3.246
  313SOL    HW1 1838   3.391   3.481   3.274
  313SOL    HW2 1839   3.548   3.498   3.316
  314SOL     OW 1840   2.382   4.671   5.893
  314SOL    HW1 1841   2.310   4.609   5.863
  314SOL    HW2 1842   2.428   4.632   5.973
  315SOL     OW 1843   6.084   6.530   4.914
  315SOL    HW1 1844   6.091   6.548   5.012
  315SOL    HW2 1845   6.037   6.606   4.870
  316SOL     OW 1846   4.187   0.950   4.803
  316SOL    HW1 1847   4.218   1.027   4.859
  316SOL    HW2 1848   4.266   0.901   4.768
  317SOL     OW 1849   0.805   1.887   1.475
  317SOL    HW1 1850   0.755   1.931   1.550
  317SOL    HW2 1851   0.891   1.936   1.461
  318SOL     OW 1852   0.770   1.010   3.525
  318SOL    HW1 1853   0.840   1.031   3.593
  318SOL    HW2 1854   0.717   1.092   3.505
  319SOL     OW 1855   0.754   1.719   2.300
  319SOL    HW1 1856   0.817   1.779   2.350
  319SOL    HW2 1857   0.806   1.653   2.246
  320SOL     OW 1858   5.405   0.935   0.236
  320SOL    HW1 1859   5.314   0.975   0.252
  320SOL    HW2 1860   5.400   0.836   0.244
  321SOL     OW 1861   4.289   3.153   1.275
  321SOL    HW1 1862   4.246   3.184   1.360
  321SOL    HW2 1863   4.326   3.232   1.226
  322SOL     OW 1864   2.863   1.872   6.549
  322SOL    HW1 1865   2.915   1.920   6.479
  322SOL    HW2 1866   2.766   1.899   6.543
  323SOL     OW 1867   0.914   4.370   2.439
  323SOL    HW1 1868   0.868   4.317   2.511
  323SOL    HW2 1869   0.964   4.446   2.481
  324SOL     OW 1870   6.098   0.237   3.893
  324SOL    HW1 1871   6.050   0.283   3.818
  324SOL    HW2 1872   6.068   0.142   3.898
  325SOL     OW 1873   6.368   3.617   0.666
  325SOL    HW1 1874   6.441   3.617   0.599
  325SOL    HW2 1875   6.279   3.616   0.619
  326SOL     OW 1876   6.476   6.018   6.321
  326SOL    HW1 1877   6.413   6.050   6.392
  326SOL    HW2 1878   6.520   6.096   6.277
  327SOL     OW 1879   4.186   6.353   5.966
  327SOL    HW1 1880   4.155   6.269   6.011
  327SOL    HW2 1881   4.177   6.430   6.029
  328SOL     OW 1882   1.969   4.348   3.641
  328SOL    HW1 1883   2.005   4.414   3.706
  328SOL    HW2 1884   2.046   4.302   3.595
  329SOL     OW 1885   3.302   3.292   2.422
  329SOL    HW1 1886   3.253   3.207   2.408
  329SOL    HW2 1887   3.346   3.291   2.512
  330SOL     OW 1888   2.654   3.962   6.685
  330SOL    HW1 1889   2.700   4.047   6.657
  330SOL    HW2 1890   2.585   3.983   6.754
  331SOL     OW 1891   5.069   5.541   3.426
  331SOL    HW1 1892   4.991   5.561   3.366
  331SOL    HW2 1893   5.082   5.443   3.433
  332SOL     OW 1894   6.022   2.033   2.624
  332SOL    HW1 1895   6.046   2.088   2.704
  332SOL    HW2 1896   6.105   1.990   2.588
  333SOL     OW 1897   3.219   6.718   3.633
  333SOL    HW1 1898   3.198   6.799   3.577
  333SOL    HW2 1899   3.239   6.747   3.727
  334SOL     OW 1900   3.995   3.123   4.323
  334SOL    HW1 1901   3.903   3.092   4.346
  334SOL    HW2 1902   4.050   3.130   4.407
  335SOL     OW 1903   4.615   1.367   0.941
  335SOL    HW1 1904   4.583   1.444   0.997
  335SOL    HW2 1905   4.676   1.402   0.869
  336SOL     OW 1906   3.847   1.949   4.835
  336SOL    HW1 1907   3.886   2.018   4.897
  336SOL    HW2 1908   3.766   1.909   4.877
  337SOL     OW 1909   0.198   1.769   5.481
  337SOL    HW1 1910   0.114   1.728   5.445
  337SOL    HW2 1911   0.228   1.842   5.419
  338SOL     OW 1912   4.663   1.143   1.747
  338SOL    HW1 1913   4.677   1.103   1.837
  338SOL    HW2 1914   4.657   1.242   1.755
  339SOL     OW 1915   3.414   4.988   5.953
  339SOL    HW1 1916   3.402   4.927   6.031
  339SOL    HW2 1917   3.386   4.941   5.869
  340SOL     OW 1918   5.289   3.446   4.645
  340SOL    HW1 1919   5.286   3.405   4.554
  340SOL    HW2 1920   5.296   3.545   4.637
  341SOL     OW 1921   6.607   0.397   1.751
  341SOL    HW1 1922   6.601   0.394   1.851
  341SOL    HW2 1923   6.553   0.473   1.717
  342SOL     OW 1924   4.544   1.155   2.191
  342SOL    HW1 1925   4.487   1.236   2.195
  342SOL    HW2 1926   4.528   1.099   2.272
  343SOL     OW 1927   6.218   0.185   1.679
  343SOL    HW1 1928   6.176   0.100   1.647
  343SOL    HW2 1929   6.150   0.239   1.729
  344SOL     OW 1930   6.940   2.419   1.675
  344SOL    HW1 1931   6.997   2.388   1.599
  344SOL    HW2 1932   6.910   2.513   1.658
  345SOL     OW 1933   0.068   2.942   4.486
  345SOL    HW1 1934   7.011   2.925   4.429
  345SOL    HW2 1935   0.048   2.914   4.580
  346SOL     OW 1936   1.290   6.100   2.296
  346SOL    HW1 1937   1.264   6.085   2.201
  346SOL    HW2 1938   1.328   6.192   2.307
  347SOL     OW 1939   1.805   4.283   1.209
  347SOL    HW1 1940   1.856   4.325   1.284
  347SOL    HW2 1941   1.709   4.311   1.213
  348SOL     OW 1942   5.521   4.486   1.341
  348SOL    HW1 1943   5.572   4.568   1.368
  348SOL    HW2 1944   5.486   4.440   1.423
  349SOL     OW 1945   5.946   4.996   0.450
  349SOL    HW1 1946   5.895   5.072   0.490
  349SOL    HW2 1947   6.043   5.006   0.473
  350SOL     OW 1948   2.402   0.814   1.039
  350SOL    HW1 1949   2.330   0.779   0.978
  350SOL    HW2 1950   2.484   0.833   0.985
  351SOL     OW 1951   3.523   4.202   1.194
  351SOL    HW1 1952   3.480   4.119   1.227
  351SOL    HW2 1953   3.603   4.179   1.139
  352SOL     OW 1954   3.967   0.440   2.213
  352SOL    HW1 1955   3.984   0.449   2.311
  352SOL    HW2 1956   3.959   0.532   2.173
  353SOL     OW 1957   2.580   5.910   0.461
  353SOL    HW1 1958   2.525   5.927   0.544
  353SOL    HW2 1959   2.519   5.897   0.383
  354SOL     OW 1960   2.076   2.124   0.480
  354SOL    HW1 1961   1.979   2.137   0.498
  354SOL    HW2 1962   2.099   2.026   0.488
  355SOL     OW 1963   0.344   2.639   3.218
  355SOL    HW1 1964   0.418   2.706   3.208
  355SOL    HW2 1965   0.302   2.622   3.129
  356SOL     OW 1966   2.726   0.256   5.811
  356SOL    HW1 1967   2.807   0.274   5.868
  356SOL    HW2 1968   2.753   0.256   5.714
  357SOL     OW 1969   5.517   5.615   4.389
  357SOL    HW1 1970   5.437   5.654   4.435
  357SOL    HW2 1971   5.487   5.547   4.322
  358SOL     OW 1972   3.185   6.346   6.983
  358SOL    HW1 1973   3.183   6.347   0.060
  358SOL    HW2 1974   3.263   6.291   6.952
  359SOL     OW 1975   1.933   2.908   1.751
  359SOL    HW1 1976   1.908   2.813   1.773
  359SOL    HW2 1977   1.861   2.949   1.694
  360SOL     OW 1978   2.009   4.203   3.245
  360SOL    HW1 1979   1.925   4.257   3.244
  360SOL    HW2 1980   2.053   4.208   3.155
  361SOL     OW 1981   6.791   2.916   2.911
  361SOL    HW1 1982   6.771   2.820   2.888
  361SOL    HW2 1983   6.771   2.931   3.008
  362SOL     OW 1984   4.087   3.342   2.892
  362SOL    HW1 1985   4.141   3.296   2.821
  362SOL    HW2 1986   4.024   3.407   2.849
  363SOL     OW 1987   4.754   4.786   0.437
  363SOL    HW1 1988   4.758   4.847   0.516
  363SOL    HW2 1989   4.839   4.793   0.385
  364SOL     OW 1990   1.032   0.413   6.988
  364SOL    HW1 1991   1.110   0.449   6.937
  364SOL    HW2 1992   1.063   0.338   0.024
  365SOL     OW 1993   4.948   0.495   3.955
  365SOL    HW1 1994   5.021   0.433   3.928
  365SOL    HW2 1995   4.860   0.448   3.951
  366SOL     OW 1996   5.116   2.288   0.539
  366SOL    HW1 1997   5.148   2.320   0.450
  366SOL    HW2 1998   5.153   2.196   0.557
  367SOL     OW 1999   5.653   1.036   0.268
  367SOL    HW1 2000   5.687   1.046   0.174
  367SOL    HW2 2001   5.566   0.988   0.268
  368SOL     OW 2002   3.132   1.536   5.678
  368SOL    HW1 2003   3.153   1.596   5.756
  368SOL    HW2 2004   3.099   1.592   5.602
  369SOL     OW 2005   5.099   4.225   0.150
  369SOL    HW1 2006   5.032   4.234   0.077
  369SOL    HW2 2007   5.187   4.198   0.112
  370SOL     OW 2008   1.871   2.405   3.826
  370SOL    HW1 2009   1.919   2.450   3.902
  370SOL    HW2 2010   1.901   2.446   3.740
  371SOL     OW 2011   2.342   5.212   0.387
  371SOL    HW1 2012   2.365   5.297   0.340
  371SOL    HW2 2013   2.416   5.187   0.449
  372SOL     OW 2014   2.786   6.023   6.062
  372SOL    HW1 2015   2.757   6.018   5.966
  372SOL    HW2 2016   2.713   5.987   6.121
  373SOL     OW 2017   5.703   4.951   2.658
  373SOL    HW1 2018   5.715   4.991   2.749
  373SOL    HW2 2019   5.643   5.010   2.604
  374SOL     OW 2020   2.630   2.310   2.042
  374SOL    HW1 2021   2.621   2.327   1.944
  374SOL    HW2 2022   2.727   2.304   2.066
  375SOL     OW 2023   6.915   5.968   3.979
  375SOL    HW1 2024   6.816   5.977   3.978
  375SOL    HW2 2025   6.956   6.059   3.989
  376SOL     OW 2026   4.093   0.424   3.406
  376SOL    HW1 2027   4.077   0.351   3.340
  376SOL    HW2 2028   4.190   0.425   3.431
  377SOL     OW 2029   2.879   2.908   6.030
  377SOL    HW1 2030   2.951   2.967   5.993
  377SOL    HW2 2031   2.798   2.916   5.972
  378SOL     OW 2032   4.051   1.176   1.984
  378SOL    HW1 2033   4.053   1.245   1.912
  378SOL    HW2 2034   4.112   1.203   2.059
  379SOL     OW 2035   3.701   3.056   6.855
  379SOL    HW1 2036   3.757   2.993   6.801
  379SOL    HW2 2037   3.615   3.073   6.807
  380SOL     OW 2038   5.018   1.855   0.545
  380SOL    HW1 2039   4.988   1.894   0.457
  380SOL    HW2 2040   5.097   1.906   0.578
  381SOL     OW 2041   1.433   3.723   2.545
  381SOL    HW1 2042   1.428   3.665   2.627
  381SOL    HW2 2043   1.444   3.666   2.464
  382SOL     OW 2044   6.326   0.240   0.105
  382SOL    HW1 2045   6.268   0.301   0.160
  382SOL    HW2 2046   6.375   0.294   0.037
  383SOL     OW 2047   5.056   3.190   0.669
  383SOL    HW1 2048   4.984   3.217   0.605
  383SOL    HW2 2049   5.024   3.205   0.763
  384SOL     OW 2050   1.081   2.804   5.126
  384SOL    HW1 2051   1.178   2.799   5.103
  384SOL    HW2 2052   1.062   2.747   5.206
  385SOL     OW 2053   4.758   2.596   6.103
  385SOL    HW1 2054   4.673   2.559   6.142
  385SOL    HW2 2055   4.751   2.595   6.004
  386SOL     OW 2056   3.572   6.237   4.999
  386SOL    HW1 2057   3.491   6.270   4.951
  386SOL    HW2 2058   3.642   6.307   4.999
  387SOL     OW 2059   2.519   6.427   3.833
  387SOL    HW1 2060   2.552   6.360   3.898
  387SOL    HW2 2061   2.419   6.428   3.834
  388SOL     OW 2062   1.516   5.192   5.861
  388SOL    HW1 2063   1.484   5.199   5.766
  388SOL    HW2 2064   1.605   5.236   5.869
  389SOL     OW 2065   2.727   2.399   0.584
  389SOL    HW1 2066   2.732   2.451   0.499
  389SOL    HW2 2067   2.708   2.460   0.660
  390SOL     OW 2068   2.651   1.857   4.121
  390SOL    HW1 2069   2.616   1.780   4.066
  390SOL    HW2 2070   2.669   1.934   4.061
  391SOL     OW 2071   0.746   2.134   0.504
  391SOL    HW1 2072   0.690   2.108   0.425
  391SOL    HW2 2073   0.761   2.233   0.503
  392SOL     OW 2074   3.544   5.210   4.685
  392SOL    HW1 2075   3.627   5.265   4.678
  392SOL    HW2 2076   3.532   5.179   4.780
  393SOL     OW 2077   6.118   3.303   5.250
  393SOL    HW1 2078   6.071   3.241   5.312
  393SOL    HW2 2079   6.091   3.397   5.269
  394SOL     OW 2080   1.811   1.000   6.375
  394SOL    HW1 2081   1.715   0.992   6.401
  394SOL    HW2 2082   1.820   1.063   6.298
  395SOL     OW 2083   0.024   3.070   1.308
  395SOL    HW1 2084   0.023   3.001   1.381
  395SOL    HW2 2085   0.076   3.034   1.230
  396SOL     OW 2086   3.737   2.335   5.666
  396SOL    HW1 2087   3.755   2.236   5.663
  396SOL    HW2 2088   3.759   2.376   5.578
  397SOL     OW 2089   4.517   0.393   6.222
  397SOL    HW1 2090   4.444   0.326   6.231
  397SOL    HW2 2091   4.593   0.353   6.171
  398SOL     OW 2092   6.856   4.781   2.798
  398SOL    HW1 2093   6.777   4.799   2.740
  398SOL    HW2 2094   6.832   4.797   2.893
  399SOL     OW 2095   4.331   5.106   1.979
  399SOL    HW1 2096   4.239   5.081   2.009
  399SOL    HW2 2097   4.349   5.202   2.000
  400SOL     OW 2098   2.467   5.022   5.296
  400SOL    HW1 2099   2.404   4.971   5.354
  400SOL    HW2 2100   2.479   4.973   5.210
  401SOL     OW 2101   6.291   1.498   1.461
  401SOL    HW1 2102   6.322   1.592   1.475
  401SOL    HW2 2103   6.245   1.466   1.543
  402SOL     OW 2104   0.508   5.180   0.955
  402SOL    HW1 2105   0.409   5.177   0.965
  402SOL    HW2 2106   0.531   5.222   0.867
  403SOL     OW 2107   5.092   4.413   0.565
  403SOL    HW1 2108   5.142   4.488   0.522
  403SOL    HW2 2109   5.040   4.448   0.643
  404SOL     OW 2110   0.017   5.857   5.010
  404SOL    HW1 2111   0.114   5.837   4.998
  404SOL    HW2 2112   6.991   5.772   5.032
  405SOL     OW 2113   1.407   1.962   1.293
  405SOL    HW1 2114   1.398   1.866   1.322
  405SOL    HW2 2115   1.316   2.004   1.289
  406SOL     OW 2116   0.571   2.679   3.530
  406SOL    HW1 2117   0.591   2.590   3.488
  406SOL    HW2 2118   0.564   2.748   3.459
  407SOL     OW 2119   3.733   2.118   3.898
  407SOL    HW1 2120   3.662   2.141   3.832
  407SOL    HW2 2121   3.823   2.144   3.862
  408SOL     OW 2122   2.876   0.351   4.152
  408SOL    HW1 2123   2.789   0.379   4.191
  408SOL    HW2 2124   2.865   0.334   4.054
  409SOL     OW 2125   0.058   4.309   4.167
  409SOL    HW1 2126   0.135   4.373   4.173
  409SOL    HW2 2127   0.034   4.277   4.259
  410SOL     OW 2128   2.819   6.786   6.220
  410SOL    HW1 2129   2.837   6.805   6.316
  410SOL    HW2 2130   2.756   6.854   6.183
  411SOL     OW 2131   0.368   4.239   5.416
  411SOL    HW1 2132   0.462   4.213   5.442
  411SOL    HW2 2133   0.303   4.189   5.473
  412SOL     OW 2134   3.705   6.539   2.272
  412SOL    HW1 2135   3.751   6.596   2.204
  412SOL    HW2 2136   3.644   6.475   2.225
  413SOL     OW 2137   2.266   0.863   2.323
  413SOL    HW1 2138   2.174   0.901   2.339
  413SOL    HW2 2139   2.258   0.773   2.281
  414SOL     OW 2140   5.015   4.787   0.888
  414SOL    HW1 2141   5.007   4.699   0.841
  414SOL    HW2 2142   5.071   4.776   0.970
  415SOL     OW 2143   4.068   0.119   2.230
  415SOL    HW1 2144   4.023   0.183   2.168
  415SOL    HW2 2145   4.148   0.163   2.271
  416SOL     OW 2146   4.035   5.912   0.098
  416SOL    HW1 2147   4.055   5.828   0.149
  416SOL    HW2 2148   4.108   5.979   0.114
  417SOL     OW 2149   5.412   5.132   1.016
  417SOL    HW1 2150   5.371   5.147   0.926
  417SOL    HW2 2151   5.493   5.190   1.025
  418SOL     OW 2152   6.838   4.986   6.574
  418SOL    HW1 2153   6.888   4.948   6.496
  418SOL    HW2 2154   6.761   4.925   6.597
  419SOL     OW 2155   5.180   5.433   0.094
  419SOL    HW1 2156   5.110   5.385   0.147
  419SOL    HW2 2157   5.223   5.502   0.152
  420SOL     OW 2158   4.828   4.121   6.266
  420SOL    HW1 2159   4.838   4.028   6.231
  420SOL    HW2 2160   4.736   4.134   6.302
  421SOL     OW 2161   1.742   6.319   6.955
  421SOL    HW1 2162   1.798   6.308   6.873
  421SOL    HW2 2163   1.692   6.405   6.950
  422SOL     OW 2164   6.481   3.890   6.682
  422SOL    HW1 2165   6.464   3.921   6.775
  422SOL    HW2 2166   6.571   3.847   6.676
  423SOL     OW 2167   0.981   3.659   6.326
  423SOL    HW1 2168   0.965   3.686   6.420
  423SOL    HW2 2169   0.898   3.677   6.272
  424SOL     OW 2170   1.540   4.225   6.167
  424SOL    HW1 2171   1.521   4.156   6.096
  424SOL    HW2 2172   1.630   4.265   6.151
  425SOL     OW 2173   3.356   0.283   0.685
  425SOL    HW1 2174   3.326   0.330   0.768
  425SOL    HW2 2175   3.454   0.268   0.689
  426SOL     OW 2176   0.315   3.944   6.655
  426SOL    HW1 2177   0.399   3.972   6.702
  426SOL    HW2 2178   0.258   4.024   6.638
  427SOL     OW 2179   3.529   3.477   6.864
  427SOL    HW1 2180   3.598   3.469   6.792
  427SOL    HW2 2181   3.568   3.446   6.951
  428SOL     OW 2182   4.116   1.451   5.012
  428SOL    HW1 2183   4.191   1.510   4.981
  428SOL    HW2 2184   4.032   1.476   4.965
  429SOL     OW 2185   3.096   6.733   0.395
  429SOL    HW1 2186   3.115   6.778   0.482
  429SOL    HW2 2187   3.182   6.704   0.353
  430SOL     OW 2188   3.216   0.655   4.658
  430SOL    HW1 2189   3.135   0.678   4.604
  430SOL    HW2 2190   3.256   0.571   4.621
  431SOL     OW 2191   3.906   0.940   0.238
  431SOL    HW1 2192   3.981   0.909   0.296
  431SOL    HW2 2193   3.933   0.932   0.142
  432SOL     OW 2194   6.826   1.382   1.001
  432SOL    HW1 2195   6.727   1.371   1.009
  432SOL    HW2 2196   6.869   1.292   0.992
  433SOL     OW 2197   3.356   6.331   4.877
  433SOL    HW1 2198   3.324   6.411   4.927
  433SOL    HW2 2199   3.280   6.267   4.865
  434SOL     OW 2200   6.217   3.683   0.914
  434SOL    HW1 2201   6.161   3.605   0.942
  434SOL    HW2 2202   6.271   3.659   0.834
  435SOL     OW 2203   3.754   3.724   0.688
  435SOL    HW1 2204   3.775   3.808   0.637
  435SOL    HW2 2205   3.657   3.704   0.679
  436SOL     OW 2206   3.560   1.094   0.523
  436SOL    HW1 2207   3.657   1.118   0.525
  436SOL    HW2 2208   3.548   1.004   0.481
  437SOL     OW 2209   6.886   6.543   6.106
  437SOL    HW1 2210   6.914   6.636   6.085
  437SOL    HW2 2211   6.826   6.509   6.034
  438SOL     OW 2212   1.190   3.213   1.066
  438SOL    HW1 2213   1.206   3.310   1.052
  438SOL    HW2 2214   1.271   3.171   1.108
  439SOL     OW 2215   6.373   5.393   1.719
  439SOL    HW1 2216   6.471   5.372   1.717
  439SOL    HW2 2217   6.323   5.324   1.667
  440SOL     OW 2218   1.533   2.976   2.902
  440SOL    HW1 2219   1.559   3.039   2.975
  440SOL    HW2 2220   1.515   3.028   2.818
  441SOL     OW 2221   6.994   1.458   3.204
  441SOL    HW1 2222   0.070   1.445   3.209
  441SOL    HW2 2223   6.958   1.412   3.123
  442SOL     OW 2224   0.579   4.897   6.244
  442SOL    HW1 2225   0.556   4.975   6.187
  442SOL    HW2 2226   0.590   4.816   6.186
  443SOL     OW 2227   0.707   4.573   5.618
  443SOL    HW1 2228   0.656   4.576   5.704
  443SOL    HW2 2229   0.781   4.641   5.621
  444SOL     OW 2230   5.098   2.931   6.739
  444SOL    HW1 2231   5.160   2.942   6.817
  444SOL    HW2 2232   5.123   2.996   6.667
  445SOL     OW 2233   0.893   3.857   3.516
  445SOL    HW1 2234   0.979   3.906   3.528
  445SOL    HW2 2235   0.865   3.863   3.420
  446SOL     OW 2236   2.226   5.171   4.153
  446SOL    HW1 2237   2.129   5.172   4.176
  446SOL    HW2 2238   2.238   5.185   4.055
  447SOL     OW 2239   0.011   5.932   0.536
  447SOL    HW1 2240   6.981   5.874   0.473
  447SOL    HW2 2241   7.015   5.905   0.630
  448SOL     OW 2242   4.618   0.328   5.712
  448SOL    HW1 2243   4.546   0.296   5.650
  448SOL    HW2 2244   4.627   0.264   5.789
  449SOL     OW 2245   5.009   0.586   4.441
  449SOL    HW1 2246   5.056   0.502   4.468
  449SOL    HW2 2247   4.914   0.582   4.470
  450SOL     OW 2248   6.612   6.915   2.757
  450SOL    HW1 2249   6.562   6.880   2.677
  450SOL    HW2 2250   6.572   6.878   2.840
  451SOL     OW 2251   6.353   3.516   4.000
  451SOL    HW1 2252   6.358   3.595   4.061
  451SOL    HW2 2253   6.317   3.437   4.051
  452SOL     OW 2254   6.533   5.454   5.874
  452SOL    HW1 2255   6.525   5.412   5.965
  452SOL    HW2 2256   6.627   5.446   5.841
  453SOL     OW 2257   3.551   1.675   6.168
  453SOL    HW1 2258   3.619   1.639   6.231
  453SOL    HW2 2259   3.460   1.643   6.194
  454SOL     OW 2260   0.902   6.432   0.462
  454SOL    HW1 2261   0.936   6.346   0.422
  454SOL    HW2 2262   0.977   6.498   0.465
  455SOL     OW 2263   5.457   0.715   5.159
  455SOL    HW1 2264   5.460   0.813   5.177
  455SOL    HW2 2265   5.363   0.682   5.167
  456SOL     OW 2266   4.085   4.766   6.941
  456SOL    HW1 2267   4.170   4.801   6.901
  456SOL    HW2 2268   4.091   4.667   6.951
  457SOL     OW 2269   0.776   4.630   1.743
  457SOL    HW1 2270   0.835   4.635   1.824
  457SOL    HW2 2271   0.692   4.582   1.765
  458SOL     OW 2272   0.683   5.673   5.238
  458SOL    HW1 2273   0.671   5.769   5.213
  458SOL    HW2 2274   0.756   5.664   5.305
  459SOL     OW 2275   1.738   0.550   3.095
  459SOL    HW1 2276   1.763   0.642   3.065
  459SOL    HW2 2277   1.669   0.557   3.167
  460SOL     OW 2278   6.473   2.068   3.618
  460SOL    HW1 2279   6.570   2.083   3.637
  460SOL    HW2 2280   6.450   2.110   3.530
  461SOL     OW 2281   5.615   4.761   5.488
  461SOL    HW1 2282   5.680   4.692   5.520
  461SOL    HW2 2283   5.579   4.734   5.399
  462SOL     OW 2284   3.253   1.883   0.161
  462SOL    HW1 2285   3.158   1.898   0.133
  462SOL    HW2 2286   3.313   1.895   0.083
  463SOL     OW 2287   6.522   5.930   2.101
  463SOL    HW1 2288   6.508   6.024   2.070
  463SOL    HW2 2289   6.557   5.874   2.025
  464SOL     OW 2290   1.693   1.239   5.959
  464SOL    HW1 2291   1.735   1.327   5.982
  464SOL    HW2 2292   1.692   1.228   5.859
  465SOL     OW 2293   0.187   3.351   6.096
  465SOL    HW1 2294   0.106   3.292   6.095
  465SOL    HW2 2295   0.195   3.395   6.185
  466SOL     OW 2296   2.350   0.754   3.023
  466SOL    HW1 2297   2.354   0.854   3.017
  466SOL    HW2 2298   2.386   0.725   3.112
  467SOL     OW 2299   1.846   1.700   5.657
  467SOL    HW1 2300   1.892   1.664   5.738
  467SOL    HW2 2301   1.839   1.800   5.664
  468SOL     OW 2302   3.172   3.529   2.587
  468SOL    HW1 2303   3.141   3.445   2.541
  468SOL    HW2 2304   3.120   3.607   2.553
  469SOL     OW 2305   3.557   6.586   0.281
  469SOL    HW1 2306   3.594   6.507   0.231
  469SOL    HW2 2307   3.632   6.645   0.310
  470SOL     OW 2308   4.436   6.945   3.398
  470SOL    HW1 2309   4.491   0.004   3.387
  470SOL    HW2 2310   4.442   6.889   3.315
  471SOL     OW 2311   2.778   2.240   4.383
  471SOL    HW1 2312   2.773   2.197   4.473
  471SOL    HW2 2313   2.868   2.224   4.343
  472SOL     OW 2314   3.753   4.345   5.534
  472SOL    HW1 2315   3.726   4.254   5.567
  472SOL    HW2 2316   3.848   4.363   5.560
  473SOL     OW 2317   0.728   4.751   3.955
  473SOL    HW1 2318   0.765   4.675   4.008
  473SOL    HW2 2319   0.633   4.767   3.982
  474SOL     OW 2320   4.986   4.265   5.062
  474SOL    HW1 2321   4.986   4.345   5.123
  474SOL    HW2 2322   4.990   4.296   4.967
  475SOL     OW 2323   2.069   6.317   6.806
  475SOL    HW1 2324   2.072   6.252   6.883
  475SOL    HW2 2325   1.997   6.289   6.742
  476SOL     OW 2326   0.025   5.638   2.712
  476SOL    HW1 2327   0.105   5.677   2.757
  476SOL    HW2 2328   0.040   5.540   2.696
  477SOL     OW 2329   2.216   4.699   3.999
  477SOL    HW1 2330   2.137   4.756   4.020
  477SOL    HW2 2331   2.287   4.755   3.956
  478SOL     OW 2332   1.129   5.473   3.131
  478SOL    HW1 2333   1.105   5.561   3.173
  478SOL    HW2 2334   1.222   5.479   3.094
  479SOL     OW 2335   4.014   1.645   1.410
  479SOL    HW1 2336   4.102   1.643   1.458
  479SOL    HW2 2337   3.968   1.731   1.429
  480SOL     OW 2338   1.502   6.743   3.457
  480SOL    HW1 2339   1.537   6.833   3.484
  480SOL    HW2 2340   1.493   6.739   3.357
  481SOL     OW 2341   2.303   6.803   0.915
  481SOL    HW1 2342   2.246   6.878   0.880
  481SOL    HW2 2343   2.389   6.800   0.863
  482SOL     OW 2344   5.809   5.454   0.510
  482SOL    HW1 2345   5.844   5.371   0.553
  482SOL    HW2 2346   5.776   5.518   0.580
  483SOL     OW 2347   6.080   2.253   2.482
  483SOL    HW1 2348   6.069   2.164   2.525
  483SOL    HW2 2349   6.000   2.310   2.503
  484SOL     OW 2350   6.620   2.205   4.139
  484SOL    HW1 2351   6.650   2.288   4.093
  484SOL    HW2 2352   6.699   2.162   4.184
  485SOL     OW 2353   3.378   6.353   1.399
  485SOL    HW1 2354   3.458   6.295   1.414
  485SOL    HW2 2355   3.312   6.304   1.343
  486SOL     OW 2356   0.136   0.872   5.745
  486SOL    HW1 2357   0.124   0.943   5.814
  486SOL    HW2 2358   0.186   0.795   5.785
  487SOL     OW 2359   6.599   2.828   6.370
  487SOL    HW1 2360   6.642   2.888   6.437
  487SOL    HW2 2361   6.500   2.844   6.369
  488SOL     OW 2362   0.992   4.614   2.252
  488SOL    HW1 2363   0.976   4.517   2.265
  488SOL    HW2 2364   1.078   4.628   2.202
  489SOL     OW 2365   3.487   5.775   6.446
  489SOL    HW1 2366   3.543   5.856   6.427
  489SOL    HW2 2367   3.391   5.801   6.450
  490SOL     OW 2368   5.015   0.300   4.488
  490SOL    HW1 2369   5.056   0.243   4.559
  490SOL    HW2 2370   4.919   0.273   4.476
  491SOL     OW 2371   0.487   2.218   3.522
  491SOL    HW1 2372   0.482   2.280   3.444
  491SOL    HW2 2373   0.467   2.269   3.606
  492SOL     OW 2374   1.368   1.306   4.683
  492SOL    HW1 2375   1.432   1.276   4.612
  492SOL    HW2 2376   1.417   1.359   4.752
  493SOL     OW 2377   6.746   4.022   4.275
  493SOL    HW1 2378   6.700   4.004   4.188
  493SOL    HW2 2379   6.792   3.939   4.306
  494SOL     OW 2380   6.102   1.334   6.540
  494SOL    HW1 2381   6.148   1.285   6.615
  494SOL    HW2 2382   6.102   1.277   6.458
  495SOL     OW 2383   4.984   4.542   0.287
  495SOL    HW1 2384   4.987   4.511   0.192
  495SOL    HW2 2385   4.946   4.469   0.344
  496SOL     OW 2386   5.331   3.758   3.097
  496SOL    HW1 2387   5.311   3.670   3.054
  496SOL    HW2 2388   5.322   3.749   3.196
  497SOL     OW 2389   3.974   6.833   3.841
  497SOL    HW1 2390   3.920   6.918   3.840
  497SOL    HW2 2391   3.937   6.770   3.909
  498SOL     OW 2392   1.367   2.668   1.775
  498SOL    HW1 2393   1.462   2.699   1.786
  498SOL    HW2 2394   1.305   2.736   1.813
  499SOL     OW 2395   3.350   1.182   5.242
  499SOL    HW1 2396   3.273   1.137   5.196
  499SOL    HW2 2397   3.373   1.131   5.325
  500SOL     OW 2398   1.845   4.364   2.755
  500SOL    HW1 2399   1.808   4.430   2.689
  500SOL    HW2 2400   1.770   4.312   2.795
  501SOL     OW 2401   0.804   5.232   6.691
  501SOL    HW1 2402   0.796   5.329   6.667
  501SOL    HW2 2403   0.864   5.223   6.770
  502SOL     OW 2404   2.717   4.952   6.292
  502SOL    HW1 2405   2.812   4.968   6.321
  502SOL    HW2 2406   2.659   5.025   6.327
  503SOL     OW 2407   6.286   5.345   4.794
  503SOL    HW1 2408   6.340   5.379   4.871
  503SOL    HW2 2409   6.254   5.252   4.815
  504SOL     OW 2410   1.746   5.755   4.883
  504SOL    HW1 2411   1.803   5.762   4.965
  504SOL    HW2 2412   1.773   5.825   4.817
  505SOL     OW 2413   3.524   6.652   5.008
  505SOL    HW1 2414   3.538   6.580   5.077
  505SOL    HW2 2415   3.449   6.712   5.037
  506SOL     OW 2416   1.746   3.248   0.581
  506SOL    HW1 2417   1.689   3.167   0.570
  506SOL    HW2 2418   1.835   3.233   0.536
  507SOL     OW 2419   3.959   2.169   4.175
  507SOL    HW1 2420   3.863   2.173   4.202
  507SOL    HW2 2421   4.012   2.235   4.228
  508SOL     OW 2422   6.355   5.105   4.298
  508SOL    HW1 2423   6.376   5.011   4.269
  508SOL    HW2 2424   6.373   5.168   4.222
  509SOL     OW 2425   4.207   3.169   0.684
  509SOL    HW1 2426   4.183   3.187   0.589
  509SOL    HW2 2427   4.127   3.184   0.742
  510SOL     OW 2428   1.081   4.074   4.524
  510SOL    HW1 2429   1.119   4.159   4.487
  510SOL    HW2 2430   0.982   4.073   4.507
  511SOL     OW 2431   0.476   6.689   1.322
  511SOL    HW1 2432   0.537   6.710   1.246
  511SOL    HW2 2433   0.394   6.644   1.287
  512SOL     OW 2434   1.162   3.644   6.121
  512SOL    HW1 2435   1.208   3.731   6.099
  512SOL    HW2 2436   1.086   3.661   6.183
  513SOL     OW 2437   1.360   5.099   4.268
  513SOL    HW1 2438   1.410   5.181   4.239
  513SOL    HW2 2439   1.270   5.125   4.301
  514SOL     OW 2440   5.703   1.819   2.996
  514SOL    HW1 2441   5.757   1.771   2.926
  514SOL    HW2 2442   5.635   1.877   2.951
  515SOL     OW 2443   2.405   5.430   0.195
  515SOL    HW1 2444   2.340   5.495   0.235
  515SOL    HW2 2445   2.496   5.445   0.234
  516SOL     OW 2446   1.326   4.944   3.652
  516SOL    HW1 2447   1.373   4.954   3.564
  516SOL    HW2 2448   1.282   4.854   3.656
  517SOL     OW 2449   4.635   0.661   6.705
  517SOL    HW1 2450   4.721   0.680   6.658
  517SOL    HW2 2451   4.629   0.564   6.727
  518SOL     OW 2452   2.656   1.648   0.645
  518SOL    HW1 2453   2.667   1.625   0.741
  518SOL    HW2 2454   2.566   1.617   0.613
  519SOL     OW 2455   0.878   6.786   0.401
  519SOL    HW1 2456   0.870   6.704   0.457
  519SOL    HW2 2457   0.786   6.819   0.378
  520SOL     OW 2458   5.863   4.618   4.149
  520SOL    HW1 2459   5.783   4.655   4.194
  520SOL    HW2 2460   5.945   4.662   4.185
  521SOL     OW 2461   6.524   0.449   0.453
  521SOL    HW1 2462   6.523   0.459   0.553
  521SOL    HW2 2463   6.617   0.427   0.423
  522SOL     OW 2464   3.579   3.827   5.905
  522SOL    HW1 2465   3.548   3.752   5.964
  522SOL    HW2 2466   3.615   3.901   5.962
  523SOL     OW 2467   6.418   6.696   3.827
  523SOL    HW1 2468   6.409   6.706   3.727
  523SOL    HW2 2469   6.344   6.640   3.862
  524SOL     OW 2470   4.093   0.663   5.555
  524SOL    HW1 2471   4.095   0.763   5.557
  524SOL    HW2 2472   4.061   0.628   5.643
  525SOL     OW 2473   2.596   2.420   0.128
  525SOL    HW1 2474   2.615   2.324   0.149
  525SOL    HW2 2475   2.672   2.458   0.074
  526SOL     OW 2476   4.681   5.696   4.428
  526SOL    HW1 2477   4.673   5.777   4.369
  526SOL    HW2 2478   4.774   5.691   4.464
  527SOL     OW 2479   0.044   1.919   0.132
  527SOL    HW1 2480   0.055   1.956   0.224
  527SOL    HW2 2481   7.020   1.986   0.074
  528SOL     OW 2482   1.733   1.233   5.681
  528SOL    HW1 2483   1.805   1.266   5.620
  528SOL    HW2 2484   1.711   1.138   5.658
  529SOL     OW 2485   6.881   5.220   4.160
  529SOL    HW1 2486   6.935   5.292   4.204
  529SOL    HW2 2487   6.806   5.193   4.220
  530SOL     OW 2488   0.068   2.943   5.261
  530SOL    HW1 2489   0.034   2.939   5.167
  530SOL    HW2 2490   0.038   2.862   5.311
  531SOL     OW 2491   6.905   0.896   0.123
  531SOL    HW1 2492   6.934   0.801   0.107
  531SOL    HW2 2493   6.954   0.957   0.062
  532SOL     OW 2494   2.016   0.637   5.752
  532SOL    HW1 2495   1.974   0.668   5.837
  532SOL    HW2 2496   2.013   0.537   5.748
  533SOL     OW 2497   4.781   0.263   4.933
  533SOL    HW1 2498   4.689   0.302   4.939
  533SOL    HW2 2499   4.805   0.248   4.837
  534SOL     OW 2500   3.316   5.550   3.030
  534SOL    HW1 2501   3.406   5.590   3.014
  534SOL    HW2 2502   3.326   5.454   3.054
  535SOL     OW 2503   6.062   3.812   2.225
  535SOL    HW1 2504   6.064   3.812   2.325
  535SOL    HW2 2505   6.043   3.720   2.191
  536SOL     OW 2506   1.250   6.606   0.973
  536SOL    HW1 2507   1.329   6.663   0.948
  536SOL    HW2 2508   1.255   6.519   0.925
  537SOL     OW 2509   2.192   0.085   3.639
  537SOL    HW1 2510   2.282   0.048   3.616
  537SOL    HW2 2511   2.121   0.027   3.598
  538SOL     OW 2512   1.643   4.987   4.371
  538SOL    HW1 2513   1.630   5.046   4.451
  538SOL    HW2 2514   1.723   5.019   4.319
  539SOL     OW 2515   1.153   5.641   1.090
  539SOL    HW1 2516   1.080   5.700   1.056
  539SOL    HW2 2517   1.187   5.677   1.178
  540SOL     OW 2518   1.877   3.130   1.195
  540SOL    HW1 2519   1.853   3.224   1.168
  540SOL    HW2 2520   1.815   3.066   1.152
  541SOL     OW 2521   4.332   5.358   5.047
  541SOL    HW1 2522   4.397   5.288   5.018
  541SOL    HW2 2523   4.302   5.339   5.141
  542SOL     OW 2524   5.865   6.621   6.474
  542SOL    HW1 2525   5.788   6.607   6.412
  542SOL    HW2 2526   5.877   6.718   6.493
  543SOL     OW 2527   6.048   7.004   1.234
  543SOL    HW1 2528   6.032   6.976   1.139
  543SOL    HW2 2529   6.122   6.949   1.273
  544SOL     OW 2530   0.586   5.314   0.391
  544SOL    HW1 2531   0.599   5.241   0.457
  544SOL    HW2 2532   0.581   5.276   0.298
  545SOL     OW 2533   3.799   1.971   3.514
  545SOL    HW1 2534   3.874   1.911   3.487
  545SOL    HW2 2535   3.718   1.915   3.534
  546SOL     OW 2536   2.168   2.128   0.211
  546SOL    HW1 2537   2.168   2.161   0.305
  546SOL    HW2 2538   2.232   2.051   0.203
  547SOL     OW 2539   3.283   1.442   0.173
  547SOL    HW1 2540   3.357   1.507   0.188
  547SOL    HW2 2541   3.278   1.418   0.076
  548SOL     OW 2542   3.322   3.455   5.284
  548SOL    HW1 2543   3.381   3.493   5.212
  548SOL    HW2 2544   3.354   3.488   5.373
  549SOL     OW 2545   0.417   4.066   1.093
  549SOL    HW1 2546   0.326   4.058   1.054
  549SOL    HW2 2547   0.450   4.160   1.083
  550SOL     OW 2548   6.603   3.653   0.485
  550SOL    HW1 2549   6.655   3.668   0.401
  550SOL    HW2 2550   6.667   3.644   0.562
  551SOL     OW 2551   0.061   1.410   0.096
  551SOL    HW1 2552   0.126   1.343   0.059
  551SOL    HW2 2553   0.013   1.370   0.174
  552SOL     OW 2554   4.932   4.488   0.770
  552SOL    HW1 2555   4.844   4.533   0.757
  552SOL    HW2 2556   4.933   4.442   0.859
  553SOL     OW 2557   1.036   2.009   1.554
  553SOL    HW1 2558   0.996   2.088   1.599
  553SOL    HW2 2559   1.073   1.946   1.622
  554SOL     OW 2560   4.141   5.100   4.501
  554SOL    HW1 2561   4.132   5.000   4.503
  554SOL    HW2 2562   4.186   5.128   4.416
  555SOL     OW 2563   1.653   4.588   5.396
  555SOL    HW1 2564   1.738   4.537   5.400
  555SOL    HW2 2565   1.576   4.529   5.422
  556SOL     OW 2566   6.114   4.040   2.854
  556SOL    HW1 2567   6.190   4.039   2.790
  556SOL    HW2 2568   6.134   4.102   2.930
  557SOL     OW 2569   6.448   5.809   5.746
  557SOL    HW1 2570   6.446   5.718   5.706
  557SOL    HW2 2571   6.364   5.858   5.723
  558SOL     OW 2572   4.251   3.613   5.629
  558SOL    HW1 2573   4.205   3.530   5.661
  558SOL    HW2 2574   4.274   3.671   5.706
  559SOL     OW 2575   5.817   5.018   6.280
  559SOL    HW1 2576   5.811   4.999   6.182
  559SOL    HW2 2577   5.912   5.014   6.309
  560SOL     OW 2578   3.878   6.569   0.372
  560SOL    HW1 2579   3.964   6.584   0.421
  560SOL    HW2 2580   3.827   6.656   0.368
  561SOL     OW 2581   5.880   6.881   1.939
  561SOL    HW1 2582   5.789   6.867   1.899
  561SOL    HW2 2583   5.881   6.844   2.032
  562SOL     OW 2584   6.588   0.754   0.557
  562SOL    HW1 2585   6.673   0.800   0.583
  562SOL    HW2 2586   6.594   0.657   0.581
  563SOL     OW 2587   2.828   0.723   5.229
  563SOL    HW1 2588   2.893   0.648   5.218
  563SOL    HW2 2589   2.784   0.743   5.142
  564SOL     OW 2590   0.694   1.723   5.662
  564SOL    HW1 2591   0.688   1.653   5.591
  564SOL    HW2 2592   0.603   1.740   5.700
  565SOL     OW 2593   4.598   3.884   6.035
  565SOL    HW1 2594   4.644   3.887   6.123
  565SOL    HW2 2595   4.665   3.881   5.961
  566SOL     OW 2596   6.738   5.027   2.256
  566SOL    HW1 2597   6.773   4.960   2.192
  566SOL    HW2 2598   6.750   4.994   2.350
  567SOL     OW 2599   3.712   3.889   5.389
  567SOL    HW1 2600   3.794   3.942   5.413
  567SOL    HW2 2601   3.653   3.880   5.469
  568SOL     OW 2602   1.967   0.998   6.606
  568SOL    HW1 2603   1.901   1.016   6.533
  568SOL    HW2 2604   1.928   0.934   6.672
  569SOL     OW 2605   1.824   4.148   6.566
  569SOL    HW1 2606   1.859   4.072   6.510
  569SOL    HW2 2607   1.738   4.120   6.610
  570SOL     OW 2608   6.967   6.140   0.048
  570SOL    HW1 2609   6.994   6.232   0.022
  570SOL    HW2 2610   6.876   6.141   0.090
  571SOL     OW 2611   4.021   6.466   2.145
  571SOL    HW1 2612   4.011   6.538   2.214
  571SOL    HW2 2613   4.076   6.392   2.182
  572SOL     OW 2614   1.319   4.322   4.099
  572SOL    HW1 2615   1.379   4.248   4.067
  572SOL    HW2 2616   1.252   4.285   4.162
  573SOL     OW 2617   3.390   2.563   6.815
  573SOL    HW1 2618   3.357   2.651   6.782
  573SOL    HW2 2619   3.429   2.511   6.738
  574SOL     OW 2620   2.804   2.311   3.948
  574SOL    HW1 2621   2.752   2.311   3.862
  574SOL    HW2 2622   2.900   2.294   3.929
  575SOL     OW 2623   4.754   2.431   6.463
  575SOL    HW1 2624   4.781   2.505   6.401
  575SOL    HW2 2625   4.731   2.350   6.409
  576SOL     OW 2626   1.251   3.227   3.015
  576SOL    HW1 2627   1.238   3.317   3.057
  576SOL    HW2 2628   1.239   3.235   2.916
  577SOL     OW 2629   4.256   1.860   4.037
  577SOL    HW1 2630   4.268   1.773   3.988
  577SOL    HW2 2631   4.294   1.851   4.129
  578SOL     OW 2632   7.001   4.043   4.016
  578SOL    HW1 2633   6.992   4.142   4.015
  578SOL    HW2 2634   6.960   4.006   4.100
  579SOL     OW 2635   3.816   3.490   0.349
  579SOL    HW1 2636   3.856   3.566   0.401
  579SOL    HW2 2637   3.722   3.474   0.380
  580SOL     OW 2638   0.265   6.588   0.062
  580SOL    HW1 2639   0.256   6.688   0.063
  580SOL    HW2 2640   0.302   6.557   0.150
  581SOL     OW 2641   4.049   3.421   3.150
  581SOL    HW1 2642   4.080   3.382   3.063
  581SOL    HW2 2643   4.045   3.520   3.143
  582SOL     OW 2644   6.672   4.277   0.446
  582SOL    HW1 2645   6.757   4.327   0.435
  582SOL    HW2 2646   6.627   4.267   0.357
  583SOL     OW 2647   2.473   6.347   6.546
  583SOL    HW1 2648   2.547   6.292   6.583
  583SOL    HW2 2649   2.490   6.444   6.568
  584SOL     OW 2650   1.601   5.112   4.595
  584SOL    HW1 2651   1.658   5.101   4.677
  584SOL    HW2 2652   1.519   5.055   4.604
  585SOL     OW 2653   5.637   0.674   5.348
  585SOL    HW1 2654   5.572   0.687   5.273
  585SOL    HW2 2655   5.725   0.714   5.322
  586SOL     OW 2656   2.940   5.835   1.108
  586SOL    HW1 2657   3.015   5.864   1.168
  586SOL    HW2 2658   2.978   5.797   1.023
  587SOL     OW 2659   2.136   2.982   6.544
  587SOL    HW1 2660   2.068   2.913   6.566
  587SOL    HW2 2661   2.109   3.070   6.585
  588SOL     OW 2662   2.045   0.006   1.722
  588SOL    HW1 2663   2.089   6.955   1.671
  588SOL    HW2 2664   2.018   0.079   1.660
  589SOL     OW 2665   4.542   4.816   1.329
  589SOL    HW1 2666   4.479   4.892   1.347
  589SOL    HW2 2667   4.576   4.779   1.415
  590SOL     OW 2668   6.755   3.613   1.751
  590SOL    HW1 2669   6.704   3.549   1.693
  590SOL    HW2 2670   6.693   3.685   1.783
  591SOL     OW 2671   2.867   0.262   2.964
  591SOL    HW1 2672   2.909   0.352   2.957
  591SOL    HW2 2673   2.835   0.232   2.874
  592SOL     OW 2674   5.562   6.875   6.008
  592SOL    HW1 2675   5.552   6.958   6.063
  592SOL    HW2 2676   5.508   6.801   6.049
  593SOL     OW 2677   0.048   0.823   4.777
  593SOL    HW1 2678   0.126   0.767   4.806
  593SOL    HW2 2679   6.986   0.773   4.795
  594SOL     OW 2680   5.780   2.237   1.698
  594SOL    HW1 2681   5.694   2.273   1.733
  594SOL    HW2 2682   5.856   2.280   1.745
  595SOL     OW 2683   3.475   0.263   3.626
  595SOL    HW1 2684   3.376   0.254   3.634
  595SOL    HW2 2685   3.519   0.222   3.706
  596SOL     OW 2686   1.103   4.510   1.706
  596SOL    HW1 2687   1.036   4.516   1.781
  596SOL    HW2 2688   1.180   4.570   1.726
  597SOL     OW 2689   4.583   2.143   6.032
  597SOL    HW1 2690   4.537   2.061   6.066
  597SOL    HW2 2691   4.672   2.152   6.078
  598SOL     OW 2692   2.942   3.608   1.462
  598SOL    HW1 2693   2.874   3.559   1.408
  598SOL    HW2 2694   3.029   3.609   1.414
  599SOL     OW 2695   6.290   5.970   3.741
  599SOL    HW1 2696   6.264   5.971   3.838
  599SOL    HW2 2697   6.216   6.009   3.687
  600SOL     OW 2698   2.857   1.039   1.414
  600SOL    HW1 2699   2.908   1.044   1.329
  600SOL    HW2 2700   2.918   1.058   1.491
  601SOL     OW 2701   2.177   5.022   3.206
  601SOL    HW1 2702   2.218   4.937   3.172
  601SOL    HW2 2703   2.179   5.022   3.306
  602SOL     OW 2704   6.739   0.468   2.420
  602SOL    HW1 2705   6.740   0.404   2.343
  602SOL    HW2 2706   6.658   0.526   2.414
  603SOL     OW 2707   4.318   1.817   2.898
  603SOL    HW1 2708   4.339   1.741   2.836
  603SOL    HW2 2709   4.221   1.817   2.920
  604SOL     OW 2710   1.393   3.305   5.795
  604SOL    HW1 2711   1.355   3.250   5.721
  604SOL    HW2 2712   1.457   3.249   5.848
  605SOL     OW 2713   5.490   0.162   4.398
  605SOL    HW1 2714   5.528   0.233   4.339
  605SOL    HW2 2715   5.469   0.202   4.488
  606SOL     OW 2716   2.705   6.441   2.101
  606SOL    HW1 2717   2.797   6.412   2.076
  606SOL    HW2 2718   2.648   6.360   2.119
  607SOL     OW 2719   3.901   0.754   4.515
  607SOL    HW1 2720   3.997   0.736   4.494
  607SOL    HW2 2721   3.857   0.798   4.437
  608SOL     OW 2722   5.808   2.999   0.952
  608SOL    HW1 2723   5.728   3.049   0.983
  608SOL    HW2 2724   5.857   2.962   1.031
  609SOL     OW 2725   3.551   3.826   4.997
  609SOL    HW1 2726   3.567   3.914   5.042
  609SOL    HW2 2727   3.471   3.782   5.038
  610SOL     OW 2728   6.392   1.886   4.582
  610SOL    HW1 2729   6.410   1.981   4.608
  610SOL    HW2 2730   6.294   1.868   4.586
  611SOL     OW 2731   5.887   7.016   0.230
  611SOL    HW1 2732   5.902   0.053   0.308
  611SOL    HW2 2733   5.935   0.030   0.150
  612SOL     OW 2734   2.100   4.546   6.539
  612SOL    HW1 2735   2.059   4.566   6.628
  612SOL    HW2 2736   2.190   4.505   6.552
  613SOL     OW 2737   4.205   1.229   6.784
  613SOL    HW1 2738   4.122   1.253   6.734
  613SOL    HW2 2739   4.186   1.232   6.882
  614SOL     OW 2740   4.989   3.190   0.982
  614SOL    HW1 2741   5.035   3.279   0.981
  614SOL    HW2 2742   5.040   3.126   1.039
  615SOL     OW 2743   6.086   6.200   0.244
  615SOL    HW1 2744   6.076   6.201   0.145
  615SOL    HW2 2745   6.183   6.204   0.268
  616SOL     OW 2746   4.853   1.758   4.551
  616SOL    HW1 2747   4.842   1.671   4.599
  616SOL    HW2 2748   4.848   1.833   4.617
  617SOL     OW 2749   6.623   6.396   4.752
  617SOL    HW1 2750   6.591   6.456   4.826
  617SOL    HW2 2751   6.623   6.446   4.666
  618SOL     OW 2752   5.630   5.091   0.298
  618SOL    HW1 2753   5.716   5.041   0.309
  618SOL    HW2 2754   5.567   5.037   0.242
  619SOL     OW 2755   2.102   0.130   6.670
  619SOL    HW1 2756   2.138   0.159   6.759
  619SOL    HW2 2757   2.115   0.203   6.603
  620SOL     OW 2758   4.607   2.264   2.062
  620SOL    HW1 2759   4.688   2.248   2.118
  620SOL    HW2 2760   4.544   2.325   2.110
  621SOL     OW 2761   2.568   0.345   6.130
  621SOL    HW1 2762   2.613   0.256   6.136
  621SOL    HW2 2763   2.470   0.334   6.144
  622SOL     OW 2764   0.190   3.520   5.896
  622SOL    HW1 2765   0.112   3.498   5.837
  622SOL    HW2 2766   0.176   3.477   5.985
  623SOL     OW 2767   6.791   1.443   2.912
  623SOL    HW1 2768   6.712   1.500   2.932
  623SOL    HW2 2769   6.782   1.355   2.960
  624SOL     OW 2770   6.876   0.925   6.632
  624SOL    HW1 2771   6.892   1.003   6.572
  624SOL    HW2 2772   6.779   0.920   6.655
  625SOL     OW 2773   3.418   1.091   1.428
  625SOL    HW1 2774   3.464   1.175   1.457
  625SOL    HW2 2775   3.379   1.046   1.508
  626SOL     OW 2776   0.452   5.993   3.778
  626SOL    HW1 2777   0.457   5.898   3.747
  626SOL    HW2 2778   0.371   6.005   3.836
  627SOL     OW 2779   6.647   5.295   6.407
  627SOL    HW1 2780   6.688   5.378   6.369
  627SOL    HW2 2781   6.696   5.269   6.490
  628SOL     OW 2782   3.850   4.455   6.482
  628SOL    HW1 2783   3.830   4.522   6.554
  628SOL    HW2 2784   3.927   4.397   6.510
  629SOL     OW 2785   1.931   0.241   0.214
  629SOL    HW1 2786   1.956   0.187   0.133
  629SOL    HW2 2787   1.994   0.219   0.289
  630SOL     OW 2788   6.071   2.317   0.934
  630SOL    HW1 2789   6.139   2.384   0.903
  630SOL    HW2 2790   6.034   2.268   0.854
  631SOL     OW 2791   1.821   3.272   2.687
  631SOL    HW1 2792   1.823   3.220   2.602
  631SOL    HW2 2793   1.910   3.315   2.702
  632SOL     OW 2794   3.486   4.580   1.446
  632SOL    HW1 2795   3.422   4.618   1.513
  632SOL    HW2 2796   3.578   4.615   1.464
  633SOL     OW 2797   0.620   6.159   0.327
  633SOL    HW1 2798   0.559   6.085   0.354
  633SOL    HW2 2799   0.596   6.191   0.235
  634SOL     OW 2800   2.773   3.350   5.653
  634SOL    HW1 2801   2.758   3.275   5.590
  634SOL    HW2 2802   2.730   3.330   5.741
  635SOL     OW 2803   6.446   6.877   6.386
  635SOL    HW1 2804   6.508   6.814   6.339
  635SOL    HW2 2805   6.402   6.830   6.462
  636SOL     OW 2806   2.273   1.472   4.286
  636SOL    HW1 2807   2.312   1.564   4.280
  636SOL    HW2 2808   2.178   1.477   4.315
  637SOL     OW 2809   6.969   1.660   2.192
  637SOL    HW1 2810   6.923   1.636   2.277
  637SOL    HW2 2811   6.902   1.695   2.126
  638SOL     OW 2812   6.915   3.352   5.082
  638SOL    HW1 2813   6.999   3.383   5.125
  638SOL    HW2 2814   6.837   3.401   5.122
  639SOL     OW 2815   5.656   3.218   1.686
  639SOL    HW1 2816   5.587   3.269   1.738
  639SOL    HW2 2817   5.661   3.254   1.593
  640SOL     OW 2818   6.368   3.411   2.993
  640SOL    HW1 2819   6.422   3.391   2.911
  640SOL    HW2 2820   6.272   3.420   2.968
  641SOL     OW 2821   2.475   5.788   4.390
  641SOL    HW1 2822   2.432   5.828   4.308
  641SOL    HW2 2823   2.436   5.697   4.406
  642SOL     OW 2824   1.066   5.213   4.330
  642SOL    HW1 2825   0.996   5.268   4.284
  642SOL    HW2 2826   1.054   5.117   4.306
  643SOL     OW 2827   4.488   4.986   0.547
  643SOL    HW1 2828   4.477   4.932   0.630
  643SOL    HW2 2829   4.542   5.068   0.567
  644SOL     OW 2830   6.247   0.523   4.812
  644SOL    HW1 2831   6.347   0.530   4.811
  644SOL    HW2 2832   6.217   0.467   4.735
  645SOL     OW 2833   4.241   6.534   1.689
  645SOL    HW1 2834   4.183   6.573   1.761
  645SOL    HW2 2835   4.234   6.435   1.691
  646SOL     OW 2836   3.528   2.066   4.835
  646SOL    HW1 2837   3.583   2.124   4.895
  646SOL    HW2 2838   3.553   1.971   4.849
  647SOL     OW 2839   2.977   1.960   0.102
  647SOL    HW1 2840   2.941   1.902   0.176
  647SOL    HW2 2841   2.916   1.954   0.023
  648SOL     OW 2842   5.334   1.517   4.362
  648SOL    HW1 2843   5.388   1.600   4.376
  648SOL    HW2 2844   5.246   1.526   4.407
  649SOL     OW 2845   3.198   5.960   0.625
  649SOL    HW1 2846   3.234   5.873   0.592
  649SOL    HW2 2847   3.211   5.967   0.724
  650SOL     OW 2848   2.146   3.471   1.362
  650SOL    HW1 2849   2.116   3.377   1.376
  650SOL    HW2 2850   2.146   3.520   1.449
  651SOL     OW 2851   0.259   1.605   2.975
  651SOL    HW1 2852   0.161   1.612   2.989
  651SOL    HW2 2853   0.299   1.697   2.973
  652SOL     OW 2854   3.986   6.193   0.541
  652SOL    HW1 2855   4.079   6.175   0.507
  652SOL    HW2 2856   3.924   6.203   0.463
  653SOL     OW 2857   1.397   0.158   2.582
  653SOL    HW1 2858   1.496   0.171   2.576
  653SOL    HW2 2859   1.368   0.086   2.518
  654SOL     OW 2860   1.476   6.999   6.045
  654SOL    HW1 2861   1.516   6.911   6.018
  654SOL    HW2 2862   1.445   0.025   5.964
  655SOL     OW 2863   1.560   3.722   1.176
  655SOL    HW1 2864   1.516   3.632   1.168
  655SOL    HW2 2865   1.651   3.718   1.136
  656SOL     OW 2866   2.355   0.553   6.870
  656SOL    HW1 2867   2.328   0.459   6.891
  656SOL    HW2 2868   2.406   0.554   6.784
  657SOL     OW 2869   3.837   3.246   4.048
  657SOL    HW1 2870   3.927   3.266   4.086
  657SOL    HW2 2871   3.842   3.164   3.990
  658SOL     OW 2872   1.844   0.830   4.713
  658SOL    HW1 2873   1.855   0.923   4.747
  658SOL    HW2 2874   1.835   0.767   4.790
  659SOL     OW 2875   2.037   5.661   6.858
  659SOL    HW1 2876   1.975   5.584   6.871
  659SOL    HW2 2877   2.015   5.707   6.772
  660SOL     OW 2878   5.584   4.232   2.504
  660SOL    HW1 2879   5.674   4.217   2.464
  660SOL    HW2 2880   5.555   4.150   2.553
  661SOL     OW 2881   4.687   5.965   4.001
  661SOL    HW1 2882   4.692   5.998   4.095
  661SOL    HW2 2883   4.748   5.887   3.990
  662SOL     OW 2884   6.221   3.795   6.609
  662SOL    HW1 2885   6.290   3.851   6.655
  662SOL    HW2 2886   6.221   3.704   6.650
  663SOL     OW 2887   1.105   4.195   5.743
  663SOL    HW1 2888   1.166   4.213   5.820
  663SOL    HW2 2889   1.049   4.114   5.764
  664SOL     OW 2890   1.465   0.368   5.485
  664SOL    HW1 2891   1.512   0.285   5.515
  664SOL    HW2 2892   1.416   0.350   5.399
  665SOL     OW 2893   2.377   4.408   3.366
  665SOL    HW1 2894   2.436   4.445   3.438
  665SOL    HW2 2895   2.339   4.482   3.312
  666SOL     OW 2896   3.196   0.307   6.891
  666SOL    HW1 2897   3.218   0.274   6.983
  666SOL    HW2 2898   3.098   0.327   6.885
  667SOL     OW 2899   1.193   2.850   2.430
  667SOL    HW1 2900   1.113   2.790   2.422
  667SOL    HW2 2901   1.230   2.845   2.523
  668SOL     OW 2902   5.331   6.875   0.228
  668SOL    HW1 2903   5.411   6.907   0.279
  668SOL    HW2 2904   5.303   6.786   0.264
  669SOL     OW 2905   6.943   5.332   2.372
  669SOL    HW1 2906   6.948   5.409   2.309
  669SOL    HW2 2907   6.848   5.318   2.400
  670SOL     OW 2908   3.815   3.901   3.395
  670SOL    HW1 2909   3.812   3.998   3.416
  670SOL    HW2 2910   3.756   3.882   3.316
  671SOL     OW 2911   1.839   0.171   6.493
  671SOL    HW1 2912   1.751   0.206   6.525
  671SOL    HW2 2913   1.861   0.086   6.541
  672SOL     OW 2914   1.148   2.744   3.263
  672SOL    HW1 2915   1.244   2.722   3.248
  672SOL    HW2 2916   1.140   2.806   3.341
  673SOL     OW 2917   5.283   0.342   6.636
  673SOL    HW1 2918   5.368   0.344   6.583
  673SOL    HW2 2919   5.233   0.427   6.623
  674SOL     OW 2920   0.185   2.474   4.297
  674SOL    HW1 2921   0.274   2.473   4.252
  674SOL    HW2 2922   0.159   2.380   4.321
  675SOL     OW 2923   5.557   6.301   3.737
  675SOL    HW1 2924   5.587   6.347   3.820
  675SOL    HW2 2925   5.520   6.211   3.761
  676SOL     OW 2926   3.081   4.933   4.450
  676SOL    HW1 2927   3.139   4.913   4.529
  676SOL    HW2 2928   3.011   4.863   4.441
  677SOL     OW 2929   4.836   6.574   0.589
  677SOL    HW1 2930   4.766   6.588   0.519
  677SOL    HW2 2931   4.794   6.586   0.679
  678SOL     OW 2932   2.418   1.018   5.959
  678SOL    HW1 2933   2.372   1.018   6.048
  678SOL    HW2 2934   2.477   0.938   5.951
  679SOL     OW 2935   6.333   0.374   2.585
  679SOL    HW1 2936   6.248   0.331   2.619
  679SOL    HW2 2937   6.360   0.330   2.499
  680SOL     OW 2938   6.352   3.987   4.255
  680SOL    HW1 2939   6.404   4.046   4.317
  680SOL    HW2 2940   6.255   4.008   4.264
  681SOL     OW 2941   1.302   5.772   2.299
  681SOL    HW1 2942   1.376   5.826   2.257
  681SOL    HW2 2943   1.214   5.815   2.280
  682SOL     OW 2944   0.473   0.261   6.001
  682SOL    HW1 2945   0.473   0.186   5.935
  682SOL    HW2 2946   0.392   0.317   5.987
  683SOL     OW 2947   5.128   1.408   1.780
  683SOL    HW1 2948   5.179   1.399   1.694
  683SOL    HW2 2949   5.031   1.422   1.760
  684SOL     OW 2950   0.157   5.862   6.821
  684SOL    HW1 2951   0.077   5.922   6.823
  684SOL    HW2 2952   0.155   5.801   6.900
  685SOL     OW 2953   6.066   0.345   5.624
  685SOL    HW1 2954   6.036   0.414   5.689
  685SOL    HW2 2955   6.004   0.266   5.628
  686SOL     OW 2956   5.466   4.672   1.673
  686SOL    HW1 2957   5.444   4.576   1.653
  686SOL    HW2 2958   5.532   4.705   1.605
  687SOL     OW 2959   5.520   2.021   6.636
  687SOL    HW1 2960   5.569   2.104   6.664
  687SOL    HW2 2961   5.471   2.039   6.551
  688SOL     OW 2962   6.402   3.275   5.207
  688SOL    HW1 2963   6.421   3.260   5.110
  688SOL    HW2 2964   6.322   3.334   5.216
  689SOL     OW 2965   5.461   4.310   4.419
  689SOL    HW1 2966   5.508   4.261   4.492
  689SOL    HW2 2967   5.522   4.381   4.382
  690SOL     OW 2968   0.176   2.831   4.754
  690SOL    HW1 2969   0.219   2.905   4.703
  690SOL    HW2 2970   0.186   2.745   4.703
  691SOL     OW 2971   0.313   3.124   6.850
  691SOL    HW1 2972   0.241   3.067   6.810
  691SOL    HW2 2973   0.372   3.067   6.908
  692SOL     OW 2974   2.716   0.336   3.387
  692SOL    HW1 2975   2.702   0.272   3.311
  692SOL    HW2 2976   2.805   0.381   3.377
  693SOL     OW 2977   6.468   1.706   3.959
  693SOL    HW1 2978   6.466   1.676   3.864
  693SOL    HW2 2979   6.433   1.633   4.018
  694SOL     OW 2980   1.311   0.439   2.912
  694SOL    HW1 2981   1.408   0.436   2.937
  694SOL    HW2 2982   1.264   0.507   2.968
  695SOL     OW 2983   4.647   5.474   6.616
  695SOL    HW1 2984   4.743   5.502   6.617
  695SOL    HW2 2985   4.606   5.500   6.528
  696SOL     OW 2986   5.218   5.578   2.446
  696SOL    HW1 2987   5.209   5.676   2.432
  696SOL    HW2 2988   5.132   5.541   2.483
  697SOL     OW 2989   1.206   3.921   3.291
  697SOL    HW1 2990   1.174   3.954   3.380
  697SOL    HW2 2991   1.149   3.844   3.262
  698SOL     OW 2992   4.744   6.361   3.670
  698SOL    HW1 2993   4.768   6.274   3.627
  698SOL    HW2 2994   4.754   6.353   3.769
  699SOL     OW 2995   1.375   4.954   6.194
  699SOL    HW1 2996   1.433   4.960   6.113
  699SOL    HW2 2997   1.360   4.858   6.218
  700SOL     OW 2998   1.491   1.659   5.099
  700SOL    HW1 2999   1.567   1.713   5.063
  700SOL    HW2 3000   1.483   1.574   5.046
  701SOL     OW 3001   1.320   4.841   5.064
  701SOL    HW1 3002   1.339   4.856   5.161
  701SOL    HW2 3003   1.401   4.865   5.011
  702SOL     OW 3004   5.925   6.079   5.221
  702SOL    HW1 3005   5.924   5.991   5.172
  702SOL    HW2 3006   5.924   6.154   5.154
  703SOL     OW 3007   5.868   3.598   6.229
  703SOL    HW1 3008   5.890   3.664   6.302
  703SOL    HW2 3009   5.911   3.627   6.144
  704SOL     OW 3010   2.503   6.686   1.569
  704SOL    HW1 3011   2.497   6.603   1.513
  704SOL    HW2 3012   2.525   6.661   1.663
  705SOL     OW 3013   1.028   2.016   3.706
  705SOL    HW1 3014   0.945   2.061   3.738
  705SOL    HW2 3015   1.107   2.077   3.719
  706SOL     OW 3016   5.347   3.515   3.993
  706SOL    HW1 3017   5.440   3.504   3.959
  706SOL    HW2 3018   5.348   3.518   4.093
  707SOL     OW 3019   5.083   2.678   2.999
  707SOL    HW1 3020   4.997   2.723   3.022
  707SOL    HW2 3021   5.098   2.681   2.900
  708SOL     OW 3022   5.155   1.922   1.839
  708SOL    HW1 3023   5.075   1.869   1.868
  708SOL    HW2 3024   5.227   1.914   1.908
  709SOL     OW 3025   1.226   5.049   6.554
  709SOL    HW1 3026   1.140   5.078   6.512
  709SOL    HW2 3027   1.254   4.962   6.515
  710SOL     OW 3028   2.904   3.625   3.044
  710SOL    HW1 3029   2.930   3.546   3.099
  710SOL    HW2 3030   2.882   3.702   3.105
  711SOL     OW 3031   0.419   0.869   4.652
  711SOL    HW1 3032   0.338   0.834   4.606
  711SOL    HW2 3033   0.487   0.896   4.585
  712SOL     OW 3034   6.884   4.070   3.362
  712SOL    HW1 3035   6.949   4.121   3.306
  712SOL    HW2 3036   6.826   4.014   3.304
  713SOL     OW 3037   3.033   3.913   5.532
  713SOL    HW1 3038   3.067   3.953   5.447
  713SOL    HW2 3039   3.075   3.961   5.609
  714SOL     OW 3040   4.356   4.938   5.098
  714SOL    HW1 3041   4.268   4.973   5.066
  714SOL    HW2 3042   4.413   4.913   5.020
  715SOL     OW 3043   6.318   0.407   6.440
  715SOL    HW1 3044   6.292   0.341   6.511
  715SOL    HW2 3045   6.391   0.369   6.384
  716SOL     OW 3046   6.047   5.590   0.082
  716SOL    HW1 3047   6.011   5.668   0.030
  716SOL    HW2 3048   5.974   5.552   0.139
  717SOL     OW 3049   6.068   3.220   6.109
  717SOL    HW1 3050   6.143   3.164   6.073
  717SOL    HW2 3051   6.107   3.302   6.153
  718SOL     OW 3052   3.267   2.556   0.044
  718SOL    HW1 3053   3.331   2.497   0.093
  718SOL    HW2 3054   3.300   2.571   6.974
  719SOL     OW 3055   5.989   4.689   6.787
  719SOL    HW1 3056   6.015   4.700   6.883
  719SOL    HW2 3057   5.959   4.777   6.750
  720SOL     OW 3058   4.107   1.351   5.644
  720SOL    HW1 3059   4.074   1.284   5.711
  720SOL    HW2 3060   4.205   1.337   5.628
  721SOL     OW 3061   1.107   0.098   5.276
  721SOL    HW1 3062   1.193   0.057   5.308
  721SOL    HW2 3063   1.126   0.158   5.198
  722SOL     OW 3064   4.685   0.565   5.127
  722SOL    HW1 3065   4.655   0.484   5.076
  722SOL    HW2 3066   4.757   0.539   5.191
  723SOL     OW 3067   0.683   3.319   2.045
  723SOL    HW1 3068   0.583   3.317   2.047
  723SOL    HW2 3069   0.716   3.402   2.091
  724SOL     OW 3070   0.189   2.004   4.593
  724SOL    HW1 3071   0.281   1.987   4.558
  724SOL    HW2 3072   0.126   1.937   4.553
  725SOL     OW 3073   2.675   4.924   2.790
  725SOL    HW1 3074   2.613   4.981   2.843
  725SOL    HW2 3075   2.624   4.875   2.719
  726SOL     OW 3076   5.149   5.772   5.667
  726SOL    HW1 3077   5.157   5.805   5.573
  726SOL    HW2 3078   5.235   5.786   5.715
  727SOL     OW 3079   2.095   4.709   4.408
  727SOL    HW1 3080   2.091   4.740   4.503
  727SOL    HW2 3081   2.095   4.609   4.406
  728SOL     OW 3082   6.553   2.801   5.910
  728SOL    HW1 3083   6.621   2.839   5.846
  728SOL    HW2 3084   6.559   2.850   5.997
  729SOL     OW 3085   4.468   1.676   0.766
  729SOL    HW1 3086   4.522   1.652   0.846
  729SOL    HW2 3087   4.492   1.616   0.690
  730SOL     OW 3088   6.290   1.480   4.792
  730SOL    HW1 3089   6.220   1.467   4.722
  730SOL    HW2 3090   6.247   1.506   4.878
  731SOL     OW 3091   6.903   2.123   3.851
  731SOL    HW1 3092   6.949   2.163   3.930
  731SOL    HW2 3093   6.880   2.027   3.871
  732SOL     OW 3094   0.633   3.546   3.407
  732SOL    HW1 3095   0.565   3.556   3.334
  732SOL    HW2 3096   0.587   3.558   3.496
  733SOL     OW 3097   4.651   4.774   4.152
  733SOL    HW1 3098   4.719   4.804   4.086
  733SOL    HW2 3099   4.694   4.757   4.241
  734SOL     OW 3100   0.864   6.245   0.247
  734SOL    HW1 3101   0.779   6.216   0.290
  734SOL    HW2 3102   0.843   6.294   0.162
  735SOL     OW 3103   3.053   4.918   6.385
  735SOL    HW1 3104   3.035   4.822   6.403
  735SOL    HW2 3105   3.000   4.975   6.448
  736SOL     OW 3106   5.739   1.142   2.533
  736SOL    HW1 3107   5.722   1.066   2.470
  736SOL    HW2 3108   5.673   1.215   2.514
  737SOL     OW 3109   5.425   3.645   0.004
  737SOL    HW1 3110   5.494   3.584   6.988
  737SOL    HW2 3111   5.435   3.737   6.988
  738SOL     OW 3112   0.551   4.169   3.396
  738SOL    HW1 3113   0.634   4.132   3.356
  738SOL    HW2 3114   0.571   4.256   3.441
  739SOL     OW 3115   4.698   6.384   6.082
  739SOL    HW1 3116   4.779   6.334   6.114
  739SOL    HW2 3117   4.698   6.387   5.982
  740SOL     OW 3118   5.518   6.845   0.563
  740SOL    HW1 3119   5.487   6.883   0.476
  740SOL    HW2 3120   5.553   6.752   0.548
  741SOL     OW 3121   2.628   0.195   3.856
  741SOL    HW1 3122   2.629   0.231   3.763
  741SOL    HW2 3123   2.611   0.270   3.921
  742SOL     OW 3124   1.641   6.435   2.572
  742SOL    HW1 3125   1.738   6.429   2.549
  742SOL    HW2 3126   1.626   6.513   2.632
  743SOL     OW 3127   1.776   3.747   3.057
  743SOL    HW1 3128   1.731   3.675   3.109
  743SOL    HW2 3129   1.816   3.814   3.120
  744SOL     OW 3130   6.526   4.959   1.039
  744SOL    HW1 3131   6.570   4.871   1.059
  744SOL    HW2 3132   6.446   4.943   0.980
  745SOL     OW 3133   1.664   5.777   2.591
  745SOL    HW1 3134   1.582   5.811   2.636
  745SOL    HW2 3135   1.707   5.852   2.539
  746SOL     OW 3136   3.036   0.005   3.337
  746SOL    HW1 3137   3.025   6.929   3.344
  746SOL    HW2 3138   2.975   0.040   3.266
  747SOL     OW 3139   6.696   3.599   0.955
  747SOL    HW1 3140   6.693   3.521   1.018
  747SOL    HW2 3141   6.622   3.663   0.977
  748SOL     OW 3142   3.319   2.897   3.025
  748SOL    HW1 3143   3.363   2.865   2.940
  748SOL    HW2 3144   3.245   2.835   3.049
  749SOL     OW 3145   5.630   2.240   5.063
  749SOL    HW1 3146   5.559   2.295   5.108
  749SOL    HW2 3147   5.718   2.289   5.067
  750SOL     OW 3148   3.266   3.611   2.095
  750SOL    HW1 3149   3.250   3.662   2.180
  750SOL    HW2 3150   3.201   3.640   2.026
  751SOL     OW 3151   5.597   1.839   0.203
  751SOL    HW1 3152   5.632   1.846   0.296
  751SOL    HW2 3153   5.674   1.836   0.139
  752SOL     OW 3154   4.464   0.796   1.981
  752SOL    HW1 3155   4.447   0.819   1.885
  752SOL    HW2 3156   4.528   0.862   2.020
  753SOL     OW 3157   3.884   1.668   2.330
  753SOL    HW1 3158   3.940   1.728   2.273
  753SOL    HW2 3159   3.788   1.678   2.303
  754SOL     OW 3160   5.435   5.684   6.749
  754SOL    HW1 3161   5.501   5.661   6.819
  754SOL    HW2 3162   5.350   5.633   6.764
  755SOL     OW 3163   6.100   5.686   1.995
  755SOL    HW1 3164   6.042   5.658   2.071
  755SOL    HW2 3165   6.193   5.651   2.010
  756SOL     OW 3166   2.617   6.659   3.767
  756SOL    HW1 3167   2.694   6.685   3.825
  756SOL    HW2 3168   2.582   6.570   3.795
  757SOL     OW 3169   6.695   0.520   3.939
  757SOL    HW1 3170   6.707   0.553   3.846
  757SOL    HW2 3171   6.772   0.548   3.996
  758SOL     OW 3172   4.629   1.964   0.855
  758SOL    HW1 3173   4.576   1.918   0.784
  758SOL    HW2 3174   4.569   2.020   0.911
  759SOL     OW 3175   2.126   0.604   1.678
  759SOL    HW1 3176   2.184   0.571   1.604
  759SOL    HW2 3177   2.174   0.675   1.729
  760SOL     OW 3178   4.538   1.846   6.296
  760SOL    HW1 3179   4.626   1.850   6.249
  760SOL    HW2 3180   4.553   1.850   6.395
  761SOL     OW 3181   5.197   0.789   6.768
  761SOL    HW1 3182   5.156   0.715   6.714
  761SOL    HW2 3183   5.135   0.867   6.770
  762SOL     OW 3184   2.224   4.727   4.777
  762SOL    HW1 3185   2.125   4.736   4.762
  762SOL    HW2 3186   2.268   4.815   4.762
  763SOL     OW 3187   6.576   5.018   0.293
  763SOL    HW1 3188   6.613   4.926   0.300
  763SOL    HW2 3189   6.646   5.084   0.322
  764SOL     OW 3190   6.054   1.415   2.799
  764SOL    HW1 3191   6.014   1.324   2.806
  764SOL    HW2 3192   6.139   1.419   2.852
  765SOL     OW 3193   1.076   6.750   3.183
  765SOL    HW1 3194   1.064   6.836   3.133
  765SOL    HW2 3195   1.174   6.735   3.200
  766SOL     OW 3196   6.727   6.170   0.187
  766SOL    HW1 3197   6.777   6.168   0.274
  766SOL    HW2 3198   6.716   6.265   0.158
  767SOL     OW 3199   5.975   6.022   1.089
  767SOL    HW1 3200   5.894   6.076   1.112
  767SOL    HW2 3201   5.971   5.934   1.136
  768SOL     OW 3202   3.076   6.907   4.186
  768SOL    HW1 3203   2.998   6.957   4.149
  768SOL    HW2 3204   3.045   6.845   4.259
  769SOL     OW 3205   4.436   0.855   0.216
  769SOL    HW1 3206   4.487   0.940   0.196
  769SOL    HW2 3207   4.410   0.812   0.130
  770SOL     OW 3208   3.267   4.897   4.631
  770SOL    HW1 3209   3.205   4.830   4.672
  770SOL    HW2 3210   3.334   4.927   4.699
  771SOL     OW 3211   0.436   6.088   4.652
  771SOL    HW1 3212   0.535   6.085   4.639
  771SOL    HW2 3213   0.396   6.001   4.623
  772SOL     OW 3214   0.271   3.835   6.297
  772SOL    HW1 3215   0.259   3.786   6.211
  772SOL    HW2 3216   0.245   3.931   6.284
  773SOL     OW 3217   6.907   3.258   2.245
  773SOL    HW1 3218   6.891   3.297   2.336
  773SOL    HW2 3219   6.938   3.163   2.255
  774SOL     OW 3220   1.403   1.117   1.881
  774SOL    HW1 3221   1.440   1.090   1.792
  774SOL    HW2 3222   1.452   1.198   1.914
  775SOL     OW 3223   1.817   2.830   3.993
  775SOL    HW1 3224   1.828   2.841   4.091
  775SOL    HW2 3225   1.760   2.750   3.974
  776SOL     OW 3226   1.830   0.715   4.945
  776SOL    HW1 3227   1.879   0.631   4.922
  776SOL    HW2 3228   1.767   0.697   5.021
  777SOL     OW 3229   4.315   6.912   6.602
  777SOL    HW1 3230   4.356   6.933   6.691
  777SOL    HW2 3231   4.217   6.894   6.613
  778SOL     OW 3232   4.573   5.498   4.878
  778SOL    HW1 3233   4.492   5.552   4.899
  778SOL    HW2 3234   4.567   5.462   4.785
  779SOL     OW 3235   0.566   0.211   2.100
  779SOL    HW1 3236   0.522   0.126   2.128
  779SOL    HW2 3237   0.604   0.257   2.181
  780SOL     OW 3238   5.736   2.434   4.830
  780SOL    HW1 3239   5.809   2.415   4.764
  780SOL    HW2 3240   5.651   2.393   4.797
  781SOL     OW 3241   0.818   3.103   6.545
  781SOL    HW1 3242   0.885   3.174   6.522
  781SOL    HW2 3243   0.747   3.143   6.603
  782SOL     OW 3244   6.923   4.855   0.927
  782SOL    HW1 3245   6.997   4.845   0.861
  782SOL    HW2 3246   6.936   4.788   1.001
  783SOL     OW 3247   1.752   5.456   0.232
  783SOL    HW1 3248   1.686   5.500   0.171
  783SOL    HW2 3249   1.710   5.442   0.322
  784SOL     OW 3250   5.538   5.449   3.371
  784SOL    HW1 3251   5.470   5.521   3.357
  784SOL    HW2 3252   5.491   5.360   3.376
  785SOL     OW 3253   6.694   2.406   3.491
  785SOL    HW1 3254   6.617   2.451   3.536
  785SOL    HW2 3255   6.716   2.454   3.407
  786SOL     OW 3256   6.093   6.647   0.599
  786SOL    HW1 3257   6.014   6.707   0.581
  786SOL    HW2 3258   6.061   6.553   0.610
  787SOL     OW 3259   4.546   1.130   0.156
  787SOL    HW1 3260   4.644   1.122   0.141
  787SOL    HW2 3261   4.501   1.153   0.070
  788SOL     OW 3262   0.074   4.184   3.253
  788SOL    HW1 3263   0.083   4.280   3.227
  788SOL    HW2 3264   0.154   4.156   3.306
  789SOL     OW 3265   5.540   3.109   0.989
  789SOL    HW1 3266   5.475   3.134   0.917
  789SOL    HW2 3267   5.518   3.160   1.072
  790SOL     OW 3268   3.204   0.734   4.230
  790SOL    HW1 3269   3.211   0.757   4.133
  790SOL    HW2 3270   3.158   0.645   4.240
  791SOL     OW 3271   4.232   1.313   4.622
  791SOL    HW1 3272   4.261   1.387   4.683
  791SOL    HW2 3273   4.312   1.271   4.579
  792SOL     OW 3274   5.337   0.778   3.469
  792SOL    HW1 3275   5.355   0.859   3.525
  792SOL    HW2 3276   5.248   0.787   3.424
  793SOL     OW 3277   0.057   0.126   6.706
  793SOL    HW1 3278   0.070   0.163   6.798
  793SOL    HW2 3279   0.069   0.200   6.639
  794SOL     OW 3280   3.490   4.671   5.266
  794SOL    HW1 3281   3.572   4.725   5.248
  794SOL    HW2 3282   3.514   4.591   5.321
  795SOL     OW 3283   5.253   5.153   0.128
  795SOL    HW1 3284   5.251   5.190   0.035
  795SOL    HW2 3285   5.165   5.170   0.172
  796SOL     OW 3286   0.423   1.574   5.589
  796SOL    HW1 3287   0.396   1.550   5.683
  796SOL    HW2 3288   0.343   1.605   5.538
  797SOL     OW 3289   5.671   3.155   5.719
  797SOL    HW1 3290   5.677   3.250   5.690
  797SOL    HW2 3291   5.668   3.096   5.639
  798SOL     OW 3292   6.794   0.888   4.538
  798SOL    HW1 3293   6.803   0.795   4.575
  798SOL    HW2 3294   6.718   0.934   4.584
  799SOL     OW 3295   6.443   3.956   3.502
  799SOL    HW1 3296   6.394   3.872   3.525
  799SOL    HW2 3297   6.540   3.936   3.489
  800SOL     OW 3298   0.178   2.028   2.318
  800SOL    HW1 3299   0.141   2.071   2.236
  800SOL    HW2 3300   0.141   1.936   2.328
  801SOL     OW 3301   0.367   2.626   3.719
  801SOL    HW1 3302   0.408   2.593   3.805
  801SOL    HW2 3303   0.439   2.638   3.651
  802SOL     OW 3304   6.543   1.055   1.054
  802SOL    HW1 3305   6.607   1.003   1.111
  802SOL    HW2 3306   6.581   1.145   1.034
  803SOL     OW 3307   1.777   0.072   4.336
  803SOL    HW1 3308   1.866   0.031   4.356
  803SOL    HW2 3309   1.788   0.170   4.320
  804SOL     OW 3310   6.298   6.815   0.616
  804SOL    HW1 3311   6.366   6.755   0.657
  804SOL    HW2 3312   6.214   6.764   0.597
  805SOL     OW 3313   2.047   3.035   6.300
  805SOL    HW1 3314   2.097   3.023   6.386
  805SOL    HW2 3315   2.065   2.957   6.240
  806SOL     OW 3316   4.130   6.597   0.475
  806SOL    HW1 3317   4.135   6.692   0.507
  806SOL    HW2 3318   4.178   6.588   0.388
  807SOL     OW 3319   0.690   6.849   3.081
  807SOL    HW1 3320   0.748   6.893   3.150
  807SOL    HW2 3321   0.617   6.798   3.127
  808SOL     OW 3322   5.592   3.979   4.969
  808SOL    HW1 3323   5.677   4.006   4.923
  808SOL    HW2 3324   5.518   4.040   4.942
  809SOL     OW 3325   0.678   6.505   5.729
  809SOL    HW1 3326   0.685   6.548   5.639
  809SOL    HW2 3327   0.770   6.490   5.765
  810SOL     OW 3328   6.200   5.561   6.272
  810SOL    HW1 3329   6.231   5.646   6.315
  810SOL    HW2 3330   6.272   5.492   6.281
  811SOL     OW 3331   3.297   4.880   3.118
  811SOL    HW1 3332   3.226   4.851   3.054
  811SOL    HW2 3333   3.257   4.890   3.209
  812SOL     OW 3334   6.751   0.564   2.828
  812SOL    HW1 3335   6.753   0.468   2.856
  812SOL    HW2 3336   6.669   0.581   2.774
  813SOL     OW 3337   5.218   5.328   1.913
  813SOL    HW1 3338   5.185   5.295   2.001
  813SOL    HW2 3339   5.146   5.383   1.869
  814SOL     OW 3340   4.936   5.377   1.613
  814SOL    HW1 3341   4.963   5.348   1.521
  814SOL    HW2 3342   4.857   5.324   1.642
  815SOL     OW 3343   1.310   1.113   0.724
  815SOL    HW1 3344   1.373   1.038   0.742
  815SOL    HW2 3345   1.228   1.102   0.780
  816SOL     OW 3346   5.961   0.844   1.850
  816SOL    HW1 3347   5.943   0.801   1.939
  816SOL    HW2 3348   5.997   0.776   1.786
  817SOL     OW 3349   0.862   2.129   2.346
  817SOL    HW1 3350   0.901   2.060   2.407
  817SOL    HW2 3351   0.768   2.104   2.322
  818SOL     OW 3352   5.561   1.351   2.432
  818SOL    HW1 3353   5.590   1.358   2.336
  818SOL    HW2 3354   5.507   1.432   2.456
  819SOL     OW 3355   0.643   5.288   2.058
  819SOL    HW1 3356   0.706   5.301   2.134
  819SOL    HW2 3357   0.574   5.220   2.083
  820SOL     OW 3358   2.207   3.048   5.749
  820SOL    HW1 3359   2.235   3.144   5.758
  820SOL    HW2 3360   2.251   3.008   5.669
  821SOL     OW 3361   0.718   4.529   0.610
  821SOL    HW1 3362   0.733   4.603   0.675
  821SOL    HW2 3363   0.744   4.558   0.518
  822SOL     OW 3364   1.391   3.106   4.979
  822SOL    HW1 3365   1.295   3.132   4.985
  822SOL    HW2 3366   1.403   3.040   4.904
  823SOL     OW 3367   3.888   3.985   1.830
  823SOL    HW1 3368   3.922   3.891   1.817
  823SOL    HW2 3369   3.884   4.005   1.928
  824SOL     OW 3370   6.350   2.406   6.184
  824SOL    HW1 3371   6.304   2.388   6.271
  824SOL    HW2 3372   6.448   2.412   6.200
  825SOL     OW 3373   1.439   3.235   1.672
  825SOL    HW1 3374   1.364   3.250   1.737
  825SOL    HW2 3375   1.417   3.278   1.585
  826SOL     OW 3376   1.221   3.190   6.304
  826SOL    HW1 3377   1.229   3.110   6.245
  826SOL    HW2 3378   1.300   3.195   6.365
  827SOL     OW 3379   3.563   4.533   1.139
  827SOL    HW1 3380   3.653   4.533   1.183
  827SOL    HW2 3381   3.573   4.506   1.043
  828SOL     OW 3382   6.053   0.301   5.353
  828SOL    HW1 3383   6.001   0.217   5.338
  828SOL    HW2 3384   6.051   0.325   5.450
  829SOL     OW 3385   3.523   3.908   5.624
  829SOL    HW1 3386   3.538   3.852   5.705
  829SOL    HW2 3387   3.442   3.876   5.576
  830SOL     OW 3388   4.553   3.450   5.848
  830SOL    HW1 3389   4.563   3.479   5.754
  830SOL    HW2 3390   4.512   3.523   5.902
  831SOL     OW 3391   5.518   0.289   4.996
  831SOL    HW1 3392   5.568   0.375   5.007
  831SOL    HW2 3393   5.525   0.235   5.080
  832SOL     OW 3394   2.592   1.620   5.894
  832SOL    HW1 3395   2.631   1.622   5.986
  832SOL    HW2 3396   2.597   1.712   5.854
  833SOL     OW 3397   1.269   0.539   5.047
  833SOL    HW1 3398   1.200   0.479   5.007
  833SOL    HW2 3399   1.347   0.545   4.985
  834SOL     OW 3400   3.368   4.524   5.789
  834SOL    HW1 3401   3.311   4.513   5.708
  834SOL    HW2 3402   3.464   4.508   5.765
  835SOL     OW 3403   3.906   1.385   2.364
  835SOL    HW1 3404   3.844   1.329   2.310
  835SOL    HW2 3405   3.894   1.481   2.341
  836SOL     OW 3406   2.231   0.833   6.317
  836SOL    HW1 3407   2.255   0.795   6.407
  836SOL    HW2 3408   2.280   0.919   6.303
  837SOL     OW 3409   3.997   1.720   4.826
  837SOL    HW1 3410   4.002   1.689   4.921
  837SOL    HW2 3411   3.945   1.805   4.821
  838SOL     OW 3412   1.153   6.389   1.999
  838SOL    HW1 3413   1.214   6.457   2.041
  838SOL    HW2 3414   1.185   6.370   1.906
  839SOL     OW 3415   2.413   1.527   1.915
  839SOL    HW1 3416   2.444   1.541   2.010
  839SOL    HW2 3417   2.372   1.436   1.907
  840SOL     OW 3418   1.345   0.750   5.750
  840SOL    HW1 3419   1.335   0.820   5.679
  840SOL    HW2 3420   1.279   0.767   5.823
  841SOL     OW 3421   0.176   3.599   1.333
  841SOL    HW1 3422   0.097   3.642   1.288
  841SOL    HW2 3423   0.165   3.500   1.332
  842SOL     OW 3424   4.118   4.773   4.159
  842SOL    HW1 3425   4.191   4.784   4.092
  842SOL    HW2 3426   4.058   4.853   4.156
  843SOL     OW 3427   6.984   3.768   1.648
  843SOL    HW1 3428   0.040   3.707   1.635
  843SOL    HW2 3429   6.908   3.715   1.684
  844SOL     OW 3430   5.901   4.544   6.480
  844SOL    HW1 3431   5.964   4.555   6.556
  844SOL    HW2 3432   5.813   4.586   6.503
  845SOL     OW 3433   1.887   4.842   5.640
  845SOL    HW1 3434   1.865   4.893   5.557
  845SOL    HW2 3435   1.864   4.897   5.720
  846SOL     OW 3436   3.988   2.497   6.975
  846SOL    HW1 3437   4.067   2.535   0.001
  846SOL    HW2 3438   3.938   2.436   0.013
  847SOL     OW 3439   5.030   4.312   1.765
  847SOL    HW1 3440   5.041   4.391   1.704
  847SOL    HW2 3441   4.965   4.335   1.838
  848SOL     OW 3442   5.661   0.021   5.562
  848SOL    HW1 3443   5.625   0.100   5.612
  848SOL    HW2 3444   5.592   7.011   5.498
  849SOL     OW 3445   0.630   5.743   4.314
  849SOL    HW1 3446   0.704   5.779   4.257
  849SOL    HW2 3447   0.648   5.766   4.410
  850SOL     OW 3448   3.164   0.574   3.226
  850SOL    HW1 3449   3.141   0.670   3.247
  850SOL    HW2 3450   3.263   0.563   3.224
  851SOL     OW 3451   6.848   1.126   5.744
  851SOL    HW1 3452   6.749   1.133   5.748
  851SOL    HW2 3453   6.876   1.096   5.653
  852SOL     OW 3454   2.879   4.935   5.388
  852SOL    HW1 3455   2.856   4.992   5.309
  852SOL    HW2 3456   2.926   4.852   5.356
  853SOL     OW 3457   0.455   4.434   0.560
  853SOL    HW1 3458   0.535   4.485   0.592
  853SOL    HW2 3459   0.450   4.347   0.609
  854SOL     OW 3460   5.877   4.970   0.995
  854SOL    HW1 3461   5.797   4.964   0.936
  854SOL    HW2 3462   5.848   4.965   1.091
  855SOL     OW 3463   5.261   0.161   0.617
  855SOL    HW1 3464   5.320   0.160   0.537
  855SOL    HW2 3465   5.184   0.223   0.602
  856SOL     OW 3466   1.456   0.184   4.592
  856SOL    HW1 3467   1.513   0.225   4.663
  856SOL    HW2 3468   1.440   0.252   4.520
  857SOL     OW 3469   5.459   3.987   1.321
  857SOL    HW1 3470   5.460   4.069   1.265
  857SOL    HW2 3471   5.369   3.944   1.317
  858SOL     OW 3472   3.663   4.102   2.386
  858SOL    HW1 3473   3.693   4.196   2.368
  858SOL    HW2 3474   3.721   4.061   2.456
  859SOL     OW 3475   0.486   4.250   0.194
  859SOL    HW1 3476   0.524   4.180   0.254
  859SOL    HW2 3477   0.549   4.327   0.188
  860SOL     OW 3478   1.631   3.795   6.545
  860SOL    HW1 3479   1.717   3.813   6.594
  860SOL    HW2 3480   1.652   3.756   6.455
  861SOL     OW 3481   4.129   4.575   6.335
  861SOL    HW1 3482   4.040   4.618   6.353
  861SOL    HW2 3483   4.150   4.511   6.410
  862SOL     OW 3484   4.697   4.305   3.649
  862SOL    HW1 3485   4.713   4.221   3.700
  862SOL    HW2 3486   4.743   4.382   3.695
  863SOL     OW 3487   5.658   2.775   1.462
  863SOL    HW1 3488   5.562   2.775   1.489
  863SOL    HW2 3489   5.715   2.786   1.543
  864SOL     OW 3490   0.230   5.582   2.394
  864SOL    HW1 3491   0.165   5.550   2.325
  864SOL    HW2 3492   0.225   5.524   2.475
  865SOL     OW 3493   1.795   0.830   3.524
  865SOL    HW1 3494   1.769   0.866   3.435
  865SOL    HW2 3495   1.814   0.907   3.586
  866SOL     OW 3496   4.396   1.057   1.321
  866SOL    HW1 3497   4.368   1.100   1.407
  866SOL    HW2 3498   4.348   1.101   1.245
  867SOL     OW 3499   2.607   1.573   6.331
  867SOL    HW1 3500   2.665   1.492   6.340
  867SOL    HW2 3501   2.650   1.638   6.269
  868SOL     OW 3502   5.429   1.936   3.610
  868SOL    HW1 3503   5.373   1.891   3.541
  868SOL    HW2 3504   5.370   1.986   3.673
  869SOL     OW 3505   6.508   3.794   0.994
  869SOL    HW1 3506   6.416   3.766   1.020
  869SOL    HW2 3507   6.509   3.891   0.969
  870SOL     OW 3508   5.934   1.771   0.548
  870SOL    HW1 3509   5.992   1.825   0.609
  870SOL    HW2 3510   5.883   1.704   0.602
  871SOL     OW 3511   6.952   4.558   0.774
  871SOL    HW1 3512   7.008   4.640   0.783
  871SOL    HW2 3513   7.012   4.477   0.768
  872SOL     OW 3514   6.914   2.079   2.001
  872SOL    HW1 3515   6.996   2.123   2.037
  872SOL    HW2 3516   6.833   2.131   2.028
  873SOL     OW 3517   3.971   6.911   4.728
  873SOL    HW1 3518   3.970   6.856   4.645
  873SOL    HW2 3519   3.878   6.939   4.751
  874SOL     OW 3520   0.834   4.288   6.513
  874SOL    HW1 3521   0.766   4.361   6.521
  874SOL    HW2 3522   0.920   4.325   6.477
  875SOL     OW 3523   6.524   5.827   6.559
  875SOL    HW1 3524   6.506   5.874   6.472
  875SOL    HW2 3525   6.504   5.889   6.635
  876SOL     OW 3526   2.517   2.002   1.423
  876SOL    HW1 3527   2.539   1.905   1.427
  876SOL    HW2 3528   2.576   2.052   1.486
  877SOL     OW 3529   5.771   5.682   6.327
  877SOL    HW1 3530   5.790   5.755   6.392
  877SOL    HW2 3531   5.685   5.637   6.353
  878SOL     OW 3532   3.822   3.026   0.973
  878SOL    HW1 3533   3.809   3.099   1.040
  878SOL    HW2 3534   3.827   2.938   1.019
  879SOL     OW 3535   4.995   2.871   3.839
  879SOL    HW1 3536   4.902   2.897   3.812
  879SOL    HW2 3537   5.040   2.826   3.762
  880SOL     OW 3538   4.300   5.812   1.601
  880SOL    HW1 3539   4.309   5.903   1.561
  880SOL    HW2 3540   4.368   5.751   1.560
  881SOL     OW 3541   5.355   5.013   3.220
  881SOL    HW1 3542   5.433   5.057   3.265
  881SOL    HW2 3543   5.370   4.915   3.217
  882SOL     OW 3544   0.753   2.430   4.808
  882SOL    HW1 3545   0.687   2.436   4.883
  882SOL    HW2 3546   0.765   2.520   4.766
  883SOL     OW 3547   3.260   4.864   0.157
  883SOL    HW1 3548   3.209   4.950   0.154
  883SOL    HW2 3549   3.229   4.804   0.083
  884SOL     OW 3550   3.941   4.344   1.576
  884SOL    HW1 3551   3.862   4.336   1.637
  884SOL    HW2 3552   4.013   4.282   1.608
  885SOL     OW 3553   4.331   5.949   5.719
  885SOL    HW1 3554   4.289   5.998   5.795
  885SOL    HW2 3555   4.430   5.965   5.718
  886SOL     OW 3556   3.837   2.429   6.246
  886SOL    HW1 3557   3.922   2.478   6.230
  886SOL    HW2 3558   3.780   2.481   6.310
  887SOL     OW 3559   6.235   5.822   4.966
  887SOL    HW1 3560   6.201   5.915   4.952
  887SOL    HW2 3561   6.334   5.820   4.953
  888SOL     OW 3562   6.349   1.214   3.347
  888SOL    HW1 3563   6.341   1.119   3.320
  888SOL    HW2 3564   6.320   1.225   3.442
  889SOL     OW 3565   0.404   0.457   4.862
  889SOL    HW1 3566   0.486   0.490   4.909
  889SOL    HW2 3567   0.422   0.453   4.763
  890SOL     OW 3568   1.625   3.431   1.384
  890SOL    HW1 3569   1.664   3.347   1.346
  890SOL    HW2 3570   1.528   3.435   1.360
  891SOL     OW 3571   6.337   3.524   5.848
  891SOL    HW1 3572   6.387   3.593   5.794
  891SOL    HW2 3573   6.265   3.484   5.792
  892SOL     OW 3574   2.221   4.587   1.988
  892SOL    HW1 3575   2.125   4.577   2.014
  892SOL    HW2 3576   2.231   4.668   1.930
  893SOL     OW 3577   2.096   6.990   2.184
  893SOL    HW1 3578   2.012   6.956   2.226
  893SOL    HW2 3579   2.073   0.032   2.112
  894SOL     OW 3580   1.761   5.692   4.501
  894SOL    HW1 3581   1.664   5.687   4.476
  894SOL    HW2 3582   1.784   5.616   4.562
  895SOL     OW 3583   2.712   0.835   4.825
  895SOL    HW1 3584   2.648   0.909   4.849
  895SOL    HW2 3585   2.806   0.867   4.837
  896SOL     OW 3586   4.689   0.080   3.325
  896SOL    HW1 3587   4.684   0.031   3.238
  896SOL    HW2 3588   4.675   0.178   3.309
  897SOL     OW 3589   5.966   1.128   6.253
  897SOL    HW1 3590   6.003   1.055   6.310
  897SOL    HW2 3591   6.014   1.130   6.166
  898SOL     OW 3592   5.356   6.542   3.635
  898SOL    HW1 3593   5.446   6.511   3.603
  898SOL    HW2 3594   5.285   6.502   3.578
  899SOL     OW 3595   1.445   5.020   0.060
  899SOL    HW1 3596   1.492   5.051   0.143
  899SOL    HW2 3597   1.432   5.097   7.021
  900SOL     OW 3598   0.620   5.046   3.212
  900SOL    HW1 3599   0.591   4.966   3.160
  900SOL    HW2 3600   0.647   5.017   3.304
  901SOL     OW 3601   6.505   1.837   3.382
  901SOL    HW1 3602   6.433   1.828   3.450
  901SOL    HW2 3603   6.585   1.879   3.423
  902SOL     OW 3604   1.612   6.253   0.168
  902SOL    HW1 3605   1.659   6.298   0.092
  902SOL    HW2 3606   1.582   6.163   0.140
  903SOL     OW 3607   0.828   5.023   6.290
  903SOL    HW1 3608   0.800   5.108   6.246
  903SOL    HW2 3609   0.753   4.958   6.288
  904SOL     OW 3610   2.045   1.574   4.079
  904SOL    HW1 3611   2.036   1.511   4.156
  904SOL    HW2 3612   2.126   1.632   4.093
  905SOL     OW 3613   6.035   3.264   3.711
  905SOL    HW1 3614   6.062   3.325   3.786
  905SOL    HW2 3615   5.962   3.308   3.658
  906SOL     OW 3616   6.481   3.322   5.461
  906SOL    HW1 3617   6.451   3.284   5.373
  906SOL    HW2 3618   6.458   3.419   5.465
  907SOL     OW 3619   6.831   3.620   2.452
  907SOL    HW1 3620   6.794   3.563   2.379
  907SOL    HW2 3621   6.756   3.655   2.508
  908SOL     OW 3622   2.725   1.133   3.696
  908SOL    HW1 3623   2.642   1.077   3.695
  908SOL    HW2 3624   2.805   1.075   3.712
  909SOL     OW 3625   3.871   6.939   1.922
  909SOL    HW1 3626   3.898   6.941   1.825
  909SOL    HW2 3627   3.793   7.000   1.936
  910SOL     OW 3628   1.260   0.869   1.663
  910SOL    HW1 3629   1.347   0.899   1.624
  910SOL    HW2 3630   1.269   0.774   1.695
  911SOL     OW 3631   1.057   2.971   1.025
  911SOL    HW1 3632   1.067   3.065   1.059
  911SOL    HW2 3633   1.108   2.909   1.085
  912SOL     OW 3634   2.060   1.154   0.212
  912SOL    HW1 3635   2.074   1.084   0.282
  912SOL    HW2 3636   2.010   1.116   0.135
  913SOL     OW 3637   2.103   1.730   2.465
  913SOL    HW1 3638   2.051   1.750   2.382
  913SOL    HW2 3639   2.072   1.790   2.539
  914SOL     OW 3640   2.727   4.675   2.446
  914SOL    HW1 3641   2.771   4.628   2.369
  914SOL    HW2 3642   2.699   4.767   2.417
  915SOL     OW 3643   2.395   2.119   0.738
  915SOL    HW1 3644   2.368   2.210   0.770
  915SOL    HW2 3645   2.425   2.063   0.815
  916SOL     OW 3646   1.212   3.534   2.315
  916SOL    HW1 3647   1.300   3.548   2.361
  916SOL    HW2 3648   1.225   3.477   2.234
  917SOL     OW 3649   3.767   0.532   6.203
  917SOL    HW1 3650   3.777   0.629   6.225
  917SOL    HW2 3651   3.676   0.501   6.229
  918SOL     OW 3652   0.348   2.311   4.938
  918SOL    HW1 3653   0.260   2.320   4.891
  918SOL    HW2 3654   0.380   2.217   4.931
  919SOL     OW 3655   1.031   0.928   1.080
  919SOL    HW1 3656   1.079   0.842   1.101
  919SOL    HW2 3657   0.939   0.925   1.120
  920SOL     OW 3658   1.448   1.695   2.198
  920SOL    HW1 3659   1.352   1.676   2.221
  920SOL    HW2 3660   1.455   1.728   2.104
  921SOL     OW 3661   4.296   4.426   0.300
  921SOL    HW1 3662   4.268   4.519   0.325
  921SOL    HW2 3663   4.391   4.411   0.329
  922SOL     OW 3664   2.117   5.833   0.038
  922SOL    HW1 3665   2.054   5.815   0.114
  922SOL    HW2 3666   2.086   5.782   6.981
  923SOL     OW 3667   4.156   1.305   0.027
  923SOL    HW1 3668   4.061   1.327   0.006
  923SOL    HW2 3669   4.183   1.351   0.111
  924SOL     OW 3670   5.884   4.843   1.689
  924SOL    HW1 3671   5.900   4.905   1.766
  924SOL    HW2 3672   5.878   4.749   1.722
  925SOL     OW 3673   6.267   2.478   1.851
  925SOL    HW1 3674   6.295   2.567   1.815
  925SOL    HW2 3675   6.295   2.471   1.947
  926SOL     OW 3676   4.063   5.515   1.859
  926SOL    HW1 3677   4.072   5.448   1.784
  926SOL    HW2 3678   4.131   5.588   1.847
  927SOL     OW 3679   4.706   5.238   5.288
  927SOL    HW1 3680   4.631   5.185   5.327
  927SOL    HW2 3681   4.789   5.224   5.343
  928SOL     OW 3682   0.368   1.762   1.461
  928SOL    HW1 3683   0.457   1.803   1.441
  928SOL    HW2 3684   0.308   1.832   1.500
  929SOL     OW 3685   0.465   2.613   2.317
  929SOL    HW1 3686   0.555   2.636   2.353
  929SOL    HW2 3687   0.397   2.617   2.390
  930SOL     OW 3688   5.910   4.928   2.014
  930SOL    HW1 3689   5.867   4.854   2.066
  930SOL    HW2 3690   6.005   4.938   2.044
  931SOL     OW 3691   1.092   2.341   1.753
  931SOL    HW1 3692   1.026   2.291   1.698
  931SOL    HW2 3693   1.089   2.438   1.729
  932SOL     OW 3694   4.370   6.240   1.177
  932SOL    HW1 3695   4.328   6.328   1.152
  932SOL    HW2 3696   4.461   6.257   1.215
  933SOL     OW 3697   1.178   6.497   3.769
  933SOL    HW1 3698   1.258   6.508   3.710
  933SOL    HW2 3699   1.101   6.463   3.714
  934SOL     OW 3700   3.396   1.664   5.516
  934SOL    HW1 3701   3.305   1.658   5.474
  934SOL    HW2 3702   3.463   1.616   5.459
  935SOL     OW 3703   1.343   3.656   4.270
  935SOL    HW1 3704   1.393   3.737   4.237
  935SOL    HW2 3705   1.247   3.680   4.284
  936SOL     OW 3706   0.921   1.238   1.720
  936SOL    HW1 3707   0.959   1.168   1.781
  936SOL    HW2 3708   0.962   1.327   1.741
  937SOL     OW 3709   4.954   1.845   3.207
  937SOL    HW1 3710   4.889   1.919   3.192
  937SOL    HW2 3711   5.036   1.861   3.153
  938SOL     OW 3712   0.617   0.765   6.235
  938SOL    HW1 3713   0.571   0.678   6.215
  938SOL    HW2 3714   0.646   0.766   6.330
  939SOL     OW 3715   6.199   0.827   4.829
  939SOL    HW1 3716   6.294   0.839   4.860
  939SOL    HW2 3717   6.186   0.732   4.801
  940SOL     OW 3718   5.952   0.272   3.650
  940SOL    HW1 3719   5.867   0.239   3.609
  940SOL    HW2 3720   5.977   0.360   3.609
  941SOL     OW 3721   5.699   2.972   5.497
  941SOL    HW1 3722   5.610   2.960   5.452
  941SOL    HW2 3723   5.772   2.966   5.430
  942SOL     OW 3724   4.354   6.850   5.365
  942SOL    HW1 3725   4.389   6.770   5.317
  942SOL    HW2 3726   4.430   6.914   5.382
  943SOL     OW 3727   5.406   2.657   0.226
  943SOL    HW1 3728   5.413   2.713   0.308
  943SOL    HW2 3729   5.468   2.579   0.233
  944SOL     OW 3730   5.064   4.630   4.087
  944SOL    HW1 3731   5.096   4.613   4.180
  944SOL    HW2 3732   5.027   4.545   4.049
  945SOL     OW 3733   5.597   2.895   6.845
  945SOL    HW1 3734   5.552   2.886   6.933
  945SOL    HW2 3735   5.599   2.806   6.800
  946SOL     OW 3736   6.191   3.685   6.305
  946SOL    HW1 3737   6.191   3.585   6.301
  946SOL    HW2 3738   6.121   3.716   6.370
  947SOL     OW 3739   1.136   2.554   6.030
  947SOL    HW1 3740   1.165   2.482   6.093
  947SOL    HW2 3741   1.040   2.577   6.047
  948SOL     OW 3742   3.870   2.370   0.188
  948SOL    HW1 3743   3.845   2.419   0.271
  948SOL    HW2 3744   3.798   2.304   0.165
  949SOL     OW 3745   5.139   5.772   6.054
  949SOL    HW1 3746   5.056   5.717   6.044
  949SOL    HW2 3747   5.215   5.729   6.005
  950SOL     OW 3748   3.466   5.527   0.620
  950SOL    HW1 3749   3.506   5.492   0.705
  950SOL    HW2 3750   3.501   5.474   0.542
  951SOL     OW 3751   1.432   3.087   4.016
  951SOL    HW1 3752   1.352   3.118   3.964
  951SOL    HW2 3753   1.515   3.108   3.964
  952SOL     OW 3754   4.965   0.825   1.522
  952SOL    HW1 3755   4.876   0.872   1.520
  952SOL    HW2 3756   5.032   0.878   1.470
  953SOL     OW 3757   4.163   6.715   5.945
  953SOL    HW1 3758   4.239   6.772   5.915
  953SOL    HW2 3759   4.086   6.726   5.882
  954SOL     OW 3760   6.407   6.778   1.072
  954SOL    HW1 3761   6.365   6.687   1.069
  954SOL    HW2 3762   6.445   6.794   1.163
  955SOL     OW 3763   1.014   5.675   3.286
  955SOL    HW1 3764   0.963   5.667   3.372
  955SOL    HW2 3765   1.002   5.768   3.249
  956SOL     OW 3766   1.889   2.760   1.059
  956SOL    HW1 3767   1.838   2.841   1.087
  956SOL    HW2 3768   1.888   2.753   0.959
  957SOL     OW 3769   1.938   6.227   4.622
  957SOL    HW1 3770   1.915   6.298   4.557
  957SOL    HW2 3771   1.930   6.263   4.715
  958SOL     OW 3772   4.689   2.534   6.722
  958SOL    HW1 3773   4.781   2.533   6.763
  958SOL    HW2 3774   4.696   2.512   6.625
  959SOL     OW 3775   1.387   3.986   0.792
  959SOL    HW1 3776   1.415   3.995   0.887
  959SOL    HW2 3777   1.404   4.072   0.744
  960SOL     OW 3778   1.568   3.913   5.932
  960SOL    HW1 3779   1.506   3.990   5.913
  960SOL    HW2 3780   1.653   3.926   5.882
  961SOL     OW 3781   3.198   6.714   6.500
  961SOL    HW1 3782   3.297   6.717   6.487
  961SOL    HW2 3783   3.167   6.801   6.539
  962SOL     OW 3784   0.751   0.397   3.318
  962SOL    HW1 3785   0.811   0.473   3.346
  962SOL    HW2 3786   0.800   0.338   3.255
  963SOL     OW 3787   5.834   0.305   2.502
  963SOL    HW1 3788   5.912   0.323   2.442
  963SOL    HW2 3789   5.784   0.225   2.470
  964SOL     OW 3790   5.794   4.231   1.444
  964SOL    HW1 3791   5.760   4.141   1.469
  964SOL    HW2 3792   5.733   4.273   1.376
  965SOL     OW 3793   1.984   1.384   0.396
  965SOL    HW1 3794   2.016   1.318   0.327
  965SOL    HW2 3795   1.923   1.450   0.354
  966SOL     OW 3796   5.825   2.729   1.664
  966SOL    HW1 3797   5.920   2.760   1.667
  966SOL    HW2 3798   5.818   2.640   1.708
  967SOL     OW 3799   1.114   5.167   2.901
  967SOL    HW1 3800   1.131   5.254   2.854
  967SOL    HW2 3801   1.025   5.168   2.944
  968SOL     OW 3802   0.339   4.454   0.321
  968SOL    HW1 3803   0.382   4.383   0.265
  968SOL    HW2 3804   0.392   4.468   0.404
  969SOL     OW 3805   3.816   6.591   6.639
  969SOL    HW1 3806   3.779   6.592   6.545
  969SOL    HW2 3807   3.903   6.640   6.641
  970SOL     OW 3808   4.929   3.446   6.350
  970SOL    HW1 3809   4.883   3.358   6.362
  970SOL    HW2 3810   4.862   3.520   6.356
  971SOL     OW 3811   0.229   2.740   7.016
  971SOL    HW1 3812   0.245   2.644   6.993
  971SOL    HW2 3813   0.316   2.787   0.004
  972SOL     OW 3814   4.994   6.890   6.955
  972SOL    HW1 3815   5.014   6.983   6.988
  972SOL    HW2 3816   4.908   6.859   6.993
  973SOL     OW 3817   6.279   3.078   5.930
  973SOL    HW1 3818   6.360   3.092   5.986
  973SOL    HW2 3819   6.291   3.122   5.842
  974SOL     OW 3820   1.948   0.257   4.582
  974SOL    HW1 3821   1.986   0.336   4.534
  974SOL    HW2 3822   1.849   0.267   4.589
  975SOL     OW 3823   3.077   6.818   5.011
  975SOL    HW1 3824   3.034   6.829   5.101
  975SOL    HW2 3825   3.008   6.829   4.939
  976SOL     OW 3826   0.352   4.983   3.939
  976SOL    HW1 3827   0.270   4.976   3.881
  976SOL    HW2 3828   0.348   5.066   3.993
  977SOL     OW 3829   1.231   1.987   2.168
  977SOL    HW1 3830   1.207   2.052   2.241
  977SOL    HW2 3831   1.197   2.022   2.081
  978SOL     OW 3832   5.927   2.818   4.162
  978SOL    HW1 3833   5.945   2.746   4.096
  978SOL    HW2 3834   5.858   2.881   4.125
  979SOL     OW 3835   6.311   2.032   2.852
  979SOL    HW1 3836   6.257   1.966   2.800
  979SOL    HW2 3837   6.290   2.023   2.950
  980SOL     OW 3838   6.703   0.128   5.675
  980SOL    HW1 3839   6.698   0.134   5.775
  980SOL    HW2 3840   6.714   0.032   5.648
  981SOL     OW 3841   6.535   3.240   6.671
  981SOL    HW1 3842   6.571   3.332   6.689
  981SOL    HW2 3843   6.439   3.237   6.697
  982SOL     OW 3844   1.673   4.631   0.638
  982SOL    HW1 3845   1.730   4.700   0.683
  982SOL    HW2 3846   1.577   4.651   0.655
  983SOL     OW 3847   5.585   1.054   3.398
  983SOL    HW1 3848   5.626   1.124   3.457
  983SOL    HW2 3849   5.657   0.996   3.360
  984SOL     OW 3850   4.776   3.081   5.112
  984SOL    HW1 3851   4.802   3.174   5.086
  984SOL    HW2 3852   4.826   3.055   5.195
  985SOL     OW 3853   1.751   4.251   0.338
  985SOL    HW1 3854   1.787   4.242   0.245
  985SOL    HW2 3855   1.766   4.165   0.388
  986SOL     OW 3856   4.936   4.237   5.406
  986SOL    HW1 3857   5.005   4.196   5.348
  986SOL    HW2 3858   4.887   4.309   5.356
  987SOL     OW 3859   3.320   0.657   2.839
  987SOL    HW1 3860   3.253   0.639   2.767
  987SOL    HW2 3861   3.317   0.584   2.906
  988SOL     OW 3862   3.690   2.808   1.459
  988SOL    HW1 3863   3.659   2.900   1.482
  988SOL    HW2 3864   3.726   2.763   1.541
  989SOL     OW 3865   0.531   1.231   4.085
  989SOL    HW1 3866   0.485   1.193   4.005
  989SOL    HW2 3867   0.541   1.159   4.154
  990SOL     OW 3868   5.262   6.516   2.363
  990SOL    HW1 3869   5.293   6.607   2.335
  990SOL    HW2 3870   5.320   6.484   2.438
  991SOL     OW 3871   5.860   1.562   5.628
  991SOL    HW1 3872   5.933   1.494   5.625
  991SOL    HW2 3873   5.855   1.602   5.720
  992SOL     OW 3874   0.070   2.759   1.262
  992SOL    HW1 3875   0.016   2.703   1.325
  992SOL    HW2 3876   0.141   2.808   1.312
  993SOL     OW 3877   4.410   6.820   4.702
  993SOL    HW1 3878   4.363   6.893   4.653
  993SOL    HW2 3879   4.447   6.855   4.788
  994SOL     OW 3880   2.933   3.776   3.258
  994SOL    HW1 3881   2.875   3.786   3.339
  994SOL    HW2 3882   3.021   3.822   3.273
  995SOL     OW 3883   0.498   1.944   5.213
  995SOL    HW1 3884   0.485   2.000   5.294
  995SOL    HW2 3885   0.493   1.847   5.238
  996SOL     OW 3886   1.258   3.479   0.281
  996SOL    HW1 3887   1.172   3.474   0.332
  996SOL    HW2 3888   1.253   3.553   0.214
  997SOL     OW 3889   6.451   1.620   0.727
  997SOL    HW1 3890   6.526   1.580   0.674
  997SOL    HW2 3891   6.439   1.568   0.812
  998SOL     OW 3892   4.957   0.177   3.013
  998SOL    HW1 3893   5.016   0.197   2.935
  998SOL    HW2 3894   4.995   0.219   3.095
  999SOL     OW 3895   6.710   5.459   1.017
  999SOL    HW1 3896   6.808   5.478   1.018
  999SOL    HW2 3897   6.694   5.368   0.980
 1000SOL     OW 3898   4.224   1.973   4.857
 1000SOL    HW1 3899   4.145   2.026   4.888
 1000SOL    HW2 3900   4.272   1.936   4.936
 1001SOL     OW 3901   4.720   0.986   5.285
 1001SOL    HW1 3902   4.669   0.944   5.210
 1001SOL    HW2 3903   4.724   0.922   5.363
 1002SOL     OW 3904   0.601   1.401   0.131
 1002SOL    HW1 3905   0.678   1.413   0.068
 1002SOL    HW2 3906   0.534   1.473   0.114
 1003SOL     OW 3907   4.071   5.154   2.548
 1003SOL    HW1 3908   4.142   5.118   2.488
 1003SOL    HW2 3909   3.983   5.114   2.524
 1004SOL     OW 3910   6.087   5.840   0.297
 1004SOL    HW1 3911   6.065   5.768   0.231
 1004SOL    HW2 3912   6.007   5.898   0.312
 1005SOL     OW 3913   6.070   6.483   3.247
 1005SOL    HW1 3914   6.152   6.491   3.189
 1005SOL    HW2 3915   6.030   6.574   3.260
 1006SOL     OW 3916   1.940   5.059   0.324
 1006SOL    HW1 3917   1.951   4.974   0.375
 1006SOL    HW2 3918   1.867   5.049   0.256
 1007SOL     OW 3919   6.419   1.732   2.691
 1007SOL    HW1 3920   6.481   1.707   2.766
 1007SOL    HW2 3921   6.422   1.661   2.621
 1008SOL     OW 3922   3.352   2.031   5.057
 1008SOL    HW1 3923   3.407   2.024   4.973
 1008SOL    HW2 3924   3.309   2.121   5.061
 1009SOL     OW 3925   3.223   6.367   6.150
 1009SOL    HW1 3926   3.192   6.315   6.070
 1009SOL    HW2 3927   3.247   6.304   6.224
 1010SOL     OW 3928   5.293   6.796   5.241
 1010SOL    HW1 3929   5.221   6.855   5.204
 1010SOL    HW2 3930   5.341   6.751   5.166
 1011SOL     OW 3931   2.796   5.461   4.213
 1011SOL    HW1 3932   2.752   5.538   4.260
 1011SOL    HW2 3933   2.727   5.411   4.159
 1012SOL     OW 3934   3.742   6.568   1.014
 1012SOL    HW1 3935   3.828   6.522   1.037
 1012SOL    HW2 3936   3.756   6.667   1.020
 1013SOL     OW 3937   0.783   0.366   6.841
 1013SOL    HW1 3938   0.716   0.293   6.845
 1013SOL    HW2 3939   0.857   0.348   6.906
 1014SOL     OW 3940   5.946   6.664   5.779
 1014SOL    HW1 3941   5.868   6.717   5.748
 1014SOL    HW2 3942   5.984   6.705   5.862
 1015SOL     OW 3943   2.592   0.608   4.966
 1015SOL    HW1 3944   2.610   0.677   4.897
 1015SOL    HW2 3945   2.543   0.531   4.924
 1016SOL     OW 3946   4.478   2.995   1.446
 1016SOL    HW1 3947   4.448   2.977   1.540
 1016SOL    HW2 3948   4.400   3.029   1.393
 1017SOL     OW 3949   4.617   6.907   5.795
 1017SOL    HW1 3950   4.545   6.926   5.863
 1017SOL    HW2 3951   4.591   6.946   5.707
 1018SOL     OW 3952   1.546   2.258   1.600
 1018SOL    HW1 3953   1.501   2.282   1.685
 1018SOL    HW2 3954   1.536   2.159   1.584
 1019SOL     OW 3955   5.425   1.099   0.545
 1019SOL    HW1 3956   5.338   1.091   0.594
 1019SOL    HW2 3957   5.451   1.009   0.510
 1020SOL     OW 3958   3.722   2.024   1.771
 1020SOL    HW1 3959   3.699   2.099   1.833
 1020SOL    HW2 3960   3.748   2.062   1.682
 1021SOL     OW 3961   6.757   1.735   1.028
 1021SOL    HW1 3962   6.695   1.664   1.063
 1021SOL    HW2 3963   6.850   1.713   1.056
 1022SOL     OW 3964   3.482   2.807   0.129
 1022SOL    HW1 3965   3.564   2.759   0.095
 1022SOL    HW2 3966   3.407   2.741   0.139
 1023SOL     OW 3967   6.763   0.588   4.644
 1023SOL    HW1 3968   6.794   0.628   4.730
 1023SOL    HW2 3969   6.832   0.525   4.609
 1024SOL     OW 3970   6.248   2.338   3.727
 1024SOL    HW1 3971   6.211   2.282   3.653
 1024SOL    HW2 3972   6.313   2.284   3.780
 1025SOL     OW 3973   2.718   4.529   1.377
 1025SOL    HW1 3974   2.688   4.612   1.329
 1025SOL    HW2 3975   2.687   4.533   1.472
 1026SOL     OW 3976   0.681   2.440   6.465
 1026SOL    HW1 3977   0.762   2.500   6.469
 1026SOL    HW2 3978   0.708   2.347   6.489
 1027SOL     OW 3979   2.245   4.854   1.121
 1027SOL    HW1 3980   2.313   4.788   1.088
 1027SOL    HW2 3981   2.174   4.806   1.171
 1028SOL     OW 3982   0.445   5.380   6.882
 1028SOL    HW1 3983   0.460   5.289   6.920
 1028SOL    HW2 3984   0.457   5.377   6.783
 1029SOL     OW 3985   3.558   0.370   4.702
 1029SOL    HW1 3986   3.504   0.398   4.623
 1029SOL    HW2 3987   3.645   0.418   4.703
 1030SOL     OW 3988   4.205   5.123   4.949
 1030SOL    HW1 3989   4.140   5.152   5.019
 1030SOL    HW2 3990   4.263   5.201   4.924
 1031SOL     OW 3991   2.417   6.120   1.029
 1031SOL    HW1 3992   2.455   6.027   1.025
 1031SOL    HW2 3993   2.489   6.186   1.007
 1032SOL     OW 3994   1.158   1.540   5.198
 1032SOL    HW1 3995   1.143   1.567   5.102
 1032SOL    HW2 3996   1.140   1.619   5.257
 1033SOL     OW 3997   2.834   0.048   1.502
 1033SOL    HW1 3998   2.921   0.052   1.552
 1033SOL    HW2 3999   2.766   0.001   1.558
 1034SOL     OW 4000   0.137   6.588   2.047
 1034SOL    HW1 4001   0.166   6.513   2.107
 1034SOL    HW2 4002   0.142   6.674   2.097
 1035SOL     OW 4003   3.155   2.061   3.080
 1035SOL    HW1 4004   3.241   2.051   3.031
 1035SOL    HW2 4005   3.127   2.157   3.080
 1036SOL     OW 4006   4.541   6.685   6.672
 1036SOL    HW1 4007   4.522   6.683   6.573
 1036SOL    HW2 4008   4.640   6.698   6.686
 1037SOL     OW 4009   4.025   1.335   6.340
 1037SOL    HW1 4010   3.974   1.295   6.264
 1037SOL    HW2 4011   4.100   1.392   6.304
 1038SOL     OW 4012   2.721   1.768   5.352
 1038SOL    HW1 4013   2.762   1.757   5.442
 1038SOL    HW2 4014   2.782   1.821   5.293
 1039SOL     OW 4015   5.263   1.622   3.253
 1039SOL    HW1 4016   5.168   1.598   3.234
 1039SOL    HW2 4017   5.323   1.570   3.193
 1040SOL     OW 4018   6.075   4.106   4.218
 1040SOL    HW1 4019   6.016   4.102   4.138
 1040SOL    HW2 4020   6.088   4.201   4.246
 1041SOL     OW 4021   1.801   6.730   4.563
 1041SOL    HW1 4022   1.788   6.692   4.471
 1041SOL    HW2 4023   1.732   6.693   4.625
 1042SOL     OW 4024   4.477   4.116   0.501
 1042SOL    HW1 4025   4.524   4.102   0.588
 1042SOL    HW2 4026   4.453   4.027   0.462
 1043SOL     OW 4027   4.124   0.170   6.581
 1043SOL    HW1 4028   4.028   0.147   6.597
 1043SOL    HW2 4029   4.177   0.087   6.569
 1044SOL     OW 4030   3.471   4.089   3.098
 1044SOL    HW1 4031   3.542   4.018   3.088
 1044SOL    HW2 4032   3.408   4.083   3.021
 1045SOL     OW 4033   2.916   1.041   2.955
 1045SOL    HW1 4034   2.871   0.989   3.027
 1045SOL    HW2 4035   2.982   1.105   2.995
 1046SOL     OW 4036   2.946   0.783   2.226
 1046SOL    HW1 4037   2.959   0.691   2.262
 1046SOL    HW2 4038   2.858   0.820   2.257
 1047SOL     OW 4039   6.889   6.571   1.665
 1047SOL    HW1 4040   6.861   6.475   1.661
 1047SOL    HW2 4041   6.812   6.627   1.695
 1048SOL     OW 4042   6.230   4.175   4.881
 1048SOL    HW1 4043   6.271   4.166   4.790
 1048SOL    HW2 4044   6.268   4.256   4.926
 1049SOL     OW 4045   0.950   3.858   5.370
 1049SOL    HW1 4046   1.039   3.823   5.399
 1049SOL    HW2 4047   0.879   3.826   5.432
 1050SOL     OW 4048   2.883   0.446   1.201
 1050SOL    HW1 4049   2.926   0.397   1.276
 1050SOL    HW2 4050   2.811   0.506   1.238
 1051SOL     OW 4051   4.629   4.693   1.533
 1051SOL    HW1 4052   4.559   4.622   1.535
 1051SOL    HW2 4053   4.623   4.747   1.617
 1052SOL     OW 4054   3.208   0.381   3.917
 1052SOL    HW1 4055   3.293   0.432   3.900
 1052SOL    HW2 4056   3.134   0.422   3.865
 1053SOL     OW 4057   3.866   5.122   3.724
 1053SOL    HW1 4058   3.869   5.025   3.700
 1053SOL    HW2 4059   3.800   5.170   3.666
 1054SOL     OW 4060   3.888   5.883   4.492
 1054SOL    HW1 4061   3.917   5.926   4.577
 1054SOL    HW2 4062   3.907   5.785   4.497
 1055SOL     OW 4063   4.159   4.818   4.432
 1055SOL    HW1 4064   4.241   4.791   4.482
 1055SOL    HW2 4065   4.159   4.776   4.341
 1056SOL     OW 4066   2.596   5.868   0.042
 1056SOL    HW1 4067   2.592   5.827   0.133
 1056SOL    HW2 4068   2.684   5.847   0.000
 1057SOL     OW 4069   3.791   4.034   1.488
 1057SOL    HW1 4070   3.799   4.116   1.431
 1057SOL    HW2 4071   3.760   4.061   1.579
 1058SOL     OW 4072   2.836   6.620   1.839
 1058SOL    HW1 4073   2.846   6.718   1.826
 1058SOL    HW2 4074   2.897   6.589   1.912
 1059SOL     OW 4075   4.543   0.466   0.948
 1059SOL    HW1 4076   4.454   0.479   0.991
 1059SOL    HW2 4077   4.566   0.547   0.895
 1060SOL     OW 4078   3.421   1.671   4.367
 1060SOL    HW1 4079   3.399   1.760   4.326
 1060SOL    HW2 4080   3.341   1.636   4.416
 1061SOL     OW 4081   2.594   5.870   0.948
 1061SOL    HW1 4082   2.593   5.774   0.977
 1061SOL    HW2 4083   2.636   5.926   1.019
 1062SOL     OW 4084   5.204   4.388   4.496
 1062SOL    HW1 4085   5.290   4.348   4.464
 1062SOL    HW2 4086   5.218   4.427   4.587
 1063SOL     OW 4087   3.465   1.993   6.138
 1063SOL    HW1 4088   3.504   2.085   6.144
 1063SOL    HW2 4089   3.500   1.948   6.056
 1064SOL     OW 4090   0.438   3.552   2.930
 1064SOL    HW1 4091   0.465   3.645   2.955
 1064SOL    HW2 4092   0.518   3.492   2.935
 1065SOL     OW 4093   4.588   5.034   6.360
 1065SOL    HW1 4094   4.674   4.984   6.348
 1065SOL    HW2 4095   4.581   5.066   6.454
 1066SOL     OW 4096   4.576   0.389   3.728
 1066SOL    HW1 4097   4.639   0.373   3.804
 1066SOL    HW2 4098   4.593   0.320   3.657
 1067SOL     OW 4099   3.219   3.905   0.213
 1067SOL    HW1 4100   3.217   4.005   0.211
 1067SOL    HW2 4101   3.301   3.875   0.263
 1068SOL     OW 4102   0.986   5.448   1.625
 1068SOL    HW1 4103   1.039   5.363   1.633
 1068SOL    HW2 4104   1.030   5.508   1.557
 1069SOL     OW 4105   3.387   3.230   2.696
 1069SOL    HW1 4106   3.484   3.216   2.675
 1069SOL    HW2 4107   3.377   3.254   2.792
 1070SOL     OW 4108   1.902   5.875   0.633
 1070SOL    HW1 4109   1.914   5.782   0.598
 1070SOL    HW2 4110   1.940   5.940   0.568
 1071SOL     OW 4111   5.076   5.932   3.505
 1071SOL    HW1 4112   5.156   5.981   3.471
 1071SOL    HW2 4113   5.106   5.850   3.554
 1072SOL     OW 4114   4.001   5.774   3.412
 1072SOL    HW1 4115   4.075   5.834   3.442
 1072SOL    HW2 4116   4.036   5.683   3.393
 1073SOL     OW 4117   2.847   5.291   3.440
 1073SOL    HW1 4118   2.892   5.292   3.351
 1073SOL    HW2 4119   2.916   5.291   3.512
 1074SOL     OW 4120   1.745   4.584   3.371
 1074SOL    HW1 4121   1.647   4.602   3.373
 1074SOL    HW2 4122   1.794   4.667   3.343
 1075SOL     OW 4123   0.655   4.083   2.468
 1075SOL    HW1 4124   0.639   4.166   2.521
 1075SOL    HW2 4125   0.599   4.086   2.385
 1076SOL     OW 4126   5.906   3.743   3.156
 1076SOL    HW1 4127   5.839   3.774   3.224
 1076SOL    HW2 4128   5.998   3.761   3.190
 1077SOL     OW 4129   4.511   0.189   1.811
 1077SOL    HW1 4130   4.557   0.223   1.728
 1077SOL    HW2 4131   4.417   0.165   1.789
 1078SOL     OW 4132   6.864   2.913   2.420
 1078SOL    HW1 4133   6.802   2.972   2.472
 1078SOL    HW2 4134   6.927   2.969   2.366
 1079SOL     OW 4135   1.189   4.636   3.208
 1079SOL    HW1 4136   1.222   4.655   3.115
 1079SOL    HW2 4137   1.163   4.722   3.252
 1080SOL     OW 4138   1.932   5.693   3.605
 1080SOL    HW1 4139   1.925   5.728   3.511
 1080SOL    HW2 4140   1.881   5.752   3.667
 1081SOL     OW 4141   1.619   0.407   0.012
 1081SOL    HW1 4142   1.638   0.348   6.957
 1081SOL    HW2 4143   1.576   0.491   7.004
 1082SOL     OW 4144   2.181   0.312   1.185
 1082SOL    HW1 4145   2.271   0.266   1.181
 1082SOL    HW2 4146   2.109   0.246   1.164
 1083SOL     OW 4147   3.541   2.810   1.814
 1083SOL    HW1 4148   3.574   2.857   1.896
 1083SOL    HW2 4149   3.466   2.862   1.773
 1084SOL     OW 4150   6.303   4.106   1.439
 1084SOL    HW1 4151   6.212   4.144   1.422
 1084SOL    HW2 4152   6.372   4.163   1.395
 1085SOL     OW 4153   1.554   5.628   4.139
 1085SOL    HW1 4154   1.478   5.684   4.105
 1085SOL    HW2 4155   1.634   5.686   4.151
 1086SOL     OW 4156   3.146   5.674   2.770
 1086SOL    HW1 4157   3.233   5.722   2.762
 1086SOL    HW2 4158   3.162   5.575   2.770
 1087SOL     OW 4159   3.639   3.003   5.337
 1087SOL    HW1 4160   3.632   2.973   5.242
 1087SOL    HW2 4161   3.729   2.980   5.372
 1088SOL     OW 4162   7.022   4.344   2.660
 1088SOL    HW1 4163   0.054   4.419   2.625
 1088SOL    HW2 4164   0.018   4.332   2.758
 1089SOL     OW 4165   6.398   0.035   3.152
 1089SOL    HW1 4166   6.342   0.118   3.149
 1089SOL    HW2 4167   6.348   6.984   3.106
 1090SOL     OW 4168   2.129   2.485   6.308
 1090SOL    HW1 4169   2.105   2.580   6.287
 1090SOL    HW2 4170   2.223   2.468   6.280
 1091SOL     OW 4171   1.200   2.118   6.062
 1091SOL    HW1 4172   1.241   2.033   6.031
 1091SOL    HW2 4173   1.149   2.160   5.987
 1092SOL     OW 4174   3.101   5.003   1.687
 1092SOL    HW1 4175   3.141   4.922   1.731
 1092SOL    HW2 4176   3.061   4.976   1.599
 1093SOL     OW 4177   0.436   2.421   1.477
 1093SOL    HW1 4178   0.431   2.440   1.575
 1093SOL    HW2 4179   0.352   2.376   1.447
 1094SOL     OW 4180   1.114   6.113   2.505
 1094SOL    HW1 4181   1.042   6.042   2.508
 1094SOL    HW2 4182   1.177   6.093   2.430
 1095SOL     OW 4183   0.701   3.470   6.343
 1095SOL    HW1 4184   0.623   3.531   6.328
 1095SOL    HW2 4185   0.668   3.378   6.364
 1096SOL     OW 4186   3.327   2.944   2.454
 1096SOL    HW1 4187   3.353   2.938   2.357
 1096SOL    HW2 4188   3.232   2.975   2.462
 1097SOL     OW 4189   2.969   5.118   5.571
 1097SOL    HW1 4190   3.058   5.144   5.533
 1097SOL    HW2 4191   2.915   5.072   5.500
 1098SOL     OW 4192   3.111   0.640   2.637
 1098SOL    HW1 4193   3.133   0.736   2.626
 1098SOL    HW2 4194   3.035   0.616   2.577
 1099SOL     OW 4195   3.025   0.515   2.296
 1099SOL    HW1 4196   2.990   0.448   2.360
 1099SOL    HW2 4197   3.125   0.507   2.290
 1100SOL     OW 4198   6.635   0.809   7.008
 1100SOL    HW1 4199   6.722   0.840   0.024
 1100SOL    HW2 4200   6.580   0.766   0.056
 1101SOL     OW 4201   5.424   3.434   1.038
 1101SOL    HW1 4202   5.409   3.507   0.971
 1101SOL    HW2 4203   5.381   3.350   1.006
 1102SOL     OW 4204   6.853   3.581   4.158
 1102SOL    HW1 4205   6.923   3.601   4.088
 1102SOL    HW2 4206   6.858   3.484   4.182
 1103SOL     OW 4207   0.600   2.970   0.269
 1103SOL    HW1 4208   0.697   2.946   0.267
 1103SOL    HW2 4209   0.589   3.068   0.287
 1104SOL     OW 4210   2.279   5.544   5.465
 1104SOL    HW1 4211   2.264   5.552   5.563
 1104SOL    HW2 4212   2.376   5.562   5.444
 1105SOL     OW 4213   4.095   5.629   0.834
 1105SOL    HW1 4214   4.108   5.728   0.823
 1105SOL    HW2 4215   4.053   5.592   0.751
 1106SOL     OW 4216   0.752   1.849   6.999
 1106SOL    HW1 4217   0.808   1.774   6.964
 1106SOL    HW2 4218   0.659   1.841   6.962
 1107SOL     OW 4219   6.371   0.051   1.428
 1107SOL    HW1 4220   6.339   0.026   1.520
 1107SOL    HW2 4221   6.295   0.040   1.363
 1108SOL     OW 4222   1.427   0.916   0.468
 1108SOL    HW1 4223   1.517   0.948   0.497
 1108SOL    HW2 4224   1.357   0.978   0.504
 1109SOL     OW 4225   4.333   1.098   3.694
 1109SOL    HW1 4226   4.249   1.087   3.748
 1109SOL    HW2 4227   4.320   1.171   3.627
 1110SOL     OW 4228   3.505   3.103   3.070
 1110SOL    HW1 4229   3.425   3.043   3.064
 1110SOL    HW2 4230   3.586   3.049   3.093
 1111SOL     OW 4231   4.131   6.531   6.897
 1111SOL    HW1 4232   4.202   6.584   6.943
 1111SOL    HW2 4233   4.074   6.484   6.964
 1112SOL     OW 4234   0.888   1.350   2.882
 1112SOL    HW1 4235   0.899   1.445   2.852
 1112SOL    HW2 4236   0.960   1.327   2.947
 1113SOL     OW 4237   6.457   3.680   1.540
 1113SOL    HW1 4238   6.431   3.617   1.613
 1113SOL    HW2 4239   6.411   3.652   1.455
 1114SOL     OW 4240   6.175   1.127   5.752
 1114SOL    HW1 4241   6.087   1.158   5.716
 1114SOL    HW2 4242   6.242   1.124   5.677
 1115SOL     OW 4243   2.101   5.122   0.781
 1115SOL    HW1 4244   2.029   5.053   0.790
 1115SOL    HW2 4245   2.092   5.168   0.693
 1116SOL     OW 4246   3.872   6.254   6.607
 1116SOL    HW1 4247   3.836   6.171   6.649
 1116SOL    HW2 4248   3.828   6.334   6.647
 1117SOL     OW 4249   2.513   2.980   1.080
 1117SOL    HW1 4250   2.563   3.027   1.007
 1117SOL    HW2 4251   2.550   3.009   1.168
 1118SOL     OW 4252   1.246   2.538   1.509
 1118SOL    HW1 4253   1.345   2.546   1.518
 1118SOL    HW2 4254   1.224   2.470   1.439
 1119SOL     OW 4255   3.036   3.878   3.564
 1119SOL    HW1 4256   3.002   3.961   3.609
 1119SOL    HW2 4257   3.004   3.798   3.615
 1120SOL     OW 4258   3.260   1.291   3.720
 1120SOL    HW1 4259   3.274   1.390   3.719
 1120SOL    HW2 4260   3.314   1.249   3.647
 1121SOL     OW 4261   4.744   4.140   3.184
 1121SOL    HW1 4262   4.723   4.100   3.273
 1121SOL    HW2 4263   4.756   4.068   3.116
 1122SOL     OW 4264   4.369   4.865   6.285
 1122SOL    HW1 4265   4.309   4.804   6.338
 1122SOL    HW2 4266   4.463   4.855   6.317
 1123SOL     OW 4267   3.768   0.785   2.255
 1123SOL    HW1 4268   3.736   0.842   2.331
 1123SOL    HW2 4269   3.858   0.748   2.277
 1124SOL     OW 4270   1.842   5.183   4.002
 1124SOL    HW1 4271   1.921   5.227   3.960
 1124SOL    HW2 4272   1.811   5.107   3.945
 1125SOL     OW 4273   3.324   4.034   5.439
 1125SOL    HW1 4274   3.245   4.071   5.390
 1125SOL    HW2 4275   3.332   4.079   5.528
 1126SOL     OW 4276   6.290   0.604   2.173
 1126SOL    HW1 4277   6.334   0.691   2.151
 1126SOL    HW2 4278   6.203   0.622   2.219
 1127SOL     OW 4279   2.212   5.404   6.055
 1127SOL    HW1 4280   2.300   5.364   6.081
 1127SOL    HW2 4281   2.176   5.356   5.975
 1128SOL     OW 4282   2.564   2.517   4.992
 1128SOL    HW1 4283   2.533   2.501   4.898
 1128SOL    HW2 4284   2.655   2.478   5.004
 1129SOL     OW 4285   4.177   5.872   6.276
 1129SOL    HW1 4286   4.184   5.776   6.250
 1129SOL    HW2 4287   4.269   5.910   6.290
 1130SOL     OW 4288   0.741   5.000   5.746
 1130SOL    HW1 4289   0.646   4.975   5.732
 1130SOL    HW2 4290   0.747   5.095   5.775
 1131SOL     OW 4291   6.720   4.748   6.398
 1131SOL    HW1 4292   6.667   4.663   6.404
 1131SOL    HW2 4293   6.681   4.806   6.327
 1132SOL     OW 4294   5.145   6.674   4.558
 1132SOL    HW1 4295   5.195   6.718   4.483
 1132SOL    HW2 4296   5.144   6.735   4.637
 1133SOL     OW 4297   6.866   2.305   6.860
 1133SOL    HW1 4298   6.871   2.295   6.760
 1133SOL    HW2 4299   6.771   2.321   6.886
 1134SOL     OW 4300   0.238   2.985   5.746
 1134SOL    HW1 4301   0.305   2.969   5.819
 1134SOL    HW2 4302   0.211   2.897   5.707
 1135SOL     OW 4303   7.022   1.432   4.346
 1135SOL    HW1 4304   7.017   1.364   4.273
 1135SOL    HW2 4305   6.929   1.454   4.378
 1136SOL     OW 4306   3.705   5.350   4.039
 1136SOL    HW1 4307   3.711   5.447   4.063
 1136SOL    HW2 4308   3.713   5.295   4.123
 1137SOL     OW 4309   0.866   0.636   0.065
 1137SOL    HW1 4310   0.927   0.567   0.026
 1137SOL    HW2 4311   0.775   0.627   0.026
 1138SOL     OW 4312   1.048   3.198   5.819
 1138SOL    HW1 4313   1.120   3.130   5.814
 1138SOL    HW2 4314   1.084   3.283   5.855
 1139SOL     OW 4315   0.818   0.193   2.308
 1139SOL    HW1 4316   0.889   0.257   2.278
 1139SOL    HW2 4317   0.740   0.245   2.344
 1140SOL     OW 4318   4.087   1.645   3.182
 1140SOL    HW1 4319   4.018   1.572   3.188
 1140SOL    HW2 4320   4.077   1.692   3.094
 1141SOL     OW 4321   6.998   6.185   6.016
 1141SOL    HW1 4322   6.968   6.215   5.925
 1141SOL    HW2 4323   6.989   6.085   6.023
 1142SOL     OW 4324   6.296   6.929   5.296
 1142SOL    HW1 4325   6.364   6.996   5.267
 1142SOL    HW2 4326   6.314   6.901   5.390
 1143SOL     OW 4327   5.131   3.012   1.174
 1143SOL    HW1 4328   5.218   3.032   1.219
 1143SOL    HW2 4329   5.068   2.972   1.240
 1144SOL     OW 4330   0.879   6.372   5.129
 1144SOL    HW1 4331   0.874   6.427   5.212
 1144SOL    HW2 4332   0.856   6.428   5.050
 1145SOL     OW 4333   2.072   5.042   4.852
 1145SOL    HW1 4334   2.151   5.058   4.794
 1145SOL    HW2 4335   2.033   5.129   4.881
 1146SOL     OW 4336   5.941   1.922   1.876
 1146SOL    HW1 4337   5.983   1.836   1.849
 1146SOL    HW2 4338   5.900   1.912   1.967
 1147SOL     OW 4339   6.402   3.798   2.096
 1147SOL    HW1 4340   6.365   3.825   2.008
 1147SOL    HW2 4341   6.338   3.736   2.142
 1148SOL     OW 4342   6.038   0.455   6.225
 1148SOL    HW1 4343   6.106   0.518   6.263
 1148SOL    HW2 4344   6.070   0.421   6.137
 1149SOL     OW 4345   4.929   3.174   3.144
 1149SOL    HW1 4346   4.890   3.180   3.052
 1149SOL    HW2 4347   4.873   3.113   3.200
 1150SOL     OW 4348   1.660   5.992   5.223
 1150SOL    HW1 4349   1.613   5.922   5.170
 1150SOL    HW2 4350   1.734   5.950   5.275
 1151SOL     OW 4351   2.584   5.081   0.144
 1151SOL    HW1 4352   2.603   5.021   0.222
 1151SOL    HW2 4353   2.525   5.156   0.173
 1152SOL     OW 4354   6.954   0.681   3.103
 1152SOL    HW1 4355   6.888   0.650   3.172
 1152SOL    HW2 4356   7.004   0.760   3.138
 1153SOL     OW 4357   2.233   4.551   2.459
 1153SOL    HW1 4358   2.267   4.642   2.434
 1153SOL    HW2 4359   2.305   4.483   2.443
 1154SOL     OW 4360   1.754   4.150   2.168
 1154SOL    HW1 4361   1.799   4.074   2.215
 1154SOL    HW2 4362   1.706   4.206   2.235
 1155SOL     OW 4363   4.629   0.382   1.952
 1155SOL    HW1 4364   4.573   0.315   1.904
 1155SOL    HW2 4365   4.669   0.446   1.887
 1156SOL     OW 4366   2.058   0.839   4.541
 1156SOL    HW1 4367   2.100   0.925   4.511
 1156SOL    HW2 4368   1.985   0.858   4.606
 1157SOL     OW 4369   1.307   3.524   3.635
 1157SOL    HW1 4370   1.400   3.558   3.617
 1157SOL    HW2 4371   1.309   3.465   3.716
 1158SOL     OW 4372   4.657   5.915   6.000
 1158SOL    HW1 4373   4.573   5.969   5.995
 1158SOL    HW2 4374   4.706   5.936   6.085
 1159SOL     OW 4375   6.021   4.408   2.346
 1159SOL    HW1 4376   5.987   4.484   2.401
 1159SOL    HW2 4377   6.044   4.332   2.406
 1160SOL     OW 4378   2.843   2.541   0.980
 1160SOL    HW1 4379   2.929   2.527   1.029
 1160SOL    HW2 4380   2.834   2.637   0.954
 1161SOL     OW 4381   3.951   0.696   3.802
 1161SOL    HW1 4382   4.007   0.766   3.845
 1161SOL    HW2 4383   3.996   0.664   3.718
 1162SOL     OW 4384   3.511   5.254   1.577
 1162SOL    HW1 4385   3.414   5.259   1.602
 1162SOL    HW2 4386   3.519   5.231   1.480
 1163SOL     OW 4387   4.699   6.847   2.535
 1163SOL    HW1 4388   4.679   6.898   2.451
 1163SOL    HW2 4389   4.640   6.767   2.541
 1164SOL     OW 4390   6.474   4.137   4.676
 1164SOL    HW1 4391   6.542   4.210   4.672
 1164SOL    HW2 4392   6.474   4.086   4.591
 1165SOL     OW 4393   0.503   4.604   2.089
 1165SOL    HW1 4394   0.601   4.619   2.073
 1165SOL    HW2 4395   0.451   4.632   2.008
 1166SOL     OW 4396   3.521   0.746   6.870
 1166SOL    HW1 4397   3.560   0.692   6.945
 1166SOL    HW2 4398   3.422   0.732   6.867
 1167SOL     OW 4399   4.700   1.509   5.445
 1167SOL    HW1 4400   4.644   1.431   5.472
 1167SOL    HW2 4401   4.746   1.489   5.359
 1168SOL     OW 4402   5.833   1.013   3.632
 1168SOL    HW1 4403   5.786   0.936   3.589
 1168SOL    HW2 4404   5.774   1.094   3.629
 1169SOL     OW 4405   1.703   2.859   1.245
 1169SOL    HW1 4406   1.660   2.786   1.192
 1169SOL    HW2 4407   1.741   2.821   1.329
 1170SOL     OW 4408   2.291   0.823   1.689
 1170SOL    HW1 4409   2.358   0.757   1.654
 1170SOL    HW2 4410   2.339   0.898   1.735
 1171SOL     OW 4411   4.534   0.624   0.600
 1171SOL    HW1 4412   4.444   0.665   0.596
 1171SOL    HW2 4413   4.537   0.545   0.539
 1172SOL     OW 4414   3.117   3.025   5.831
 1172SOL    HW1 4415   3.109   3.110   5.883
 1172SOL    HW2 4416   3.066   3.033   5.745
 1173SOL     OW 4417   5.382   6.543   5.893
 1173SOL    HW1 4418   5.302   6.594   5.861
 1173SOL    HW2 4419   5.446   6.531   5.817
 1174SOL     OW 4420   3.872   5.765   6.941
 1174SOL    HW1 4421   3.877   5.809   6.851
 1174SOL    HW2 4422   3.926   5.818   7.006
 1175SOL     OW 4423   7.019   5.266   4.714
 1175SOL    HW1 4424   0.054   5.271   4.795
 1175SOL    HW2 4425   0.053   5.261   4.632
 1176SOL     OW 4426   6.029   2.889   1.584
 1176SOL    HW1 4427   6.073   2.891   1.494
 1176SOL    HW2 4428   6.025   2.981   1.622
 1177SOL     OW 4429   6.440   3.465   6.073
 1177SOL    HW1 4430   6.512   3.532   6.092
 1177SOL    HW2 4431   6.408   3.477   5.979
 1178SOL     OW 4432   4.689   5.329   2.624
 1178SOL    HW1 4433   4.634   5.409   2.647
 1178SOL    HW2 4434   4.633   5.264   2.572
 1179SOL     OW 4435   1.187   5.285   6.001
 1179SOL    HW1 4436   1.188   5.276   5.902
 1179SOL    HW2 4437   1.223   5.375   6.026
 1180SOL     OW 4438   2.378   0.522   4.504
 1180SOL    HW1 4439   2.363   0.504   4.601
 1180SOL    HW2 4440   2.368   0.437   4.452
 1181SOL     OW 4441   1.492   4.642   2.399
 1181SOL    HW1 4442   1.444   4.560   2.368
 1181SOL    HW2 4443   1.428   4.720   2.398
 1182SOL     OW 4444   0.804   3.748   3.978
 1182SOL    HW1 4445   0.773   3.824   3.922
 1182SOL    HW2 4446   0.818   3.668   3.920
 1183SOL     OW 4447   4.047   5.492   1.062
 1183SOL    HW1 4448   4.064   5.532   0.972
 1183SOL    HW2 4449   3.948   5.484   1.077
 1184SOL     OW 4450   3.461   2.906   6.363
 1184SOL    HW1 4451   3.466   2.823   6.308
 1184SOL    HW2 4452   3.553   2.941   6.379
 1185SOL     OW 4453   3.339   1.336   6.408
 1185SOL    HW1 4454   3.252   1.303   6.445
 1185SOL    HW2 4455   3.369   1.274   6.335
 1186SOL     OW 4456   3.656   6.940   5.007
 1186SOL    HW1 4457   3.626   6.854   4.966
 1186SOL    HW2 4458   3.656   7.012   4.938
 1187SOL     OW 4459   0.722   1.969   4.558
 1187SOL    HW1 4460   0.720   1.869   4.562
 1187SOL    HW2 4461   0.758   2.005   4.644
 1188SOL     OW 4462   1.687   0.964   5.152
 1188SOL    HW1 4463   1.744   1.046   5.161
 1188SOL    HW2 4464   1.746   0.884   5.140
 1189SOL     OW 4465   1.500   0.860   1.326
 1189SOL    HW1 4466   1.444   0.940   1.349
 1189SOL    HW2 4467   1.596   0.886   1.323
 1190SOL     OW 4468   3.637   6.018   2.197
 1190SOL    HW1 4469   3.721   6.070   2.212
 1190SOL    HW2 4470   3.619   5.960   2.277
 1191SOL     OW 4471   2.170   4.260   1.948
 1191SOL    HW1 4472   2.197   4.173   1.990
 1191SOL    HW2 4473   2.172   4.332   2.017
 1192SOL     OW 4474   3.622   5.673   2.975
 1192SOL    HW1 4475   3.696   5.711   2.919
 1192SOL    HW2 4476   3.618   5.722   3.062
 1193SOL     OW 4477   3.031   0.934   3.984
 1193SOL    HW1 4478   3.117   0.948   4.033
 1193SOL    HW2 4479   3.023   1.002   3.911
 1194SOL     OW 4480   6.858   2.035   2.763
 1194SOL    HW1 4481   6.830   2.089   2.684
 1194SOL    HW2 4482   6.777   1.994   2.805
 1195SOL     OW 4483   3.269   0.243   0.121
 1195SOL    HW1 4484   3.333   0.318   0.138
 1195SOL    HW2 4485   3.213   0.228   0.203
 1196SOL     OW 4486   1.849   5.899   3.394
 1196SOL    HW1 4487   1.892   5.872   3.308
 1196SOL    HW2 4488   1.897   5.978   3.433
 1197SOL     OW 4489   3.819   4.662   0.007
 1197SOL    HW1 4490   3.803   4.595   0.080
 1197SOL    HW2 4491   3.737   4.668   6.973
 1198SOL     OW 4492   3.438   0.613   3.267
 1198SOL    HW1 4493   3.464   0.656   3.181
 1198SOL    HW2 4494   3.492   0.652   3.342
 1199SOL     OW 4495   3.664   3.773   4.057
 1199SOL    HW1 4496   3.730   3.711   4.013
 1199SOL    HW2 4497   3.713   3.841   4.111
 1200SOL     OW 4498   4.531   3.475   1.366
 1200SOL    HW1 4499   4.598   3.524   1.310
 1200SOL    HW2 4500   4.577   3.399   1.413
 1201SOL     OW 4501   1.569   2.030   5.153
 1201SOL    HW1 4502   1.586   2.043   5.251
 1201SOL    HW2 4503   1.615   1.948   5.122
 1202SOL     OW 4504   6.333   6.514   4.380
 1202SOL    HW1 4505   6.404   6.515   4.310
 1202SOL    HW2 4506   6.369   6.553   4.465
 1203SOL     OW 4507   6.393   0.219   2.337
 1203SOL    HW1 4508   6.411   0.216   2.238
 1203SOL    HW2 4509   6.479   0.238   2.385
 1204SOL     OW 4510   2.049   0.087   0.006
 1204SOL    HW1 4511   2.062   0.017   0.076
 1204SOL    HW2 4512   1.977   0.057   6.966
 1205SOL     OW 4513   0.817   3.443   6.023
 1205SOL    HW1 4514   0.912   3.413   6.021
 1205SOL    HW2 4515   0.780   3.434   6.115
 1206SOL     OW 4516   6.142   1.165   5.077
 1206SOL    HW1 4517   6.221   1.159   5.138
 1206SOL    HW2 4518   6.081   1.238   5.108
 1207SOL     OW 4519   6.608   6.224   6.214
 1207SOL    HW1 4520   6.564   6.283   6.147
 1207SOL    HW2 4521   6.707   6.222   6.197
 1208SOL     OW 4522   3.880   3.472   2.819
 1208SOL    HW1 4523   3.832   3.559   2.819
 1208SOL    HW2 4524   3.813   3.397   2.824
 1209SOL     OW 4525   6.917   3.698   5.048
 1209SOL    HW1 4526   6.912   3.709   5.147
 1209SOL    HW2 4527   6.860   3.767   5.003
 1210SOL     OW 4528   2.237   0.237   3.006
 1210SOL    HW1 4529   2.238   0.246   3.106
 1210SOL    HW2 4530   2.265   0.144   2.981
 1211SOL     OW 4531   0.021   3.617   3.468
 1211SOL    HW1 4532   0.113   3.579   3.480
 1211SOL    HW2 4533   6.991   3.558   3.407
 1212SOL     OW 4534   0.890   4.150   3.620
 1212SOL    HW1 4535   0.847   4.162   3.530
 1212SOL    HW2 4536   0.919   4.240   3.655
 1213SOL     OW 4537   5.784   3.493   5.309
 1213SOL    HW1 4538   5.744   3.516   5.220
 1213SOL    HW2 4539   5.880   3.521   5.310
 1214SOL     OW 4540   1.264   1.753   1.396
 1214SOL    HW1 4541   1.298   1.677   1.340
 1214SOL    HW2 4542   1.166   1.765   1.377
 1215SOL     OW 4543   1.092   5.475   2.517
 1215SOL    HW1 4544   1.038   5.523   2.447
 1215SOL    HW2 4545   1.161   5.537   2.554
 1216SOL     OW 4546   2.087   0.160   1.436
 1216SOL    HW1 4547   2.149   0.189   1.363
 1216SOL    HW2 4548   2.076   0.234   1.502
 1217SOL     OW 4549   1.664   2.595   3.183
 1217SOL    HW1 4550   1.746   2.624   3.133
 1217SOL    HW2 4551   1.684   2.513   3.236
 1218SOL     OW 4552   0.256   3.855   3.436
 1218SOL    HW1 4553   0.182   3.809   3.386
 1218SOL    HW2 4554   0.243   3.954   3.429
 1219SOL     OW 4555   2.378   6.085   2.940
 1219SOL    HW1 4556   2.312   6.159   2.946
 1219SOL    HW2 4557   2.460   6.109   2.993
 1220SOL     OW 4558   6.313   5.110   2.441
 1220SOL    HW1 4559   6.379   5.123   2.367
 1220SOL    HW2 4560   6.284   5.199   2.476
 1221SOL     OW 4561   4.701   4.811   5.957
 1221SOL    HW1 4562   4.649   4.892   5.986
 1221SOL    HW2 4563   4.657   4.771   5.877
 1222SOL     OW 4564   6.602   4.179   1.663
 1222SOL    HW1 4565   6.633   4.104   1.604
 1222SOL    HW2 4566   6.681   4.224   1.704
 1223SOL     OW 4567   0.239   4.540   4.711
 1223SOL    HW1 4568   0.231   4.440   4.706
 1223SOL    HW2 4569   0.212   4.570   4.803
 1224SOL     OW 4570   4.517   4.016   1.383
 1224SOL    HW1 4571   4.603   3.966   1.373
 1224SOL    HW2 4572   4.499   4.033   1.480
 1225SOL     OW 4573   4.999   1.681   6.285
 1225SOL    HW1 4574   5.096   1.701   6.268
 1225SOL    HW2 4575   4.947   1.766   6.285
 1226SOL     OW 4576   5.919   5.775   0.559
 1226SOL    HW1 4577   5.869   5.720   0.626
 1226SOL    HW2 4578   6.017   5.755   0.566
 1227SOL     OW 4579   5.124   4.123   6.783
 1227SOL    HW1 4580   5.131   4.093   6.879
 1227SOL    HW2 4581   5.136   4.222   6.778
 1228SOL     OW 4582   4.115   3.688   4.863
 1228SOL    HW1 4583   4.157   3.631   4.934
 1228SOL    HW2 4584   4.049   3.751   4.905
 1229SOL     OW 4585   2.076   5.504   2.575
 1229SOL    HW1 4586   2.079   5.407   2.549
 1229SOL    HW2 4587   2.158   5.550   2.540
 1230SOL     OW 4588   4.971   4.571   7.016
 1230SOL    HW1 4589   4.997   4.653   6.965
 1230SOL    HW2 4590   4.890   4.530   6.975
 1231SOL     OW 4591   2.001   0.678   0.579
 1231SOL    HW1 4592   2.059   0.742   0.528
 1231SOL    HW2 4593   1.970   0.605   0.518
 1232SOL     OW 4594   2.193   1.692   5.816
 1232SOL    HW1 4595   2.097   1.665   5.818
 1232SOL    HW2 4596   2.242   1.647   5.891
 1233SOL     OW 4597   0.200   5.275   4.536
 1233SOL    HW1 4598   0.287   5.301   4.494
 1233SOL    HW2 4599   0.208   5.182   4.574
 1234SOL     OW 4600   6.952   4.360   5.771
 1234SOL    HW1 4601   6.885   4.342   5.844
 1234SOL    HW2 4602   0.001   4.420   5.807
 1235SOL     OW 4603   6.241   5.246   0.837
 1235SOL    HW1 4604   6.305   5.280   0.768
 1235SOL    HW2 4605   6.187   5.171   0.799
 1236SOL     OW 4606   0.146   1.257   2.664
 1236SOL    HW1 4607   0.074   1.323   2.643
 1236SOL    HW2 4608   0.112   1.164   2.648
 1237SOL     OW 4609   0.660   0.202   4.167
 1237SOL    HW1 4610   0.699   0.145   4.096
 1237SOL    HW2 4611   0.731   0.262   4.205
 1238SOL     OW 4612   0.177   0.851   4.517
 1238SOL    HW1 4613   0.171   0.923   4.448
 1238SOL    HW2 4614   0.114   0.872   4.592
 1239SOL     OW 4615   5.475   4.745   3.435
 1239SOL    HW1 4616   5.416   4.744   3.354
 1239SOL    HW2 4617   5.439   4.810   3.502
 1240SOL     OW 4618   0.808   4.403   1.277
 1240SOL    HW1 4619   0.892   4.424   1.227
 1240SOL    HW2 4620   0.823   4.414   1.375
 1241SOL     OW 4621   3.200   5.176   6.138
 1241SOL    HW1 4622   3.251   5.096   6.169
 1241SOL    HW2 4623   3.219   5.193   6.041
 1242SOL     OW 4624   1.987   5.498   0.943
 1242SOL    HW1 4625   1.990   5.593   0.975
 1242SOL    HW2 4626   2.032   5.492   0.854
 1243SOL     OW 4627   6.877   3.761   3.639
 1243SOL    HW1 4628   6.928   3.829   3.692
 1243SOL    HW2 4629   6.933   3.730   3.562
 1244SOL     OW 4630   0.099   6.645   4.707
 1244SOL    HW1 4631   0.041   6.563   4.711
 1244SOL    HW2 4632   0.048   6.724   4.740
 1245SOL     OW 4633   4.971   0.294   1.409
 1245SOL    HW1 4634   4.980   0.196   1.392
 1245SOL    HW2 4635   5.060   0.333   1.432
 1246SOL     OW 4636   5.124   2.815   1.828
 1246SOL    HW1 4637   5.056   2.762   1.880
 1246SOL    HW2 4638   5.106   2.805   1.730
 1247SOL     OW 4639   4.768   6.678   2.218
 1247SOL    HW1 4640   4.866   6.696   2.225
 1247SOL    HW2 4641   4.753   6.599   2.158
 1248SOL     OW 4642   0.796   0.054   4.765
 1248SOL    HW1 4643   0.896   0.043   4.765
 1248SOL    HW2 4644   0.754   7.002   4.816
 1249SOL     OW 4645   6.749   6.763   6.413
 1249SOL    HW1 4646   6.847   6.759   6.393
 1249SOL    HW2 4647   6.705   6.678   6.383
 1250SOL     OW 4648   0.554   4.354   4.935
 1250SOL    HW1 4649   0.495   4.372   4.856
 1250SOL    HW2 4650   0.498   4.346   5.017
 1251SOL     OW 4651   2.654   0.487   3.088
 1251SOL    HW1 4652   2.738   0.433   3.094
 1251SOL    HW2 4653   2.641   0.519   2.994
 1252SOL     OW 4654   2.383   5.170   6.361
 1252SOL    HW1 4655   2.379   5.236   6.285
 1252SOL    HW2 4656   2.302   5.180   6.418
 1253SOL     OW 4657   2.726   5.672   0.494
 1253SOL    HW1 4658   2.676   5.758   0.506
 1253SOL    HW2 4659   2.815   5.678   0.540
 1254SOL     OW 4660   6.475   0.829   3.732
 1254SOL    HW1 4661   6.393   0.864   3.777
 1254SOL    HW2 4662   6.450   0.753   3.672
 1255SOL     OW 4663   6.039   2.260   6.072
 1255SOL    HW1 4664   5.959   2.299   6.118
 1255SOL    HW2 4665   6.090   2.333   6.027
 1256SOL     OW 4666   6.816   5.505   5.998
 1256SOL    HW1 4667   6.754   5.582   5.985
 1256SOL    HW2 4668   6.907   5.539   6.022
 1257SOL     OW 4669   7.007   6.464   3.115
 1257SOL    HW1 4670   6.951   6.500   3.040
 1257SOL    HW2 4671   0.064   6.418   3.077
 1258SOL     OW 4672   5.248   5.391   6.683
 1258SOL    HW1 4673   5.165   5.397   6.738
 1258SOL    HW2 4674   5.325   5.365   6.742
 1259SOL     OW 4675   5.641   6.502   4.951
 1259SOL    HW1 4676   5.668   6.494   4.855
 1259SOL    HW2 4677   5.587   6.422   4.977
 1260SOL     OW 4678   3.320   0.564   0.482
 1260SOL    HW1 4679   3.274   0.640   0.527
 1260SOL    HW2 4680   3.411   0.553   0.521
 1261SOL     OW 4681   0.279   4.229   4.761
 1261SOL    HW1 4682   0.265   4.182   4.848
 1261SOL    HW2 4683   0.191   4.241   4.715
 1262SOL     OW 4684   4.314   6.337   1.452
 1262SOL    HW1 4685   4.337   6.336   1.354
 1262SOL    HW2 4686   4.218   6.364   1.463
 1263SOL     OW 4687   6.971   1.275   1.287
 1263SOL    HW1 4688   0.038   1.288   1.327
 1263SOL    HW2 4689   6.980   1.240   1.194
 1264SOL     OW 4690   6.115   2.799   5.099
 1264SOL    HW1 4691   6.160   2.745   5.170
 1264SOL    HW2 4692   6.024   2.762   5.081
 1265SOL     OW 4693   5.919   5.095   4.838
 1265SOL    HW1 4694   5.917   4.996   4.824
 1265SOL    HW2 4695   5.869   5.140   4.764
 1266SOL     OW 4696   2.842   0.360   3.885
 1266SOL    HW1 4697   2.901   0.405   3.818
 1266SOL    HW2 4698   2.832   0.264   3.862
 1267SOL     OW 4699   0.475   4.118   2.227
 1267SOL    HW1 4700   0.390   4.067   2.213
 1267SOL    HW2 4701   0.484   4.188   2.156
 1268SOL     OW 4702   6.097   5.089   6.971
 1268SOL    HW1 4703   6.114   5.181   7.007
 1268SOL    HW2 4704   6.054   5.033   0.019
 1269SOL     OW 4705   0.661   4.500   6.463
 1269SOL    HW1 4706   0.676   4.507   6.364
 1269SOL    HW2 4707   0.566   4.476   6.481
 1270SOL     OW 4708   1.862   1.733   4.376
 1270SOL    HW1 4709   1.784   1.765   4.430
 1270SOL    HW2 4710   1.932   1.805   4.372
 1271SOL     OW 4711   5.497   3.264   3.132
 1271SOL    HW1 4712   5.555   3.198   3.179
 1271SOL    HW2 4713   5.419   3.288   3.191
 1272SOL     OW 4714   6.457   6.556   6.930
 1272SOL    HW1 4715   6.503   6.553   6.841
 1272SOL    HW2 4716   6.484   6.639   6.979
 1273SOL     OW 4717   2.752   0.003   5.052
 1273SOL    HW1 4718   2.824   0.022   5.119
 1273SOL    HW2 4719   2.790   6.975   4.975
 1274SOL     OW 4720   5.307   2.552   1.677
 1274SOL    HW1 4721   5.326   2.644   1.644
 1274SOL    HW2 4722   5.223   2.552   1.731
 1275SOL     OW 4723   3.564   1.565   3.673
 1275SOL    HW1 4724   3.479   1.546   3.623
 1275SOL    HW2 4725   3.563   1.514   3.760
 1276SOL     OW 4726   5.239   6.840   2.656
 1276SOL    HW1 4727   5.317   6.799   2.702
 1276SOL    HW2 4728   5.181   6.768   2.617
 1277SOL     OW 4729   0.811   1.668   4.530
 1277SOL    HW1 4730   0.892   1.712   4.569
 1277SOL    HW2 4731   0.829   1.644   4.434
 1278SOL     OW 4732   3.332   1.832   4.680
 1278SOL    HW1 4733   3.388   1.852   4.599
 1278SOL    HW2 4734   3.327   1.734   4.694
 1279SOL     OW 4735   2.042   4.841   0.429
 1279SOL    HW1 4736   2.015   4.750   0.395
 1279SOL    HW2 4737   2.110   4.880   0.368
 1280SOL     OW 4738   1.226   6.070   3.003
 1280SOL    HW1 4739   1.323   6.090   3.021
 1280SOL    HW2 4740   1.197   6.123   2.923
 1281SOL     OW 4741   0.743   6.535   3.602
 1281SOL    HW1 4742   0.756   6.452   3.547
 1281SOL    HW2 4743   0.645   6.553   3.612
 1282SOL     OW 4744   1.378   6.349   2.381
 1282SOL    HW1 4745   1.313   6.423   2.400
 1282SOL    HW2 4746   1.467   6.387   2.359
 1283SOL     OW 4747   5.088   4.097   5.242
 1283SOL    HW1 4748   5.056   4.005   5.218
 1283SOL    HW2 4749   5.081   4.156   5.161
 1284SOL     OW 4750   2.705   1.873   2.940
 1284SOL    HW1 4751   2.702   1.964   2.980
 1284SOL    HW2 4752   2.745   1.809   3.006
 1285SOL     OW 4753   5.766   2.542   5.928
 1285SOL    HW1 4754   5.822   2.599   5.988
 1285SOL    HW2 4755   5.814   2.527   5.841
 1286SOL     OW 4756   5.662   5.994   0.950
 1286SOL    HW1 4757   5.739   5.952   0.904
 1286SOL    HW2 4758   5.678   5.993   1.049
 1287SOL     OW 4759   6.443   3.718   5.690
 1287SOL    HW1 4760   6.450   3.659   5.610
 1287SOL    HW2 4761   6.461   3.813   5.663
 1288SOL     OW 4762   6.499   3.637   3.495
 1288SOL    HW1 4763   6.507   3.539   3.478
 1288SOL    HW2 4764   6.495   3.654   3.594
 1289SOL     OW 4765   0.084   5.066   2.893
 1289SOL    HW1 4766   0.179   5.082   2.867
 1289SOL    HW2 4767   0.035   5.153   2.895
 1290SOL     OW 4768   6.577   6.964   2.201
 1290SOL    HW1 4769   6.620   6.876   2.223
 1290SOL    HW2 4770   6.559   7.014   2.285
 1291SOL     OW 4771   1.323   6.509   1.414
 1291SOL    HW1 4772   1.270   6.564   1.478
 1291SOL    HW2 4773   1.343   6.563   1.332
 1292SOL     OW 4774   1.315   5.692   0.314
 1292SOL    HW1 4775   1.284   5.691   0.410
 1292SOL    HW2 4776   1.248   5.645   0.258
 1293SOL     OW 4777   6.106   2.176   6.546
 1293SOL    HW1 4778   6.064   2.140   6.463
 1293SOL    HW2 4779   6.121   2.101   6.611
 1294SOL     OW 4780   0.636   1.756   3.536
 1294SOL    HW1 4781   0.720   1.776   3.487
 1294SOL    HW2 4782   0.567   1.825   3.515
 1295SOL     OW 4783   4.995   3.990   1.256
 1295SOL    HW1 4784   4.991   3.995   1.156
 1295SOL    HW2 4785   4.990   4.082   1.294
 1296SOL     OW 4786   3.890   1.499   0.499
 1296SOL    HW1 4787   3.976   1.517   0.546
 1296SOL    HW2 4788   3.907   1.484   0.402
 1297SOL     OW 4789   6.325   1.005   6.156
 1297SOL    HW1 4790   6.301   1.073   6.225
 1297SOL    HW2 4791   6.417   1.023   6.121
 1298SOL     OW 4792   6.288   2.335   3.417
 1298SOL    HW1 4793   6.346   2.273   3.366
 1298SOL    HW2 4794   6.339   2.418   3.440
 1299SOL     OW 4795   1.635   3.408   4.775
 1299SOL    HW1 4796   1.662   3.463   4.695
 1299SOL    HW2 4797   1.716   3.389   4.830
 1300SOL     OW 4798   3.727   2.925   2.846
 1300SOL    HW1 4799   3.786   2.919   2.765
 1300SOL    HW2 4800   3.632   2.919   2.817
 1301SOL     OW 4801   1.302   1.548   1.846
 1301SOL    HW1 4802   1.293   1.498   1.932
 1301SOL    HW2 4803   1.375   1.616   1.854
 1302SOL     OW 4804   2.706   5.982   5.816
 1302SOL    HW1 4805   2.753   5.969   5.728
 1302SOL    HW2 4806   2.618   6.026   5.800
 1303SOL     OW 4807   3.126   0.076   1.309
 1303SOL    HW1 4808   3.063   0.008   1.271
 1303SOL    HW2 4809   3.205   0.030   1.349
 1304SOL     OW 4810   3.739   0.799   6.261
 1304SOL    HW1 4811   3.824   0.844   6.291
 1304SOL    HW2 4812   3.663   0.829   6.318
 1305SOL     OW 4813   6.019   6.736   3.798
 1305SOL    HW1 4814   5.981   6.829   3.801
 1305SOL    HW2 4815   6.001   6.689   3.884
 1306SOL     OW 4816   1.928   5.076   4.254
 1306SOL    HW1 4817   1.963   5.144   4.319
 1306SOL    HW2 4818   1.881   5.123   4.179
 1307SOL     OW 4819   1.109   1.508   4.140
 1307SOL    HW1 4820   1.029   1.557   4.174
 1307SOL    HW2 4821   1.133   1.434   4.204
 1308SOL     OW 4822   4.889   6.406   3.204
 1308SOL    HW1 4823   4.954   6.444   3.269
 1308SOL    HW2 4824   4.827   6.343   3.251
 1309SOL     OW 4825   5.452   3.095   4.409
 1309SOL    HW1 4826   5.435   3.000   4.384
 1309SOL    HW2 4827   5.525   3.099   4.477
 1310SOL     OW 4828   4.962   3.572   5.566
 1310SOL    HW1 4829   4.979   3.548   5.471
 1310SOL    HW2 4830   5.049   3.576   5.615
 1311SOL     OW 4831   4.836   4.899   6.335
 1311SOL    HW1 4832   4.846   4.893   6.236
 1311SOL    HW2 4833   4.919   4.866   6.380
 1312SOL     OW 4834   6.874   0.494   1.720
 1312SOL    HW1 4835   6.877   0.589   1.748
 1312SOL    HW2 4836   6.780   0.461   1.722
 1313SOL     OW 4837   3.395   4.961   4.872
 1313SOL    HW1 4838   3.451   5.024   4.925
 1313SOL    HW2 4839   3.366   4.884   4.930
 1314SOL     OW 4840   7.007   1.343   5.877
 1314SOL    HW1 4841   6.947   1.275   5.836
 1314SOL    HW2 4842   6.969   1.374   5.964
 1315SOL     OW 4843   2.005   6.887   3.508
 1315SOL    HW1 4844   1.938   6.932   3.568
 1315SOL    HW2 4845   1.978   6.792   3.494
 1316SOL     OW 4846   3.201   6.299   3.461
 1316SOL    HW1 4847   3.149   6.263   3.539
 1316SOL    HW2 4848   3.180   6.245   3.380
 1317SOL     OW 4849   0.537   3.118   4.611
 1317SOL    HW1 4850   0.507   3.044   4.551
 1317SOL    HW2 4851   0.616   3.165   4.571
 1318SOL     OW 4852   0.697   6.660   1.761
 1318SOL    HW1 4853   0.649   6.676   1.674
 1318SOL    HW2 4854   0.699   6.562   1.779
 1319SOL     OW 4855   6.772   6.942   0.434
 1319SOL    HW1 4856   6.731   6.874   0.373
 1319SOL    HW2 4857   6.797   0.000   0.381
 1320SOL     OW 4858   4.776   5.024   5.004
 1320SOL    HW1 4859   4.831   5.108   5.011
 1320SOL    HW2 4860   4.744   4.998   5.095
 1321SOL     OW 4861   3.846   1.002   0.735
 1321SOL    HW1 4862   3.850   1.094   0.695
 1321SOL    HW2 4863   3.751   0.972   0.739
 1322SOL     OW 4864   5.298   0.989   6.403
 1322SOL    HW1 4865   5.392   0.982   6.435
 1322SOL    HW2 4866   5.292   1.058   6.331
 1323SOL     OW 4867   6.428   0.478   4.041
 1323SOL    HW1 4868   6.527   0.480   4.026
 1323SOL    HW2 4869   6.406   0.530   4.124
 1324SOL     OW 4870   1.196   2.408   0.607
 1324SOL    HW1 4871   1.227   2.475   0.539
 1324SOL    HW2 4872   1.196   2.316   0.566
 1325SOL     OW 4873   4.595   5.873   4.244
 1325SOL    HW1 4874   4.597   5.801   4.174
 1325SOL    HW2 4875   4.500   5.898   4.264
 1326SOL     OW 4876   5.621   3.944   4.632
 1326SOL    HW1 4877   5.670   3.898   4.706
 1326SOL    HW2 4878   5.630   4.043   4.642
 1327SOL     OW 4879   3.045   6.496   4.126
 1327SOL    HW1 4880   2.947   6.492   4.106
 1327SOL    HW2 4881   3.071   6.416   4.182
 1328SOL     OW 4882   2.670   0.901   1.553
 1328SOL    HW1 4883   2.748   0.941   1.505
 1328SOL    HW2 4884   2.700   0.868   1.643
 1329SOL     OW 4885   1.410   6.500   1.816
 1329SOL    HW1 4886   1.339   6.452   1.764
 1329SOL    HW2 4887   1.466   6.555   1.754
 1330SOL     OW 4888   5.104   6.805   1.202
 1330SOL    HW1 4889   5.088   6.896   1.162
 1330SOL    HW2 4890   5.163   6.752   1.142
 1331SOL     OW 4891   0.722   2.154   1.881
 1331SOL    HW1 4892   0.676   2.105   1.955
 1331SOL    HW2 4893   0.768   2.235   1.918
 1332SOL     OW 4894   4.636   2.244   0.851
 1332SOL    HW1 4895   4.636   2.227   0.950
 1332SOL    HW2 4896   4.695   2.177   0.805
 1333SOL     OW 4897   4.077   3.232   5.199
 1333SOL    HW1 4898   4.148   3.299   5.221
 1333SOL    HW2 4899   4.021   3.266   5.124
 1334SOL     OW 4900   1.250   3.532   4.009
 1334SOL    HW1 4901   1.229   3.629   4.001
 1334SOL    HW2 4902   1.321   3.519   4.079
 1335SOL     OW 4903   1.937   5.393   3.600
 1335SOL    HW1 4904   1.939   5.492   3.614
 1335SOL    HW2 4905   1.984   5.371   3.514
 1336SOL     OW 4906   0.104   6.548   5.034
 1336SOL    HW1 4907   0.102   6.595   4.946
 1336SOL    HW2 4908   0.056   6.460   5.027
 1337SOL     OW 4909   3.651   6.390   6.742
 1337SOL    HW1 4910   3.735   6.444   6.737
 1337SOL    HW2 4911   3.583   6.440   6.797
 1338SOL     OW 4912   3.606   5.406   0.845
 1338SOL    HW1 4913   3.681   5.410   0.779
 1338SOL    HW2 4914   3.618   5.327   0.905
 1339SOL     OW 4915   0.174   3.835   6.874
 1339SOL    HW1 4916   0.240   3.880   6.815
 1339SOL    HW2 4917   0.218   3.757   6.920
 1340SOL     OW 4918   3.106   1.244   6.029
 1340SOL    HW1 4919   3.088   1.146   6.019
 1340SOL    HW2 4920   3.164   1.275   5.954
 1341SOL     OW 4921   5.564   2.355   4.520
 1341SOL    HW1 4922   5.485   2.358   4.459
 1341SOL    HW2 4923   5.609   2.266   4.511
 1342SOL     OW 4924   0.549   0.363   1.654
 1342SOL    HW1 4925   0.489   0.414   1.716
 1342SOL    HW2 4926   0.548   0.405   1.564
 1343SOL     OW 4927   2.865   5.858   3.769
 1343SOL    HW1 4928   2.875   5.876   3.671
 1343SOL    HW2 4929   2.836   5.764   3.783
 1344SOL     OW 4930   5.485   2.053   2.317
 1344SOL    HW1 4931   5.486   2.092   2.225
 1344SOL    HW2 4932   5.524   2.118   2.382
 1345SOL     OW 4933   6.788   6.030   2.210
 1345SOL    HW1 4934   6.872   5.983   2.237
 1345SOL    HW2 4935   6.725   5.965   2.168
 1346SOL     OW 4936   0.047   1.783   3.046
 1346SOL    HW1 4937   0.135   1.826   3.027
 1346SOL    HW2 4938   7.022   1.835   3.118
 1347SOL     OW 4939   4.686   1.061   3.335
 1347SOL    HW1 4940   4.636   1.017   3.409
 1347SOL    HW2 4941   4.784   1.041   3.345
 1348SOL     OW 4942   4.920   5.680   4.834
 1348SOL    HW1 4943   4.907   5.693   4.736
 1348SOL    HW2 4944   4.942   5.768   4.877
 1349SOL     OW 4945   4.593   2.218   0.380
 1349SOL    HW1 4946   4.685   2.247   0.357
 1349SOL    HW2 4947   4.542   2.295   0.418
 1350SOL     OW 4948   2.682   1.141   4.522
 1350SOL    HW1 4949   2.612   1.110   4.587
 1350SOL    HW2 4950   2.643   1.146   4.431
 1351SOL     OW 4951   1.843   1.624   3.552
 1351SOL    HW1 4952   1.849   1.528   3.525
 1351SOL    HW2 4953   1.747   1.651   3.560
 1352SOL     OW 4954   1.191   6.311   4.575
 1352SOL    HW1 4955   1.277   6.304   4.626
 1352SOL    HW2 4956   1.204   6.275   4.482
 1353SOL     OW 4957   2.296   3.245   5.521
 1353SOL    HW1 4958   2.373   3.281   5.468
 1353SOL    HW2 4959   2.274   3.153   5.489
 1354SOL     OW 4960   0.575   6.715   0.004
 1354SOL    HW1 4961   0.573   6.639   0.068
 1354SOL    HW2 4962   0.644   6.698   6.956
 1355SOL     OW 4963   4.100   3.377   6.994
 1355SOL    HW1 4964   4.118   3.401   0.066
 1355SOL    HW2 4965   4.020   3.318   6.989
 1356SOL     OW 4966   3.139   2.974   2.072
 1356SOL    HW1 4967   3.212   2.947   2.135
 1356SOL    HW2 4968   3.145   2.920   1.988
 1357SOL     OW 4969   3.477   2.332   5.534
 1357SOL    HW1 4970   3.482   2.272   5.454
 1357SOL    HW2 4971   3.570   2.355   5.564
 1358SOL     OW 4972   1.809   3.345   6.144
 1358SOL    HW1 4973   1.737   3.377   6.083
 1358SOL    HW2 4974   1.836   3.252   6.117
 1359SOL     OW 4975   0.123   1.765   6.558
 1359SOL    HW1 4976   0.182   1.839   6.591
 1359SOL    HW2 4977   0.166   1.720   6.480
 1360SOL     OW 4978   3.598   3.371   4.001
 1360SOL    HW1 4979   3.607   3.458   3.954
 1360SOL    HW2 4980   3.689   3.331   4.016
 1361SOL     OW 4981   1.067   6.658   1.159
 1361SOL    HW1 4982   1.138   6.661   1.088
 1361SOL    HW2 4983   1.069   6.569   1.204
 1362SOL     OW 4984   3.224   1.325   6.820
 1362SOL    HW1 4985   3.303   1.374   6.783
 1362SOL    HW2 4986   3.253   1.235   6.854
 1363SOL     OW 4987   7.015   6.446   0.851
 1363SOL    HW1 4988   6.994   6.542   0.832
 1363SOL    HW2 4989   0.027   6.437   0.944
 1364SOL     OW 4990   1.133   3.704   1.233
 1364SOL    HW1 4991   1.085   3.617   1.233
 1364SOL    HW2 4992   1.067   3.779   1.240
 1365SOL     OW 4993   1.020   3.396   6.254
 1365SOL    HW1 4994   1.112   3.365   6.278
 1365SOL    HW2 4995   1.011   3.493   6.278
 1366SOL     OW 4996   3.445   0.702   1.107
 1366SOL    HW1 4997   3.405   0.776   1.053
 1366SOL    HW2 4998   3.517   0.738   1.166
 1367SOL     OW 4999   1.171   6.893   4.529
 1367SOL    HW1 5000   1.182   6.949   4.447
 1367SOL    HW2 5001   1.139   6.802   4.503
 1368SOL     OW 5002   1.402   6.185   4.720
 1368SOL    HW1 5003   1.407   6.085   4.719
 1368SOL    HW2 5004   1.483   6.223   4.676
 1369SOL     OW 5005   2.008   6.062   3.503
 1369SOL    HW1 5006   1.977   6.078   3.597
 1369SOL    HW2 5007   2.091   6.006   3.506
 1370SOL     OW 5008   0.064   2.713   2.667
 1370SOL    HW1 5009   7.002   2.661   2.673
 1370SOL    HW2 5010   0.051   2.803   2.710
 1371SOL     OW 5011   5.956   1.982   6.073
 1371SOL    HW1 5012   5.896   1.944   6.144
 1371SOL    HW2 5013   5.956   2.082   6.079
 1372SOL     OW 5014   5.146   2.333   1.600
 1372SOL    HW1 5015   5.198   2.419   1.597
 1372SOL    HW2 5016   5.153   2.294   1.691
 1373SOL     OW 5017   5.367   2.844   1.311
 1373SOL    HW1 5018   5.367   2.944   1.315
 1373SOL    HW2 5019   5.450   2.812   1.265
 1374SOL     OW 5020   3.985   3.502   2.530
 1374SOL    HW1 5021   3.941   3.519   2.618
 1374SOL    HW2 5022   4.017   3.407   2.526
 1375SOL     OW 5023   5.274   4.361   4.861
 1375SOL    HW1 5024   5.181   4.342   4.830
 1375SOL    HW2 5025   5.291   4.459   4.857
 1376SOL     OW 5026   2.821   4.633   5.549
 1376SOL    HW1 5027   2.904   4.681   5.519
 1376SOL    HW2 5028   2.807   4.649   5.646
 1377SOL     OW 5029   1.227   1.902   3.452
 1377SOL    HW1 5030   1.187   1.836   3.515
 1377SOL    HW2 5031   1.217   1.994   3.490
 1378SOL     OW 5032   4.420   2.176   4.304
 1378SOL    HW1 5033   4.495   2.113   4.284
 1378SOL    HW2 5034   4.344   2.125   4.344
 1379SOL     OW 5035   4.631   5.514   6.879
 1379SOL    HW1 5036   4.643   5.501   6.781
 1379SOL    HW2 5037   4.535   5.534   6.898
 1380SOL     OW 5038   0.212   6.069   3.869
 1380SOL    HW1 5039   0.141   6.139   3.863
 1380SOL    HW2 5040   0.171   5.979   3.853
 1381SOL     OW 5041   6.652   2.976   6.111
 1381SOL    HW1 5042   6.632   2.926   6.195
 1381SOL    HW2 5043   6.610   3.067   6.115
 1382SOL     OW 5044   4.400   1.692   6.118
 1382SOL    HW1 5045   4.474   1.689   6.050
 1382SOL    HW2 5046   4.425   1.755   6.192
 1383SOL     OW 5047   6.224   0.660   1.059
 1383SOL    HW1 5048   6.281   0.725   1.009
 1383SOL    HW2 5049   6.134   0.653   1.016
 1384SOL     OW 5050   5.867   2.513   1.811
 1384SOL    HW1 5051   5.941   2.446   1.806
 1384SOL    HW2 5052   5.828   2.514   1.903
 1385SOL     OW 5053   6.822   6.264   1.710
 1385SOL    HW1 5054   6.907   6.234   1.665
 1385SOL    HW2 5055   6.826   6.242   1.807
 1386SOL     OW 5056   2.347   0.091   3.937
 1386SOL    HW1 5057   2.345   0.151   3.857
 1386SOL    HW2 5058   2.395   0.006   3.914
 1387SOL     OW 5059   1.364   5.917   1.518
 1387SOL    HW1 5060   1.368   5.861   1.436
 1387SOL    HW2 5061   1.458   5.938   1.548
 1388SOL     OW 5062   6.235   0.513   1.772
 1388SOL    HW1 5063   6.318   0.554   1.734
 1388SOL    HW2 5064   6.165   0.506   1.700
 1389SOL     OW 5065   6.101   1.099   1.916
 1389SOL    HW1 5066   6.161   1.158   1.863
 1389SOL    HW2 5067   6.056   1.034   1.855
 1390SOL     OW 5068   1.318   1.837   4.533
 1390SOL    HW1 5069   1.319   1.922   4.585
 1390SOL    HW2 5070   1.243   1.839   4.467
 1391SOL     OW 5071   0.879   3.214   3.640
 1391SOL    HW1 5072   0.941   3.289   3.615
 1391SOL    HW2 5073   0.911   3.129   3.597
 1392SOL     OW 5074   5.269   4.826   4.357
 1392SOL    HW1 5075   5.194   4.884   4.328
 1392SOL    HW2 5076   5.334   4.814   4.282
 1393SOL     OW 5077   3.667   4.909   6.840
 1393SOL    HW1 5078   3.683   4.875   6.748
 1393SOL    HW2 5079   3.755   4.933   6.883
 1394SOL     OW 5080   1.347   6.536   7.006
 1394SOL    HW1 5081   1.268   6.476   7.020
 1394SOL    HW2 5082   1.319   6.616   6.954
 1395SOL     OW 5083   3.642   4.738   5.977
 1395SOL    HW1 5084   3.690   4.760   5.892
 1395SOL    HW2 5085   3.654   4.813   6.043
 1396SOL     OW 5086   5.515   5.911   3.365
 1396SOL    HW1 5087   5.498   5.820   3.327
 1396SOL    HW2 5088   5.428   5.960   3.373
 1397SOL     OW 5089   5.253   6.110   4.850
 1397SOL    HW1 5090   5.178   6.068   4.901
 1397SOL    HW2 5091   5.317   6.153   4.913
 1398SOL     OW 5092   1.771   0.504   4.609
 1398SOL    HW1 5093   1.865   0.509   4.642
 1398SOL    HW2 5094   1.728   0.594   4.619
 1399SOL     OW 5095   3.299   5.708   2.442
 1399SOL    HW1 5096   3.354   5.688   2.361
 1399SOL    HW2 5097   3.203   5.687   2.422
 1400SOL     OW 5098   1.231   0.352   2.669
 1400SOL    HW1 5099   1.245   0.365   2.767
 1400SOL    HW2 5100   1.288   0.277   2.637
 1401SOL     OW 5101   6.770   1.724   4.516
 1401SOL    HW1 5102   6.764   1.630   4.481
 1401SOL    HW2 5103   6.704   1.782   4.467
 1402SOL     OW 5104   6.266   2.747   6.951
 1402SOL    HW1 5105   6.323   2.761   6.870
 1402SOL    HW2 5106   6.189   2.810   6.949
 1403SOL     OW 5107   3.807   0.278   2.063
 1403SOL    HW1 5108   3.864   0.333   2.125
 1403SOL    HW2 5109   3.739   0.337   2.020
 1404SOL     OW 5110   5.422   1.867   0.769
 1404SOL    HW1 5111   5.389   1.844   0.861
 1404SOL    HW2 5112   5.427   1.784   0.714
 1405SOL     OW 5113   3.511   2.687   1.283
 1405SOL    HW1 5114   3.521   2.591   1.306
 1405SOL    HW2 5115   3.580   2.741   1.331
 1406SOL     OW 5116   1.092   3.834   2.167
 1406SOL    HW1 5117   1.067   3.931   2.164
 1406SOL    HW2 5118   1.026   3.783   2.222
 1407SOL     OW 5119   0.189   2.549   2.446
 1407SOL    HW1 5120   0.156   2.615   2.513
 1407SOL    HW2 5121   0.113   2.519   2.389
 1408SOL     OW 5122   6.205   5.823   6.411
 1408SOL    HW1 5123   6.274   5.859   6.348
 1408SOL    HW2 5124   6.130   5.889   6.420
 1409SOL     OW 5125   6.939   1.412   3.742
 1409SOL    HW1 5126   6.964   1.382   3.650
 1409SOL    HW2 5127   7.017   1.398   3.804
 1410SOL     OW 5128   6.383   1.697   7.012
 1410SOL    HW1 5129   6.438   1.780   7.014
 1410SOL    HW2 5130   6.375   1.664   6.918
 1411SOL     OW 5131   1.614   1.024   1.684
 1411SOL    HW1 5132   1.663   1.074   1.755
 1411SOL    HW2 5133   1.611   0.927   1.707
 1412SOL     OW 5134   1.572   2.800   0.061
 1412SOL    HW1 5135   1.557   2.898   0.049
 1412SOL    HW2 5136   1.501   2.763   0.122
 1413SOL     OW 5137   2.652   6.779   3.111
 1413SOL    HW1 5138   2.632   6.857   3.171
 1413SOL    HW2 5139   2.714   6.809   3.038
 1414SOL     OW 5140   1.809   0.658   2.131
 1414SOL    HW1 5141   1.870   0.625   2.059
 1414SOL    HW2 5142   1.836   0.751   2.157
 1415SOL     OW 5143   5.422   6.120   4.618
 1415SOL    HW1 5144   5.405   6.205   4.567
 1415SOL    HW2 5145   5.356   6.114   4.694
 1416SOL     OW 5146   4.601   5.374   3.600
 1416SOL    HW1 5147   4.665   5.378   3.523
 1416SOL    HW2 5148   4.560   5.283   3.604
 1417SOL     OW 5149   3.383   2.691   6.188
 1417SOL    HW1 5150   3.284   2.686   6.174
 1417SOL    HW2 5151   3.423   2.752   6.119
 1418SOL     OW 5152   3.404   3.753   3.131
 1418SOL    HW1 5153   3.317   3.802   3.121
 1418SOL    HW2 5154   3.385   3.656   3.146
 1419SOL     OW 5155   3.816   6.582   3.991
 1419SOL    HW1 5156   3.799   6.483   3.985
 1419SOL    HW2 5157   3.869   6.602   4.073
 1420SOL     OW 5158   0.362   6.023   2.461
 1420SOL    HW1 5159   0.395   6.065   2.377
 1420SOL    HW2 5160   0.433   6.031   2.532
 1421SOL     OW 5161   3.786   0.987   2.603
 1421SOL    HW1 5162   3.744   0.902   2.636
 1421SOL    HW2 5163   3.854   0.965   2.532
 1422SOL     OW 5164   2.685   6.951   0.404
 1422SOL    HW1 5165   2.769   6.920   0.360
 1422SOL    HW2 5166   2.606   6.915   0.355
 1423SOL     OW 5167   5.255   0.899   2.024
 1423SOL    HW1 5168   5.210   0.973   1.974
 1423SOL    HW2 5169   5.337   0.871   1.975
 1424SOL     OW 5170   6.508   5.322   2.821
 1424SOL    HW1 5171   6.447   5.396   2.847
 1424SOL    HW2 5172   6.454   5.244   2.788
 1425SOL     OW 5173   1.506   0.918   4.352
 1425SOL    HW1 5174   1.422   0.921   4.405
 1425SOL    HW2 5175   1.577   0.870   4.404
 1426SOL     OW 5176   1.734   1.351   5.273
 1426SOL    HW1 5177   1.723   1.436   5.325
 1426SOL    HW2 5178   1.664   1.286   5.300
 1427SOL     OW 5179   5.490   1.043   5.193
 1427SOL    HW1 5180   5.407   1.033   5.248
 1427SOL    HW2 5181   5.468   1.091   5.108
 1428SOL     OW 5182   5.902   1.117   0.340
 1428SOL    HW1 5183   5.933   1.195   0.286
 1428SOL    HW2 5184   5.811   1.091   0.311
 1429SOL     OW 5185   5.620   6.401   6.851
 1429SOL    HW1 5186   5.645   6.316   6.897
 1429SOL    HW2 5187   5.590   6.468   6.918
 1430SOL     OW 5188   2.626   4.606   3.148
 1430SOL    HW1 5189   2.569   4.567   3.076
 1430SOL    HW2 5190   2.614   4.554   3.232
 1431SOL     OW 5191   2.042   0.096   1.070
 1431SOL    HW1 5192   2.010   0.006   1.098
 1431SOL    HW2 5193   2.118   0.087   1.006
 1432SOL     OW 5194   3.252   0.256   1.159
 1432SOL    HW1 5195   3.275   0.341   1.206
 1432SOL    HW2 5196   3.223   0.188   1.226
 1433SOL     OW 5197   4.413   0.596   4.237
 1433SOL    HW1 5198   4.435   0.505   4.275
 1433SOL    HW2 5199   4.344   0.586   4.165
 1434SOL     OW 5200   0.847   1.152   5.287
 1434SOL    HW1 5201   0.925   1.098   5.320
 1434SOL    HW2 5202   0.872   1.249   5.287
 1435SOL     OW 5203   0.044   2.241   3.533
 1435SOL    HW1 5204   6.996   2.234   3.463
 1435SOL    HW2 5205   0.064   2.337   3.550
 1436SOL     OW 5206   4.704   3.848   0.769
 1436SOL    HW1 5207   4.627   3.910   0.787
 1436SOL    HW2 5208   4.746   3.871   0.681
 1437SOL     OW 5209   4.598   1.792   2.564
 1437SOL    HW1 5210   4.588   1.778   2.466
 1437SOL    HW2 5211   4.587   1.705   2.612
 1438SOL     OW 5212   2.047   0.349   1.623
 1438SOL    HW1 5213   2.015   0.441   1.600
 1438SOL    HW2 5214   2.128   0.357   1.682
 1439SOL     OW 5215   0.705   5.743   2.286
 1439SOL    HW1 5216   0.672   5.816   2.227
 1439SOL    HW2 5217   0.629   5.681   2.308
 1440SOL     OW 5218   2.148   2.684   1.701
 1440SOL    HW1 5219   2.110   2.769   1.665
 1440SOL    HW2 5220   2.205   2.704   1.781
 1441SOL     OW 5221   5.022   5.839   6.893
 1441SOL    HW1 5222   4.941   5.790   6.925
 1441SOL    HW2 5223   5.097   5.826   6.957
 1442SOL     OW 5224   5.439   5.470   0.823
 1442SOL    HW1 5225   5.371   5.414   0.776
 1442SOL    HW2 5226   5.528   5.458   0.779
 1443SOL     OW 5227   0.373   2.752   1.954
 1443SOL    HW1 5228   0.293   2.719   2.005
 1443SOL    HW2 5229   0.367   2.851   1.944
 1444SOL     OW 5230   0.583   5.840   6.099
 1444SOL    HW1 5231   0.622   5.929   6.074
 1444SOL    HW2 5232   0.500   5.853   6.152
 1445SOL     OW 5233   0.516   2.849   1.153
 1445SOL    HW1 5234   0.585   2.914   1.122
 1445SOL    HW2 5235   0.519   2.767   1.096
 1446SOL     OW 5236   6.998   5.529   1.001
 1446SOL    HW1 5237   7.018   5.593   1.076
 1446SOL    HW2 5238   0.011   5.566   0.916
 1447SOL     OW 5239   6.530   6.094   3.766
 1447SOL    HW1 5240   6.446   6.040   3.761
 1447SOL    HW2 5241   6.507   6.190   3.782
 1448SOL     OW 5242   0.759   1.322   5.817
 1448SOL    HW1 5243   0.666   1.288   5.834
 1448SOL    HW2 5244   0.801   1.269   5.744
 1449SOL     OW 5245   2.159   3.227   2.976
 1449SOL    HW1 5246   2.248   3.272   2.972
 1449SOL    HW2 5247   2.171   3.129   2.960
 1450SOL     OW 5248   3.188   1.926   3.383
 1450SOL    HW1 5249   3.095   1.894   3.366
 1450SOL    HW2 5250   3.244   1.914   3.301
 1451SOL     OW 5251   3.333   1.573   2.733
 1451SOL    HW1 5252   3.263   1.627   2.685
 1451SOL    HW2 5253   3.376   1.630   2.803
 1452SOL     OW 5254   4.380   2.602   6.545
 1452SOL    HW1 5255   4.406   2.513   6.508
 1452SOL    HW2 5256   4.416   2.675   6.487
 1453SOL     OW 5257   0.994   3.358   4.896
 1453SOL    HW1 5258   1.058   3.290   4.933
 1453SOL    HW2 5259   0.906   3.349   4.942
 1454SOL     OW 5260   3.255   2.164   2.635
 1454SOL    HW1 5261   3.181   2.182   2.571
 1454SOL    HW2 5262   3.335   2.130   2.586
 1455SOL     OW 5263   0.100   5.137   2.368
 1455SOL    HW1 5264   0.095   5.087   2.455
 1455SOL    HW2 5265   0.043   5.219   2.373
 1456SOL     OW 5266   6.460   6.115   4.427
 1456SOL    HW1 5267   6.378   6.072   4.389
 1456SOL    HW2 5268   6.511   6.048   4.481
 1457SOL     OW 5269   0.747   5.254   5.837
 1457SOL    HW1 5270   0.695   5.331   5.798
 1457SOL    HW2 5271   0.805   5.288   5.910
 1458SOL     OW 5272   6.642   4.989   5.129
 1458SOL    HW1 5273   6.601   4.984   5.220
 1458SOL    HW2 5274   6.588   5.051   5.072
 1459SOL     OW 5275   6.520   6.520   4.993
 1459SOL    HW1 5276   6.470   6.600   5.027
 1459SOL    HW2 5277   6.538   6.457   5.069
 1460SOL     OW 5278   2.053   6.043   5.125
 1460SOL    HW1 5279   2.039   5.946   5.144
 1460SOL    HW2 5280   2.041   6.096   5.209
 1461SOL     OW 5281   6.010   3.587   4.044
 1461SOL    HW1 5282   6.076   3.537   3.988
 1461SOL    HW2 5283   6.045   3.596   4.137
 1462SOL     OW 5284   0.397   1.467   1.862
 1462SOL    HW1 5285   0.386   1.387   1.921
 1462SOL    HW2 5286   0.458   1.533   1.905
 1463SOL     OW 5287   1.401   5.253   6.678
 1463SOL    HW1 5288   1.490   5.207   6.673
 1463SOL    HW2 5289   1.330   5.193   6.641
 1464SOL     OW 5290   1.428   4.667   4.824
 1464SOL    HW1 5291   1.458   4.628   4.737
 1464SOL    HW2 5292   1.437   4.767   4.820
 1465SOL     OW 5293   1.482   2.402   5.735
 1465SOL    HW1 5294   1.459   2.331   5.801
 1465SOL    HW2 5295   1.423   2.394   5.655
 1466SOL     OW 5296   5.386   1.220   2.629
 1466SOL    HW1 5297   5.429   1.259   2.548
 1466SOL    HW2 5298   5.318   1.151   2.601
 1467SOL     OW 5299   0.419   6.971   3.467
 1467SOL    HW1 5300   0.379   6.924   3.546
 1467SOL    HW2 5301   0.392   6.924   3.383
 1468SOL     OW 5302   3.568   6.451   3.373
 1468SOL    HW1 5303   3.501   6.463   3.299
 1468SOL    HW2 5304   3.519   6.431   3.458
 1469SOL     OW 5305   5.806   4.274   3.149
 1469SOL    HW1 5306   5.779   4.356   3.098
 1469SOL    HW2 5307   5.764   4.276   3.240
 1470SOL     OW 5308   6.227   2.491   2.486
 1470SOL    HW1 5309   6.167   2.565   2.518
 1470SOL    HW2 5310   6.185   2.403   2.506
 1471SOL     OW 5311   4.942   0.182   6.918
 1471SOL    HW1 5312   4.969   0.181   7.014
 1471SOL    HW2 5313   4.842   0.176   6.911
 1472SOL     OW 5314   2.246   0.950   6.621
 1472SOL    HW1 5315   2.230   0.851   6.619
 1472SOL    HW2 5316   2.159   0.998   6.626
 1473SOL     OW 5317   1.893   5.897   3.006
 1473SOL    HW1 5318   1.931   5.835   3.075
 1473SOL    HW2 5319   1.943   5.885   2.920
 1474SOL     OW 5320   2.041   4.340   2.497
 1474SOL    HW1 5321   1.977   4.340   2.574
 1474SOL    HW2 5322   2.120   4.398   2.519
 1475SOL     OW 5323   6.077   0.251   6.588
 1475SOL    HW1 5324   5.998   0.261   6.529
 1475SOL    HW2 5325   6.094   0.153   6.605
 1476SOL     OW 5326   5.523   0.460   6.488
 1476SOL    HW1 5327   5.471   0.545   6.474
 1476SOL    HW2 5328   5.597   0.477   6.553
 1477SOL     OW 5329   3.335   4.223   1.744
 1477SOL    HW1 5330   3.254   4.276   1.719
 1477SOL    HW2 5331   3.320   4.180   1.833
 1478SOL     OW 5332   4.936   4.533   6.332
 1478SOL    HW1 5333   4.906   4.470   6.404
 1478SOL    HW2 5334   4.977   4.614   6.374
 1479SOL     OW 5335   4.948   4.384   1.018
 1479SOL    HW1 5336   4.996   4.442   1.083
 1479SOL    HW2 5337   4.873   4.337   1.064
 1480SOL     OW 5338   2.525   1.117   4.279
 1480SOL    HW1 5339   2.607   1.132   4.224
 1480SOL    HW2 5340   2.453   1.078   4.221
 1481SOL     OW 5341   4.340   2.025   5.650
 1481SOL    HW1 5342   4.399   2.034   5.730
 1481SOL    HW2 5343   4.297   1.935   5.651
 1482SOL     OW 5344   6.507   1.221   1.598
 1482SOL    HW1 5345   6.439   1.284   1.560
 1482SOL    HW2 5346   6.499   1.132   1.554
 1483SOL     OW 5347   6.414   0.140   6.738
 1483SOL    HW1 5348   6.428   0.108   6.644
 1483SOL    HW2 5349   6.386   0.236   6.736
 1484SOL     OW 5350   3.118   6.209   4.910
 1484SOL    HW1 5351   3.108   6.191   5.008
 1484SOL    HW2 5352   3.135   6.123   4.862
 1485SOL     OW 5353   5.157   3.934   3.658
 1485SOL    HW1 5354   5.181   3.882   3.740
 1485SOL    HW2 5355   5.120   4.023   3.684
 1486SOL     OW 5356   5.100   6.209   3.944
 1486SOL    HW1 5357   5.188   6.162   3.946
 1486SOL    HW2 5358   5.115   6.308   3.936
 1487SOL     OW 5359   6.288   0.962   0.265
 1487SOL    HW1 5360   6.258   1.057   0.261
 1487SOL    HW2 5361   6.232   0.907   0.203
 1488SOL     OW 5362   6.766   2.648   2.822
 1488SOL    HW1 5363   6.776   2.665   2.724
 1488SOL    HW2 5364   6.758   2.549   2.838
 1489SOL     OW 5365   3.210   5.346   6.825
 1489SOL    HW1 5366   3.213   5.299   6.737
 1489SOL    HW2 5367   3.138   5.306   6.882
 1490SOL     OW 5368   6.629   3.153   2.185
 1490SOL    HW1 5369   6.724   3.183   2.180
 1490SOL    HW2 5370   6.607   3.100   2.103
 1491SOL     OW 5371   5.105   2.690   3.640
 1491SOL    HW1 5372   5.065   2.660   3.553
 1491SOL    HW2 5373   5.097   2.618   3.708
 1492SOL     OW 5374   0.818   2.388   2.456
 1492SOL    HW1 5375   0.829   2.329   2.376
 1492SOL    HW2 5376   0.725   2.379   2.491
 1493SOL     OW 5377   6.149   2.439   6.627
 1493SOL    HW1 5378   6.110   2.450   6.718
 1493SOL    HW2 5379   6.146   2.342   6.601
 1494SOL     OW 5380   0.894   4.080   6.307
 1494SOL    HW1 5381   0.854   4.121   6.389
 1494SOL    HW2 5382   0.820   4.055   6.244
 1495SOL     OW 5383   6.776   4.233   3.805
 1495SOL    HW1 5384   6.819   4.289   3.875
 1495SOL    HW2 5385   6.838   4.223   3.727
 1496SOL     OW 5386   6.521   6.244   5.626
 1496SOL    HW1 5387   6.609   6.214   5.589
 1496SOL    HW2 5388   6.512   6.343   5.616
 1497SOL     OW 5389   5.209   2.649   2.416
 1497SOL    HW1 5390   5.216   2.576   2.348
 1497SOL    HW2 5391   5.300   2.675   2.447
 1498SOL     OW 5392   3.835   4.664   0.386
 1498SOL    HW1 5393   3.871   4.625   0.471
 1498SOL    HW2 5394   3.787   4.593   0.335
 1499SOL     OW 5395   0.473   4.611   4.269
 1499SOL    HW1 5396   0.527   4.527   4.266
 1499SOL    HW2 5397   0.383   4.592   4.307
 1500SOL     OW 5398   2.574   5.436   2.217
 1500SOL    HW1 5399   2.482   5.463   2.187
 1500SOL    HW2 5400   2.591   5.341   2.189
 1501SOL     OW 5401   6.096   1.678   1.183
 1501SOL    HW1 5402   6.051   1.745   1.124
 1501SOL    HW2 5403   6.148   1.725   1.253
 1502SOL     OW 5404   0.438   6.346   6.376
 1502SOL    HW1 5405   0.345   6.321   6.404
 1502SOL    HW2 5406   0.462   6.295   6.293
 1503SOL     OW 5407   0.182   5.097   1.621
 1503SOL    HW1 5408   0.180   5.196   1.605
 1503SOL    HW2 5409   0.248   5.054   1.559
 1504SOL     OW 5410   1.689   0.106   3.331
 1504SOL    HW1 5411   1.688   0.069   3.239
 1504SOL    HW2 5412   1.747   0.187   3.335
 1505SOL     OW 5413   6.812   4.935   4.817
 1505SOL    HW1 5414   6.772   4.945   4.908
 1505SOL    HW2 5415   6.911   4.921   4.826
 1506SOL     OW 5416   1.418   0.879   0.808
 1506SOL    HW1 5417   1.486   0.828   0.862
 1506SOL    HW2 5418   1.377   0.818   0.740
 1507SOL     OW 5419   2.806   2.123   3.000
 1507SOL    HW1 5420   2.855   2.132   2.913
 1507SOL    HW2 5421   2.735   2.193   3.006
 1508SOL     OW 5422   1.623   0.421   2.017
 1508SOL    HW1 5423   1.545   0.370   2.053
 1508SOL    HW2 5424   1.625   0.512   2.058
 1509SOL     OW 5425   4.854   1.657   4.288
 1509SOL    HW1 5426   4.824   1.696   4.375
 1509SOL    HW2 5427   4.933   1.708   4.254
 1510SOL     OW 5428   3.271   6.470   5.087
 1510SOL    HW1 5429   3.243   6.551   5.139
 1510SOL    HW2 5430   3.229   6.389   5.126
 1511SOL     OW 5431   3.566   4.137   5.345
 1511SOL    HW1 5432   3.508   4.094   5.414
 1511SOL    HW2 5433   3.630   4.069   5.308
 1512SOL     OW 5434   5.452   6.333   0.601
 1512SOL    HW1 5435   5.528   6.388   0.566
 1512SOL    HW2 5436   5.488   6.252   0.647
 1513SOL     OW 5437   2.881   0.560   5.760
 1513SOL    HW1 5438   2.827   0.516   5.689
 1513SOL    HW2 5439   2.830   0.560   5.846
 1514SOL     OW 5440   2.948   2.240   6.824
 1514SOL    HW1 5441   2.942   2.304   6.747
 1514SOL    HW2 5442   3.039   2.199   6.826
 1515SOL     OW 5443   3.680   0.702   2.628
 1515SOL    HW1 5444   3.592   0.702   2.580
 1515SOL    HW2 5445   3.686   0.622   2.688
 1516SOL     OW 5446   6.605   6.723   6.158
 1516SOL    HW1 5447   6.533   6.731   6.089
 1516SOL    HW2 5448   6.632   6.627   6.167
 1517SOL     OW 5449   2.568   6.281   3.018
 1517SOL    HW1 5450   2.653   6.250   3.060
 1517SOL    HW2 5451   2.536   6.364   3.065
 1518SOL     OW 5452   1.190   3.201   0.109
 1518SOL    HW1 5453   1.194   3.263   0.188
 1518SOL    HW2 5454   1.221   3.250   0.027
 1519SOL     OW 5455   0.369   4.287   6.739
 1519SOL    HW1 5456   0.387   4.257   6.832
 1519SOL    HW2 5457   0.276   4.261   6.712
 1520SOL     OW 5458   6.909   6.868   3.051
 1520SOL    HW1 5459   6.862   6.852   3.138
 1520SOL    HW2 5460   6.964   6.952   3.058
 1521SOL     OW 5461   1.990   4.692   6.320
 1521SOL    HW1 5462   1.959   4.777   6.363
 1521SOL    HW2 5463   2.028   4.631   6.391
 1522SOL     OW 5464   5.417   6.588   4.341
 1522SOL    HW1 5465   5.493   6.651   4.329
 1522SOL    HW2 5466   5.399   6.540   4.255
 1523SOL     OW 5467   2.448   6.740   0.548
 1523SOL    HW1 5468   2.395   6.657   0.563
 1523SOL    HW2 5469   2.399   6.819   0.585
 1524SOL     OW 5470   1.919   2.567   4.252
 1524SOL    HW1 5471   1.832   2.549   4.206
 1524SOL    HW2 5472   1.941   2.492   4.313
 1525SOL     OW 5473   5.678   4.221   6.443
 1525SOL    HW1 5474   5.644   4.300   6.494
 1525SOL    HW2 5475   5.767   4.244   6.402
 1526SOL     OW 5476   0.859   1.643   1.146
 1526SOL    HW1 5477   0.806   1.728   1.139
 1526SOL    HW2 5478   0.833   1.595   1.230
 1527SOL     OW 5479   5.110   1.362   4.924
 1527SOL    HW1 5480   5.089   1.450   4.882
 1527SOL    HW2 5481   5.053   1.291   4.884
 1528SOL     OW 5482   3.587   3.018   2.475
 1528SOL    HW1 5483   3.625   2.958   2.405
 1528SOL    HW2 5484   3.488   3.006   2.478
 1529SOL     OW 5485   4.361   1.419   5.520
 1529SOL    HW1 5486   4.404   1.509   5.521
 1529SOL    HW2 5487   4.272   1.427   5.475
 1530SOL     OW 5488   2.324   0.000   1.356
 1530SOL    HW1 5489   2.344   0.051   1.272
 1530SOL    HW2 5490   2.322   6.925   1.337
 1531SOL     OW 5491   4.958   6.306   4.599
 1531SOL    HW1 5492   4.875   6.251   4.584
 1531SOL    HW2 5493   5.030   6.272   4.539
 1532SOL     OW 5494   2.790   5.900   1.666
 1532SOL    HW1 5495   2.884   5.890   1.698
 1532SOL    HW2 5496   2.758   5.812   1.628
 1533SOL     OW 5497   5.925   6.218   0.884
 1533SOL    HW1 5498   5.950   6.144   0.946
 1533SOL    HW2 5499   5.894   6.181   0.797
 1534SOL     OW 5500   2.201   4.544   6.946
 1534SOL    HW1 5501   2.299   4.542   6.929
 1534SOL    HW2 5502   2.174   4.635   6.977
 1535SOL     OW 5503   5.157   4.193   3.780
 1535SOL    HW1 5504   5.069   4.238   3.763
 1535SOL    HW2 5505   5.231   4.253   3.750
 1536SOL     OW 5506   4.401   3.982   6.488
 1536SOL    HW1 5507   4.437   4.022   6.403
 1536SOL    HW2 5508   4.392   4.054   6.557
 1537SOL     OW 5509   3.166   5.407   2.694
 1537SOL    HW1 5510   3.104   5.425   2.618
 1537SOL    HW2 5511   3.258   5.442   2.671
 1538SOL     OW 5512   2.871   0.741   0.624
 1538SOL    HW1 5513   2.886   0.840   0.630
 1538SOL    HW2 5514   2.907   0.706   0.538
 1539SOL     OW 5515   0.025   3.179   1.000
 1539SOL    HW1 5516   0.116   3.138   1.010
 1539SOL    HW2 5517   0.004   3.236   1.079
 1540SOL     OW 5518   3.364   6.481   3.592
 1540SOL    HW1 5519   3.313   6.565   3.608
 1540SOL    HW2 5520   3.300   6.406   3.575
 1541SOL     OW 5521   4.330   2.467   5.590
 1541SOL    HW1 5522   4.238   2.508   5.584
 1541SOL    HW2 5523   4.331   2.400   5.663
 1542SOL     OW 5524   6.737   5.416   3.161
 1542SOL    HW1 5525   6.730   5.334   3.105
 1542SOL    HW2 5526   6.809   5.475   3.125
 1543SOL     OW 5527   3.209   5.540   0.754
 1543SOL    HW1 5528   3.211   5.468   0.823
 1543SOL    HW2 5529   3.285   5.527   0.690
 1544SOL     OW 5530   3.844   3.580   4.002
 1544SOL    HW1 5531   3.823   3.590   3.905
 1544SOL    HW2 5532   3.889   3.491   4.017
 1545SOL     OW 5533   5.981   5.176   1.319
 1545SOL    HW1 5534   5.958   5.085   1.352
 1545SOL    HW2 5535   5.944   5.245   1.382
 1546SOL     OW 5536   6.315   6.308   5.282
 1546SOL    HW1 5537   6.245   6.251   5.326
 1546SOL    HW2 5538   6.287   6.328   5.188
 1547SOL     OW 5539   1.463   3.263   6.398
 1547SOL    HW1 5540   1.470   3.350   6.447
 1547SOL    HW2 5541   1.554   3.233   6.371
 1548SOL     OW 5542   6.288   2.295   0.699
 1548SOL    HW1 5543   6.315   2.390   0.686
 1548SOL    HW2 5544   6.338   2.237   0.635
 1549SOL     OW 5545   4.872   1.192   4.835
 1549SOL    HW1 5546   4.851   1.243   4.752
 1549SOL    HW2 5547   4.851   1.095   4.820
 1550SOL     OW 5548   3.034   3.600   4.278
 1550SOL    HW1 5549   2.987   3.594   4.366
 1550SOL    HW2 5550   3.090   3.683   4.275
 1551SOL     OW 5551   6.827   5.227   6.007
 1551SOL    HW1 5552   6.814   5.325   6.017
 1551SOL    HW2 5553   6.830   5.184   6.098
 1552SOL     OW 5554   1.960   4.394   1.392
 1552SOL    HW1 5555   2.014   4.372   1.474
 1552SOL    HW2 5556   1.920   4.484   1.402
 1553SOL     OW 5557   1.832   1.981   5.653
 1553SOL    HW1 5558   1.801   1.998   5.559
 1553SOL    HW2 5559   1.926   2.015   5.663
 1554SOL     OW 5560   4.511   1.756   3.129
 1554SOL    HW1 5561   4.442   1.783   3.061
 1554SOL    HW2 5562   4.492   1.663   3.160
 1555SOL     OW 5563   5.759   4.985   5.521
 1555SOL    HW1 5564   5.848   4.998   5.477
 1555SOL    HW2 5565   5.705   4.920   5.467
 1556SOL     OW 5566   1.769   0.942   5.830
 1556SOL    HW1 5567   1.690   0.998   5.856
 1556SOL    HW2 5568   1.851   0.975   5.876
 1557SOL     OW 5569   0.785   1.829   5.386
 1557SOL    HW1 5570   0.868   1.807   5.335
 1557SOL    HW2 5571   0.706   1.787   5.341
 1558SOL     OW 5572   6.919   6.455   4.632
 1558SOL    HW1 5573   6.969   6.384   4.583
 1558SOL    HW2 5574   6.832   6.418   4.665
 1559SOL     OW 5575   1.251   1.157   6.006
 1559SOL    HW1 5576   1.181   1.139   5.937
 1559SOL    HW2 5577   1.222   1.234   6.063
 1560SOL     OW 5578   0.217   0.550   0.197
 1560SOL    HW1 5579   0.256   0.630   0.242
 1560SOL    HW2 5580   0.205   0.477   0.264
 1561SOL     OW 5581   6.002   6.284   1.699
 1561SOL    HW1 5582   5.972   6.299   1.604
 1561SOL    HW2 5583   5.977   6.191   1.727
 1562SOL     OW 5584   5.361   0.370   4.100
 1562SOL    HW1 5585   5.299   0.337   4.171
 1562SOL    HW2 5586   5.443   0.313   4.097
 1563SOL     OW 5587   3.118   0.107   5.953
 1563SOL    HW1 5588   3.177   0.115   6.034
 1563SOL    HW2 5589   3.174   0.084   5.873
 1564SOL     OW 5590   2.063   2.187   3.286
 1564SOL    HW1 5591   2.004   2.136   3.223
 1564SOL    HW2 5592   2.041   2.162   3.380
 1565SOL     OW 5593   6.245   4.911   1.294
 1565SOL    HW1 5594   6.232   4.880   1.200
 1565SOL    HW2 5595   6.262   5.010   1.294
 1566SOL     OW 5596   6.226   4.709   2.023
 1566SOL    HW1 5597   6.216   4.799   1.979
 1566SOL    HW2 5598   6.303   4.661   1.981
 1567SOL     OW 5599   6.652   5.695   5.375
 1567SOL    HW1 5600   6.615   5.602   5.372
 1567SOL    HW2 5601   6.701   5.709   5.461
 1568SOL     OW 5602   0.025   6.618   0.597
 1568SOL    HW1 5603   7.003   6.530   0.614
 1568SOL    HW2 5604   6.990   6.692   0.632
 1569SOL     OW 5605   3.023   6.408   5.397
 1569SOL    HW1 5606   3.047   6.501   5.425
 1569SOL    HW2 5607   2.994   6.355   5.477
 1570SOL     OW 5608   2.852   2.162   1.841
 1570SOL    HW1 5609   2.866   2.249   1.889
 1570SOL    HW2 5610   2.794   2.102   1.896
 1571SOL     OW 5611   0.126   3.486   0.996
 1571SOL    HW1 5612   0.108   3.436   1.081
 1571SOL    HW2 5613   0.174   3.426   0.932
 1572SOL     OW 5614   0.308   5.693   3.399
 1572SOL    HW1 5615   0.320   5.597   3.423
 1572SOL    HW2 5616   0.386   5.724   3.345
 1573SOL     OW 5617   4.732   6.768   0.186
 1573SOL    HW1 5618   4.689   6.757   0.097
 1573SOL    HW2 5619   4.724   6.863   0.216
 1574SOL     OW 5620   5.427   3.527   2.152
 1574SOL    HW1 5621   5.426   3.519   2.052
 1574SOL    HW2 5622   5.354   3.588   2.181
 1575SOL     OW 5623   3.576   2.151   0.645
 1575SOL    HW1 5624   3.604   2.067   0.690
 1575SOL    HW2 5625   3.501   2.131   0.581
 1576SOL     OW 5626   6.389   5.119   3.135
 1576SOL    HW1 5627   6.331   5.177   3.077
 1576SOL    HW2 5628   6.363   5.130   3.231
 1577SOL     OW 5629   1.603   0.665   0.659
 1577SOL    HW1 5630   1.551   0.661   0.573
 1577SOL    HW2 5631   1.596   0.578   0.707
 1578SOL     OW 5632   5.942   5.755   4.700
 1578SOL    HW1 5633   5.903   5.732   4.611
 1578SOL    HW2 5634   6.026   5.703   4.715
 1579SOL     OW 5635   0.004   0.081   2.847
 1579SOL    HW1 5636   0.057   0.111   2.767
 1579SOL    HW2 5637   6.931   0.108   2.834
 1580SOL     OW 5638   3.210   3.856   5.817
 1580SOL    HW1 5639   3.247   3.940   5.777
 1580SOL    HW2 5640   3.154   3.880   5.897
 1581SOL     OW 5641   6.049   3.052   4.295
 1581SOL    HW1 5642   6.017   2.969   4.249
 1581SOL    HW2 5643   6.128   3.029   4.352
 1582SOL     OW 5644   6.150   6.398   4.231
 1582SOL    HW1 5645   6.204   6.410   4.314
 1582SOL    HW2 5646   6.165   6.307   4.194
 1583SOL     OW 5647   2.042   2.412   1.697
 1583SOL    HW1 5648   2.081   2.501   1.719
 1583SOL    HW2 5649   1.944   2.422   1.679
 1584SOL     OW 5650   2.463   6.903   6.441
 1584SOL    HW1 5651   2.531   6.974   6.463
 1584SOL    HW2 5652   2.372   6.935   6.464
 1585SOL     OW 5653   5.913   0.875   5.911
 1585SOL    HW1 5654   6.000   0.857   5.957
 1585SOL    HW2 5655   5.867   0.951   5.957
 1586SOL     OW 5656   3.791   3.267   3.157
 1586SOL    HW1 5657   3.859   3.340   3.155
 1586SOL    HW2 5658   3.835   3.183   3.188
 1587SOL     OW 5659   2.066   6.893   6.208
 1587SOL    HW1 5660   2.091   6.910   6.304
 1587SOL    HW2 5661   2.144   6.853   6.161
 1588SOL     OW 5662   6.124   3.606   0.551
 1588SOL    HW1 5663   6.131   3.535   0.481
 1588SOL    HW2 5664   6.127   3.696   0.507
 1589SOL     OW 5665   4.701   5.003   3.130
 1589SOL    HW1 5666   4.753   4.932   3.178
 1589SOL    HW2 5667   4.662   4.965   3.046
 1590SOL     OW 5668   2.182   6.339   4.898
 1590SOL    HW1 5669   2.222   6.250   4.877
 1590SOL    HW2 5670   2.185   6.356   4.997
 1591SOL     OW 5671   2.283   3.444   0.103
 1591SOL    HW1 5672   2.373   3.401   0.108
 1591SOL    HW2 5673   2.216   3.385   0.148
 1592SOL     OW 5674   4.102   3.761   3.984
 1592SOL    HW1 5675   4.015   3.713   3.999
 1592SOL    HW2 5676   4.099   3.810   3.897
 1593SOL     OW 5677   1.417   4.648   4.329
 1593SOL    HW1 5678   1.463   4.687   4.409
 1593SOL    HW2 5679   1.411   4.718   4.257
 1594SOL     OW 5680   0.353   5.109   2.976
 1594SOL    HW1 5681   0.339   5.208   2.962
 1594SOL    HW2 5682   0.333   5.085   3.070
 1595SOL     OW 5683   0.217   3.366   4.807
 1595SOL    HW1 5684   0.287   3.393   4.741
 1595SOL    HW2 5685   0.204   3.440   4.873
 1596SOL     OW 5686   3.005   5.137   6.895
 1596SOL    HW1 5687   2.982   5.178   6.807
 1596SOL    HW2 5688   2.993   5.205   6.967
 1597SOL     OW 5689   2.500   0.403   0.552
 1597SOL    HW1 5690   2.501   0.503   0.555
 1597SOL    HW2 5691   2.517   0.372   0.458
 1598SOL     OW 5692   0.214   5.363   1.585
 1598SOL    HW1 5693   0.155   5.420   1.643
 1598SOL    HW2 5694   0.187   5.373   1.490
 1599SOL     OW 5695   3.148   5.532   0.420
 1599SOL    HW1 5696   3.202   5.584   0.486
 1599SOL    HW2 5697   3.089   5.594   0.368
 1600SOL     OW 5698   3.496   1.676   5.150
 1600SOL    HW1 5699   3.434   1.742   5.192
 1600SOL    HW2 5700   3.520   1.605   5.216
 1601SOL     OW 5701   1.690   5.401   5.034
 1601SOL    HW1 5702   1.653   5.340   5.104
 1601SOL    HW2 5703   1.679   5.496   5.063
 1602SOL     OW 5704   0.602   3.550   2.215
 1602SOL    HW1 5705   0.601   3.486   2.292
 1602SOL    HW2 5706   0.601   3.644   2.251
 1603SOL     OW 5707   5.895   6.817   0.452
 1603SOL    HW1 5708   5.935   6.900   0.415
 1603SOL    HW2 5709   5.840   6.772   0.382
 1604SOL     OW 5710   0.925   5.483   4.565
 1604SOL    HW1 5711   1.017   5.443   4.564
 1604SOL    HW2 5712   0.914   5.541   4.645
 1605SOL     OW 5713   4.866   5.087   2.537
 1605SOL    HW1 5714   4.801   5.160   2.516
 1605SOL    HW2 5715   4.909   5.105   2.625
 1606SOL     OW 5716   5.784   5.651   4.470
 1606SOL    HW1 5717   5.835   5.653   4.384
 1606SOL    HW2 5718   5.686   5.641   4.451
 1607SOL     OW 5719   4.632   3.258   1.481
 1607SOL    HW1 5720   4.571   3.193   1.436
 1607SOL    HW2 5721   4.669   3.217   1.564
 1608SOL     OW 5722   2.895   0.375   0.757
 1608SOL    HW1 5723   2.907   0.475   0.761
 1608SOL    HW2 5724   2.924   0.335   0.844
 1609SOL     OW 5725   5.735   1.286   5.328
 1609SOL    HW1 5726   5.650   1.319   5.288
 1609SOL    HW2 5727   5.739   1.187   5.322
 1610SOL     OW 5728   4.844   6.682   2.957
 1610SOL    HW1 5729   4.860   6.778   2.976
 1610SOL    HW2 5730   4.923   6.643   2.909
 1611SOL     OW 5731   4.341   3.633   1.429
 1611SOL    HW1 5732   4.310   3.703   1.365
 1611SOL    HW2 5733   4.410   3.575   1.385
 1612SOL     OW 5734   3.118   0.832   5.166
 1612SOL    HW1 5735   3.133   0.816   5.068
 1612SOL    HW2 5736   3.065   0.756   5.205
 1613SOL     OW 5737   1.773   0.547   1.449
 1613SOL    HW1 5738   1.809   0.547   1.356
 1613SOL    HW2 5739   1.819   0.616   1.504
 1614SOL     OW 5740   0.203   2.525   5.274
 1614SOL    HW1 5741   0.293   2.539   5.233
 1614SOL    HW2 5742   0.187   2.427   5.285
 1615SOL     OW 5743   6.494   5.212   5.655
 1615SOL    HW1 5744   6.517   5.305   5.684
 1615SOL    HW2 5745   6.547   5.147   5.708
 1616SOL     OW 5746   2.313   2.077   6.189
 1616SOL    HW1 5747   2.373   2.098   6.111
 1616SOL    HW2 5748   2.288   1.981   6.186
 1617SOL     OW 5749   3.463   0.978   3.570
 1617SOL    HW1 5750   3.367   0.969   3.545
 1617SOL    HW2 5751   3.494   1.072   3.551
 1618SOL     OW 5752   5.372   2.913   1.918
 1618SOL    HW1 5753   5.342   2.971   1.995
 1618SOL    HW2 5754   5.293   2.866   1.880
 1619SOL     OW 5755   1.649   2.630   4.874
 1619SOL    HW1 5756   1.633   2.704   4.809
 1619SOL    HW2 5757   1.723   2.572   4.841
 1620SOL     OW 5758   3.507   6.367   1.677
 1620SOL    HW1 5759   3.449   6.289   1.702
 1620SOL    HW2 5760   3.464   6.416   1.601
 1621SOL     OW 5761   2.013   2.190   1.845
 1621SOL    HW1 5762   1.947   2.126   1.805
 1621SOL    HW2 5763   2.034   2.261   1.778
 1622SOL     OW 5764   2.369   2.328   5.133
 1622SOL    HW1 5765   2.338   2.271   5.057
 1622SOL    HW2 5766   2.403   2.415   5.098
 1623SOL     OW 5767   2.015   2.059   4.894
 1623SOL    HW1 5768   2.042   2.145   4.852
 1623SOL    HW2 5769   1.944   2.075   4.961
 1624SOL     OW 5770   2.370   0.748   0.578
 1624SOL    HW1 5771   2.468   0.752   0.600
 1624SOL    HW2 5772   2.358   0.715   0.484
 1625SOL     OW 5773   0.892   6.696   1.435
 1625SOL    HW1 5774   0.961   6.744   1.381
 1625SOL    HW2 5775   0.814   6.756   1.451
 1626SOL     OW 5776   2.591   3.062   6.143
 1626SOL    HW1 5777   2.499   3.034   6.117
 1626SOL    HW2 5778   2.635   2.988   6.194
 1627SOL     OW 5779   4.813   4.119   3.464
 1627SOL    HW1 5780   4.853   4.207   3.437
 1627SOL    HW2 5781   4.750   4.133   3.540
 1628SOL     OW 5782   3.241   3.356   0.022
 1628SOL    HW1 5783   3.217   3.388   6.954
 1628SOL    HW2 5784   3.181   3.399   0.090
 1629SOL     OW 5785   2.944   2.157   2.758
 1629SOL    HW1 5786   3.028   2.194   2.718
 1629SOL    HW2 5787   2.907   2.086   2.699
 1630SOL     OW 5788   5.482   5.212   3.790
 1630SOL    HW1 5789   5.565   5.186   3.839
 1630SOL    HW2 5790   5.449   5.300   3.823
 1631SOL     OW 5791   1.212   7.011   6.126
 1631SOL    HW1 5792   1.231   0.079   6.162
 1631SOL    HW2 5793   1.291   6.980   6.072
 1632SOL     OW 5794   4.371   6.654   6.963
 1632SOL    HW1 5795   4.416   6.661   6.874
 1632SOL    HW2 5796   4.383   6.739   7.013
 1633SOL     OW 5797   6.317   3.687   2.940
 1633SOL    HW1 5798   6.400   3.633   2.952
 1633SOL    HW2 5799   6.298   3.739   3.024
 1634SOL     OW 5800   3.859   1.151   0.989
 1634SOL    HW1 5801   3.855   1.080   0.918
 1634SOL    HW2 5802   3.896   1.235   0.950
 1635SOL     OW 5803   0.962   4.679   3.585
 1635SOL    HW1 5804   0.980   4.610   3.655
 1635SOL    HW2 5805   0.964   4.636   3.495
 1636SOL     OW 5806   2.740   6.550   0.033
 1636SOL    HW1 5807   2.818   6.580   0.089
 1636SOL    HW2 5808   2.700   6.467   0.072
 1637SOL     OW 5809   1.014   2.878   2.689
 1637SOL    HW1 5810   1.101   2.927   2.692
 1637SOL    HW2 5811   0.998   2.832   2.776
 1638SOL     OW 5812   1.423   2.237   5.952
 1638SOL    HW1 5813   1.438   2.327   5.993
 1638SOL    HW2 5814   1.350   2.189   6.000
 1639SOL     OW 5815   4.366   4.588   2.638
 1639SOL    HW1 5816   4.314   4.654   2.585
 1639SOL    HW2 5817   4.348   4.601   2.736
 1640SOL     OW 5818   6.053   6.654   1.147
 1640SOL    HW1 5819   6.029   6.748   1.121
 1640SOL    HW2 5820   6.120   6.618   1.082
 1641SOL     OW 5821   6.806   2.848   5.001
 1641SOL    HW1 5822   6.790   2.931   4.947
 1641SOL    HW2 5823   6.903   2.823   4.995
 1642SOL     OW 5824   0.868   2.370   2.015
 1642SOL    HW1 5825   0.928   2.326   2.082
 1642SOL    HW2 5826   0.859   2.467   2.036
 1643SOL     OW 5827   3.804   0.399   5.688
 1643SOL    HW1 5828   3.885   0.452   5.713
 1643SOL    HW2 5829   3.830   0.304   5.669
 1644SOL     OW 5830   4.418   1.136   0.860
 1644SOL    HW1 5831   4.483   1.211   0.874
 1644SOL    HW2 5832   4.417   1.078   0.941
 1645SOL     OW 5833   2.158   6.019   6.605
 1645SOL    HW1 5834   2.117   6.109   6.620
 1645SOL    HW2 5835   2.086   5.949   6.607
 1646SOL     OW 5836   2.497   3.898   0.356
 1646SOL    HW1 5837   2.572   3.939   0.407
 1646SOL    HW2 5838   2.533   3.826   0.296
 1647SOL     OW 5839   5.414   3.478   2.832
 1647SOL    HW1 5840   5.358   3.452   2.910
 1647SOL    HW2 5841   5.373   3.556   2.785
 1648SOL     OW 5842   3.254   0.431   2.966
 1648SOL    HW1 5843   3.281   0.402   3.058
 1648SOL    HW2 5844   3.155   0.422   2.956
 1649SOL     OW 5845   2.610   0.372   3.626
 1649SOL    HW1 5846   2.630   0.361   3.529
 1649SOL    HW2 5847   2.535   0.438   3.637
 1650SOL     OW 5848   3.280   7.021   4.371
 1650SOL    HW1 5849   3.227   7.011   4.287
 1650SOL    HW2 5850   3.250   6.953   4.438
 1651SOL     OW 5851   0.998   6.300   2.286
 1651SOL    HW1 5852   1.066   6.298   2.212
 1651SOL    HW2 5853   1.039   6.266   2.370
 1652SOL     OW 5854   3.466   3.235   1.682
 1652SOL    HW1 5855   3.472   3.291   1.764
 1652SOL    HW2 5856   3.370   3.215   1.663
 1653SOL     OW 5857   1.237   4.736   1.405
 1653SOL    HW1 5858   1.277   4.823   1.373
 1653SOL    HW2 5859   1.149   4.754   1.447
 1654SOL     OW 5860   0.515   1.969   3.891
 1654SOL    HW1 5861   0.557   2.034   3.827
 1654SOL    HW2 5862   0.422   1.950   3.862
 1655SOL     OW 5863   4.402   4.164   5.495
 1655SOL    HW1 5864   4.447   4.089   5.446
 1655SOL    HW2 5865   4.304   4.160   5.478
 1656SOL     OW 5866   0.219   4.061   2.108
 1656SOL    HW1 5867   0.171   4.061   2.020
 1656SOL    HW2 5868   0.152   4.068   2.182
 1657SOL     OW 5869   1.183   0.789   5.162
 1657SOL    HW1 5870   1.230   0.701   5.152
 1657SOL    HW2 5871   1.085   0.776   5.154
 1658SOL     OW 5872   6.059   6.960   2.382
 1658SOL    HW1 5873   6.049   7.000   2.474
 1658SOL    HW2 5874   6.026   0.002   2.314
 1659SOL     OW 5875   5.351   2.210   6.438
 1659SOL    HW1 5876   5.396   2.272   6.502
 1659SOL    HW2 5877   5.253   2.207   6.457
 1660SOL     OW 5878   2.353   6.092   3.533
 1660SOL    HW1 5879   2.418   6.167   3.547
 1660SOL    HW2 5880   2.312   6.100   3.442
 1661SOL     OW 5881   2.683   0.685   3.278
 1661SOL    HW1 5882   2.673   0.610   3.213
 1661SOL    HW2 5883   2.728   0.651   3.361
 1662SOL     OW 5884   6.345   0.676   3.295
 1662SOL    HW1 5885   6.419   0.621   3.255
 1662SOL    HW2 5886   6.371   0.772   3.294
 1663SOL     OW 5887   1.783   0.515   3.495
 1663SOL    HW1 5888   1.769   0.442   3.563
 1663SOL    HW2 5889   1.804   0.600   3.543
 1664SOL     OW 5890   2.056   5.614   4.725
 1664SOL    HW1 5891   1.971   5.563   4.735
 1664SOL    HW2 5892   2.084   5.650   4.814
 1665SOL     OW 5893   6.889   1.078   3.434
 1665SOL    HW1 5894   6.931   1.022   3.362
 1665SOL    HW2 5895   6.882   1.026   3.518
 1666SOL     OW 5896   5.462   2.556   5.961
 1666SOL    HW1 5897   5.562   2.565   5.959
 1666SOL    HW2 5898   5.431   2.563   6.056
 1667SOL     OW 5899   6.937   0.720   0.717
 1667SOL    HW1 5900   6.958   0.655   0.644
 1667SOL    HW2 5901   6.873   0.789   0.683
 1668SOL     OW 5902   1.413   0.570   4.562
 1668SOL    HW1 5903   1.400   0.552   4.659
 1668SOL    HW2 5904   1.476   0.647   4.549
 1669SOL     OW 5905   5.419   5.918   5.745
 1669SOL    HW1 5906   5.391   6.009   5.714
 1669SOL    HW2 5907   5.511   5.898   5.712
 1670SOL     OW 5908   6.767   3.270   6.273
 1670SOL    HW1 5909   6.731   3.199   6.333
 1670SOL    HW2 5910   6.847   3.313   6.315
 1671SOL     OW 5911   5.478   5.361   0.094
 1671SOL    HW1 5912   5.529   5.373   0.179
 1671SOL    HW2 5913   5.392   5.314   0.113
 1672SOL     OW 5914   1.718   5.087   2.724
 1672SOL    HW1 5915   1.652   5.108   2.651
 1672SOL    HW2 5916   1.790   5.027   2.687
 1673SOL     OW 5917   6.324   3.208   3.630
 1673SOL    HW1 5918   6.364   3.191   3.720
 1673SOL    HW2 5919   6.225   3.220   3.638
 1674SOL     OW 5920   2.194   5.599   0.275
 1674SOL    HW1 5921   2.134   5.546   0.215
 1674SOL    HW2 5922   2.161   5.693   0.281
 1675SOL     OW 5923   5.041   1.657   0.216
 1675SOL    HW1 5924   5.018   1.733   0.277
 1675SOL    HW2 5925   5.109   1.598   0.260
 1676SOL     OW 5926   2.911   1.759   3.866
 1676SOL    HW1 5927   2.901   1.792   3.960
 1676SOL    HW2 5928   3.001   1.785   3.832
 1677SOL     OW 5929   5.612   0.232   5.708
 1677SOL    HW1 5930   5.650   0.319   5.676
 1677SOL    HW2 5931   5.614   0.229   5.808
 1678SOL     OW 5932   5.091   6.428   1.870
 1678SOL    HW1 5933   5.083   6.345   1.924
 1678SOL    HW2 5934   5.137   6.499   1.923
 1679SOL     OW 5935   5.828   4.157   0.482
 1679SOL    HW1 5936   5.849   4.059   0.472
 1679SOL    HW2 5937   5.730   4.169   0.497
 1680SOL     OW 5938   0.902   2.332   5.550
 1680SOL    HW1 5939   0.844   2.250   5.551
 1680SOL    HW2 5940   0.904   2.372   5.641
 1681SOL     OW 5941   4.340   5.521   0.177
 1681SOL    HW1 5942   4.347   5.429   0.139
 1681SOL    HW2 5943   4.428   5.549   0.216
 1682SOL     OW 5944   6.835   2.474   5.521
 1682SOL    HW1 5945   6.915   2.527   5.492
 1682SOL    HW2 5946   6.863   2.381   5.543
 1683SOL     OW 5947   5.487   5.489   5.675
 1683SOL    HW1 5948   5.580   5.522   5.692
 1683SOL    HW2 5949   5.472   5.404   5.725
 1684SOL     OW 5950   0.328   6.723   4.358
 1684SOL    HW1 5951   0.387   6.680   4.289
 1684SOL    HW2 5952   0.370   6.808   4.389
 1685SOL     OW 5953   0.887   2.002   0.697
 1685SOL    HW1 5954   0.863   2.041   0.785
 1685SOL    HW2 5955   0.857   2.063   0.624
 1686SOL     OW 5956   2.126   6.721   6.601
 1686SOL    HW1 5957   2.116   6.660   6.679
 1686SOL    HW2 5958   2.087   6.677   6.520
 1687SOL     OW 5959   3.481   6.608   1.975
 1687SOL    HW1 5960   3.411   6.648   2.034
 1687SOL    HW2 5961   3.505   6.517   2.008
 1688SOL     OW 5962   0.086   1.314   3.951
 1688SOL    HW1 5963   0.122   1.225   3.923
 1688SOL    HW2 5964   0.161   1.379   3.961
 1689SOL     OW 5965   3.433   1.420   1.379
 1689SOL    HW1 5966   3.498   1.405   1.305
 1689SOL    HW2 5967   3.348   1.459   1.342
 1690SOL     OW 5968   0.979   2.297   0.314
 1690SOL    HW1 5969   1.045   2.239   0.363
 1690SOL    HW2 5970   0.909   2.240   0.273
 1691SOL     OW 5971   4.537   4.449   3.462
 1691SOL    HW1 5972   4.586   4.423   3.379
 1691SOL    HW2 5973   4.532   4.371   3.524
 1692SOL     OW 5974   1.086   0.150   3.626
 1692SOL    HW1 5975   1.027   0.220   3.665
 1692SOL    HW2 5976   1.050   0.059   3.646
 1693SOL     OW 5977   3.361   2.143   3.798
 1693SOL    HW1 5978   3.391   2.236   3.775
 1693SOL    HW2 5979   3.425   2.077   3.761
 1694SOL     OW 5980   5.944   5.855   4.997
 1694SOL    HW1 5981   5.945   5.875   4.900
 1694SOL    HW2 5982   6.036   5.834   5.029
 1695SOL     OW 5983   3.685   1.298   6.392
 1695SOL    HW1 5984   3.658   1.262   6.303
 1695SOL    HW2 5985   3.663   1.396   6.396
 1696SOL     OW 5986   3.632   5.832   1.747
 1696SOL    HW1 5987   3.638   5.862   1.843
 1696SOL    HW2 5988   3.721   5.798   1.718
 1697SOL     OW 5989   1.179   1.657   2.243
 1697SOL    HW1 5990   1.123   1.707   2.178
 1697SOL    HW2 5991   1.126   1.635   2.325
 1698SOL     OW 5992   4.783   1.732   0.533
 1698SOL    HW1 5993   4.716   1.806   0.528
 1698SOL    HW2 5994   4.875   1.771   0.542
 1699SOL     OW 5995   2.652   4.732   0.824
 1699SOL    HW1 5996   2.644   4.641   0.784
 1699SOL    HW2 5997   2.706   4.791   0.764
 1700SOL     OW 5998   5.928   2.401   4.359
 1700SOL    HW1 5999   5.877   2.345   4.294
 1700SOL    HW2 6000   5.898   2.497   4.352
 1701SOL     OW 6001   6.217   3.034   5.326
 1701SOL    HW1 6002   6.276   3.050   5.405
 1701SOL    HW2 6003   6.252   3.084   5.247
 1702SOL     OW 6004   4.529   2.615   1.261
 1702SOL    HW1 6005   4.584   2.679   1.314
 1702SOL    HW2 6006   4.447   2.661   1.227
 1703SOL     OW 6007   1.751   3.427   0.780
 1703SOL    HW1 6008   1.761   3.358   0.709
 1703SOL    HW2 6009   1.800   3.399   0.862
 1704SOL     OW 6010   0.161   1.808   2.098
 1704SOL    HW1 6011   0.093   1.749   2.141
 1704SOL    HW2 6012   0.155   1.799   1.998
 1705SOL     OW 6013   3.903   3.005   2.637
 1705SOL    HW1 6014   3.958   3.086   2.655
 1705SOL    HW2 6015   3.890   2.994   2.539
 1706SOL     OW 6016   2.090   0.813   6.088
 1706SOL    HW1 6017   2.147   0.752   6.032
 1706SOL    HW2 6018   2.141   0.841   6.169
 1707SOL     OW 6019   5.263   1.639   2.784
 1707SOL    HW1 6020   5.327   1.598   2.849
 1707SOL    HW2 6021   5.171   1.605   2.801
 1708SOL     OW 6022   0.577   4.325   1.549
 1708SOL    HW1 6023   0.673   4.349   1.561
 1708SOL    HW2 6024   0.532   4.395   1.493
 1709SOL     OW 6025   3.210   5.197   3.994
 1709SOL    HW1 6026   3.120   5.154   4.003
 1709SOL    HW2 6027   3.281   5.126   3.999
 1710SOL     OW 6028   6.700   4.768   4.594
 1710SOL    HW1 6029   6.769   4.786   4.665
 1710SOL    HW2 6030   6.641   4.693   4.624
 1711SOL     OW 6031   1.432   4.524   5.663
 1711SOL    HW1 6032   1.505   4.482   5.716
 1711SOL    HW2 6033   1.426   4.481   5.573
 1712SOL     OW 6034   1.987   4.521   2.081
 1712SOL    HW1 6035   2.024   4.456   2.147
 1712SOL    HW2 6036   1.893   4.546   2.107
 1713SOL     OW 6037   2.073   3.310   0.706
 1713SOL    HW1 6038   2.103   3.349   0.793
 1713SOL    HW2 6039   2.080   3.210   0.710
 1714SOL     OW 6040   4.238   1.020   1.843
 1714SOL    HW1 6041   4.168   1.054   1.906
 1714SOL    HW2 6042   4.197   1.004   1.753
 1715SOL     OW 6043   0.675   2.857   3.787
 1715SOL    HW1 6044   0.580   2.887   3.778
 1715SOL    HW2 6045   0.719   2.905   3.863
 1716SOL     OW 6046   0.422   0.366   6.812
 1716SOL    HW1 6047   0.442   0.330   6.721
 1716SOL    HW2 6048   0.395   0.462   6.805
 1717SOL     OW 6049   2.938   0.402   6.421
 1717SOL    HW1 6050   2.965   0.453   6.503
 1717SOL    HW2 6051   2.988   0.315   6.419
 1718SOL     OW 6052   1.829   3.776   5.592
 1718SOL    HW1 6053   1.820   3.839   5.669
 1718SOL    HW2 6054   1.837   3.682   5.625
 1719SOL     OW 6055   1.910   3.425   1.037
 1719SOL    HW1 6056   1.943   3.495   1.100
 1719SOL    HW2 6057   1.984   3.361   1.017
 1720SOL     OW 6058   6.905   2.432   2.530
 1720SOL    HW1 6059   6.848   2.514   2.527
 1720SOL    HW2 6060   6.881   2.377   2.610
 1721SOL     OW 6061   0.860   6.354   4.346
 1721SOL    HW1 6062   0.813   6.432   4.387
 1721SOL    HW2 6063   0.804   6.315   4.273
 1722SOL     OW 6064   5.996   0.329   1.852
 1722SOL    HW1 6065   5.958   0.415   1.886
 1722SOL    HW2 6066   6.077   0.305   1.905
 1723SOL     OW 6067   5.513   1.167   3.003
 1723SOL    HW1 6068   5.431   1.144   2.950
 1723SOL    HW2 6069   5.490   1.170   3.101
 1724SOL     OW 6070   5.117   0.435   0.263
 1724SOL    HW1 6071   5.208   0.436   0.222
 1724SOL    HW2 6072   5.108   0.358   0.326
 1725SOL     OW 6073   3.794   5.625   2.137
 1725SOL    HW1 6074   3.785   5.711   2.087
 1725SOL    HW2 6075   3.739   5.628   2.220
 1726SOL     OW 6076   6.892   4.101   4.995
 1726SOL    HW1 6077   6.816   4.037   4.980
 1726SOL    HW2 6078   6.973   4.069   4.947
 1727SOL     OW 6079   2.587   3.761   5.652
 1727SOL    HW1 6080   2.615   3.704   5.575
 1727SOL    HW2 6081   2.620   3.855   5.639
 1728SOL     OW 6082   4.427   5.568   3.460
 1728SOL    HW1 6083   4.485   5.500   3.505
 1728SOL    HW2 6084   4.416   5.647   3.520
 1729SOL     OW 6085   0.638   3.354   2.418
 1729SOL    HW1 6086   0.716   3.299   2.449
 1729SOL    HW2 6087   0.553   3.309   2.442
 1730SOL     OW 6088   4.911   2.054   4.702
 1730SOL    HW1 6089   5.005   2.021   4.699
 1730SOL    HW2 6090   4.866   2.019   4.784
 1731SOL     OW 6091   0.712   6.938   0.177
 1731SOL    HW1 6092   0.808   6.962   0.171
 1731SOL    HW2 6093   0.690   6.866   0.111
 1732SOL     OW 6094   0.756   4.113   6.973
 1732SOL    HW1 6095   0.754   4.209   6.947
 1732SOL    HW2 6096   0.812   4.102   0.032
 1733SOL     OW 6097   1.295   4.255   6.971
 1733SOL    HW1 6098   1.221   4.271   6.906
 1733SOL    HW2 6099   1.382   4.281   6.929
 1734SOL     OW 6100   5.125   3.949   0.917
 1734SOL    HW1 6101   5.152   3.976   0.824
 1734SOL    HW2 6102   5.032   3.980   0.935
 1735SOL     OW 6103   4.793   5.716   6.974
 1735SOL    HW1 6104   4.748   5.634   6.938
 1735SOL    HW2 6105   4.726   5.791   6.981
 1736SOL     OW 6106   3.111   2.923   0.339
 1736SOL    HW1 6107   3.090   2.826   0.332
 1736SOL    HW2 6108   3.051   2.965   0.408
 1737SOL     OW 6109   0.747   5.909   3.263
 1737SOL    HW1 6110   0.689   5.925   3.343
 1737SOL    HW2 6111   0.810   5.986   3.251
 1738SOL     OW 6112   0.641   1.131   2.088
 1738SOL    HW1 6113   0.695   1.187   2.151
 1738SOL    HW2 6114   0.544   1.139   2.112
 1739SOL     OW 6115   4.279   1.961   6.293
 1739SOL    HW1 6116   4.367   1.944   6.338
 1739SOL    HW2 6117   4.278   1.913   6.205
 1740SOL     OW 6118   0.517   2.139   6.258
 1740SOL    HW1 6119   0.557   2.127   6.349
 1740SOL    HW2 6120   0.580   2.104   6.189
 1741SOL     OW 6121   1.334   1.112   2.505
 1741SOL    HW1 6122   1.281   1.064   2.575
 1741SOL    HW2 6123   1.279   1.121   2.422
 1742SOL     OW 6124   5.854   5.887   4.209
 1742SOL    HW1 6125   5.840   5.937   4.294
 1742SOL    HW2 6126   5.935   5.828   4.217
 1743SOL     OW 6127   4.719   0.869   0.461
 1743SOL    HW1 6128   4.671   0.895   0.377
 1743SOL    HW2 6129   4.682   0.922   0.537
 1744SOL     OW 6130   3.634   6.249   1.336
 1744SOL    HW1 6131   3.695   6.260   1.257
 1744SOL    HW2 6132   3.610   6.152   1.346
 1745SOL     OW 6133   0.037   2.932   4.962
 1745SOL    HW1 6134   0.050   3.024   4.926
 1745SOL    HW2 6135   0.078   2.865   4.901
 1746SOL     OW 6136   2.608   0.824   5.927
 1746SOL    HW1 6137   2.648   0.742   5.968
 1746SOL    HW2 6138   2.640   0.834   5.833
 1747SOL     OW 6139   4.782   6.806   5.581
 1747SOL    HW1 6140   4.719   6.811   5.659
 1747SOL    HW2 6141   4.735   6.766   5.502
 1748SOL     OW 6142   5.339   1.019   1.731
 1748SOL    HW1 6143   5.373   0.926   1.751
 1748SOL    HW2 6144   5.263   1.040   1.793
 1749SOL     OW 6145   4.946   0.396   6.357
 1749SOL    HW1 6146   4.958   0.485   6.314
 1749SOL    HW2 6147   5.021   0.335   6.332
 1750SOL     OW 6148   3.723   0.554   3.769
 1750SOL    HW1 6149   3.806   0.607   3.755
 1750SOL    HW2 6150   3.739   0.484   3.839
 1751SOL     OW 6151   2.017   5.785   4.511
 1751SOL    HW1 6152   2.044   5.759   4.604
 1751SOL    HW2 6153   1.919   5.770   4.499
 1752SOL     OW 6154   6.996   2.031   6.594
 1752SOL    HW1 6155   6.950   1.943   6.584
 1752SOL    HW2 6156   0.071   2.016   6.609
 1753SOL     OW 6157   2.325   6.346   2.667
 1753SOL    HW1 6158   2.423   6.365   2.665
 1753SOL    HW2 6159   2.299   6.302   2.581
 1754SOL     OW 6160   3.137   3.109   2.700
 1754SOL    HW1 6161   3.222   3.157   2.677
 1754SOL    HW2 6162   3.107   3.055   2.622
 1755SOL     OW 6163   6.534   4.313   0.220
 1755SOL    HW1 6164   6.589   4.336   0.139
 1755SOL    HW2 6165   6.478   4.233   0.199
 1756SOL     OW 6166   6.258   5.012   4.774
 1756SOL    HW1 6167   6.252   5.100   4.725
 1756SOL    HW2 6168   6.266   4.938   4.708
 1757SOL     OW 6169   4.164   0.247   5.705
 1757SOL    HW1 6170   4.128   0.323   5.651
 1757SOL    HW2 6171   4.150   0.265   5.802
 1758SOL     OW 6172   3.165   1.576   3.281
 1758SOL    HW1 6173   3.114   1.500   3.240
 1758SOL    HW2 6174   3.204   1.632   3.208
 1759SOL     OW 6175   0.021   5.664   6.028
 1759SOL    HW1 6176   0.093   5.655   5.959
 1759SOL    HW2 6177   0.062   5.668   6.119
 1760SOL     OW 6178   4.640   6.147   2.369
 1760SOL    HW1 6179   4.607   6.190   2.285
 1760SOL    HW2 6180   4.732   6.179   2.389
 1761SOL     OW 6181   5.524   3.389   1.330
 1761SOL    HW1 6182   5.602   3.392   1.393
 1761SOL    HW2 6183   5.555   3.413   1.238
 1762SOL     OW 6184   5.581   3.306   0.754
 1762SOL    HW1 6185   5.490   3.263   0.749
 1762SOL    HW2 6186   5.580   3.391   0.701
 1763SOL     OW 6187   2.197   3.001   4.366
 1763SOL    HW1 6188   2.099   3.019   4.356
 1763SOL    HW2 6189   2.222   3.005   4.463
 1764SOL     OW 6190   6.741   3.667   3.356
 1764SOL    HW1 6191   6.682   3.676   3.436
 1764SOL    HW2 6192   6.797   3.584   3.365
 1765SOL     OW 6193   1.838   3.665   5.959
 1765SOL    HW1 6194   1.894   3.586   5.984
 1765SOL    HW2 6195   1.748   3.635   5.930
 1766SOL     OW 6196   6.165   3.731   5.527
 1766SOL    HW1 6197   6.123   3.714   5.616
 1766SOL    HW2 6198   6.149   3.827   5.501
 1767SOL     OW 6199   6.460   4.885   1.485
 1767SOL    HW1 6200   6.395   4.897   1.411
 1767SOL    HW2 6201   6.427   4.931   1.567
 1768SOL     OW 6202   5.809   6.633   3.150
 1768SOL    HW1 6203   5.793   6.660   3.245
 1768SOL    HW2 6204   5.793   6.535   3.140
 1769SOL     OW 6205   4.903   0.927   3.490
 1769SOL    HW1 6206   4.918   1.016   3.533
 1769SOL    HW2 6207   4.885   0.859   3.562
 1770SOL     OW 6208   3.660   5.879   5.360
 1770SOL    HW1 6209   3.615   5.833   5.437
 1770SOL    HW2 6210   3.759   5.878   5.375
 1771SOL     OW 6211   4.261   6.538   6.660
 1771SOL    HW1 6212   4.207   6.550   6.744
 1771SOL    HW2 6213   4.358   6.546   6.682
 1772SOL     OW 6214   2.598   6.367   2.706
 1772SOL    HW1 6215   2.666   6.300   2.676
 1772SOL    HW2 6216   2.573   6.349   2.801
 1773SOL     OW 6217   1.096   0.271   0.457
 1773SOL    HW1 6218   1.123   0.299   0.549
 1773SOL    HW2 6219   1.105   0.349   0.395
 1774SOL     OW 6220   2.913   5.126   2.458
 1774SOL    HW1 6221   2.932   5.044   2.404
 1774SOL    HW2 6222   2.969   5.202   2.425
 1775SOL     OW 6223   1.294   4.882   0.365
 1775SOL    HW1 6224   1.318   4.824   0.286
 1775SOL    HW2 6225   1.195   4.884   0.375
 1776SOL     OW 6226   2.919   6.024   5.097
 1776SOL    HW1 6227   2.873   5.944   5.134
 1776SOL    HW2 6228   3.018   6.009   5.099
 1777SOL     OW 6229   3.237   6.296   0.265
 1777SOL    HW1 6230   3.232   6.354   0.346
 1777SOL    HW2 6231   3.328   6.255   0.259
 1778SOL     OW 6232   6.899   2.908   5.984
 1778SOL    HW1 6233   6.897   2.813   6.015
 1778SOL    HW2 6234   6.807   2.948   5.992
 1779SOL     OW 6235   3.723   0.044   5.659
 1779SOL    HW1 6236   3.707   6.969   5.647
 1779SOL    HW2 6237   3.746   0.084   5.570
 1780SOL     OW 6238   3.227   3.084   6.965
 1780SOL    HW1 6239   3.238   3.182   6.983
 1780SOL    HW2 6240   3.228   3.068   6.867
 1781SOL     OW 6241   2.698   5.874   3.454
 1781SOL    HW1 6242   2.716   5.788   3.502
 1781SOL    HW2 6243   2.657   5.939   3.518
 1782SOL     OW 6244   2.891   1.700   4.607
 1782SOL    HW1 6245   2.802   1.666   4.578
 1782SOL    HW2 6246   2.945   1.624   4.645
 1783SOL     OW 6247   2.392   5.909   0.249
 1783SOL    HW1 6248   2.346   5.828   0.213
 1783SOL    HW2 6249   2.364   5.989   0.196
 1784SOL     OW 6250   2.314   0.036   5.908
 1784SOL    HW1 6251   2.216   0.028   5.922
 1784SOL    HW2 6252   2.352   6.973   5.875
 1785SOL     OW 6253   6.861   5.501   2.029
 1785SOL    HW1 6254   6.773   5.453   2.027
 1785SOL    HW2 6255   6.897   5.510   1.936
 1786SOL     OW 6256   3.800   2.716   1.710
 1786SOL    HW1 6257   3.712   2.709   1.757
 1786SOL    HW2 6258   3.841   2.805   1.728
 1787SOL     OW 6259   3.099   0.975   5.589
 1787SOL    HW1 6260   3.068   1.011   5.677
 1787SOL    HW2 6261   3.094   0.875   5.589
 1788SOL     OW 6262   1.604   4.841   5.406
 1788SOL    HW1 6263   1.647   4.878   5.323
 1788SOL    HW2 6264   1.621   4.742   5.410
 1789SOL     OW 6265   5.886   6.511   6.780
 1789SOL    HW1 6266   5.830   6.429   6.794
 1789SOL    HW2 6267   5.941   6.499   6.697
 1790SOL     OW 6268   2.414   7.009   2.240
 1790SOL    HW1 6269   2.477   6.986   2.314
 1790SOL    HW2 6270   2.343   6.938   2.234
 1791SOL     OW 6271   0.537   6.660   2.704
 1791SOL    HW1 6272   0.565   6.661   2.608
 1791SOL    HW2 6273   0.616   6.678   2.762
 1792SOL     OW 6274   0.727   3.399   4.225
 1792SOL    HW1 6275   0.812   3.399   4.173
 1792SOL    HW2 6276   0.682   3.310   4.217
 1793SOL     OW 6277   0.204   0.662   3.582
 1793SOL    HW1 6278   0.196   0.761   3.588
 1793SOL    HW2 6279   0.175   0.630   3.492
 1794SOL     OW 6280   4.857   6.103   6.472
 1794SOL    HW1 6281   4.867   6.004   6.479
 1794SOL    HW2 6282   4.880   6.145   6.559
 1795SOL     OW 6283   1.260   3.373   6.944
 1795SOL    HW1 6284   1.287   3.455   6.995
 1795SOL    HW2 6285   1.217   3.401   6.858
 1796SOL     OW 6286   3.747   0.270   6.051
 1796SOL    HW1 6287   3.784   0.361   6.066
 1796SOL    HW2 6288   3.758   0.215   6.134
 1797SOL     OW 6289   0.126   1.733   1.834
 1797SOL    HW1 6290   0.111   1.654   1.895
 1797SOL    HW2 6291   0.147   1.700   1.742
 1798SOL     OW 6292   5.705   1.568   2.640
 1798SOL    HW1 6293   5.615   1.602   2.615
 1798SOL    HW2 6294   5.751   1.635   2.698
 1799SOL     OW 6295   2.524   0.954   0.025
 1799SOL    HW1 6296   2.456   0.993   0.087
 1799SOL    HW2 6297   2.570   1.028   6.999
 1800SOL     OW 6298   3.265   4.942   2.487
 1800SOL    HW1 6299   3.183   4.909   2.441
 1800SOL    HW2 6300   3.306   5.016   2.434
 1801SOL     OW 6301   5.866   6.926   0.719
 1801SOL    HW1 6302   5.838   6.830   0.717
 1801SOL    HW2 6303   5.880   6.959   0.626
 1802SOL     OW 6304   5.966   4.937   4.240
 1802SOL    HW1 6305   5.991   5.006   4.308
 1802SOL    HW2 6306   6.044   4.920   4.180
 1803SOL     OW 6307   5.996   5.037   0.750
 1803SOL    HW1 6308   5.974   5.003   0.842
 1803SOL    HW2 6309   6.038   4.964   0.697
 1804SOL     OW 6310   3.107   3.483   6.128
 1804SOL    HW1 6311   3.062   3.523   6.208
 1804SOL    HW2 6312   3.069   3.392   6.111
 1805SOL     OW 6313   6.099   2.973   6.945
 1805SOL    HW1 6314   6.021   2.939   6.998
 1805SOL    HW2 6315   6.131   3.059   6.985
 1806SOL     OW 6316   6.637   0.082   0.614
 1806SOL    HW1 6317   6.568   0.105   0.545
 1806SOL    HW2 6318   6.683   7.021   0.588
 1807SOL     OW 6319   6.679   2.179   5.841
 1807SOL    HW1 6320   6.704   2.112   5.911
 1807SOL    HW2 6321   6.617   2.137   5.775
 1808SOL     OW 6322   2.602   4.648   4.341
 1808SOL    HW1 6323   2.530   4.692   4.287
 1808SOL    HW2 6324   2.589   4.670   4.438
 1809SOL     OW 6325   3.876   0.096   6.623
 1809SOL    HW1 6326   3.882   0.029   6.696
 1809SOL    HW2 6327   3.784   0.134   6.619
 1810SOL     OW 6328   3.086   6.476   2.491
 1810SOL    HW1 6329   3.160   6.441   2.433
 1810SOL    HW2 6330   3.036   6.399   2.531
 1811SOL     OW 6331   5.867   5.826   3.209
 1811SOL    HW1 6332   5.883   5.904   3.148
 1811SOL    HW2 6333   5.877   5.855   3.304
 1812SOL     OW 6334   4.271   4.919   5.430
 1812SOL    HW1 6335   4.270   4.829   5.473
 1812SOL    HW2 6336   4.308   4.986   5.494
 1813SOL     OW 6337   6.793   5.785   5.633
 1813SOL    HW1 6338   6.709   5.828   5.667
 1813SOL    HW2 6339   6.861   5.855   5.612
 1814SOL     OW 6340   4.756   6.206   2.660
 1814SOL    HW1 6341   4.804   6.292   2.646
 1814SOL    HW2 6342   4.799   6.135   2.604
 1815SOL     OW 6343   0.171   1.302   2.943
 1815SOL    HW1 6344   0.218   1.389   2.957
 1815SOL    HW2 6345   0.173   1.278   2.846
 1816SOL     OW 6346   1.279   5.153   0.569
 1816SOL    HW1 6347   1.329   5.100   0.638
 1816SOL    HW2 6348   1.256   5.094   0.492
 1817SOL     OW 6349   1.693   5.530   1.981
 1817SOL    HW1 6350   1.767   5.575   1.931
 1817SOL    HW2 6351   1.725   5.505   2.073
 1818SOL     OW 6352   1.066   1.764   3.635
 1818SOL    HW1 6353   1.026   1.855   3.649
 1818SOL    HW2 6354   1.000   1.694   3.660
 1819SOL     OW 6355   0.869   4.194   2.729
 1819SOL    HW1 6356   0.825   4.120   2.780
 1819SOL    HW2 6357   0.958   4.162   2.696
 1820SOL     OW 6358   5.658   6.711   2.901
 1820SOL    HW1 6359   5.716   6.630   2.892
 1820SOL    HW2 6360   5.699   6.788   2.852
 1821SOL     OW 6361   2.128   1.660   3.572
 1821SOL    HW1 6362   2.030   1.646   3.562
 1821SOL    HW2 6363   2.166   1.587   3.629
 1822SOL     OW 6364   2.944   3.687   2.452
 1822SOL    HW1 6365   2.950   3.714   2.356
 1822SOL    HW2 6366   2.916   3.591   2.458
 1823SOL     OW 6367   4.431   6.979   2.328
 1823SOL    HW1 6368   4.425   0.039   2.384
 1823SOL    HW2 6369   4.526   6.962   2.304
 1824SOL     OW 6370   5.418   2.027   1.420
 1824SOL    HW1 6371   5.437   2.080   1.337
 1824SOL    HW2 6372   5.426   1.930   1.400
 1825SOL     OW 6373   0.353   0.309   1.985
 1825SOL    HW1 6374   0.361   0.358   1.897
 1825SOL    HW2 6375   0.444   0.295   2.023
 1826SOL     OW 6376   3.036   5.949   5.945
 1826SOL    HW1 6377   3.073   5.857   5.954
 1826SOL    HW2 6378   2.952   5.957   5.999
 1827SOL     OW 6379   6.015   6.882   0.980
 1827SOL    HW1 6380   6.088   6.912   0.918
 1827SOL    HW2 6381   5.931   6.931   0.957
 1828SOL     OW 6382   1.994   3.050   0.395
 1828SOL    HW1 6383   1.974   2.971   0.337
 1828SOL    HW2 6384   1.999   3.020   0.491
 1829SOL     OW 6385   5.862   5.603   2.654
 1829SOL    HW1 6386   5.906   5.514   2.639
 1829SOL    HW2 6387   5.819   5.604   2.744
 1830SOL     OW 6388   5.292   6.778   4.154
 1830SOL    HW1 6389   5.350   6.724   4.215
 1830SOL    HW2 6390   5.230   6.718   4.105
 1831SOL     OW 6391   5.313   0.774   3.133
 1831SOL    HW1 6392   5.243   0.837   3.168
 1831SOL    HW2 6393   5.403   0.816   3.143
 1832SOL     OW 6394   4.919   2.360   0.048
 1832SOL    HW1 6395   4.840   2.310   0.084
 1832SOL    HW2 6396   4.986   2.295   0.013
 1833SOL     OW 6397   5.556   1.717   5.823
 1833SOL    HW1 6398   5.524   1.696   5.731
 1833SOL    HW2 6399   5.553   1.816   5.838
 1834SOL     OW 6400   2.886   3.952   0.207
 1834SOL    HW1 6401   2.956   3.882   0.194
 1834SOL    HW2 6402   2.835   3.965   0.122
 1835SOL     OW 6403   1.955   4.539   6.780
 1835SOL    HW1 6404   2.024   4.533   6.852
 1835SOL    HW2 6405   1.889   4.611   6.803
 1836SOL     OW 6406   0.871   6.823   0.754
 1836SOL    HW1 6407   0.851   6.830   0.852
 1836SOL    HW2 6408   0.806   6.760   0.711
 1837SOL     OW 6409   0.671   2.692   4.700
 1837SOL    HW1 6410   0.602   2.704   4.771
 1837SOL    HW2 6411   0.740   2.764   4.709
 1838SOL     OW 6412   0.761   2.793   5.149
 1838SOL    HW1 6413   0.749   2.892   5.156
 1838SOL    HW2 6414   0.832   2.773   5.082
 1839SOL     OW 6415   1.177   1.774   6.786
 1839SOL    HW1 6416   1.275   1.785   6.803
 1839SOL    HW2 6417   1.146   1.847   6.725
 1840SOL     OW 6418   1.075   5.086   1.494
 1840SOL    HW1 6419   1.107   5.143   1.570
 1840SOL    HW2 6420   0.994   5.129   1.453
 1841SOL     OW 6421   1.201   3.062   3.877
 1841SOL    HW1 6422   1.138   3.016   3.940
 1841SOL    HW2 6423   1.200   3.014   3.789
 1842SOL     OW 6424   0.914   6.215   6.243
 1842SOL    HW1 6425   0.936   6.296   6.189
 1842SOL    HW2 6426   0.880   6.243   6.333
 1843SOL     OW 6427   4.621   2.174   5.016
 1843SOL    HW1 6428   4.569   2.259   5.003
 1843SOL    HW2 6429   4.717   2.196   5.035
 1844SOL     OW 6430   5.525   4.517   3.592
 1844SOL    HW1 6431   5.566   4.550   3.677
 1844SOL    HW2 6432   5.492   4.594   3.538
 1845SOL     OW 6433   4.845   6.295   0.712
 1845SOL    HW1 6434   4.789   6.376   0.726
 1845SOL    HW2 6435   4.905   6.310   0.633
 1846SOL     OW 6436   3.834   1.613   5.640
 1846SOL    HW1 6437   3.876   1.537   5.691
 1846SOL    HW2 6438   3.872   1.700   5.672
 1847SOL     OW 6439   1.611   6.530   6.295
 1847SOL    HW1 6440   1.518   6.500   6.278
 1847SOL    HW2 6441   1.612   6.628   6.312
 1848SOL     OW 6442   2.140   0.622   3.478
 1848SOL    HW1 6443   2.061   0.598   3.534
 1848SOL    HW2 6444   2.110   0.676   3.399
 1849SOL     OW 6445   2.659   0.654   6.536
 1849SOL    HW1 6446   2.708   0.612   6.460
 1849SOL    HW2 6447   2.623   0.744   6.508
 1850SOL     OW 6448   5.516   1.797   2.298
 1850SOL    HW1 6449   5.454   1.744   2.355
 1850SOL    HW2 6450   5.501   1.895   2.315
 1851SOL     OW 6451   6.612   4.299   2.928
 1851SOL    HW1 6452   6.588   4.371   2.863
 1851SOL    HW2 6453   6.529   4.253   2.959
 1852SOL     OW 6454   5.316   1.359   5.531
 1852SOL    HW1 6455   5.365   1.328   5.450
 1852SOL    HW2 6456   5.362   1.326   5.613
 1853SOL     OW 6457   1.149   4.933   0.739
 1853SOL    HW1 6458   1.098   4.849   0.722
 1853SOL    HW2 6459   1.232   4.934   0.684
 1854SOL     OW 6460   2.516   5.231   3.812
 1854SOL    HW1 6461   2.538   5.237   3.715
 1854SOL    HW2 6462   2.421   5.199   3.822
 1855SOL     OW 6463   6.564   4.362   2.084
 1855SOL    HW1 6464   6.467   4.382   2.069
 1855SOL    HW2 6465   6.587   4.272   2.046
 1856SOL     OW 6466   5.242   2.995   7.010
 1856SOL    HW1 6467   5.329   2.946   7.020
 1856SOL    HW2 6468   5.260   3.089   6.981
 1857SOL     OW 6469   5.152   1.358   3.013
 1857SOL    HW1 6470   5.228   1.415   3.045
 1857SOL    HW2 6471   5.187   1.270   2.981
 1858SOL     OW 6472   5.289   4.153   2.895
 1858SOL    HW1 6473   5.369   4.184   2.947
 1858SOL    HW2 6474   5.301   4.177   2.799
 1859SOL     OW 6475   6.145   1.754   2.830
 1859SOL    HW1 6476   6.130   1.764   2.928
 1859SOL    HW2 6477   6.219   1.689   2.814
 1860SOL     OW 6478   3.895   1.974   4.537
 1860SOL    HW1 6479   3.851   1.946   4.622
 1860SOL    HW2 6480   3.983   2.019   4.558
 1861SOL     OW 6481   5.210   5.854   2.512
 1861SOL    HW1 6482   5.259   5.854   2.425
 1861SOL    HW2 6483   5.277   5.851   2.587
 1862SOL     OW 6484   2.608   0.966   0.729
 1862SOL    HW1 6485   2.596   0.963   0.630
 1862SOL    HW2 6486   2.539   1.027   0.769
 1863SOL     OW 6487   1.953   1.896   1.276
 1863SOL    HW1 6488   2.017   1.971   1.260
 1863SOL    HW2 6489   1.876   1.929   1.331
 1864SOL     OW 6490   0.513   6.431   3.030
 1864SOL    HW1 6491   0.611   6.452   3.021
 1864SOL    HW2 6492   0.475   6.410   2.940
 1865SOL     OW 6493   4.878   2.661   6.413
 1865SOL    HW1 6494   4.878   2.700   6.321
 1865SOL    HW2 6495   4.816   2.713   6.472
 1866SOL     OW 6496   5.571   5.679   1.578
 1866SOL    HW1 6497   5.615   5.598   1.541
 1866SOL    HW2 6498   5.620   5.761   1.547
 1867SOL     OW 6499   0.805   4.584   6.685
 1867SOL    HW1 6500   0.749   4.561   6.606
 1867SOL    HW2 6501   0.817   4.503   6.743
 1868SOL     OW 6502   6.642   4.077   5.773
 1868SOL    HW1 6503   6.733   4.079   5.731
 1868SOL    HW2 6504   6.622   3.984   5.804
 1869SOL     OW 6505   6.167   2.039   4.457
 1869SOL    HW1 6506   6.180   1.983   4.375
 1869SOL    HW2 6507   6.221   2.123   4.448
 1870SOL     OW 6508   2.231   4.087   4.808
 1870SOL    HW1 6509   2.205   4.019   4.740
 1870SOL    HW2 6510   2.258   4.041   4.893
 1871SOL     OW 6511   1.433   0.269   0.719
 1871SOL    HW1 6512   1.433   0.313   0.629
 1871SOL    HW2 6513   1.500   0.315   0.778
 1872SOL     OW 6514   1.633   4.894   6.596
 1872SOL    HW1 6515   1.559   4.878   6.661
 1872SOL    HW2 6516   1.667   4.988   6.606
 1873SOL     OW 6517   5.204   0.280   6.880
 1873SOL    HW1 6518   5.230   0.301   6.786
 1873SOL    HW2 6519   5.109   0.251   6.883
 1874SOL     OW 6520   0.506   3.867   2.569
 1874SOL    HW1 6521   0.588   3.925   2.571
 1874SOL    HW2 6522   0.533   3.773   2.590
 1875SOL     OW 6523   0.629   6.421   2.020
 1875SOL    HW1 6524   0.706   6.485   2.013
 1875SOL    HW2 6525   0.555   6.454   1.962
 1876SOL     OW 6526   1.918   6.629   3.507
 1876SOL    HW1 6527   1.840   6.622   3.569
 1876SOL    HW2 6528   1.995   6.578   3.544
 1877SOL     OW 6529   0.208   6.926   4.099
 1877SOL    HW1 6530   0.221   6.859   4.027
 1877SOL    HW2 6531   0.295   6.944   4.144
 1878SOL     OW 6532   6.171   2.479   5.962
 1878SOL    HW1 6533   6.121   2.565   5.971
 1878SOL    HW2 6534   6.228   2.466   6.044
 1879SOL     OW 6535   1.710   4.882   6.119
 1879SOL    HW1 6536   1.713   4.796   6.171
 1879SOL    HW2 6537   1.617   4.896   6.085
 1880SOL     OW 6538   6.476   0.099   4.621
 1880SOL    HW1 6539   6.447   0.193   4.642
 1880SOL    HW2 6540   6.571   0.087   4.649
 1881SOL     OW 6541   0.015   2.163   6.998
 1881SOL    HW1 6542   6.964   2.216   6.957
 1881SOL    HW2 6543   0.082   2.226   0.016
 1882SOL     OW 6544   1.494   6.594   0.235
 1882SOL    HW1 6545   1.444   6.607   0.149
 1882SOL    HW2 6546   1.469   6.507   0.276
 1883SOL     OW 6547   0.247   1.943   3.775
 1883SOL    HW1 6548   0.233   2.040   3.755
 1883SOL    HW2 6549   0.226   1.890   3.693
 1884SOL     OW 6550   6.398   2.072   0.956
 1884SOL    HW1 6551   6.442   1.988   0.985
 1884SOL    HW2 6552   6.302   2.071   0.983
 1885SOL     OW 6553   2.916   1.576   4.272
 1885SOL    HW1 6554   2.842   1.514   4.294
 1885SOL    HW2 6555   2.880   1.669   4.263
 1886SOL     OW 6556   0.361   6.066   3.157
 1886SOL    HW1 6557   0.287   6.008   3.122
 1886SOL    HW2 6558   0.365   6.059   3.256
 1887SOL     OW 6559   2.624   5.969   6.487
 1887SOL    HW1 6560   2.543   5.990   6.433
 1887SOL    HW2 6561   2.694   5.928   6.428
 1888SOL     OW 6562   2.116   0.162   2.766
 1888SOL    HW1 6563   2.160   0.189   2.852
 1888SOL    HW2 6564   2.075   0.243   2.724
 1889SOL     OW 6565   0.227   3.391   2.692
 1889SOL    HW1 6566   0.217   3.461   2.622
 1889SOL    HW2 6567   0.196   3.428   2.780
 1890SOL     OW 6568   1.516   5.860   5.005
 1890SOL    HW1 6569   1.432   5.838   4.957
 1890SOL    HW2 6570   1.594   5.824   4.955
 1891SOL     OW 6571   3.928   3.289   3.694
 1891SOL    HW1 6572   3.839   3.316   3.657
 1891SOL    HW2 6573   3.915   3.224   3.769
 1892SOL     OW 6574   0.339   0.470   2.417
 1892SOL    HW1 6575   0.347   0.544   2.484
 1892SOL    HW2 6576   0.285   0.395   2.456
 1893SOL     OW 6577   3.747   3.060   4.425
 1893SOL    HW1 6578   3.680   3.132   4.411
 1893SOL    HW2 6579   3.706   2.971   4.406
 1894SOL     OW 6580   2.997   3.528   4.025
 1894SOL    HW1 6581   3.064   3.460   3.994
 1894SOL    HW2 6582   3.018   3.556   4.119
 1895SOL     OW 6583   1.340   5.825   1.237
 1895SOL    HW1 6584   1.402   5.749   1.256
 1895SOL    HW2 6585   1.389   5.897   1.187
 1896SOL     OW 6586   6.236   2.348   1.148
 1896SOL    HW1 6587   6.170   2.311   1.081
 1896SOL    HW2 6588   6.328   2.320   1.122
 1897SOL     OW 6589   1.026   4.381   3.693
 1897SOL    HW1 6590   1.103   4.406   3.635
 1897SOL    HW2 6591   1.044   4.410   3.787
 1898SOL     OW 6592   1.611   6.144   2.539
 1898SOL    HW1 6593   1.625   6.234   2.581
 1898SOL    HW2 6594   1.536   6.097   2.584
 1899SOL     OW 6595   6.967   1.286   2.181
 1899SOL    HW1 6596   0.012   1.219   2.152
 1899SOL    HW2 6597   7.009   1.351   2.245
 1900SOL     OW 6598   2.604   6.531   6.728
 1900SOL    HW1 6599   2.602   6.556   6.631
 1900SOL    HW2 6600   2.626   6.612   6.782
 1901SOL     OW 6601   2.973   3.255   2.382
 1901SOL    HW1 6602   2.947   3.290   2.472
 1901SOL    HW2 6603   2.947   3.320   2.311
 1902SOL     OW 6604   1.304   6.486   5.118
 1902SOL    HW1 6605   1.397   6.519   5.132
 1902SOL    HW2 6606   1.306   6.387   5.102
 1903SOL     OW 6607   1.296   1.930   4.164
 1903SOL    HW1 6608   1.346   1.995   4.107
 1903SOL    HW2 6609   1.342   1.841   4.160
 1904SOL     OW 6610   6.029   5.758   1.147
 1904SOL    HW1 6611   6.003   5.662   1.151
 1904SOL    HW2 6612   6.121   5.770   1.184
 1905SOL     OW 6613   0.960   2.227   3.942
 1905SOL    HW1 6614   0.911   2.141   3.926
 1905SOL    HW2 6615   0.941   2.259   4.035
 1906SOL     OW 6616   0.280   6.405   3.879
 1906SOL    HW1 6617   0.234   6.338   3.820
 1906SOL    HW2 6618   0.320   6.357   3.957
 1907SOL     OW 6619   5.900   3.303   0.869
 1907SOL    HW1 6620   5.892   3.231   0.800
 1907SOL    HW2 6621   5.813   3.311   0.919
 1908SOL     OW 6622   3.647   0.885   1.801
 1908SOL    HW1 6623   3.742   0.914   1.806
 1908SOL    HW2 6624   3.587   0.964   1.811
 1909SOL     OW 6625   6.202   5.454   5.217
 1909SOL    HW1 6626   6.161   5.504   5.293
 1909SOL    HW2 6627   6.192   5.356   5.232
 1910SOL     OW 6628   0.498   5.856   5.819
 1910SOL    HW1 6629   0.477   5.773   5.766
 1910SOL    HW2 6630   0.533   5.830   5.909
 1911SOL     OW 6631   5.966   6.140   4.377
 1911SOL    HW1 6632   5.959   6.225   4.324
 1911SOL    HW2 6633   5.892   6.136   4.444
 1912SOL     OW 6634   3.734   4.994   2.310
 1912SOL    HW1 6635   3.668   4.945   2.367
 1912SOL    HW2 6636   3.704   4.992   2.215
 1913SOL     OW 6637   3.013   4.651   6.372
 1913SOL    HW1 6638   3.064   4.608   6.298
 1913SOL    HW2 6639   2.998   4.584   6.445
 1914SOL     OW 6640   3.657   4.190   0.497
 1914SOL    HW1 6641   3.735   4.199   0.434
 1914SOL    HW2 6642   3.575   4.228   0.454
 1915SOL     OW 6643   3.712   3.054   0.125
 1915SOL    HW1 6644   3.682   3.064   0.030
 1915SOL    HW2 6645   3.632   3.037   0.183
 1916SOL     OW 6646   3.822   1.232   2.740
 1916SOL    HW1 6647   3.916   1.259   2.716
 1916SOL    HW2 6648   3.792   1.158   2.680
 1917SOL     OW 6649   2.408   3.723   1.282
 1917SOL    HW1 6650   2.419   3.797   1.348
 1917SOL    HW2 6651   2.432   3.636   1.324
 1918SOL     OW 6652   5.438   2.248   3.863
 1918SOL    HW1 6653   5.393   2.170   3.820
 1918SOL    HW2 6654   5.376   2.289   3.930
 1919SOL     OW 6655   6.213   2.140   6.260
 1919SOL    HW1 6656   6.296   2.117   6.208
 1919SOL    HW2 6657   6.143   2.173   6.196
 1920SOL     OW 6658   4.583   3.516   0.450
 1920SOL    HW1 6659   4.566   3.428   0.494
 1920SOL    HW2 6660   4.495   3.555   0.421
 1921SOL     OW 6661   2.866   2.434   7.020
 1921SOL    HW1 6662   2.883   2.346   6.976
 1921SOL    HW2 6663   2.924   2.442   0.078
 1922SOL     OW 6664   3.272   3.448   4.573
 1922SOL    HW1 6665   3.308   3.369   4.623
 1922SOL    HW2 6666   3.182   3.425   4.537
 1923SOL     OW 6667   3.098   0.985   4.288
 1923SOL    HW1 6668   3.156   1.040   4.228
 1923SOL    HW2 6669   3.153   0.914   4.331
 1924SOL     OW 6670   5.530   0.797   0.564
 1924SOL    HW1 6671   5.475   0.713   0.563
 1924SOL    HW2 6672   5.622   0.777   0.530
 1925SOL     OW 6673   1.046   4.391   1.103
 1925SOL    HW1 6674   1.097   4.310   1.133
 1925SOL    HW2 6675   0.960   4.362   1.062
 1926SOL     OW 6676   3.388   0.337   1.916
 1926SOL    HW1 6677   3.399   0.266   1.985
 1926SOL    HW2 6678   3.479   0.368   1.886
 1927SOL     OW 6679   2.442   5.543   0.776
 1927SOL    HW1 6680   2.386   5.595   0.711
 1927SOL    HW2 6681   2.396   5.541   0.865
 1928SOL     OW 6682   0.021   4.272   2.941
 1928SOL    HW1 6683   0.008   4.360   2.987
 1928SOL    HW2 6684   6.968   4.212   2.962
 1929SOL     OW 6685   3.437   6.989   3.056
 1929SOL    HW1 6686   3.357   0.014   3.093
 1929SOL    HW2 6687   3.518   7.015   3.108
 1930SOL     OW 6688   3.643   3.416   0.109
 1930SOL    HW1 6689   3.580   3.356   0.158
 1930SOL    HW2 6690   3.615   3.511   0.121
 1931SOL     OW 6691   6.489   3.361   3.453
 1931SOL    HW1 6692   6.568   3.304   3.433
 1931SOL    HW2 6693   6.434   3.318   3.524
 1932SOL     OW 6694   5.293   0.454   2.075
 1932SOL    HW1 6695   5.202   0.452   2.033
 1932SOL    HW2 6696   5.314   0.546   2.107
 1933SOL     OW 6697   1.649   1.672   1.153
 1933SOL    HW1 6698   1.666   1.574   1.139
 1933SOL    HW2 6699   1.636   1.716   1.065
 1934SOL     OW 6700   6.712   1.097   6.932
 1934SOL    HW1 6701   6.710   1.197   6.933
 1934SOL    HW2 6702   6.801   1.067   6.897
 1935SOL     OW 6703   5.725   5.121   3.919
 1935SOL    HW1 6704   5.724   5.118   4.019
 1935SOL    HW2 6705   5.810   5.165   3.888
 1936SOL     OW 6706   5.092   3.127   6.533
 1936SOL    HW1 6707   4.999   3.147   6.561
 1936SOL    HW2 6708   5.094   3.107   6.435
 1937SOL     OW 6709   0.329   4.679   6.848
 1937SOL    HW1 6710   0.393   4.710   6.919
 1937SOL    HW2 6711   0.262   4.750   6.830
 1938SOL     OW 6712   6.606   2.152   0.126
 1938SOL    HW1 6713   6.547   2.224   0.162
 1938SOL    HW2 6714   6.688   2.143   0.184
 1939SOL     OW 6715   0.183   0.184   4.126
 1939SOL    HW1 6716   0.181   0.085   4.114
 1939SOL    HW2 6717   0.233   0.207   4.209
 1940SOL     OW 6718   1.212   5.241   1.672
 1940SOL    HW1 6719   1.208   5.248   1.771
 1940SOL    HW2 6720   1.270   5.315   1.636
 1941SOL     OW 6721   6.212   0.891   4.515
 1941SOL    HW1 6722   6.163   0.896   4.603
 1941SOL    HW2 6723   6.253   0.800   4.506
 1942SOL     OW 6724   0.487   5.530   2.014
 1942SOL    HW1 6725   0.532   5.440   2.007
 1942SOL    HW2 6726   0.529   5.593   1.949
 1943SOL     OW 6727   0.727   3.296   3.884
 1943SOL    HW1 6728   0.767   3.288   3.793
 1943SOL    HW2 6729   0.723   3.206   3.927
 1944SOL     OW 6730   0.418   2.930   3.844
 1944SOL    HW1 6731   0.339   2.880   3.811
 1944SOL    HW2 6732   0.388   3.004   3.905
 1945SOL     OW 6733   5.252   1.595   2.219
 1945SOL    HW1 6734   5.219   1.637   2.135
 1945SOL    HW2 6735   5.179   1.544   2.263
 1946SOL     OW 6736   5.851   5.486   0.217
 1946SOL    HW1 6737   5.859   5.474   0.316
 1946SOL    HW2 6738   5.840   5.396   0.174
 1947SOL     OW 6739   6.052   5.896   2.888
 1947SOL    HW1 6740   6.148   5.915   2.909
 1947SOL    HW2 6741   5.993   5.949   2.949
 1948SOL     OW 6742   5.411   3.632   3.543
 1948SOL    HW1 6743   5.354   3.698   3.494
 1948SOL    HW2 6744   5.396   3.642   3.641
 1949SOL     OW 6745   3.407   4.153   6.611
 1949SOL    HW1 6746   3.486   4.174   6.554
 1949SOL    HW2 6747   3.425   4.182   6.705
 1950SOL     OW 6748   3.970   3.875   3.756
 1950SOL    HW1 6749   3.906   3.807   3.721
 1950SOL    HW2 6750   4.006   3.929   3.680
 1951SOL     OW 6751   6.767   5.509   6.290
 1951SOL    HW1 6752   6.789   5.507   6.192
 1951SOL    HW2 6753   6.753   5.604   6.319
 1952SOL     OW 6754   5.975   3.673   6.803
 1952SOL    HW1 6755   6.004   3.729   6.725
 1952SOL    HW2 6756   5.971   3.577   6.775
 1953SOL     OW 6757   0.499   0.811   6.990
 1953SOL    HW1 6758   0.558   0.732   6.972
 1953SOL    HW2 6759   0.537   0.865   0.043
 1954SOL     OW 6760   3.813   6.774   2.490
 1954SOL    HW1 6761   3.811   6.699   2.423
 1954SOL    HW2 6762   3.908   6.794   2.515
 1955SOL     OW 6763   6.596   2.857   4.215
 1955SOL    HW1 6764   6.600   2.785   4.147
 1955SOL    HW2 6765   6.624   2.944   4.174
 1956SOL     OW 6766   4.658   1.468   1.313
 1956SOL    HW1 6767   4.595   1.428   1.247
 1956SOL    HW2 6768   4.673   1.565   1.291
 1957SOL     OW 6769   6.802   2.807   4.654
 1957SOL    HW1 6770   6.788   2.823   4.556
 1957SOL    HW2 6771   6.776   2.889   4.705
 1958SOL     OW 6772   4.618   1.814   0.199
 1958SOL    HW1 6773   4.621   1.868   0.284
 1958SOL    HW2 6774   4.523   1.802   0.171
 1959SOL     OW 6775   1.461   1.450   5.915
 1959SOL    HW1 6776   1.365   1.479   5.915
 1959SOL    HW2 6777   1.499   1.463   5.824
 1960SOL     OW 6778   5.071   4.554   2.615
 1960SOL    HW1 6779   5.046   4.469   2.662
 1960SOL    HW2 6780   4.988   4.599   2.581
 1961SOL     OW 6781   0.262   3.940   4.504
 1961SOL    HW1 6782   0.257   3.866   4.572
 1961SOL    HW2 6783   0.350   3.987   4.513
 1962SOL     OW 6784   0.177   6.967   1.914
 1962SOL    HW1 6785   0.112   0.020   1.915
 1962SOL    HW2 6786   0.195   6.939   1.819
 1963SOL     OW 6787   1.021   2.161   0.030
 1963SOL    HW1 6788   1.093   2.093   0.017
 1963SOL    HW2 6789   1.061   2.252   0.028
 1964SOL     OW 6790   5.575   3.567   0.634
 1964SOL    HW1 6791   5.648   3.587   0.699
 1964SOL    HW2 6792   5.493   3.619   0.659
 1965SOL     OW 6793   5.576   5.008   4.759
 1965SOL    HW1 6794   5.495   5.060   4.788
 1965SOL    HW2 6795   5.547   4.925   4.711
 1966SOL     OW 6796   1.044   5.485   6.464
 1966SOL    HW1 6797   0.995   5.398   6.459
 1966SOL    HW2 6798   0.978   5.560   6.457
 1967SOL     OW 6799   6.480   2.484   4.860
 1967SOL    HW1 6800   6.529   2.402   4.891
 1967SOL    HW2 6801   6.410   2.458   4.793
 1968SOL     OW 6802   2.553   1.283   6.030
 1968SOL    HW1 6803   2.484   1.352   6.053
 1968SOL    HW2 6804   2.509   1.196   6.011
 1969SOL     OW 6805   0.460   6.017   1.556
 1969SOL    HW1 6806   0.478   5.935   1.501
 1969SOL    HW2 6807   0.364   6.019   1.583
 1970SOL     OW 6808   5.240   4.333   3.369
 1970SOL    HW1 6809   5.168   4.338   3.299
 1970SOL    HW2 6810   5.302   4.258   3.347
 1971SOL     OW 6811   1.972   5.273   4.439
 1971SOL    HW1 6812   1.985   5.188   4.490
 1971SOL    HW2 6813   2.027   5.346   4.480
 1972SOL     OW 6814   5.525   2.221   2.769
 1972SOL    HW1 6815   5.510   2.266   2.857
 1972SOL    HW2 6816   5.437   2.204   2.725
 1973SOL     OW 6817   3.813   2.239   0.630
 1973SOL    HW1 6818   3.717   2.212   0.620
 1973SOL    HW2 6819   3.827   2.279   0.720
 1974SOL     OW 6820   2.322   6.539   4.739
 1974SOL    HW1 6821   2.397   6.589   4.782
 1974SOL    HW2 6822   2.285   6.472   4.803
 1975SOL     OW 6823   2.299   2.726   1.914
 1975SOL    HW1 6824   2.351   2.788   1.856
 1975SOL    HW2 6825   2.256   2.777   1.988
 1976SOL     OW 6826   1.472   0.870   5.354
 1976SOL    HW1 6827   1.504   0.907   5.267
 1976SOL    HW2 6828   1.451   0.772   5.344
 1977SOL     OW 6829   0.911   3.706   6.603
 1977SOL    HW1 6830   0.880   3.623   6.649
 1977SOL    HW2 6831   0.906   3.784   6.666
 1978SOL     OW 6832   2.672   0.220   2.099
 1978SOL    HW1 6833   2.705   0.148   2.160
 1978SOL    HW2 6834   2.747   0.283   2.080
 1979SOL     OW 6835   5.415   3.532   6.380
 1979SOL    HW1 6836   5.369   3.445   6.368
 1979SOL    HW2 6837   5.353   3.597   6.423
 1980SOL     OW 6838   3.901   0.648   1.522
 1980SOL    HW1 6839   3.937   0.626   1.432
 1980SOL    HW2 6840   3.805   0.675   1.515
 1981SOL     OW 6841   4.449   2.499   1.905
 1981SOL    HW1 6842   4.467   2.403   1.884
 1981SOL    HW2 6843   4.434   2.509   2.003
 1982SOL     OW 6844   1.896   2.852   6.541
 1982SOL    HW1 6845   1.939   2.788   6.605
 1982SOL    HW2 6846   1.809   2.884   6.579
 1983SOL     OW 6847   0.153   1.959   1.558
 1983SOL    HW1 6848   0.111   2.045   1.588
 1983SOL    HW2 6849   0.095   1.917   1.488
 1984SOL     OW 6850   4.510   3.571   5.542
 1984SOL    HW1 6851   4.420   3.609   5.567
 1984SOL    HW2 6852   4.576   3.645   5.535
 1985SOL     OW 6853   5.696   4.878   4.263
 1985SOL    HW1 6854   5.655   4.967   4.243
 1985SOL    HW2 6855   5.794   4.882   4.246
 1986SOL     OW 6856   2.946   3.237   2.933
 1986SOL    HW1 6857   2.988   3.170   2.872
 1986SOL    HW2 6858   2.928   3.322   2.883
 1987SOL     OW 6859   1.929   1.813   2.262
 1987SOL    HW1 6860   1.998   1.822   2.190
 1987SOL    HW2 6861   1.898   1.718   2.266
 1988SOL     OW 6862   1.068   2.255   3.188
 1988SOL    HW1 6863   0.990   2.197   3.163
 1988SOL    HW2 6864   1.041   2.315   3.263
 1989SOL     OW 6865   3.271   5.603   4.146
 1989SOL    HW1 6866   3.199   5.575   4.209
 1989SOL    HW2 6867   3.305   5.523   4.097
 1990SOL     OW 6868   4.629   6.619   0.426
 1990SOL    HW1 6869   4.533   6.595   0.415
 1990SOL    HW2 6870   4.665   6.655   0.340
 1991SOL     OW 6871   2.991   6.286   1.816
 1991SOL    HW1 6872   3.029   6.323   1.732
 1991SOL    HW2 6873   2.905   6.240   1.797
 1992SOL     OW 6874   1.348   6.898   3.164
 1992SOL    HW1 6875   1.419   6.827   3.170
 1992SOL    HW2 6876   1.335   6.940   3.253
 1993SOL     OW 6877   1.918   1.387   2.111
 1993SOL    HW1 6878   1.873   1.437   2.036
 1993SOL    HW2 6879   1.884   1.420   2.199
 1994SOL     OW 6880   3.213   3.404   1.484
 1994SOL    HW1 6881   3.127   3.376   1.442
 1994SOL    HW2 6882   3.271   3.449   1.416
 1995SOL     OW 6883   6.126   1.000   4.268
 1995SOL    HW1 6884   6.172   0.985   4.356
 1995SOL    HW2 6885   6.029   0.980   4.277
 1996SOL     OW 6886   5.270   0.338   1.089
 1996SOL    HW1 6887   5.247   0.314   1.183
 1996SOL    HW2 6888   5.221   0.422   1.063
 1997SOL     OW 6889   3.593   1.652   3.227
 1997SOL    HW1 6890   3.525   1.584   3.254
 1997SOL    HW2 6891   3.633   1.626   3.139
 1998SOL     OW 6892   2.304   3.665   1.012
 1998SOL    HW1 6893   2.210   3.671   0.980
 1998SOL    HW2 6894   2.310   3.698   1.106
 1999SOL     OW 6895   1.045   0.096   5.941
 1999SOL    HW1 6896   1.102   0.073   6.020
 1999SOL    HW2 6897   1.067   0.035   5.865
 2000SOL     OW 6898   4.092   4.326   6.510
 2000SOL    HW1 6899   4.118   4.260   6.439
 2000SOL    HW2 6900   4.099   4.282   6.599
 2001SOL     OW 6901   1.657   2.039   0.938
 2001SOL    HW1 6902   1.625   2.053   1.032
 2001SOL    HW2 6903   1.753   2.065   0.931
 2002SOL     OW 6904   6.253   5.293   0.200
 2002SOL    HW1 6905   6.204   5.325   0.120
 2002SOL    HW2 6906   6.339   5.249   0.172
 2003SOL     OW 6907   6.104   5.454   1.230
 2003SOL    HW1 6908   6.062   5.438   1.319
 2003SOL    HW2 6909   6.196   5.490   1.242
 2004SOL     OW 6910   3.944   0.446   2.965
 2004SOL    HW1 6911   3.965   0.515   3.034
 2004SOL    HW2 6912   3.877   0.481   2.901
 2005SOL     OW 6913   1.905   6.481   0.263
 2005SOL    HW1 6914   1.865   6.554   0.319
 2005SOL    HW2 6915   1.877   6.392   0.300
 2006SOL     OW 6916   6.326   6.857   1.896
 2006SOL    HW1 6917   6.260   6.790   1.863
 2006SOL    HW2 6918   6.292   6.898   1.980
 2007SOL     OW 6919   5.521   5.109   5.612
 2007SOL    HW1 6920   5.609   5.067   5.593
 2007SOL    HW2 6921   5.458   5.090   5.536
 2008SOL     OW 6922   1.994   2.963   3.059
 2008SOL    HW1 6923   1.949   3.020   3.127
 2008SOL    HW2 6924   2.092   2.960   3.077
 2009SOL     OW 6925   5.998   0.113   3.322
 2009SOL    HW1 6926   5.925   0.058   3.282
 2009SOL    HW2 6927   6.065   0.136   3.251
 2010SOL     OW 6928   0.311   1.427   1.596
 2010SOL    HW1 6929   0.310   1.431   1.696
 2010SOL    HW2 6930   0.404   1.446   1.563
 2011SOL     OW 6931   0.828   0.279   4.937
 2011SOL    HW1 6932   0.832   0.231   5.025
 2011SOL    HW2 6933   0.814   0.213   4.863
 2012SOL     OW 6934   0.349   2.490   0.499
 2012SOL    HW1 6935   0.337   2.394   0.524
 2012SOL    HW2 6936   0.440   2.502   0.458
 2013SOL     OW 6937   0.853   3.164   2.443
 2013SOL    HW1 6938   0.850   3.129   2.537
 2013SOL    HW2 6939   0.937   3.134   2.399
 2014SOL     OW 6940   3.856   1.832   3.903
 2014SOL    HW1 6941   3.906   1.842   3.989
 2014SOL    HW2 6942   3.794   1.910   3.892
 2015SOL     OW 6943   3.989   6.150   1.428
 2015SOL    HW1 6944   3.975   6.111   1.519
 2015SOL    HW2 6945   3.981   6.078   1.359
 2016SOL     OW 6946   1.364   0.607   5.351
 2016SOL    HW1 6947   1.265   0.615   5.359
 2016SOL    HW2 6948   1.397   0.539   5.417
 2017SOL     OW 6949   2.490   6.883   4.547
 2017SOL    HW1 6950   2.531   6.806   4.596
 2017SOL    HW2 6951   2.394   6.863   4.527
 2018SOL     OW 6952   0.241   0.451   4.537
 2018SOL    HW1 6953   0.264   0.355   4.525
 2018SOL    HW2 6954   0.323   0.502   4.565
 2019SOL     OW 6955   0.160   4.975   6.874
 2019SOL    HW1 6956   0.210   5.000   6.957
 2019SOL    HW2 6957   0.074   5.025   6.871
 2020SOL     OW 6958   1.610   6.782   1.179
 2020SOL    HW1 6959   1.657   6.868   1.196
 2020SOL    HW2 6960   1.655   6.709   1.231
 2021SOL     OW 6961   6.968   5.690   4.033
 2021SOL    HW1 6962   6.980   5.616   3.966
 2021SOL    HW2 6963   6.944   5.775   3.986
 2022SOL     OW 6964   1.977   3.161   4.291
 2022SOL    HW1 6965   1.905   3.143   4.224
 2022SOL    HW2 6966   1.966   3.254   4.328
 2023SOL     OW 6967   0.660   5.255   0.117
 2023SOL    HW1 6968   0.663   5.344   0.071
 2023SOL    HW2 6969   0.597   5.194   0.069
 2024SOL     OW 6970   6.479   6.152   3.483
 2024SOL    HW1 6971   6.579   6.144   3.487
 2024SOL    HW2 6972   6.441   6.129   3.573
 2025SOL     OW 6973   2.059   0.224   4.260
 2025SOL    HW1 6974   2.028   0.142   4.307
 2025SOL    HW2 6975   1.986   0.292   4.261
 2026SOL     OW 6976   1.548   0.110   5.488
 2026SOL    HW1 6977   1.454   0.076   5.498
 2026SOL    HW2 6978   1.589   0.071   5.405
 2027SOL     OW 6979   6.190   6.476   2.783
 2027SOL    HW1 6980   6.263   6.543   2.767
 2027SOL    HW2 6981   6.223   6.406   2.846
 2028SOL     OW 6982   2.329   6.092   4.822
 2028SOL    HW1 6983   2.392   6.054   4.890
 2028SOL    HW2 6984   2.355   6.061   4.731
 2029SOL     OW 6985   6.165   1.959   6.721
 2029SOL    HW1 6986   6.259   1.930   6.708
 2029SOL    HW2 6987   6.103   1.885   6.695
 2030SOL     OW 6988   1.861   6.432   2.813
 2030SOL    HW1 6989   1.828   6.412   2.905
 2030SOL    HW2 6990   1.955   6.401   2.804
 2031SOL     OW 6991   0.044   6.623   5.545
 2031SOL    HW1 6992   0.143   6.617   5.534
 2031SOL    HW2 6993   0.009   6.703   5.497
 2032SOL     OW 6994   2.577   2.967   6.666
 2032SOL    HW1 6995   2.509   2.914   6.614
 2032SOL    HW2 6996   2.647   2.906   6.701
 2033SOL     OW 6997   2.457   0.457   1.380
 2033SOL    HW1 6998   2.485   0.483   1.287
 2033SOL    HW2 6999   2.528   0.399   1.421
 2034SOL     OW 7000   0.583   4.083   4.994
 2034SOL    HW1 7001   0.635   4.056   5.075
 2034SOL    HW2 7002   0.605   4.177   4.969
 2035SOL     OW 7003   5.682   5.642   2.886
 2035SOL    HW1 7004   5.674   5.719   2.949
 2035SOL    HW2 7005   5.593   5.624   2.844
 2036SOL     OW 7006   0.440   3.765   5.787
 2036SOL    HW1 7007   0.477   3.672   5.775
 2036SOL    HW2 7008   0.345   3.767   5.755
 2037SOL     OW 7009   1.051   2.445   0.003
 2037SOL    HW1 7010   1.006   2.513   0.061
 2037SOL    HW2 7011   1.024   2.459   6.931
 2038SOL     OW 7012   1.595   0.668   5.794
 2038SOL    HW1 7013   1.498   0.685   5.779
 2038SOL    HW2 7014   1.641   0.754   5.817
 2039SOL     OW 7015   5.211   5.942   4.223
 2039SOL    HW1 7016   5.311   5.941   4.212
 2039SOL    HW2 7017   5.172   6.012   4.164
 2040SOL     OW 7018   2.890   1.263   0.981
 2040SOL    HW1 7019   2.935   1.349   1.008
 2040SOL    HW2 7020   2.936   1.225   0.901
 2041SOL     OW 7021   3.343   6.887   0.184
 2041SOL    HW1 7022   3.365   6.890   0.282
 2041SOL    HW2 7023   3.390   6.962   0.137
 2042SOL     OW 7024   0.259   0.202   5.218
 2042SOL    HW1 7025   0.304   0.281   5.259
 2042SOL    HW2 7026   0.253   0.128   5.285
 2043SOL     OW 7027   0.886   3.704   0.389
 2043SOL    HW1 7028   0.852   3.748   0.472
 2043SOL    HW2 7029   0.826   3.726   0.312
 2044SOL     OW 7030   4.025   0.731   2.157
 2044SOL    HW1 7031   4.123   0.742   2.178
 2044SOL    HW2 7032   4.013   0.723   2.058
 2045SOL     OW 7033   2.043   5.728   3.173
 2045SOL    HW1 7034   2.138   5.711   3.199
 2045SOL    HW2 7035   2.007   5.649   3.123
 2046SOL     OW 7036   0.867   2.653   6.092
 2046SOL    HW1 7037   0.829   2.712   6.163
 2046SOL    HW2 7038   0.821   2.670   6.005
 2047SOL     OW 7039   7.023   0.165   1.894
 2047SOL    HW1 7040   0.035   0.248   1.851
 2047SOL    HW2 7041   6.932   0.144   1.858
 2048SOL     OW 7042   1.593   0.914   3.315
 2048SOL    HW1 7043   1.605   0.983   3.243
 2048SOL    HW2 7044   1.594   0.823   3.274
 2049SOL     OW 7045   4.564   1.973   5.195
 2049SOL    HW1 7046   4.647   1.994   5.247
 2049SOL    HW2 7047   4.568   2.017   5.106
 2050SOL     OW 7048   0.312   0.876   2.520
 2050SOL    HW1 7049   0.389   0.901   2.461
 2050SOL    HW2 7050   0.336   0.795   2.573
 2051SOL     OW 7051   2.871   0.264   6.690
 2051SOL    HW1 7052   2.775   0.265   6.664
 2051SOL    HW2 7053   2.917   0.186   6.647
 2052SOL     OW 7054   6.654   4.263   1.006
 2052SOL    HW1 7055   6.721   4.273   1.079
 2052SOL    HW2 7056   6.632   4.353   0.968
 2053SOL     OW 7057   4.840   5.022   1.744
 2053SOL    HW1 7058   4.792   5.108   1.760
 2053SOL    HW2 7059   4.774   4.951   1.717
 2054SOL     OW 7060   3.173   3.926   3.335
 2054SOL    HW1 7061   3.242   3.992   3.365
 2054SOL    HW2 7062   3.136   3.878   3.414
 2055SOL     OW 7063   3.832   2.413   5.963
 2055SOL    HW1 7064   3.769   2.385   5.890
 2055SOL    HW2 7065   3.824   2.350   6.040
 2056SOL     OW 7066   2.696   5.195   2.145
 2056SOL    HW1 7067   2.689   5.154   2.054
 2056SOL    HW2 7068   2.793   5.200   2.172
 2057SOL     OW 7069   6.030   2.988   3.779
 2057SOL    HW1 7070   5.954   2.979   3.843
 2057SOL    HW2 7071   6.049   3.084   3.762
 2058SOL     OW 7072   5.065   0.056   3.904
 2058SOL    HW1 7073   4.975   0.045   3.947
 2058SOL    HW2 7074   5.056   0.049   3.805
 2059SOL     OW 7075   2.121   1.271   5.691
 2059SOL    HW1 7076   2.100   1.334   5.766
 2059SOL    HW2 7077   2.057   1.286   5.615
 2060SOL     OW 7078   1.201   2.578   6.743
 2060SOL    HW1 7079   1.210   2.585   6.644
 2060SOL    HW2 7080   1.267   2.511   6.777
 2061SOL     OW 7081   1.968   2.335   4.380
 2061SOL    HW1 7082   1.887   2.286   4.411
 2061SOL    HW2 7083   2.012   2.284   4.306
 2062SOL     OW 7084   5.188   5.690   3.618
 2062SOL    HW1 7085   5.116   5.716   3.683
 2062SOL    HW2 7086   5.150   5.631   3.547
 2063SOL     OW 7087   1.032   1.800   4.629
 2063SOL    HW1 7088   1.066   1.828   4.539
 2063SOL    HW2 7089   1.087   1.844   4.700
 2064SOL     OW 7090   0.711   4.033   4.742
 2064SOL    HW1 7091   0.647   4.077   4.805
 2064SOL    HW2 7092   0.801   4.027   4.785
 2065SOL     OW 7093   3.930   3.782   6.066
 2065SOL    HW1 7094   3.843   3.821   6.096
 2065SOL    HW2 7095   3.917   3.687   6.040
 2066SOL     OW 7096   1.986   2.776   4.402
 2066SOL    HW1 7097   1.952   2.711   4.334
 2066SOL    HW2 7098   2.083   2.759   4.418
 2067SOL     OW 7099   6.545   5.220   2.247
 2067SOL    HW1 7100   6.469   5.185   2.192
 2067SOL    HW2 7101   6.620   5.154   2.247
 2068SOL     OW 7102   3.490   6.629   4.361
 2068SOL    HW1 7103   3.447   6.702   4.414
 2068SOL    HW2 7104   3.542   6.668   4.285
 2069SOL     OW 7105   6.135   1.771   3.096
 2069SOL    HW1 7106   6.068   1.710   3.138
 2069SOL    HW2 7107   6.225   1.729   3.100
 2070SOL     OW 7108   0.114   4.891   1.958
 2070SOL    HW1 7109   0.018   4.917   1.952
 2070SOL    HW2 7110   0.150   4.874   1.866
 2071SOL     OW 7111   6.691   2.425   3.949
 2071SOL    HW1 7112   6.712   2.491   3.877
 2071SOL    HW2 7113   6.645   2.346   3.909
 2072SOL     OW 7114   5.261   2.882   5.197
 2072SOL    HW1 7115   5.200   2.844   5.267
 2072SOL    HW2 7116   5.207   2.917   5.121
 2073SOL     OW 7117   3.489   5.156   7.005
 2073SOL    HW1 7118   3.399   5.194   6.983
 2073SOL    HW2 7119   3.546   5.156   6.923
 2074SOL     OW 7120   3.741   4.834   5.234
 2074SOL    HW1 7121   3.764   4.893   5.157
 2074SOL    HW2 7122   3.823   4.820   5.290
 2075SOL     OW 7123   5.307   1.385   1.081
 2075SOL    HW1 7124   5.306   1.295   1.038
 2075SOL    HW2 7125   5.245   1.384   1.160
 2076SOL     OW 7126   0.011   7.002   3.649
 2076SOL    HW1 7127   0.042   0.064   3.606
 2076SOL    HW2 7128   0.017   7.011   3.749
 2077SOL     OW 7129   0.557   4.304   1.113
 2077SOL    HW1 7130   0.529   4.392   1.074
 2077SOL    HW2 7131   0.629   4.319   1.180
 2078SOL     OW 7132   0.922   2.652   0.182
 2078SOL    HW1 7133   0.837   2.634   0.132
 2078SOL    HW2 7134   0.900   2.675   0.277
 2079SOL     OW 7135   5.938   1.917   3.387
 2079SOL    HW1 7136   5.930   1.932   3.288
 2079SOL    HW2 7137   5.847   1.921   3.429
 2080SOL     OW 7138   1.953   3.123   5.638
 2080SOL    HW1 7139   1.916   3.081   5.555
 2080SOL    HW2 7140   2.031   3.069   5.670
 2081SOL     OW 7141   0.540   6.021   2.705
 2081SOL    HW1 7142   0.610   6.090   2.688
 2081SOL    HW2 7143   0.548   5.988   2.798
 2082SOL     OW 7144   6.566   6.452   3.662
 2082SOL    HW1 7145   6.568   6.481   3.757
 2082SOL    HW2 7146   6.658   6.427   3.632
 2083SOL     OW 7147   0.604   5.304   3.230
 2083SOL    HW1 7148   0.687   5.358   3.223
 2083SOL    HW2 7149   0.628   5.207   3.241
 2084SOL     OW 7150   6.358   2.189   1.389
 2084SOL    HW1 7151   6.336   2.277   1.430
 2084SOL    HW2 7152   6.282   2.125   1.403
 2085SOL     OW 7153   6.219   5.941   6.946
 2085SOL    HW1 7154   6.254   5.969   0.013
 2085SOL    HW2 7155   6.292   5.898   6.894
 2086SOL     OW 7156   5.924   0.134   5.591
 2086SOL    HW1 7157   5.961   0.060   5.534
 2086SOL    HW2 7158   5.825   0.123   5.599
 2087SOL     OW 7159   5.324   1.346   6.613
 2087SOL    HW1 7160   5.282   1.355   6.523
 2087SOL    HW2 7161   5.288   1.417   6.674
 2088SOL     OW 7162   0.364   3.455   5.705
 2088SOL    HW1 7163   0.312   3.500   5.777
 2088SOL    HW2 7164   0.313   3.375   5.671
 2089SOL     OW 7165   3.028   5.315   4.729
 2089SOL    HW1 7166   3.122   5.293   4.704
 2089SOL    HW2 7167   2.969   5.303   4.649
 2090SOL     OW 7168   5.057   2.153   6.302
 2090SOL    HW1 7169   5.002   2.082   6.346
 2090SOL    HW2 7170   5.037   2.242   6.344
 2091SOL     OW 7171   5.528   6.545   0.805
 2091SOL    HW1 7172   5.555   6.610   0.876
 2091SOL    HW2 7173   5.431   6.557   0.784
 2092SOL     OW 7174   3.443   2.854   2.724
 2092SOL    HW1 7175   3.395   2.932   2.685
 2092SOL    HW2 7176   3.452   2.782   2.656
 2093SOL     OW 7177   5.106   0.069   0.380
 2093SOL    HW1 7178   5.203   0.090   0.369
 2093SOL    HW2 7179   5.072   0.115   0.462
 2094SOL     OW 7180   4.792   3.019   0.857
 2094SOL    HW1 7181   4.749   2.980   0.939
 2094SOL    HW2 7182   4.849   3.097   0.884
 2095SOL     OW 7183   4.886   5.616   3.243
 2095SOL    HW1 7184   4.961   5.581   3.188
 2095SOL    HW2 7185   4.809   5.638   3.184
 2096SOL     OW 7186   4.121   6.645   3.012
 2096SOL    HW1 7187   4.082   6.736   3.024
 2096SOL    HW2 7188   4.059   6.576   3.050
 2097SOL     OW 7189   1.912   5.927   5.361
 2097SOL    HW1 7190   1.907   5.984   5.442
 2097SOL    HW2 7191   1.964   5.844   5.382
 2098SOL     OW 7192   1.790   7.023   3.666
 2098SOL    HW1 7193   1.801   6.971   3.751
 2098SOL    HW2 7194   1.699   7.005   3.627
 2099SOL     OW 7195   4.821   1.737   6.599
 2099SOL    HW1 7196   4.803   1.641   6.577
 2099SOL    HW2 7197   4.862   1.744   6.690
 2100SOL     OW 7198   4.799   0.241   0.649
 2100SOL    HW1 7199   4.741   0.323   0.640
 2100SOL    HW2 7200   4.816   0.223   0.746
 2101SOL     OW 7201   1.670   0.682   2.775
 2101SOL    HW1 7202   1.595   0.736   2.814
 2101SOL    HW2 7203   1.632   0.598   2.734
 2102SOL     OW 7204   3.432   2.966   2.203
 2102SOL    HW1 7205   3.511   2.906   2.217
 2102SOL    HW2 7206   3.440   3.010   2.114
 2103SOL     OW 7207   1.952   6.962   1.412
 2103SOL    HW1 7208   1.997   6.910   1.340
 2103SOL    HW2 7209   1.999   0.026   1.424
 2104SOL     OW 7210   1.298   4.203   2.702
 2104SOL    HW1 7211   1.308   4.265   2.780
 2104SOL    HW2 7212   1.379   4.208   2.644
 2105SOL     OW 7213   5.216   6.569   5.428
 2105SOL    HW1 7214   5.210   6.605   5.521
 2105SOL    HW2 7215   5.233   6.645   5.364
 2106SOL     OW 7216   3.350   2.362   1.343
 2106SOL    HW1 7217   3.388   2.310   1.267
 2106SOL    HW2 7218   3.422   2.419   1.384
 2107SOL     OW 7219   6.000   4.440   4.910
 2107SOL    HW1 7220   6.070   4.500   4.948
 2107SOL    HW2 7221   6.044   4.360   4.868
 2108SOL     OW 7222   4.662   7.011   5.319
 2108SOL    HW1 7223   4.744   0.037   5.350
 2108SOL    HW2 7224   4.660   7.008   5.219
 2109SOL     OW 7225   2.809   5.545   2.290
 2109SOL    HW1 7226   2.712   5.534   2.314
 2109SOL    HW2 7227   2.827   5.502   2.202
 2110SOL     OW 7228   3.869   5.869   6.672
 2110SOL    HW1 7229   3.887   5.798   6.604
 2110SOL    HW2 7230   3.950   5.928   6.680
 2111SOL     OW 7231   0.434   2.849   0.446
 2111SOL    HW1 7232   0.497   2.897   0.386
 2111SOL    HW2 7233   0.409   2.761   0.406
 2112SOL     OW 7234   0.920   0.570   6.644
 2112SOL    HW1 7235   1.009   0.536   6.676
 2112SOL    HW2 7236   0.879   0.502   6.583
 2113SOL     OW 7237   7.004   1.616   4.759
 2113SOL    HW1 7238   6.958   1.705   4.759
 2113SOL    HW2 7239   6.943   1.546   4.795
 2114SOL     OW 7240   3.033   1.205   5.417
 2114SOL    HW1 7241   3.070   1.118   5.449
 2114SOL    HW2 7242   3.007   1.261   5.496
 2115SOL     OW 7243   6.685   6.953   3.614
 2115SOL    HW1 7244   6.664   6.896   3.694
 2115SOL    HW2 7245   6.606   6.955   3.553
 2116SOL     OW 7246   2.019   0.774   5.512
 2116SOL    HW1 7247   2.015   0.741   5.606
 2116SOL    HW2 7248   2.097   0.731   5.465
 2117SOL     OW 7249   5.735   3.396   1.490
 2117SOL    HW1 7250   5.818   3.343   1.470
 2117SOL    HW2 7251   5.751   3.492   1.467
 2118SOL     OW 7252   0.080   3.142   2.652
 2118SOL    HW1 7253   0.079   3.234   2.692
 2118SOL    HW2 7254   0.071   3.149   2.552
 2119SOL     OW 7255   2.104   2.422   0.168
 2119SOL    HW1 7256   2.124   2.328   0.140
 2119SOL    HW2 7257   2.147   2.441   0.256
 2120SOL     OW 7258   5.437   2.255   0.799
 2120SOL    HW1 7259   5.443   2.179   0.735
 2120SOL    HW2 7260   5.403   2.336   0.752
 2121SOL     OW 7261   3.047   6.059   1.369
 2121SOL    HW1 7262   2.987   6.133   1.401
 2121SOL    HW2 7263   3.046   5.985   1.435
 2122SOL     OW 7264   0.319   0.659   5.262
 2122SOL    HW1 7265   0.292   0.566   5.288
 2122SOL    HW2 7266   0.419   0.666   5.264
 2123SOL     OW 7267   1.067   4.845   3.378
 2123SOL    HW1 7268   1.055   4.812   3.471
 2123SOL    HW2 7269   0.980   4.838   3.329
 2124SOL     OW 7270   4.661   3.069   6.104
 2124SOL    HW1 7271   4.685   3.043   6.011
 2124SOL    HW2 7272   4.669   3.168   6.114
 2125SOL     OW 7273   1.988   5.668   6.049
 2125SOL    HW1 7274   2.052   5.615   5.993
 2125SOL    HW2 7275   1.927   5.720   5.990
 2126SOL     OW 7276   2.680   5.071   1.886
 2126SOL    HW1 7277   2.585   5.055   1.861
 2126SOL    HW2 7278   2.729   4.984   1.891
 2127SOL     OW 7279   1.525   3.751   3.891
 2127SOL    HW1 7280   1.432   3.760   3.928
 2127SOL    HW2 7281   1.552   3.655   3.892
 2128SOL     OW 7282   5.468   2.832   0.913
 2128SOL    HW1 7283   5.519   2.918   0.917
 2128SOL    HW2 7284   5.377   2.849   0.875
 2129SOL     OW 7285   5.881   4.452   3.760
 2129SOL    HW1 7286   5.846   4.382   3.698
 2129SOL    HW2 7287   5.947   4.411   3.823
 2130SOL     OW 7288   1.983   0.416   2.697
 2130SOL    HW1 7289   1.916   0.484   2.667
 2130SOL    HW2 7290   2.041   0.456   2.769
 2131SOL     OW 7291   5.428   0.720   6.900
 2131SOL    HW1 7292   5.353   0.770   6.857
 2131SOL    HW2 7293   5.431   0.627   6.864
 2132SOL     OW 7294   2.818   1.973   6.902
 2132SOL    HW1 7295   2.724   2.003   6.889
 2132SOL    HW2 7296   2.877   2.016   6.833
 2133SOL     OW 7297   4.204   2.641   1.626
 2133SOL    HW1 7298   4.157   2.593   1.700
 2133SOL    HW2 7299   4.299   2.656   1.652
 2134SOL     OW 7300   2.360   0.500   5.179
 2134SOL    HW1 7301   2.335   0.404   5.192
 2134SOL    HW2 7302   2.279   0.557   5.190
 2135SOL     OW 7303   0.679   6.176   4.215
 2135SOL    HW1 7304   0.692   6.108   4.143
 2135SOL    HW2 7305   0.679   6.130   4.304
 2136SOL     OW 7306   0.518   4.679   3.360
 2136SOL    HW1 7307   0.525   4.580   3.366
 2136SOL    HW2 7308   0.604   4.721   3.389
 2137SOL     OW 7309   0.191   6.977   4.650
 2137SOL    HW1 7310   0.119   6.983   4.580
 2137SOL    HW2 7311   0.148   6.971   4.741
 2138SOL     OW 7312   1.341   2.303   6.825
 2138SOL    HW1 7313   1.404   2.294   6.748
 2138SOL    HW2 7314   1.387   2.349   6.901
 2139SOL     OW 7315   3.336   5.845   4.199
 2139SOL    HW1 7316   3.281   5.768   4.168
 2139SOL    HW2 7317   3.350   5.909   4.124
 2140SOL     OW 7318   1.562   5.807   3.702
 2140SOL    HW1 7319   1.570   5.725   3.644
 2140SOL    HW2 7320   1.477   5.854   3.680
 2141SOL     OW 7321   6.626   0.917   6.718
 2141SOL    HW1 7322   6.609   0.962   6.806
 2141SOL    HW2 7323   6.543   0.922   6.662
 2142SOL     OW 7324   4.071   1.009   3.027
 2142SOL    HW1 7325   4.149   0.981   2.972
 2142SOL    HW2 7326   4.091   0.994   3.124
 2143SOL     OW 7327   3.608   5.899   0.562
 2143SOL    HW1 7328   3.627   5.842   0.482
 2143SOL    HW2 7329   3.571   5.987   0.532
 2144SOL     OW 7330   0.673   1.240   1.805
 2144SOL    HW1 7331   0.669   1.206   1.899
 2144SOL    HW2 7332   0.767   1.235   1.772
 2145SOL     OW 7333   2.261   6.125   3.795
 2145SOL    HW1 7334   2.207   6.042   3.813
 2145SOL    HW2 7335   2.302   6.119   3.704
 2146SOL     OW 7336   3.071   2.456   1.121
 2146SOL    HW1 7337   3.101   2.510   1.199
 2146SOL    HW2 7338   3.149   2.406   1.083
 2147SOL     OW 7339   6.763   0.056   4.666
 2147SOL    HW1 7340   6.775   0.068   4.764
 2147SOL    HW2 7341   6.850   0.069   4.619
 2148SOL     OW 7342   6.681   4.021   3.990
 2148SOL    HW1 7343   6.674   3.922   3.975
 2148SOL    HW2 7344   6.729   4.062   3.913
 2149SOL     OW 7345   2.679   1.328   2.501
 2149SOL    HW1 7346   2.752   1.388   2.533
 2149SOL    HW2 7347   2.593   1.350   2.547
 2150SOL     OW 7348   4.974   0.567   2.844
 2150SOL    HW1 7349   5.024   0.514   2.912
 2150SOL    HW2 7350   5.033   0.584   2.765
 2151SOL     OW 7351   4.269   4.677   5.597
 2151SOL    HW1 7352   4.364   4.654   5.574
 2151SOL    HW2 7353   4.245   4.633   5.684
 2152SOL     OW 7354   0.454   6.402   2.753
 2152SOL    HW1 7355   0.372   6.386   2.699
 2152SOL    HW2 7356   0.490   6.493   2.734
 2153SOL     OW 7357   4.390   1.353   3.990
 2153SOL    HW1 7358   4.366   1.396   3.903
 2153SOL    HW2 7359   4.408   1.256   3.976
 2154SOL     OW 7360   4.008   6.810   4.480
 2154SOL    HW1 7361   3.918   6.826   4.441
 2154SOL    HW2 7362   4.077   6.857   4.426
 2155SOL     OW 7363   6.254   3.127   0.325
 2155SOL    HW1 7364   6.177   3.106   0.385
 2155SOL    HW2 7365   6.272   3.049   0.265
 2156SOL     OW 7366   6.437   5.986   2.393
 2156SOL    HW1 7367   6.355   5.929   2.394
 2156SOL    HW2 7368   6.477   5.984   2.302
 2157SOL     OW 7369   5.659   1.522   3.440
 2157SOL    HW1 7370   5.609   1.592   3.388
 2157SOL    HW2 7371   5.747   1.505   3.397
 2158SOL     OW 7372   4.048   0.162   3.296
 2158SOL    HW1 7373   4.124   0.111   3.254
 2158SOL    HW2 7374   3.966   0.152   3.240
 2159SOL     OW 7375   2.626   1.160   5.389
 2159SOL    HW1 7376   2.626   1.162   5.489
 2159SOL    HW2 7377   2.593   1.248   5.354
 2160SOL     OW 7378   2.451   4.087   0.652
 2160SOL    HW1 7379   2.461   4.059   0.747
 2160SOL    HW2 7380   2.515   4.036   0.595
 2161SOL     OW 7381   4.636   2.333   3.225
 2161SOL    HW1 7382   4.619   2.237   3.246
 2161SOL    HW2 7383   4.627   2.387   3.309
 2162SOL     OW 7384   2.466   1.671   2.173
 2162SOL    HW1 7385   2.417   1.658   2.260
 2162SOL    HW2 7386   2.508   1.762   2.172
 2163SOL     OW 7387   3.612   1.984   1.234
 2163SOL    HW1 7388   3.702   1.981   1.189
 2163SOL    HW2 7389   3.590   1.894   1.271
 2164SOL     OW 7390   6.366   0.757   1.467
 2164SOL    HW1 7391   6.283   0.782   1.418
 2164SOL    HW2 7392   6.435   0.725   1.402
 2165SOL     OW 7393   2.209   0.764   1.994
 2165SOL    HW1 7394   2.133   0.706   2.023
 2165SOL    HW2 7395   2.173   0.842   1.941
 2166SOL     OW 7396   5.601   2.710   4.871
 2166SOL    HW1 7397   5.659   2.629   4.882
 2166SOL    HW2 7398   5.538   2.695   4.795
 2167SOL     OW 7399   3.324   1.709   1.213
 2167SOL    HW1 7400   3.287   1.783   1.268
 2167SOL    HW2 7401   3.280   1.623   1.239
 2168SOL     OW 7402   5.152   6.177   4.422
 2168SOL    HW1 7403   5.117   6.145   4.334
 2168SOL    HW2 7404   5.232   6.236   4.407
 2169SOL     OW 7405   5.322   1.634   5.688
 2169SOL    HW1 7406   5.412   1.594   5.672
 2169SOL    HW2 7407   5.266   1.569   5.740
 2170SOL     OW 7408   5.040   5.326   4.416
 2170SOL    HW1 7409   4.969   5.309   4.485
 2170SOL    HW2 7410   5.073   5.420   4.425
 2171SOL     OW 7411   0.346   3.711   0.022
 2171SOL    HW1 7412   0.319   3.782   0.087
 2171SOL    HW2 7413   0.433   3.671   0.051
 2172SOL     OW 7414   1.791   0.246   2.857
 2172SOL    HW1 7415   1.800   0.266   2.954
 2172SOL    HW2 7416   1.868   0.285   2.807
 2173SOL     OW 7417   4.541   2.300   4.766
 2173SOL    HW1 7418   4.609   2.266   4.832
 2173SOL    HW2 7419   4.507   2.389   4.796
 2174SOL     OW 7420   1.112   5.857   5.052
 2174SOL    HW1 7421   1.107   5.846   4.952
 2174SOL    HW2 7422   1.022   5.882   5.087
 2175SOL     OW 7423   1.602   6.845   6.539
 2175SOL    HW1 7424   1.532   6.887   6.480
 2175SOL    HW2 7425   1.685   6.830   6.486
 2176SOL     OW 7426   1.929   2.791   2.426
 2176SOL    HW1 7427   1.953   2.799   2.522
 2176SOL    HW2 7428   1.951   2.699   2.393
 2177SOL     OW 7429   0.841   1.611   1.466
 2177SOL    HW1 7430   0.874   1.698   1.503
 2177SOL    HW2 7431   0.743   1.602   1.483
 2178SOL     OW 7432   6.600   5.907   0.206
 2178SOL    HW1 7433   6.607   5.906   0.107
 2178SOL    HW2 7434   6.629   5.996   0.241
 2179SOL     OW 7435   2.273   4.079   4.098
 2179SOL    HW1 7436   2.361   4.114   4.065
 2179SOL    HW2 7437   2.280   3.980   4.111
 2180SOL     OW 7438   2.852   3.115   1.863
 2180SOL    HW1 7439   2.775   3.101   1.926
 2180SOL    HW2 7440   2.924   3.166   1.911
 2181SOL     OW 7441   3.657   7.002   0.833
 2181SOL    HW1 7442   3.608   0.031   0.903
 2181SOL    HW2 7443   3.611   6.914   0.820
 2182SOL     OW 7444   4.188   3.493   0.594
 2182SOL    HW1 7445   4.094   3.518   0.615
 2182SOL    HW2 7446   4.241   3.488   0.678
 2183SOL     OW 7447   4.333   3.035   0.914
 2183SOL    HW1 7448   4.314   3.097   0.838
 2183SOL    HW2 7449   4.254   3.033   0.976
 2184SOL     OW 7450   4.587   2.770   5.878
 2184SOL    HW1 7451   4.659   2.840   5.877
 2184SOL    HW2 7452   4.504   2.809   5.919
 2185SOL     OW 7453   6.520   6.355   2.370
 2185SOL    HW1 7454   6.448   6.288   2.350
 2185SOL    HW2 7455   6.494   6.443   2.331
 2186SOL     OW 7456   0.000   4.441   3.177
 2186SOL    HW1 7457   6.925   4.429   3.184
 2186SOL    HW2 7458   0.031   4.511   3.241
 2187SOL     OW 7459   6.474   1.051   0.055
 2187SOL    HW1 7460   6.553   1.014   0.005
 2187SOL    HW2 7461   6.442   0.983   0.121
 2188SOL     OW 7462   4.786   1.538   3.563
 2188SOL    HW1 7463   4.780   1.610   3.495
 2188SOL    HW2 7464   4.700   1.531   3.613
 2189SOL     OW 7465   3.871   6.153   0.146
 2189SOL    HW1 7466   3.824   6.092   0.083
 2189SOL    HW2 7467   3.969   6.152   0.127
 2190SOL     OW 7468   5.290   3.242   0.887
 2190SOL    HW1 7469   5.270   3.302   0.810
 2190SOL    HW2 7470   5.240   3.156   0.876
 2191SOL     OW 7471   3.729   0.924   6.945
 2191SOL    HW1 7472   3.701   1.014   6.912
 2191SOL    HW2 7473   3.656   0.858   6.927
 2192SOL     OW 7474   4.176   6.271   2.207
 2192SOL    HW1 7475   4.264   6.313   2.185
 2192SOL    HW2 7476   4.192   6.184   2.254
 2193SOL     OW 7477   6.928   6.101   4.771
 2193SOL    HW1 7478   6.994   6.123   4.699
 2193SOL    HW2 7479   6.951   6.153   4.854
 2194SOL     OW 7480   2.410   0.089   1.598
 2194SOL    HW1 7481   2.381   0.032   1.675
 2194SOL    HW2 7482   2.359   0.063   1.516
 2195SOL     OW 7483   0.239   4.901   2.187
 2195SOL    HW1 7484   0.280   4.813   2.213
 2195SOL    HW2 7485   0.190   4.891   2.101
 2196SOL     OW 7486   4.324   3.904   0.385
 2196SOL    HW1 7487   4.269   3.914   0.302
 2196SOL    HW2 7488   4.288   3.827   0.439
 2197SOL     OW 7489   4.823   3.187   6.608
 2197SOL    HW1 7490   4.830   3.285   6.626
 2197SOL    HW2 7491   4.789   3.173   6.515
 2198SOL     OW 7492   0.173   4.127   0.137
 2198SOL    HW1 7493   0.251   4.133   0.076
 2198SOL    HW2 7494   0.093   4.171   0.095
 2199SOL     OW 7495   4.211   1.306   3.549
 2199SOL    HW1 7496   4.221   1.381   3.483
 2199SOL    HW2 7497   4.127   1.255   3.529
 2200SOL     OW 7498   3.810   6.955   4.219
 2200SOL    HW1 7499   3.750   6.982   4.294
 2200SOL    HW2 7500   3.890   7.015   4.217
 2201SOL     OW 7501   5.126   4.593   4.346
 2201SOL    HW1 7502   5.153   4.518   4.407
 2201SOL    HW2 7503   5.147   4.681   4.390
 2202SOL     OW 7504   4.587   5.990   3.722
 2202SOL    HW1 7505   4.543   5.904   3.696
 2202SOL    HW2 7506   4.594   5.995   3.822
 2203SOL     OW 7507   2.039   1.664   2.795
 2203SOL    HW1 7508   2.004   1.583   2.750
 2203SOL    HW2 7509   2.054   1.736   2.727
 2204SOL     OW 7510   3.442   2.162   1.159
 2204SOL    HW1 7511   3.370   2.108   1.115
 2204SOL    HW2 7512   3.522   2.104   1.176
 2205SOL     OW 7513   3.286   0.981   2.086
 2205SOL    HW1 7514   3.386   0.977   2.087
 2205SOL    HW2 7515   3.251   0.954   2.176
 2206SOL     OW 7516   1.431   4.023   0.320
 2206SOL    HW1 7517   1.511   4.059   0.368
 2206SOL    HW2 7518   1.357   4.091   0.321
 2207SOL     OW 7519   6.845   4.541   4.995
 2207SOL    HW1 7520   6.848   4.640   5.010
 2207SOL    HW2 7521   6.844   4.494   5.083
 2208SOL     OW 7522   6.665   5.290   1.759
 2208SOL    HW1 7523   6.693   5.354   1.687
 2208SOL    HW2 7524   6.685   5.196   1.730
 2209SOL     OW 7525   6.796   6.724   2.032
 2209SOL    HW1 7526   6.772   6.627   2.028
 2209SOL    HW2 7527   6.794   6.762   1.939
 2210SOL     OW 7528   2.357   4.854   3.833
 2210SOL    HW1 7529   2.312   4.943   3.822
 2210SOL    HW2 7530   2.351   4.803   3.747
 2211SOL     OW 7531   6.101   1.148   6.028
 2211SOL    HW1 7532   6.175   1.094   6.068
 2211SOL    HW2 7533   6.105   1.141   5.929
 2212SOL     OW 7534   2.658   6.970   6.116
 2212SOL    HW1 7535   2.569   7.008   6.139
 2212SOL    HW2 7536   2.658   6.942   6.020
 2213SOL     OW 7537   4.534   0.964   3.556
 2213SOL    HW1 7538   4.445   0.982   3.598
 2213SOL    HW2 7539   4.559   0.868   3.571
 2214SOL     OW 7540   3.926   0.203   4.383
 2214SOL    HW1 7541   4.013   0.211   4.431
 2214SOL    HW2 7542   3.864   0.143   4.434
 2215SOL     OW 7543   5.584   1.968   5.517
 2215SOL    HW1 7544   5.591   2.058   5.474
 2215SOL    HW2 7545   5.582   1.978   5.616
 2216SOL     OW 7546   2.931   1.722   2.429
 2216SOL    HW1 7547   2.901   1.642   2.481
 2216SOL    HW2 7548   2.967   1.692   2.340
 2217SOL     OW 7549   3.008   6.870   1.219
 2217SOL    HW1 7550   3.013   6.801   1.291
 2217SOL    HW2 7551   2.994   6.825   1.131
 2218SOL     OW 7552   6.695   0.842   2.350
 2218SOL    HW1 7553   6.771   0.812   2.408
 2218SOL    HW2 7554   6.727   0.912   2.286
 2219SOL     OW 7555   2.446   2.214   2.691
 2219SOL    HW1 7556   2.515   2.285   2.706
 2219SOL    HW2 7557   2.466   2.136   2.749
 2220SOL     OW 7558   1.726   6.923   2.677
 2220SOL    HW1 7559   1.672   6.956   2.754
 2220SOL    HW2 7560   1.823   6.941   2.694
 2221SOL     OW 7561   0.356   6.625   5.496
 2221SOL    HW1 7562   0.355   6.529   5.524
 2221SOL    HW2 7563   0.355   6.631   5.396
 2222SOL     OW 7564   5.854   5.345   4.212
 2222SOL    HW1 7565   5.879   5.424   4.156
 2222SOL    HW2 7566   5.916   5.337   4.289
 2223SOL     OW 7567   0.146   6.450   2.690
 2223SOL    HW1 7568   0.170   6.545   2.710
 2223SOL    HW2 7569   0.083   6.447   2.613
 2224SOL     OW 7570   1.278   5.858   0.887
 2224SOL    HW1 7571   1.245   5.922   0.817
 2224SOL    HW2 7572   1.203   5.836   0.949
 2225SOL     OW 7573   0.606   4.108   0.388
 2225SOL    HW1 7574   0.587   4.010   0.396
 2225SOL    HW2 7575   0.683   4.132   0.448
 2226SOL     OW 7576   3.859   3.772   2.754
 2226SOL    HW1 7577   3.781   3.810   2.803
 2226SOL    HW2 7578   3.844   3.781   2.655
 2227SOL     OW 7579   1.292   1.626   4.730
 2227SOL    HW1 7580   1.362   1.558   4.753
 2227SOL    HW2 7581   1.328   1.689   4.662
 2228SOL     OW 7582   2.168   4.463   4.406
 2228SOL    HW1 7583   2.158   4.404   4.486
 2228SOL    HW2 7584   2.259   4.449   4.366
 2229SOL     OW 7585   5.903   6.035   3.060
 2229SOL    HW1 7586   5.845   6.101   3.012
 2229SOL    HW2 7587   5.982   6.083   3.100
 2230SOL     OW 7588   2.155   5.346   2.885
 2230SOL    HW1 7589   2.177   5.437   2.918
 2230SOL    HW2 7590   2.062   5.344   2.850
 2231SOL     OW 7591   2.019   5.750   1.039
 2231SOL    HW1 7592   2.118   5.742   1.034
 2231SOL    HW2 7593   1.992   5.774   1.132
 2232SOL     OW 7594   5.902   1.698   3.805
 2232SOL    HW1 7595   5.927   1.791   3.834
 2232SOL    HW2 7596   5.804   1.685   3.815
 2233SOL     OW 7597   4.081   1.230   0.583
 2233SOL    HW1 7598   4.077   1.315   0.636
 2233SOL    HW2 7599   4.156   1.173   0.618
 2234SOL     OW 7600   4.724   2.423   1.214
 2234SOL    HW1 7601   4.697   2.329   1.231
 2234SOL    HW2 7602   4.646   2.483   1.229
 2235SOL     OW 7603   1.995   2.544   2.334
 2235SOL    HW1 7604   1.916   2.507   2.286
 2235SOL    HW2 7605   2.022   2.482   2.407
 2236SOL     OW 7606   0.771   4.044   5.224
 2236SOL    HW1 7607   0.834   3.976   5.262
 2236SOL    HW2 7608   0.718   4.085   5.299
 2237SOL     OW 7609   6.365   3.159   3.932
 2237SOL    HW1 7610   6.323   3.069   3.942
 2237SOL    HW2 7611   6.377   3.201   4.022
 2238SOL     OW 7612   5.309   6.038   6.489
 2238SOL    HW1 7613   5.219   5.996   6.500
 2238SOL    HW2 7614   5.309   6.128   6.531
 2239SOL     OW 7615   0.772   5.635   1.168
 2239SOL    HW1 7616   0.756   5.572   1.244
 2239SOL    HW2 7617   0.685   5.672   1.136
 2240SOL     OW 7618   6.095   3.805   1.397
 2240SOL    HW1 7619   6.007   3.846   1.419
 2240SOL    HW2 7620   6.130   3.755   1.476
 2241SOL     OW 7621   1.088   0.145   3.971
 2241SOL    HW1 7622   1.132   0.075   3.914
 2241SOL    HW2 7623   1.034   0.100   4.042
 2242SOL     OW 7624   2.469   1.821   3.104
 2242SOL    HW1 7625   2.534   1.813   3.029
 2242SOL    HW2 7626   2.479   1.742   3.165
 2243SOL     OW 7627   1.702   6.976   4.598
 2243SOL    HW1 7628   1.704   6.885   4.556
 2243SOL    HW2 7629   1.696   0.023   4.527
 2244SOL     OW 7630   3.733   0.474   5.234
 2244SOL    HW1 7631   3.691   0.482   5.324
 2244SOL    HW2 7632   3.666   0.500   5.164
 2245SOL     OW 7633   0.686   2.672   2.526
 2245SOL    HW1 7634   0.667   2.769   2.539
 2245SOL    HW2 7635   0.746   2.640   2.599
 2246SOL     OW 7636   0.992   4.244   5.071
 2246SOL    HW1 7637   1.019   4.247   4.975
 2246SOL    HW2 7638   0.950   4.331   5.097
 2247SOL     OW 7639   2.012   1.497   4.349
 2247SOL    HW1 7640   1.957   1.581   4.349
 2247SOL    HW2 7641   1.971   1.430   4.411
 2248SOL     OW 7642   5.247   3.680   5.795
 2248SOL    HW1 7643   5.187   3.625   5.852
 2248SOL    HW2 7644   5.339   3.640   5.795
 2249SOL     OW 7645   5.156   5.555   5.040
 2249SOL    HW1 7646   5.133   5.638   5.092
 2249SOL    HW2 7647   5.158   5.577   4.942
 2250SOL     OW 7648   4.378   4.549   1.865
 2250SOL    HW1 7649   4.387   4.450   1.859
 2250SOL    HW2 7650   4.468   4.591   1.863
 2251SOL     OW 7651   0.304   1.099   5.235
 2251SOL    HW1 7652   0.339   1.193   5.239
 2251SOL    HW2 7653   0.256   1.086   5.149
 2252SOL     OW 7654   3.491   1.067   6.528
 2252SOL    HW1 7655   3.499   1.146   6.467
 2252SOL    HW2 7656   3.405   1.020   6.511
 2253SOL     OW 7657   0.821   3.882   0.627
 2253SOL    HW1 7658   0.761   3.846   0.698
 2253SOL    HW2 7659   0.784   3.969   0.593
 2254SOL     OW 7660   1.085   4.364   6.375
 2254SOL    HW1 7661   1.072   4.463   6.388
 2254SOL    HW2 7662   1.155   4.349   6.305
 2255SOL     OW 7663   6.603   3.480   6.769
 2255SOL    HW1 7664   6.551   3.517   6.691
 2255SOL    HW2 7665   6.556   3.503   6.854
 2256SOL     OW 7666   3.041   5.463   2.447
 2256SOL    HW1 7667   2.948   5.484   2.416
 2256SOL    HW2 7668   3.101   5.451   2.368
 2257SOL     OW 7669   1.419   4.431   5.415
 2257SOL    HW1 7670   1.328   4.456   5.380
 2257SOL    HW2 7671   1.452   4.349   5.367
 2258SOL     OW 7672   1.814   5.888   5.775
 2258SOL    HW1 7673   1.914   5.890   5.788
 2258SOL    HW2 7674   1.773   5.966   5.823
 2259SOL     OW 7675   5.824   1.929   6.342
 2259SOL    HW1 7676   5.773   1.861   6.395
 2259SOL    HW2 7677   5.762   2.002   6.313
 2260SOL     OW 7678   3.986   3.214   0.822
 2260SOL    HW1 7679   3.936   3.269   0.755
 2260SOL    HW2 7680   3.921   3.156   0.872
 2261SOL     OW 7681   2.571   6.589   4.946
 2261SOL    HW1 7682   2.533   6.680   4.963
 2261SOL    HW2 7683   2.667   6.587   4.975
 2262SOL     OW 7684   2.979   1.745   3.380
 2262SOL    HW1 7685   2.931   1.707   3.459
 2262SOL    HW2 7686   3.058   1.688   3.358
 2263SOL     OW 7687   0.967   4.234   5.387
 2263SOL    HW1 7688   1.037   4.168   5.416
 2263SOL    HW2 7689   0.911   4.193   5.315
 2264SOL     OW 7690   3.796   3.581   3.748
 2264SOL    HW1 7691   3.853   3.586   3.667
 2264SOL    HW2 7692   3.728   3.655   3.746
 2265SOL     OW 7693   0.895   6.312   4.699
 2265SOL    HW1 7694   0.888   6.242   4.629
 2265SOL    HW2 7695   0.955   6.385   4.668
 2266SOL     OW 7696   6.799   0.583   5.425
 2266SOL    HW1 7697   6.849   0.649   5.368
 2266SOL    HW2 7698   6.702   0.608   5.426
 2267SOL     OW 7699   5.844   1.906   5.411
 2267SOL    HW1 7700   5.752   1.899   5.449
 2267SOL    HW2 7701   5.864   1.824   5.357
 2268SOL     OW 7702   0.396   6.399   0.692
 2268SOL    HW1 7703   0.460   6.342   0.639
 2268SOL    HW2 7704   0.347   6.341   0.757
 2269SOL     OW 7705   6.843   6.521   2.912
 2269SOL    HW1 7706   6.743   6.533   2.914
 2269SOL    HW2 7707   6.884   6.597   2.861
 2270SOL     OW 7708   3.667   3.016   3.397
 2270SOL    HW1 7709   3.665   3.116   3.405
 2270SOL    HW2 7710   3.692   2.992   3.303
 2271SOL     OW 7711   2.048   4.437   2.962
 2271SOL    HW1 7712   2.043   4.512   3.027
 2271SOL    HW2 7713   1.977   4.448   2.892
 2272SOL     OW 7714   4.919   0.575   5.662
 2272SOL    HW1 7715   5.005   0.610   5.701
 2272SOL    HW2 7716   4.889   0.636   5.588
 2273SOL     OW 7717   0.305   1.406   2.178
 2273SOL    HW1 7718   0.395   1.447   2.193
 2273SOL    HW2 7719   0.316   1.310   2.152
 2274SOL     OW 7720   0.259   4.558   3.320
 2274SOL    HW1 7721   0.215   4.552   3.409
 2274SOL    HW2 7722   0.227   4.641   3.274
 2275SOL     OW 7723   4.627   6.638   3.113
 2275SOL    HW1 7724   4.717   6.627   3.071
 2275SOL    HW2 7725   4.596   6.550   3.148
 2276SOL     OW 7726   3.388   6.075   2.704
 2276SOL    HW1 7727   3.418   6.036   2.617
 2276SOL    HW2 7728   3.432   6.164   2.717
 2277SOL     OW 7729   3.119   3.403   2.197
 2277SOL    HW1 7730   3.169   3.484   2.167
 2277SOL    HW2 7731   3.145   3.381   2.291
 2278SOL     OW 7732   3.810   4.904   1.304
 2278SOL    HW1 7733   3.824   5.003   1.317
 2278SOL    HW2 7734   3.723   4.888   1.259
 2279SOL     OW 7735   6.065   3.570   5.312
 2279SOL    HW1 7736   6.103   3.624   5.387
 2279SOL    HW2 7737   6.091   3.611   5.225
 2280SOL     OW 7738   6.033   0.374   5.960
 2280SOL    HW1 7739   5.968   0.441   5.925
 2280SOL    HW2 7740   5.983   0.297   5.999
 2281SOL     OW 7741   2.617   0.444   0.811
 2281SOL    HW1 7742   2.690   0.377   0.826
 2281SOL    HW2 7743   2.570   0.423   0.725
 2282SOL     OW 7744   3.748   6.613   2.705
 2282SOL    HW1 7745   3.722   6.694   2.653
 2282SOL    HW2 7746   3.782   6.543   2.643
 2283SOL     OW 7747   0.400   3.283   1.393
 2283SOL    HW1 7748   0.425   3.297   1.488
 2283SOL    HW2 7749   0.478   3.307   1.334
 2284SOL     OW 7750   2.175   3.389   0.939
 2284SOL    HW1 7751   2.245   3.427   0.879
 2284SOL    HW2 7752   2.216   3.322   1.000
 2285SOL     OW 7753   1.886   2.370   6.906
 2285SOL    HW1 7754   1.846   2.369   6.815
 2285SOL    HW2 7755   1.942   2.453   6.917
 2286SOL     OW 7756   6.222   6.581   3.986
 2286SOL    HW1 7757   6.255   6.517   4.055
 2286SOL    HW2 7758   6.127   6.605   4.006
 2287SOL     OW 7759   2.913   1.478   0.528
 2287SOL    HW1 7760   2.835   1.538   0.549
 2287SOL    HW2 7761   2.986   1.532   0.487
 2288SOL     OW 7762   2.496   6.357   4.670
 2288SOL    HW1 7763   2.422   6.424   4.667
 2288SOL    HW2 7764   2.476   6.287   4.739
 2289SOL     OW 7765   3.491   6.799   6.482
 2289SOL    HW1 7766   3.545   6.731   6.434
 2289SOL    HW2 7767   3.521   6.891   6.455
 2290SOL     OW 7768   2.762   3.388   5.333
 2290SOL    HW1 7769   2.756   3.446   5.414
 2290SOL    HW2 7770   2.786   3.444   5.254
 2291SOL     OW 7771   3.057   1.822   0.702
 2291SOL    HW1 7772   3.146   1.847   0.742
 2291SOL    HW2 7773   3.016   1.748   0.755
 2292SOL     OW 7774   5.364   2.461   3.229
 2292SOL    HW1 7775   5.275   2.423   3.201
 2292SOL    HW2 7776   5.380   2.439   3.325
 2293SOL     OW 7777   0.581   0.844   0.240
 2293SOL    HW1 7778   0.523   0.917   0.278
 2293SOL    HW2 7779   0.677   0.864   0.261
 2294SOL     OW 7780   6.290   2.654   5.350
 2294SOL    HW1 7781   6.356   2.606   5.292
 2294SOL    HW2 7782   6.338   2.701   5.424
 2295SOL     OW 7783   5.697   5.914   0.437
 2295SOL    HW1 7784   5.750   5.857   0.500
 2295SOL    HW2 7785   5.759   5.975   0.388
 2296SOL     OW 7786   4.030   5.565   3.993
 2296SOL    HW1 7787   4.101   5.572   4.064
 2296SOL    HW2 7788   4.057   5.619   3.914
 2297SOL     OW 7789   6.490   2.873   6.809
 2297SOL    HW1 7790   6.580   2.864   6.851
 2297SOL    HW2 7791   6.488   2.954   6.751
 2298SOL     OW 7792   2.717   4.042   5.327
 2298SOL    HW1 7793   2.631   4.015   5.282
 2298SOL    HW2 7794   2.714   4.139   5.350
 2299SOL     OW 7795   6.055   3.586   4.719
 2299SOL    HW1 7796   6.003   3.518   4.770
 2299SOL    HW2 7797   5.994   3.633   4.654
 2300SOL     OW 7798   4.339   0.335   3.333
 2300SOL    HW1 7799   4.344   0.435   3.334
 2300SOL    HW2 7800   4.334   0.302   3.239
 2301SOL     OW 7801   3.938   3.051   5.345
 2301SOL    HW1 7802   3.988   3.124   5.298
 2301SOL    HW2 7803   3.975   2.962   5.316
 2302SOL     OW 7804   0.218   3.252   5.629
 2302SOL    HW1 7805   0.206   3.256   5.530
 2302SOL    HW2 7806   0.240   3.158   5.656
 2303SOL     OW 7807   2.956   1.432   6.135
 2303SOL    HW1 7808   3.000   1.479   6.211
 2303SOL    HW2 7809   3.022   1.372   6.090
 2304SOL     OW 7810   4.601   6.580   2.545
 2304SOL    HW1 7811   4.692   6.541   2.533
 2304SOL    HW2 7812   4.588   6.603   2.642
 2305SOL     OW 7813   2.718   6.062   4.907
 2305SOL    HW1 7814   2.755   6.019   4.825
 2305SOL    HW2 7815   2.789   6.066   4.978
 2306SOL     OW 7816   1.174   4.588   5.019
 2306SOL    HW1 7817   1.076   4.600   5.001
 2306SOL    HW2 7818   1.214   4.677   5.042
 2307SOL     OW 7819   6.105   3.668   5.072
 2307SOL    HW1 7820   6.089   3.574   5.041
 2307SOL    HW2 7821   6.153   3.719   5.001
 2308SOL     OW 7822   1.065   5.865   2.183
 2308SOL    HW1 7823   0.989   5.928   2.171
 2308SOL    HW2 7824   1.127   5.873   2.105
 2309SOL     OW 7825   1.609   1.016   4.699
 2309SOL    HW1 7826   1.582   1.091   4.638
 2309SOL    HW2 7827   1.703   1.030   4.729
 2310SOL     OW 7828   5.513   6.234   0.281
 2310SOL    HW1 7829   5.468   6.165   0.339
 2310SOL    HW2 7830   5.444   6.284   0.229
 2311SOL     OW 7831   2.805   5.866   0.718
 2311SOL    HW1 7832   2.737   5.877   0.790
 2311SOL    HW2 7833   2.809   5.950   0.663
 2312SOL     OW 7834   2.542   4.601   2.647
 2312SOL    HW1 7835   2.606   4.638   2.579
 2312SOL    HW2 7836   2.463   4.662   2.654
 2313SOL     OW 7837   4.724   4.846   0.952
 2313SOL    HW1 7838   4.823   4.847   0.946
 2313SOL    HW2 7839   4.691   4.753   0.941
 2314SOL     OW 7840   2.492   4.515   2.916
 2314SOL    HW1 7841   2.411   4.456   2.919
 2314SOL    HW2 7842   2.507   4.547   2.822
 2315SOL     OW 7843   4.207   1.841   6.736
 2315SOL    HW1 7844   4.149   1.846   6.654
 2315SOL    HW2 7845   4.164   1.781   6.803
 2316SOL     OW 7846   5.274   3.608   1.203
 2316SOL    HW1 7847   5.333   3.568   1.133
 2316SOL    HW2 7848   5.264   3.543   1.279
 2317SOL     OW 7849   0.542   6.636   3.222
 2317SOL    HW1 7850   0.597   6.588   3.290
 2317SOL    HW2 7851   0.509   6.571   3.153
 2318SOL     OW 7852   6.867   1.752   3.578
 2318SOL    HW1 7853   6.796   1.702   3.628
 2318SOL    HW2 7854   6.881   1.709   3.489
 2319SOL     OW 7855   1.200   5.338   2.716
 2319SOL    HW1 7856   1.127   5.399   2.683
 2319SOL    HW2 7857   1.283   5.391   2.731
 2320SOL     OW 7858   6.361   4.627   3.944
 2320SOL    HW1 7859   6.398   4.597   4.031
 2320SOL    HW2 7860   6.385   4.561   3.873
 2321SOL     OW 7861   3.471   5.016   3.933
 2321SOL    HW1 7862   3.476   4.974   4.023
 2321SOL    HW2 7863   3.537   4.972   3.872
 2322SOL     OW 7864   2.320   1.299   4.512
 2322SOL    HW1 7865   2.343   1.353   4.593
 2322SOL    HW2 7866   2.331   1.356   4.430
 2323SOL     OW 7867   5.348   3.350   1.720
 2323SOL    HW1 7868   5.279   3.379   1.787
 2323SOL    HW2 7869   5.313   3.272   1.668
 2324SOL     OW 7870   0.127   5.418   4.099
 2324SOL    HW1 7871   0.170   5.334   4.130
 2324SOL    HW2 7872   0.044   5.435   4.152
 2325SOL     OW 7873   6.050   1.922   0.756
 2325SOL    HW1 7874   6.118   1.894   0.824
 2325SOL    HW2 7875   5.958   1.913   0.794
 2326SOL     OW 7876   0.689   5.125   0.576
 2326SOL    HW1 7877   0.680   5.166   0.667
 2326SOL    HW2 7878   0.714   5.029   0.585
 2327SOL     OW 7879   4.645   1.285   3.191
 2327SOL    HW1 7880   4.722   1.328   3.143
 2327SOL    HW2 7881   4.675   1.198   3.229
 2328SOL     OW 7882   6.234   5.088   3.989
 2328SOL    HW1 7883   6.296   5.058   3.916
 2328SOL    HW2 7884   6.155   5.135   3.948
 2329SOL     OW 7885   1.308   6.468   3.268
 2329SOL    HW1 7886   1.241   6.394   3.278
 2329SOL    HW2 7887   1.314   6.495   3.172
 2330SOL     OW 7888   1.146   4.456   0.238
 2330SOL    HW1 7889   1.222   4.477   0.300
 2330SOL    HW2 7890   1.152   4.361   0.210
 2331SOL     OW 7891   1.728   5.103   5.136
 2331SOL    HW1 7892   1.811   5.159   5.136
 2331SOL    HW2 7893   1.752   5.008   5.117
 2332SOL     OW 7894   6.435   3.187   6.126
 2332SOL    HW1 7895   6.390   3.206   6.214
 2332SOL    HW2 7896   6.431   3.269   6.069
 2333SOL     OW 7897   2.622   4.859   3.855
 2333SOL    HW1 7898   2.661   4.951   3.862
 2333SOL    HW2 7899   2.525   4.866   3.833
 2334SOL     OW 7900   2.896   6.986   5.520
 2334SOL    HW1 7901   2.954   6.942   5.588
 2334SOL    HW2 7902   2.861   0.049   5.557
 2335SOL     OW 7903   4.437   4.545   4.405
 2335SOL    HW1 7904   4.445   4.552   4.306
 2335SOL    HW2 7905   4.440   4.636   4.446
 2336SOL     OW 7906   4.707   1.555   5.869
 2336SOL    HW1 7907   4.773   1.563   5.795
 2336SOL    HW2 7908   4.658   1.467   5.862
 2337SOL     OW 7909   5.681   0.717   4.973
 2337SOL    HW1 7910   5.732   0.802   4.982
 2337SOL    HW2 7911   5.592   0.726   5.019
 2338SOL     OW 7912   1.223   6.869   6.866
 2338SOL    HW1 7913   1.150   6.936   6.877
 2338SOL    HW2 7914   1.271   6.857   6.953
 2339SOL     OW 7915   3.737   4.881   6.573
 2339SOL    HW1 7916   3.834   4.900   6.555
 2339SOL    HW2 7917   3.696   4.838   6.493
 2340SOL     OW 7918   4.277   5.083   3.813
 2340SOL    HW1 7919   4.248   5.017   3.744
 2340SOL    HW2 7920   4.354   5.046   3.864
 2341SOL     OW 7921   0.066   4.588   6.178
 2341SOL    HW1 7922   7.016   4.624   6.119
 2341SOL    HW2 7923   0.152   4.637   6.158
 2342SOL     OW 7924   6.357   1.317   5.845
 2342SOL    HW1 7925   6.286   1.254   5.813
 2342SOL    HW2 7926   6.327   1.360   5.930
 2343SOL     OW 7927   1.574   5.852   1.066
 2343SOL    HW1 7928   1.548   5.760   1.094
 2343SOL    HW2 7929   1.629   5.847   0.982
 2344SOL     OW 7930   2.390   0.959   2.549
 2344SOL    HW1 7931   2.340   1.045   2.547
 2344SOL    HW2 7932   2.367   0.905   2.468
 2345SOL     OW 7933   1.234   2.183   2.395
 2345SOL    HW1 7934   1.320   2.137   2.416
 2345SOL    HW2 7935   1.231   2.272   2.439
 2346SOL     OW 7936   4.944   3.244   4.962
 2346SOL    HW1 7937   4.941   3.151   4.924
 2346SOL    HW2 7938   4.952   3.310   4.887
 2347SOL     OW 7939   1.019   4.320   0.769
 2347SOL    HW1 7940   1.026   4.281   0.677
 2347SOL    HW2 7941   0.936   4.375   0.776
 2348SOL     OW 7942   2.627   0.294   1.123
 2348SOL    HW1 7943   2.696   0.255   1.184
 2348SOL    HW2 7944   2.642   0.392   1.113
 2349SOL     OW 7945   5.332   3.181   6.645
 2349SOL    HW1 7946   5.248   3.172   6.593
 2349SOL    HW2 7947   5.311   3.180   6.743
 2350SOL     OW 7948   1.702   6.061   5.587
 2350SOL    HW1 7949   1.685   5.965   5.609
 2350SOL    HW2 7950   1.674   6.079   5.493
 2351SOL     OW 7951   1.786   5.202   3.286
 2351SOL    HW1 7952   1.690   5.175   3.295
 2351SOL    HW2 7953   1.795   5.299   3.307
 2352SOL     OW 7954   5.979   5.807   6.964
 2352SOL    HW1 7955   5.950   5.770   6.876
 2352SOL    HW2 7956   6.058   5.867   6.950
 2353SOL     OW 7957   3.219   2.431   5.861
 2353SOL    HW1 7958   3.210   2.458   5.765
 2353SOL    HW2 7959   3.128   2.430   5.903
 2354SOL     OW 7960   3.616   1.268   2.468
 2354SOL    HW1 7961   3.524   1.294   2.441
 2354SOL    HW2 7962   3.667   1.238   2.387
 2355SOL     OW 7963   0.078   1.492   2.357
 2355SOL    HW1 7964   0.163   1.480   2.306
 2355SOL    HW2 7965   0.027   1.569   2.319
 2356SOL     OW 7966   3.830   5.159   4.254
 2356SOL    HW1 7967   3.923   5.190   4.272
 2356SOL    HW2 7968   3.828   5.059   4.252
 2357SOL     OW 7969   1.357   5.445   1.541
 2357SOL    HW1 7970   1.276   5.494   1.509
 2357SOL    HW2 7971   1.427   5.511   1.569
 2358SOL     OW 7972   2.043   0.387   5.352
 2358SOL    HW1 7973   2.134   0.347   5.342
 2358SOL    HW2 7974   2.015   0.383   5.449
 2359SOL     OW 7975   2.656   2.289   5.823
 2359SOL    HW1 7976   2.570   2.313   5.778
 2359SOL    HW2 7977   2.730   2.294   5.756
 2360SOL     OW 7978   3.110   5.312   0.842
 2360SOL    HW1 7979   3.095   5.228   0.894
 2360SOL    HW2 7980   3.049   5.313   0.762
 2361SOL     OW 7981   3.534   5.186   1.308
 2361SOL    HW1 7982   3.510   5.120   1.236
 2361SOL    HW2 7983   3.603   5.249   1.273
 2362SOL     OW 7984   2.845   4.795   4.467
 2362SOL    HW1 7985   2.848   4.755   4.559
 2362SOL    HW2 7986   2.788   4.737   4.409
 2363SOL     OW 7987   2.319   4.114   1.070
 2363SOL    HW1 7988   2.407   4.156   1.048
 2363SOL    HW2 7989   2.287   4.146   1.159
 2364SOL     OW 7990   4.872   0.627   2.029
 2364SOL    HW1 7991   4.825   0.684   2.096
 2364SOL    HW2 7992   4.896   0.682   1.949
 2365SOL     OW 7993   5.524   4.405   3.182
 2365SOL    HW1 7994   5.469   4.354   3.248
 2365SOL    HW2 7995   5.560   4.488   3.225
 2366SOL     OW 7996   3.319   4.885   5.230
 2366SOL    HW1 7997   3.393   4.818   5.228
 2366SOL    HW2 7998   3.246   4.857   5.167
 2367SOL     OW 7999   6.229   4.948   5.270
 2367SOL    HW1 8000   6.289   4.911   5.340
 2367SOL    HW2 8001   6.277   4.950   5.182
 2368SOL     OW 8002   5.182   0.018   5.111
 2368SOL    HW1 8003   5.259   0.019   5.047
 2368SOL    HW2 8004   5.122   0.096   5.092
 2369SOL     OW 8005   3.861   1.777   4.338
 2369SOL    HW1 8006   3.896   1.830   4.261
 2369SOL    HW2 8007   3.861   1.834   4.420
 2370SOL     OW 8008   4.113   2.280   1.565
 2370SOL    HW1 8009   4.078   2.354   1.507
 2370SOL    HW2 8010   4.137   2.317   1.655
 2371SOL     OW 8011   2.285   6.685   2.172
 2371SOL    HW1 8012   2.221   6.609   2.156
 2371SOL    HW2 8013   2.264   6.729   2.259
 2372SOL     OW 8014   6.481   6.701   5.427
 2372SOL    HW1 8015   6.410   6.641   5.464
 2372SOL    HW2 8016   6.483   6.694   5.327
 2373SOL     OW 8017   6.473   4.147   5.969
 2373SOL    HW1 8018   6.524   4.146   5.883
 2373SOL    HW2 8019   6.447   4.053   5.993
 2374SOL     OW 8020   7.002   5.867   2.274
 2374SOL    HW1 8021   0.037   5.854   2.194
 2374SOL    HW2 8022   0.018   5.940   2.331
 2375SOL     OW 8023   1.571   0.518   4.325
 2375SOL    HW1 8024   1.514   0.510   4.243
 2375SOL    HW2 8025   1.514   0.546   4.402
 2376SOL     OW 8026   5.293   3.130   3.813
 2376SOL    HW1 8027   5.251   3.046   3.778
 2376SOL    HW2 8028   5.383   3.141   3.772
 2377SOL     OW 8029   3.590   4.268   5.909
 2377SOL    HW1 8030   3.614   4.364   5.911
 2377SOL    HW2 8031   3.500   4.255   5.951
 2378SOL     OW 8032   1.054   1.064   0.858
 2378SOL    HW1 8033   0.999   1.045   0.939
 2378SOL    HW2 8034   1.033   1.156   0.824
 2379SOL     OW 8035   0.760   4.694   2.423
 2379SOL    HW1 8036   0.741   4.627   2.494
 2379SOL    HW2 8037   0.847   4.673   2.379
 2380SOL     OW 8038   4.244   5.429   6.588
 2380SOL    HW1 8039   4.306   5.482   6.531
 2380SOL    HW2 8040   4.185   5.491   6.640
 2381SOL     OW 8041   2.011   3.717   3.689
 2381SOL    HW1 8042   2.022   3.789   3.620
 2381SOL    HW2 8043   1.918   3.722   3.727
 2382SOL     OW 8044   6.436   6.213   2.562
 2382SOL    HW1 8045   6.419   6.127   2.515
 2382SOL    HW2 8046   6.487   6.275   2.502
 2383SOL     OW 8047   5.142   4.365   6.173
 2383SOL    HW1 8048   5.176   4.419   6.096
 2383SOL    HW2 8049   5.044   4.349   6.163
 2384SOL     OW 8050   0.750   2.143   3.349
 2384SOL    HW1 8051   0.742   2.207   3.272
 2384SOL    HW2 8052   0.777   2.193   3.431
 2385SOL     OW 8053   0.411   1.188   0.897
 2385SOL    HW1 8054   0.400   1.278   0.854
 2385SOL    HW2 8055   0.361   1.119   0.844
 2386SOL     OW 8056   6.849   5.025   5.497
 2386SOL    HW1 8057   6.860   4.951   5.430
 2386SOL    HW2 8058   6.841   4.985   5.588
 2387SOL     OW 8059   0.062   0.547   3.353
 2387SOL    HW1 8060   0.112   0.466   3.321
 2387SOL    HW2 8061   6.990   0.540   3.324
 2388SOL     OW 8062   1.445   3.938   4.205
 2388SOL    HW1 8063   1.545   3.937   4.206
 2388SOL    HW2 8064   1.411   3.921   4.297
 2389SOL     OW 8065   3.765   6.874   3.148
 2389SOL    HW1 8066   3.702   6.930   3.202
 2389SOL    HW2 8067   3.713   6.823   3.079
 2390SOL     OW 8068   5.076   2.672   5.778
 2390SOL    HW1 8069   5.094   2.716   5.865
 2390SOL    HW2 8070   5.151   2.610   5.756
 2391SOL     OW 8071   2.705   3.879   6.396
 2391SOL    HW1 8072   2.651   3.914   6.472
 2391SOL    HW2 8073   2.775   3.817   6.431
 2392SOL     OW 8074   3.920   5.303   5.867
 2392SOL    HW1 8075   3.835   5.279   5.913
 2392SOL    HW2 8076   3.903   5.316   5.769
 2393SOL     OW 8077   4.151   4.213   0.190
 2393SOL    HW1 8078   4.193   4.295   0.230
 2393SOL    HW2 8079   4.223   4.156   0.149
 2394SOL     OW 8080   6.678   2.562   3.247
 2394SOL    HW1 8081   6.703   2.532   3.155
 2394SOL    HW2 8082   6.616   2.640   3.242
 2395SOL     OW 8083   1.513   2.313   3.799
 2395SOL    HW1 8084   1.569   2.361   3.867
 2395SOL    HW2 8085   1.511   2.367   3.715
 2396SOL     OW 8086   0.299   0.355   6.340
 2396SOL    HW1 8087   0.311   0.258   6.361
 2396SOL    HW2 8088   0.213   0.367   6.289
 2397SOL     OW 8089   2.079   5.090   6.254
 2397SOL    HW1 8090   2.163   5.059   6.209
 2397SOL    HW2 8091   2.024   5.011   6.280
 2398SOL     OW 8092   3.924   6.063   4.733
 2398SOL    HW1 8093   3.897   6.102   4.821
 2398SOL    HW2 8094   3.918   6.134   4.663
 2399SOL     OW 8095   3.031   1.286   2.367
 2399SOL    HW1 8096   2.967   1.214   2.394
 2399SOL    HW2 8097   3.066   1.266   2.275
 2400SOL     OW 8098   1.147   2.519   0.346
 2400SOL    HW1 8099   1.082   2.452   0.309
 2400SOL    HW2 8100   1.102   2.606   0.359
 2401SOL     OW 8101   1.432   6.327   0.366
 2401SOL    HW1 8102   1.393   6.244   0.408
 2401SOL    HW2 8103   1.486   6.301   0.286
 2402SOL     OW 8104   0.784   3.660   2.750
 2402SOL    HW1 8105   0.811   3.757   2.748
 2402SOL    HW2 8106   0.689   3.651   2.721
 2403SOL     OW 8107   3.067   4.388   5.311
 2403SOL    HW1 8108   2.987   4.439   5.280
 2403SOL    HW2 8109   3.084   4.310   5.251
 2404SOL     OW 8110   6.316   2.012   2.087
 2404SOL    HW1 8111   6.402   2.037   2.132
 2404SOL    HW2 8112   6.330   1.929   2.032
 2405SOL     OW 8113   1.799   2.742   0.791
 2405SOL    HW1 8114   1.738   2.814   0.758
 2405SOL    HW2 8115   1.771   2.654   0.752
 2406SOL     OW 8116   4.393   5.696   4.649
 2406SOL    HW1 8117   4.359   5.645   4.728
 2406SOL    HW2 8118   4.484   5.733   4.671
 2407SOL     OW 8119   2.158   1.949   3.916
 2407SOL    HW1 8120   2.081   1.968   3.854
 2407SOL    HW2 8121   2.123   1.918   4.004
 2408SOL     OW 8122   4.403   0.247   5.554
 2408SOL    HW1 8123   4.380   0.255   5.457
 2408SOL    HW2 8124   4.319   0.240   5.607
 2409SOL     OW 8125   0.977   2.872   6.740
 2409SOL    HW1 8126   1.071   2.906   6.748
 2409SOL    HW2 8127   0.952   2.868   6.643
 2410SOL     OW 8128   6.926   3.812   4.315
 2410SOL    HW1 8129   0.002   3.818   4.304
 2410SOL    HW2 8130   6.894   3.722   4.285
 2411SOL     OW 8131   3.412   1.111   0.208
 2411SOL    HW1 8132   3.336   1.146   0.263
 2411SOL    HW2 8133   3.495   1.109   0.264
 2412SOL     OW 8134   2.991   2.393   6.596
 2412SOL    HW1 8135   2.934   2.402   6.514
 2412SOL    HW2 8136   2.979   2.474   6.654
 2413SOL     OW 8137   6.740   3.817   6.676
 2413SOL    HW1 8138   6.791   3.748   6.624
 2413SOL    HW2 8139   6.804   3.888   6.706
 2414SOL     OW 8140   6.701   1.526   4.868
 2414SOL    HW1 8141   6.674   1.540   4.964
 2414SOL    HW2 8142   6.661   1.598   4.812
 2415SOL     OW 8143   3.073   3.952   6.047
 2415SOL    HW1 8144   3.081   4.050   6.065
 2415SOL    HW2 8145   2.977   3.926   6.045
 2416SOL     OW 8146   6.941   3.337   4.262
 2416SOL    HW1 8147   6.981   3.269   4.324
 2416SOL    HW2 8148   6.987   3.333   4.173
 2417SOL     OW 8149   3.517   2.581   1.684
 2417SOL    HW1 8150   3.504   2.657   1.747
 2417SOL    HW2 8151   3.541   2.499   1.736
 2418SOL     OW 8152   5.991   3.768   6.470
 2418SOL    HW1 8153   6.063   3.803   6.530
 2418SOL    HW2 8154   5.901   3.797   6.504
 2419SOL     OW 8155   3.269   0.906   2.680
 2419SOL    HW1 8156   3.327   0.884   2.602
 2419SOL    HW2 8157   3.319   0.888   2.765
 2420SOL     OW 8158   1.109   3.425   2.037
 2420SOL    HW1 8159   1.121   3.508   1.983
 2420SOL    HW2 8160   1.040   3.442   2.108
 2421SOL     OW 8161   2.505   6.955   2.507
 2421SOL    HW1 8162   2.455   0.002   2.557
 2421SOL    HW2 8163   2.570   6.910   2.569
 2422SOL     OW 8164   3.726   6.801   0.359
 2422SOL    HW1 8165   3.724   6.862   0.280
 2422SOL    HW2 8166   3.694   6.851   0.440
 2423SOL     OW 8167   3.723   4.932   4.788
 2423SOL    HW1 8168   3.625   4.944   4.770
 2423SOL    HW2 8169   3.774   4.941   4.703
 2424SOL     OW 8170   5.339   0.082   6.306
 2424SOL    HW1 8171   5.408   0.081   6.379
 2424SOL    HW2 8172   5.269   0.013   6.325
 2425SOL     OW 8173   4.117   5.572   5.212
 2425SOL    HW1 8174   4.212   5.542   5.210
 2425SOL    HW2 8175   4.075   5.543   5.298
 2426SOL     OW 8176   3.092   2.509   5.380
 2426SOL    HW1 8177   3.074   2.601   5.347
 2426SOL    HW2 8178   3.152   2.461   5.316
 2427SOL     OW 8179   4.215   2.069   7.010
 2427SOL    HW1 8180   4.117   2.085   7.015
 2427SOL    HW2 8181   4.256   2.079   0.078
 2428SOL     OW 8182   1.702   1.977   2.570
 2428SOL    HW1 8183   1.770   2.049   2.561
 2428SOL    HW2 8184   1.718   1.927   2.655
 2429SOL     OW 8185   5.045   6.114   1.240
 2429SOL    HW1 8186   4.948   6.095   1.225
 2429SOL    HW2 8187   5.079   6.173   1.167
 2430SOL     OW 8188   6.895   0.149   0.023
 2430SOL    HW1 8189   6.963   0.221   0.013
 2430SOL    HW2 8190   6.819   0.166   6.983
 2431SOL     OW 8191   1.713   3.250   1.708
 2431SOL    HW1 8192   1.733   3.208   1.619
 2431SOL    HW2 8193   1.624   3.296   1.703
 2432SOL     OW 8194   3.143   5.977   2.081
 2432SOL    HW1 8195   3.120   6.039   2.156
 2432SOL    HW2 8196   3.079   5.900   2.080
 2433SOL     OW 8197   7.023   4.708   4.142
 2433SOL    HW1 8198   0.020   4.805   4.131
 2433SOL    HW2 8199   6.931   4.689   4.106
 2434SOL     OW 8200   3.834   1.942   2.704
 2434SOL    HW1 8201   3.884   2.010   2.651
 2434SOL    HW2 8202   3.772   1.892   2.643
 2435SOL     OW 8203   5.878   6.984   6.769
 2435SOL    HW1 8204   5.824   7.020   6.845
 2435SOL    HW2 8205   5.971   6.963   6.800
 2436SOL     OW 8206   0.066   2.658   0.824
 2436SOL    HW1 8207   0.112   2.674   0.736
 2436SOL    HW2 8208   0.046   2.560   0.833
 2437SOL     OW 8209   1.139   4.318   1.507
 2437SOL    HW1 8210   1.113   4.382   1.579
 2437SOL    HW2 8211   1.190   4.367   1.436
 2438SOL     OW 8212   3.603   1.799   4.536
 2438SOL    HW1 8213   3.587   1.733   4.463
 2438SOL    HW2 8214   3.655   1.756   4.610
 2439SOL     OW 8215   0.005   5.896   0.139
 2439SOL    HW1 8216   6.998   5.963   0.071
 2439SOL    HW2 8217   0.068   5.831   0.096
 2440SOL     OW 8218   6.051   2.394   5.398
 2440SOL    HW1 8219   6.066   2.493   5.396
 2440SOL    HW2 8220   5.955   2.374   5.380
 2441SOL     OW 8221   6.080   0.941   0.045
 2441SOL    HW1 8222   6.130   1.004   7.009
 2441SOL    HW2 8223   5.991   0.922   0.005
 2442SOL     OW 8224   5.314   3.083   2.954
 2442SOL    HW1 8225   5.405   3.113   2.925
 2442SOL    HW2 8226   5.270   3.033   2.879
 2443SOL     OW 8227   0.077   2.823   1.607
 2443SOL    HW1 8228   7.009   2.857   1.629
 2443SOL    HW2 8229   0.071   2.728   1.574
 2444SOL     OW 8230   3.567   4.937   2.828
 2444SOL    HW1 8231   3.568   5.019   2.885
 2444SOL    HW2 8232   3.472   4.915   2.804
 2445SOL     OW 8233   0.560   1.864   0.907
 2445SOL    HW1 8234   0.548   1.831   0.814
 2445SOL    HW2 8235   0.556   1.787   0.971
 2446SOL     OW 8236   6.375   5.764   1.046
 2446SOL    HW1 8237   6.335   5.763   1.138
 2446SOL    HW2 8238   6.303   5.748   0.978
 2447SOL     OW 8239   1.847   6.694   0.418
 2447SOL    HW1 8240   1.781   6.740   0.476
 2447SOL    HW2 8241   1.921   6.757   0.395
 2448SOL     OW 8242   5.873   1.032   4.344
 2448SOL    HW1 8243   5.891   1.027   4.442
 2448SOL    HW2 8244   5.792   0.977   4.322
 2449SOL     OW 8245   2.273   4.216   1.320
 2449SOL    HW1 8246   2.210   4.157   1.370
 2449SOL    HW2 8247   2.313   4.282   1.383
 2450SOL     OW 8248   0.294   6.589   5.218
 2450SOL    HW1 8249   0.243   6.555   5.139
 2450SOL    HW2 8250   0.297   6.689   5.216
 2451SOL     OW 8251   1.397   0.155   6.952
 2451SOL    HW1 8252   1.401   0.149   0.028
 2451SOL    HW2 8253   1.474   0.106   6.911
 2452SOL     OW 8254   2.410   2.051   3.818
 2452SOL    HW1 8255   2.416   2.033   3.720
 2452SOL    HW2 8256   2.320   2.025   3.851
 2453SOL     OW 8257   1.596   1.801   6.452
 2453SOL    HW1 8258   1.671   1.866   6.469
 2453SOL    HW2 8259   1.545   1.831   6.371
 2454SOL     OW 8260   2.987   6.599   0.177
 2454SOL    HW1 8261   3.058   6.611   0.107
 2454SOL    HW2 8262   3.000   6.666   0.249
 2455SOL     OW 8263   4.586   2.414   0.040
 2455SOL    HW1 8264   4.621   2.459   0.121
 2455SOL    HW2 8265   4.541   2.481   7.004
 2456SOL     OW 8266   0.593   3.493   5.855
 2456SOL    HW1 8267   0.666   3.426   5.870
 2456SOL    HW2 8268   0.511   3.445   5.822
 2457SOL     OW 8269   5.131   1.249   6.028
 2457SOL    HW1 8270   5.099   1.305   5.951
 2457SOL    HW2 8271   5.120   1.152   6.006
 2458SOL     OW 8272   1.154   0.195   2.167
 2458SOL    HW1 8273   1.098   0.261   2.217
 2458SOL    HW2 8274   1.096   0.144   2.103
 2459SOL     OW 8275   1.694   6.532   1.278
 2459SOL    HW1 8276   1.760   6.475   1.228
 2459SOL    HW2 8277   1.695   6.505   1.374
 2460SOL     OW 8278   0.394   0.252   3.779
 2460SOL    HW1 8279   0.329   0.318   3.741
 2460SOL    HW2 8280   0.418   0.277   3.873
 2461SOL     OW 8281   2.939   1.306   3.308
 2461SOL    HW1 8282   2.959   1.208   3.307
 2461SOL    HW2 8283   2.854   1.322   3.357
 2462SOL     OW 8284   0.305   6.395   0.983
 2462SOL    HW1 8285   0.314   6.318   1.046
 2462SOL    HW2 8286   0.306   6.480   1.035
 2463SOL     OW 8287   0.019   6.992   1.071
 2463SOL    HW1 8288   6.947   7.020   1.058
 2463SOL    HW2 8289   0.074   0.048   1.097
 2464SOL     OW 8290   0.950   2.540   5.025
 2464SOL    HW1 8291   0.958   2.551   5.124
 2464SOL    HW2 8292   0.928   2.628   4.983
 2465SOL     OW 8293   6.310   1.604   6.774
 2465SOL    HW1 8294   6.222   1.586   6.818
 2465SOL    HW2 8295   6.296   1.612   6.675
 2466SOL     OW 8296   0.743   2.357   1.398
 2466SOL    HW1 8297   0.647   2.382   1.413
 2466SOL    HW2 8298   0.751   2.309   1.310
 2467SOL     OW 8299   5.162   2.373   5.307
 2467SOL    HW1 8300   5.149   2.278   5.337
 2467SOL    HW2 8301   5.080   2.403   5.258
 2468SOL     OW 8302   3.259   0.550   5.028
 2468SOL    HW1 8303   3.219   0.629   4.981
 2468SOL    HW2 8304   3.254   0.470   4.969
 2469SOL     OW 8305   2.767   1.632   6.100
 2469SOL    HW1 8306   2.816   1.710   6.060
 2469SOL    HW2 8307   2.822   1.549   6.090
 2470SOL     OW 8308   2.241   5.694   6.348
 2470SOL    HW1 8309   2.266   5.671   6.254
 2470SOL    HW2 8310   2.213   5.611   6.396
 2471SOL     OW 8311   3.168   5.789   3.061
 2471SOL    HW1 8312   3.132   5.804   2.969
 2471SOL    HW2 8313   3.217   5.702   3.064
 2472SOL     OW 8314   4.917   1.825   2.535
 2472SOL    HW1 8315   4.818   1.821   2.541
 2472SOL    HW2 8316   4.947   1.920   2.545
 2473SOL     OW 8317   0.596   4.359   4.324
 2473SOL    HW1 8318   0.549   4.372   4.412
 2473SOL    HW2 8319   0.625   4.264   4.315
 2474SOL     OW 8320   1.629   6.232   0.881
 2474SOL    HW1 8321   1.712   6.177   0.893
 2474SOL    HW2 8322   1.570   6.187   0.815
 2475SOL     OW 8323   5.758   2.422   0.973
 2475SOL    HW1 8324   5.848   2.381   0.964
 2475SOL    HW2 8325   5.688   2.351   0.968
 2476SOL     OW 8326   4.664   0.019   0.318
 2476SOL    HW1 8327   4.665   7.019   0.415
 2476SOL    HW2 8328   4.723   0.098   0.302
 2477SOL     OW 8329   3.678   0.504   3.455
 2477SOL    HW1 8330   3.683   0.456   3.542
 2477SOL    HW2 8331   3.674   0.602   3.471
 2478SOL     OW 8332   3.748   0.504   4.413
 2478SOL    HW1 8333   3.674   0.439   4.432
 2478SOL    HW2 8334   3.713   0.597   4.422
 2479SOL     OW 8335   5.222   3.848   1.383
 2479SOL    HW1 8336   5.251   3.762   1.339
 2479SOL    HW2 8337   5.129   3.869   1.354
 2480SOL     OW 8338   3.291   2.682   1.560
 2480SOL    HW1 8339   3.314   2.779   1.552
 2480SOL    HW2 8340   3.372   2.631   1.588
 2481SOL     OW 8341   3.188   0.281   1.708
 2481SOL    HW1 8342   3.284   0.299   1.686
 2481SOL    HW2 8343   3.172   0.182   1.706
 2482SOL     OW 8344   0.115   2.946   0.193
 2482SOL    HW1 8345   0.166   2.881   0.137
 2482SOL    HW2 8346   0.171   3.028   0.209
 2483SOL     OW 8347   2.527   2.323   1.047
 2483SOL    HW1 8348   2.478   2.236   1.061
 2483SOL    HW2 8349   2.552   2.331   0.950
 2484SOL     OW 8350   4.328   0.301   6.762
 2484SOL    HW1 8351   4.253   0.268   6.705
 2484SOL    HW2 8352   4.304   0.290   6.858
 2485SOL     OW 8353   0.248   1.684   6.341
 2485SOL    HW1 8354   0.245   1.598   6.291
 2485SOL    HW2 8355   0.343   1.712   6.354
 2486SOL     OW 8356   6.968   5.786   3.420
 2486SOL    HW1 8357   6.873   5.769   3.391
 2486SOL    HW2 8358   7.007   5.702   3.456
 2487SOL     OW 8359   5.022   6.147   0.234
 2487SOL    HW1 8360   4.940   6.111   0.278
 2487SOL    HW2 8361   4.995   6.214   0.164
 2488SOL     OW 8362   0.168   4.095   0.959
 2488SOL    HW1 8363   0.181   4.062   0.865
 2488SOL    HW2 8364   0.074   4.081   0.987
 2489SOL     OW 8365   6.232   5.213   4.527
 2489SOL    HW1 8366   6.303   5.241   4.592
 2489SOL    HW2 8367   6.274   5.194   4.438
 2490SOL     OW 8368   2.731   5.616   2.011
 2490SOL    HW1 8369   2.699   5.550   2.079
 2490SOL    HW2 8370   2.663   5.690   2.002
 2491SOL     OW 8371   3.735   4.651   1.524
 2491SOL    HW1 8372   3.749   4.562   1.567
 2491SOL    HW2 8373   3.824   4.692   1.503
 2492SOL     OW 8374   0.151   5.431   1.331
 2492SOL    HW1 8375   0.135   5.360   1.262
 2492SOL    HW2 8376   0.119   5.519   1.296
 2493SOL     OW 8377   5.641   6.580   0.551
 2493SOL    HW1 8378   5.707   6.506   0.547
 2493SOL    HW2 8379   5.599   6.583   0.642
 2494SOL     OW 8380   6.915   4.083   0.925
 2494SOL    HW1 8381   6.862   4.165   0.945
 2494SOL    HW2 8382   6.944   4.085   0.829
 2495SOL     OW 8383   0.218   3.370   1.760
 2495SOL    HW1 8384   0.195   3.444   1.698
 2495SOL    HW2 8385   0.141   3.306   1.765
 2496SOL     OW 8386   5.658   4.680   6.508
 2496SOL    HW1 8387   5.600   4.682   6.427
 2496SOL    HW2 8388   5.677   4.774   6.537
 2497SOL     OW 8389   0.458   0.119   2.494
 2497SOL    HW1 8390   0.420   0.073   2.575
 2497SOL    HW2 8391   0.542   0.166   2.519
 2498SOL     OW 8392   1.881   3.653   4.630
 2498SOL    HW1 8393   1.875   3.659   4.729
 2498SOL    HW2 8394   1.789   3.663   4.591
 2499SOL     OW 8395   5.926   3.588   2.224
 2499SOL    HW1 8396   5.948   3.519   2.155
 2499SOL    HW2 8397   5.835   3.570   2.261
 2500SOL     OW 8398   3.693   3.506   2.231
 2500SOL    HW1 8399   3.617   3.444   2.215
 2500SOL    HW2 8400   3.673   3.595   2.189
 2501SOL     OW 8401   5.867   5.190   6.070
 2501SOL    HW1 8402   5.798   5.187   6.142
 2501SOL    HW2 8403   5.866   5.104   6.019
 2502SOL     OW 8404   2.388   5.941   4.159
 2502SOL    HW1 8405   2.473   5.960   4.110
 2502SOL    HW2 8406   2.367   6.017   4.220
 2503SOL     OW 8407   2.294   0.167   5.016
 2503SOL    HW1 8408   2.388   0.156   4.985
 2503SOL    HW2 8409   2.236   0.196   4.940
 2504SOL     OW 8410   3.643   0.087   3.170
 2504SOL    HW1 8411   3.728   0.119   3.129
 2504SOL    HW2 8412   3.614   0.152   3.240
 2505SOL     OW 8413   6.130   4.318   3.934
 2505SOL    HW1 8414   6.154   4.227   3.899
 2505SOL    HW2 8415   6.148   4.321   4.033
 2506SOL     OW 8416   6.042   5.011   6.464
 2506SOL    HW1 8417   6.017   5.069   6.542
 2506SOL    HW2 8418   6.122   4.955   6.488
 2507SOL     OW 8419   6.665   3.135   2.791
 2507SOL    HW1 8420   6.701   3.056   2.840
 2507SOL    HW2 8421   6.567   3.123   2.776
 2508SOL     OW 8422   6.162   0.750   4.077
 2508SOL    HW1 8423   6.178   0.798   3.991
 2508SOL    HW2 8424   6.099   0.804   4.134
 2509SOL     OW 8425   0.145   2.886   6.197
 2509SOL    HW1 8426   0.130   2.807   6.256
 2509SOL    HW2 8427   0.109   2.866   6.106
 2510SOL     OW 8428   3.436   3.968   2.290
 2510SOL    HW1 8429   3.521   4.014   2.316
 2510SOL    HW2 8430   3.406   4.001   2.201
 2511SOL     OW 8431   1.686   0.752   4.487
 2511SOL    HW1 8432   1.743   0.696   4.428
 2511SOL    HW2 8433   1.741   0.789   4.562
 2512SOL     OW 8434   3.997   4.997   4.033
 2512SOL    HW1 8435   3.913   5.049   4.050
 2512SOL    HW2 8436   4.050   5.043   3.962
 2513SOL     OW 8437   1.984   5.830   6.612
 2513SOL    HW1 8438   2.041   5.790   6.540
 2513SOL    HW2 8439   1.894   5.787   6.611
 2514SOL     OW 8440   1.807   1.777   3.269
 2514SOL    HW1 8441   1.856   1.744   3.188
 2514SOL    HW2 8442   1.816   1.711   3.343
 2515SOL     OW 8443   0.217   1.898   1.112
 2515SOL    HW1 8444   0.158   1.924   1.189
 2515SOL    HW2 8445   0.281   1.973   1.094
 2516SOL     OW 8446   5.922   2.299   4.614
 2516SOL    HW1 8447   5.990   2.227   4.628
 2516SOL    HW2 8448   5.942   2.348   4.529
 2517SOL     OW 8449   0.535   1.329   3.688
 2517SOL    HW1 8450   0.524   1.236   3.725
 2517SOL    HW2 8451   0.449   1.380   3.700
 2518SOL     OW 8452   2.429   3.945   0.881
 2518SOL    HW1 8453   2.399   3.969   0.974
 2518SOL    HW2 8454   2.495   3.870   0.886
 2519SOL     OW 8455   0.851   1.202   1.229
 2519SOL    HW1 8456   0.802   1.200   1.141
 2519SOL    HW2 8457   0.833   1.290   1.274
 2520SOL     OW 8458   2.644   2.730   1.177
 2520SOL    HW1 8459   2.572   2.785   1.218
 2520SOL    HW2 8460   2.661   2.762   1.084
 2521SOL     OW 8461   5.024   0.640   4.746
 2521SOL    HW1 8462   5.084   0.715   4.773
 2521SOL    HW2 8463   5.066   0.552   4.771
 2522SOL     OW 8464   1.251   2.013   6.968
 2522SOL    HW1 8465   1.267   1.917   6.992
 2522SOL    HW2 8466   1.276   2.028   6.872
 2523SOL     OW 8467   0.812   5.671   6.397
 2523SOL    HW1 8468   0.767   5.754   6.430
 2523SOL    HW2 8469   0.838   5.683   6.301
 2524SOL     OW 8470   1.045   1.474   4.615
 2524SOL    HW1 8471   1.076   1.559   4.656
 2524SOL    HW2 8472   1.086   1.464   4.524
 2525SOL     OW 8473   6.230   2.769   5.888
 2525SOL    HW1 8474   6.311   2.743   5.939
 2525SOL    HW2 8475   6.246   2.858   5.843
 2526SOL     OW 8476   1.379   0.638   0.494
 2526SOL    HW1 8477   1.289   0.626   0.537
 2526SOL    HW2 8478   1.390   0.734   0.466
 2527SOL     OW 8479   3.639   5.187   6.713
 2527SOL    HW1 8480   3.608   5.196   6.618
 2527SOL    HW2 8481   3.631   5.091   6.742
 2528SOL     OW 8482   4.332   5.649   6.422
 2528SOL    HW1 8483   4.425   5.684   6.407
 2528SOL    HW2 8484   4.304   5.594   6.344
 2529SOL     OW 8485   0.374   6.384   5.609
 2529SOL    HW1 8486   0.465   6.360   5.640
 2529SOL    HW2 8487   0.346   6.321   5.536
 2530SOL     OW 8488   2.378   6.107   6.769
 2530SOL    HW1 8489   2.307   6.093   6.700
 2530SOL    HW2 8490   2.395   6.021   6.818
 2531SOL     OW 8491   0.058   5.056   6.289
 2531SOL    HW1 8492   0.069   4.965   6.331
 2531SOL    HW2 8493   6.985   5.072   6.268
 2532SOL     OW 8494   5.598   5.517   1.840
 2532SOL    HW1 8495   5.561   5.593   1.787
 2532SOL    HW2 8496   5.545   5.505   1.924
 2533SOL     OW 8497   4.481   1.106   3.920
 2533SOL    HW1 8498   4.422   1.117   3.840
 2533SOL    HW2 8499   4.576   1.120   3.893
 2534SOL     OW 8500   4.095   1.610   2.533
 2534SOL    HW1 8501   4.012   1.652   2.498
 2534SOL    HW2 8502   4.170   1.627   2.469
 2535SOL     OW 8503   3.769   2.738   6.257
 2535SOL    HW1 8504   3.783   2.684   6.340
 2535SOL    HW2 8505   3.722   2.823   6.281
 2536SOL     OW 8506   1.317   0.189   1.151
 2536SOL    HW1 8507   1.291   0.157   1.242
 2536SOL    HW2 8508   1.265   0.139   1.082
 2537SOL     OW 8509   3.960   6.792   5.775
 2537SOL    HW1 8510   3.979   6.724   5.704
 2537SOL    HW2 8511   3.986   6.883   5.742
 2538SOL     OW 8512   5.992   3.687   3.579
 2538SOL    HW1 8513   6.064   3.651   3.520
 2538SOL    HW2 8514   5.928   3.614   3.603
 2539SOL     OW 8515   4.771   2.795   5.419
 2539SOL    HW1 8516   4.714   2.772   5.340
 2539SOL    HW2 8517   4.730   2.757   5.502
 2540SOL     OW 8518   2.875   2.168   1.478
 2540SOL    HW1 8519   2.788   2.151   1.525
 2540SOL    HW2 8520   2.928   2.235   1.529
 2541SOL     OW 8521   3.172   6.949   3.937
 2541SOL    HW1 8522   3.238   6.874   3.938
 2541SOL    HW2 8523   3.111   6.940   4.015
 2542SOL     OW 8524   1.764   5.333   5.902
 2542SOL    HW1 8525   1.710   5.414   5.926
 2542SOL    HW2 8526   1.847   5.330   5.958
 2543SOL     OW 8527   0.300   0.482   4.173
 2543SOL    HW1 8528   0.319   0.394   4.218
 2543SOL    HW2 8529   0.334   0.557   4.229
 2544SOL     OW 8530   0.613   5.179   6.502
 2544SOL    HW1 8531   0.695   5.198   6.555
 2544SOL    HW2 8532   0.623   5.092   6.455
 2545SOL     OW 8533   2.549   5.973   3.690
 2545SOL    HW1 8534   2.492   6.032   3.633
 2545SOL    HW2 8535   2.490   5.926   3.756
 2546SOL     OW 8536   6.974   1.054   1.790
 2546SOL    HW1 8537   6.895   1.038   1.730
 2546SOL    HW2 8538   0.027   1.091   1.737
 2547SOL     OW 8539   0.842   3.067   5.162
 2547SOL    HW1 8540   0.798   3.098   5.246
 2547SOL    HW2 8541   0.901   3.139   5.127
 2548SOL     OW 8542   1.000   0.349   6.085
 2548SOL    HW1 8543   0.911   0.364   6.127
 2548SOL    HW2 8544   0.988   0.315   5.991
 2549SOL     OW 8545   5.953   2.902   2.325
 2549SOL    HW1 8546   5.920   2.995   2.309
 2549SOL    HW2 8547   5.881   2.837   2.301
 2550SOL     OW 8548   5.684   5.227   6.913
 2550SOL    HW1 8549   5.671   5.237   6.814
 2550SOL    HW2 8550   5.606   5.268   6.961
 2551SOL     OW 8551   0.918   5.097   0.192
 2551SOL    HW1 8552   1.006   5.142   0.184
 2551SOL    HW2 8553   0.845   5.164   0.179
 2552SOL     OW 8554   1.630   5.760   3.315
 2552SOL    HW1 8555   1.701   5.829   3.325
 2552SOL    HW2 8556   1.541   5.805   3.308
 2553SOL     OW 8557   3.975   3.619   6.899
 2553SOL    HW1 8558   3.997   3.538   6.952
 2553SOL    HW2 8559   4.006   3.606   6.804
 2554SOL     OW 8560   1.168   2.008   0.660
 2554SOL    HW1 8561   1.182   2.021   0.758
 2554SOL    HW2 8562   1.075   1.977   0.644
 2555SOL     OW 8563   0.107   0.332   6.548
 2555SOL    HW1 8564   0.172   0.350   6.473
 2555SOL    HW2 8565   0.117   0.402   6.618
 2556SOL     OW 8566   4.239   4.682   0.376
 2556SOL    HW1 8567   4.167   4.697   0.308
 2556SOL    HW2 8568   4.316   4.744   0.357
 2557SOL     OW 8569   1.470   4.469   6.652
 2557SOL    HW1 8570   1.505   4.456   6.745
 2557SOL    HW2 8571   1.388   4.412   6.639
 2558SOL     OW 8572   4.253   0.222   5.204
 2558SOL    HW1 8573   4.161   0.184   5.209
 2558SOL    HW2 8574   4.250   0.320   5.225
 2559SOL     OW 8575   0.530   4.912   4.793
 2559SOL    HW1 8576   0.625   4.923   4.824
 2559SOL    HW2 8577   0.482   4.999   4.800
 2560SOL     OW 8578   5.829   0.972   6.916
 2560SOL    HW1 8579   5.786   1.047   6.967
 2560SOL    HW2 8580   5.863   1.006   6.829
 2561SOL     OW 8581   3.127   5.776   3.832
 2561SOL    HW1 8582   3.045   5.832   3.821
 2561SOL    HW2 8583   3.101   5.680   3.843
 2562SOL     OW 8584   2.646   3.750   0.184
 2562SOL    HW1 8585   2.708   3.813   0.137
 2562SOL    HW2 8586   2.698   3.697   0.251
 2563SOL     OW 8587   1.781   0.995   1.460
 2563SOL    HW1 8588   1.809   0.911   1.507
 2563SOL    HW2 8589   1.711   1.041   1.513
 2564SOL     OW 8590   1.523   6.578   2.390
 2564SOL    HW1 8591   1.584   6.525   2.449
 2564SOL    HW2 8592   1.548   6.675   2.394
 2565SOL     OW 8593   0.367   0.901   1.489
 2565SOL    HW1 8594   0.429   0.824   1.504
 2565SOL    HW2 8595   0.419   0.986   1.487
 2566SOL     OW 8596   1.925   6.784   5.353
 2566SOL    HW1 8597   1.988   6.774   5.277
 2566SOL    HW2 8598   1.871   6.700   5.363
 2567SOL     OW 8599   0.892   0.933   0.515
 2567SOL    HW1 8600   0.907   0.875   0.434
 2567SOL    HW2 8601   0.903   1.029   0.489
 2568SOL     OW 8602   5.094   3.613   0.001
 2568SOL    HW1 8603   5.184   3.653   0.018
 2568SOL    HW2 8604   5.104   3.528   6.973
 2569SOL     OW 8605   2.550   0.707   2.425
 2569SOL    HW1 8606   2.576   0.793   2.468
 2569SOL    HW2 8607   2.612   0.687   2.349
 2570SOL     OW 8608   5.218   2.417   5.870
 2570SOL    HW1 8609   5.237   2.355   5.947
 2570SOL    HW2 8610   5.283   2.494   5.873
 2571SOL     OW 8611   0.500   4.068   4.549
 2571SOL    HW1 8612   0.492   4.167   4.559
 2571SOL    HW2 8613   0.569   4.034   4.613
 2572SOL     OW 8614   1.553   4.714   3.726
 2572SOL    HW1 8615   1.595   4.730   3.815
 2572SOL    HW2 8616   1.515   4.621   3.723
 2573SOL     OW 8617   1.242   0.044   0.400
 2573SOL    HW1 8618   1.327   0.066   0.352
 2573SOL    HW2 8619   1.192   0.128   0.421
 2574SOL     OW 8620   6.575   3.444   0.211
 2574SOL    HW1 8621   6.618   3.527   0.245
 2574SOL    HW2 8622   6.542   3.389   0.289
 2575SOL     OW 8623   0.584   6.289   6.135
 2575SOL    HW1 8624   0.631   6.204   6.110
 2575SOL    HW2 8625   0.584   6.351   6.056
 2576SOL     OW 8626   4.338   6.367   4.846
 2576SOL    HW1 8627   4.292   6.303   4.785
 2576SOL    HW2 8628   4.346   6.456   4.802
 2577SOL     OW 8629   1.555   3.938   2.709
 2577SOL    HW1 8630   1.502   3.886   2.642
 2577SOL    HW2 8631   1.626   3.880   2.748
 2578SOL     OW 8632   4.271   1.960   2.449
 2578SOL    HW1 8633   4.266   1.995   2.543
 2578SOL    HW2 8634   4.263   1.860   2.451
 2579SOL     OW 8635   0.589   6.615   2.433
 2579SOL    HW1 8636   0.634   6.526   2.432
 2579SOL    HW2 8637   0.560   6.639   2.340
 2580SOL     OW 8638   2.367   1.499   5.977
 2580SOL    HW1 8639   2.441   1.529   5.917
 2580SOL    HW2 8640   2.371   1.549   6.064
 2581SOL     OW 8641   3.090   0.695   5.599
 2581SOL    HW1 8642   3.025   0.688   5.674
 2581SOL    HW2 8643   3.178   0.657   5.628
 2582SOL     OW 8644   6.810   3.738   1.339
 2582SOL    HW1 8645   6.733   3.777   1.288
 2582SOL    HW2 8646   6.870   3.688   1.277
 2583SOL     OW 8647   5.873   0.556   1.228
 2583SOL    HW1 8648   5.847   0.641   1.182
 2583SOL    HW2 8649   5.916   0.494   1.162
 2584SOL     OW 8650   3.643   4.223   6.500
 2584SOL    HW1 8651   3.662   4.321   6.494
 2584SOL    HW2 8652   3.718   4.177   6.548
 2585SOL     OW 8653   2.790   5.557   0.052
 2585SOL    HW1 8654   2.734   5.576   6.994
 2585SOL    HW2 8655   2.731   5.545   0.132
 2586SOL     OW 8656   2.416   0.632   3.860
 2586SOL    HW1 8657   2.392   0.621   3.764
 2586SOL    HW2 8658   2.514   0.623   3.872
 2587SOL     OW 8659   5.976   0.693   4.586
 2587SOL    HW1 8660   5.952   0.646   4.502
 2587SOL    HW2 8661   5.954   0.635   4.665
 2588SOL     OW 8662   4.652   0.506   0.020
 2588SOL    HW1 8663   4.677   0.569   6.970
 2588SOL    HW2 8664   4.734   0.466   0.060
 2589SOL     OW 8665   2.044   6.046   0.483
 2589SOL    HW1 8666   2.114   6.100   0.530
 2589SOL    HW2 8667   1.982   6.108   0.435
 2590SOL     OW 8668   2.920   5.702   0.263
 2590SOL    HW1 8669   2.882   5.660   0.180
 2590SOL    HW2 8670   2.874   5.664   0.343
 2591SOL     OW 8671   5.415   6.119   2.821
 2591SOL    HW1 8672   5.481   6.186   2.788
 2591SOL    HW2 8673   5.329   6.130   2.770
 2592SOL     OW 8674   3.290   3.322   0.974
 2592SOL    HW1 8675   3.279   3.306   0.876
 2592SOL    HW2 8676   3.215   3.277   1.023
 2593SOL     OW 8677   3.520   4.718   6.975
 2593SOL    HW1 8678   3.421   4.722   6.962
 2593SOL    HW2 8679   3.565   4.777   6.908
 2594SOL     OW 8680   2.123   3.282   3.706
 2594SOL    HW1 8681   2.106   3.197   3.656
 2594SOL    HW2 8682   2.106   3.360   3.646
 2595SOL     OW 8683   2.080   1.314   2.821
 2595SOL    HW1 8684   2.166   1.363   2.808
 2595SOL    HW2 8685   2.005   1.367   2.782
 2596SOL     OW 8686   0.079   2.013   0.379
 2596SOL    HW1 8687   0.046   2.014   0.473
 2596SOL    HW2 8688   0.179   2.018   0.379
 2597SOL     OW 8689   6.715   6.533   0.448
 2597SOL    HW1 8690   6.730   6.461   0.380
 2597SOL    HW2 8691   6.764   6.509   0.532
 2598SOL     OW 8692   4.709   2.589   2.362
 2598SOL    HW1 8693   4.672   2.549   2.445
 2598SOL    HW2 8694   4.749   2.679   2.382
 2599SOL     OW 8695   2.493   5.900   2.735
 2599SOL    HW1 8696   2.533   5.819   2.778
 2599SOL    HW2 8697   2.477   5.970   2.805
 2600SOL     OW 8698   5.875   3.712   4.568
 2600SOL    HW1 8699   5.832   3.679   4.484
 2600SOL    HW2 8700   5.903   3.808   4.556
 2601SOL     OW 8701   6.804   1.356   4.661
 2601SOL    HW1 8702   6.847   1.270   4.688
 2601SOL    HW2 8703   6.773   1.404   4.743
 2602SOL     OW 8704   1.045   4.812   2.573
 2602SOL    HW1 8705   1.111   4.830   2.646
 2602SOL    HW2 8706   0.954   4.800   2.613
 2603SOL     OW 8707   2.313   6.015   2.558
 2603SOL    HW1 8708   2.402   6.003   2.602
 2603SOL    HW2 8709   2.240   6.004   2.626
 2604SOL     OW 8710   4.643   2.674   3.349
 2604SOL    HW1 8711   4.622   2.760   3.395
 2604SOL    HW2 8712   4.576   2.605   3.375
 2605SOL     OW 8713   1.523   2.998   1.434
 2605SOL    HW1 8714   1.572   2.950   1.361
 2605SOL    HW2 8715   1.463   2.934   1.482
 2606SOL     OW 8716   5.062   3.718   1.084
 2606SOL    HW1 8717   5.147   3.710   1.137
 2606SOL    HW2 8718   5.066   3.799   1.026
 2607SOL     OW 8719   2.444   3.152   1.588
 2607SOL    HW1 8720   2.525   3.210   1.580
 2607SOL    HW2 8721   2.363   3.209   1.601
 2608SOL     OW 8722   3.155   5.481   4.974
 2608SOL    HW1 8723   3.108   5.404   4.930
 2608SOL    HW2 8724   3.216   5.525   4.909
 2609SOL     OW 8725   0.604   1.817   1.305
 2609SOL    HW1 8726   0.639   1.863   1.223
 2609SOL    HW2 8727   0.676   1.811   1.373
 2610SOL     OW 8728   1.251   4.128   4.878
 2610SOL    HW1 8729   1.191   4.158   4.804
 2610SOL    HW2 8730   1.281   4.208   4.931
 2611SOL     OW 8731   5.717   0.416   5.427
 2611SOL    HW1 8732   5.693   0.495   5.370
 2611SOL    HW2 8733   5.723   0.445   5.522
 2612SOL     OW 8734   7.008   6.644   0.151
 2612SOL    HW1 8735   0.059   6.679   0.094
 2612SOL    HW2 8736   6.938   6.603   0.093
 2613SOL     OW 8737   1.584   6.862   0.272
 2613SOL    HW1 8738   1.556   6.773   0.237
 2613SOL    HW2 8739   1.618   6.851   0.366
 2614SOL     OW 8740   5.766   2.226   0.679
 2614SOL    HW1 8741   5.748   2.299   0.613
 2614SOL    HW2 8742   5.864   2.224   0.700
 2615SOL     OW 8743   0.795   3.374   6.947
 2615SOL    HW1 8744   0.711   3.362   6.999
 2615SOL    HW2 8745   0.874   3.361   7.008
 2616SOL     OW 8746   1.092   0.895   4.314
 2616SOL    HW1 8747   1.112   0.946   4.231
 2616SOL    HW2 8748   1.120   0.948   4.394
 2617SOL     OW 8749   5.350   0.090   1.260
 2617SOL    HW1 8750   5.393   0.156   1.322
 2617SOL    HW2 8751   5.420   0.042   1.208
 2618SOL     OW 8752   1.267   0.219   6.727
 2618SOL    HW1 8753   1.311   0.209   6.816
 2618SOL    HW2 8754   1.267   0.316   6.701
 2619SOL     OW 8755   5.014   1.519   2.803
 2619SOL    HW1 8756   5.074   1.446   2.835
 2619SOL    HW2 8757   4.934   1.479   2.759
 2620SOL     OW 8758   6.076   2.525   2.209
 2620SOL    HW1 8759   6.172   2.504   2.189
 2620SOL    HW2 8760   6.038   2.580   2.135
 2621SOL     OW 8761   2.439   6.472   1.381
 2621SOL    HW1 8762   2.406   6.378   1.383
 2621SOL    HW2 8763   2.487   6.490   1.295
 2622SOL     OW 8764   2.479   3.528   6.795
 2622SOL    HW1 8765   2.469   3.456   6.863
 2622SOL    HW2 8766   2.571   3.568   6.802
 2623SOL     OW 8767   7.016   0.848   4.091
 2623SOL    HW1 8768   6.945   0.905   4.050
 2623SOL    HW2 8769   6.984   0.814   4.179
 2624SOL     OW 8770   1.020   1.809   5.589
 2624SOL    HW1 8771   1.016   1.893   5.645
 2624SOL    HW2 8772   0.927   1.782   5.565
 2625SOL     OW 8773   2.579   5.534   5.540
 2625SOL    HW1 8774   2.507   5.521   5.608
 2625SOL    HW2 8775   2.661   5.486   5.570
 2626SOL     OW 8776   0.141   6.833   7.004
 2626SOL    HW1 8777   0.152   6.932   7.008
 2626SOL    HW2 8778   0.115   6.806   6.911
 2627SOL     OW 8779   2.320   0.330   5.605
 2627SOL    HW1 8780   2.363   0.306   5.692
 2627SOL    HW2 8781   2.313   0.430   5.598
 2628SOL     OW 8782   0.156   4.996   1.272
 2628SOL    HW1 8783   0.220   5.055   1.323
 2628SOL    HW2 8784   0.145   5.032   1.180
 2629SOL     OW 8785   3.051   3.827   2.947
 2629SOL    HW1 8786   3.033   3.852   2.852
 2629SOL    HW2 8787   2.990   3.752   2.974
 2630SOL     OW 8788   3.408   0.838   4.743
 2630SOL    HW1 8789   3.365   0.919   4.783
 2630SOL    HW2 8790   3.340   0.767   4.728
 2631SOL     OW 8791   4.761   5.963   0.299
 2631SOL    HW1 8792   4.674   5.928   0.334
 2631SOL    HW2 8793   4.834   5.897   0.319
 2632SOL     OW 8794   5.436   5.300   1.700
 2632SOL    HW1 8795   5.363   5.298   1.768
 2632SOL    HW2 8796   5.508   5.362   1.731
 2633SOL     OW 8797   6.987   3.189   6.096
 2633SOL    HW1 8798   6.989   3.098   6.054
 2633SOL    HW2 8799   6.903   3.200   6.149
 2634SOL     OW 8800   1.678   1.768   6.100
 2634SOL    HW1 8801   1.593   1.806   6.136
 2634SOL    HW2 8802   1.706   1.820   6.020
 2635SOL     OW 8803   3.886   5.270   2.781
 2635SOL    HW1 8804   3.963   5.323   2.746
 2635SOL    HW2 8805   3.829   5.329   2.838
 2636SOL     OW 8806   3.364   6.592   6.184
 2636SOL    HW1 8807   3.416   6.559   6.263
 2636SOL    HW2 8808   3.299   6.522   6.156
 2637SOL     OW 8809   0.322   1.509   3.256
 2637SOL    HW1 8810   0.414   1.472   3.245
 2637SOL    HW2 8811   0.282   1.525   3.165
 2638SOL     OW 8812   0.522   6.201   4.930
 2638SOL    HW1 8813   0.548   6.296   4.916
 2638SOL    HW2 8814   0.472   6.168   4.849
 2639SOL     OW 8815   4.995   5.238   4.978
 2639SOL    HW1 8816   5.047   5.239   4.892
 2639SOL    HW2 8817   4.947   5.325   4.990
 2640SOL     OW 8818   2.088   0.994   3.163
 2640SOL    HW1 8819   2.021   1.031   3.227
 2640SOL    HW2 8820   2.067   1.027   3.071
 2641SOL     OW 8821   5.220   2.502   0.057
 2641SOL    HW1 8822   5.259   2.594   0.070
 2641SOL    HW2 8823   5.187   2.468   0.145
 2642SOL     OW 8824   6.996   0.266   2.288
 2642SOL    HW1 8825   0.050   0.224   2.241
 2642SOL    HW2 8826   0.001   0.355   2.325
 2643SOL     OW 8827   1.939   4.914   3.891
 2643SOL    HW1 8828   1.839   4.908   3.892
 2643SOL    HW2 8829   1.974   4.898   3.983
 2644SOL     OW 8830   5.718   5.416   3.724
 2644SOL    HW1 8831   5.648   5.371   3.667
 2644SOL    HW2 8832   5.673   5.469   3.795
 2645SOL     OW 8833   4.578   5.605   2.373
 2645SOL    HW1 8834   4.552   5.671   2.303
 2645SOL    HW2 8835   4.594   5.652   2.459
 2646SOL     OW 8836   1.303   2.112   6.319
 2646SOL    HW1 8837   1.226   2.074   6.371
 2646SOL    HW2 8838   1.273   2.135   6.227
 2647SOL     OW 8839   4.049   6.903   2.553
 2647SOL    HW1 8840   4.040   6.854   2.639
 2647SOL    HW2 8841   4.129   6.870   2.504
 2648SOL     OW 8842   1.686   0.523   5.554
 2648SOL    HW1 8843   1.604   0.467   5.543
 2648SOL    HW2 8844   1.686   0.565   5.644
 2649SOL     OW 8845   6.411   2.184   3.869
 2649SOL    HW1 8846   6.469   2.165   3.790
 2649SOL    HW2 8847   6.338   2.116   3.875
 2650SOL     OW 8848   2.035   6.993   4.404
 2650SOL    HW1 8849   1.997   6.924   4.342
 2650SOL    HW2 8850   2.048   6.952   4.494
 2651SOL     OW 8851   3.866   1.581   3.338
 2651SOL    HW1 8852   3.914   1.665   3.364
 2651SOL    HW2 8853   3.768   1.597   3.336
 2652SOL     OW 8854   4.885   3.810   5.451
 2652SOL    HW1 8855   4.938   3.884   5.493
 2652SOL    HW2 8856   4.896   3.726   5.505
 2653SOL     OW 8857   1.878   6.109   0.077
 2653SOL    HW1 8858   1.970   6.113   0.039
 2653SOL    HW2 8859   1.817   6.167   0.023
 2654SOL     OW 8860   0.266   1.012   0.726
 2654SOL    HW1 8861   0.196   0.947   0.754
 2654SOL    HW2 8862   0.339   0.964   0.678
 2655SOL     OW 8863   5.172   0.240   2.834
 2655SOL    HW1 8864   5.217   0.278   2.753
 2655SOL    HW2 8865   5.239   0.227   2.906
 2656SOL     OW 8866   4.787   6.521   4.244
 2656SOL    HW1 8867   4.836   6.433   4.246
 2656SOL    HW2 8868   4.733   6.530   4.328
 2657SOL     OW 8869   1.602   3.422   6.911
 2657SOL    HW1 8870   1.583   3.519   6.894
 2657SOL    HW2 8871   1.590   3.402   7.008
 2658SOL     OW 8872   3.200   4.213   0.184
 2658SOL    HW1 8873   3.273   4.237   0.248
 2658SOL    HW2 8874   3.123   4.277   0.196
 2659SOL     OW 8875   0.112   2.287   5.387
 2659SOL    HW1 8876   0.159   2.212   5.341
 2659SOL    HW2 8877   0.121   2.277   5.486
 2660SOL     OW 8878   1.026   1.328   0.780
 2660SOL    HW1 8879   1.121   1.360   0.773
 2660SOL    HW2 8880   0.964   1.402   0.753
 2661SOL     OW 8881   1.946   1.090   1.213
 2661SOL    HW1 8882   1.901   1.044   1.290
 2661SOL    HW2 8883   2.011   1.027   1.171
 2662SOL     OW 8884   2.976   1.612   1.511
 2662SOL    HW1 8885   3.048   1.665   1.555
 2662SOL    HW2 8886   2.936   1.666   1.437
 2663SOL     OW 8887   4.087   0.869   0.783
 2663SOL    HW1 8888   4.154   0.921   0.730
 2663SOL    HW2 8889   3.996   0.907   0.766
 2664SOL     OW 8890   4.827   2.952   5.886
 2664SOL    HW1 8891   4.826   3.022   5.815
 2664SOL    HW2 8892   4.906   2.893   5.875
 2665SOL     OW 8893   1.368   3.385   4.339
 2665SOL    HW1 8894   1.278   3.355   4.307
 2665SOL    HW2 8895   1.376   3.484   4.330
 2666SOL     OW 8896   1.871   4.198   1.931
 2666SOL    HW1 8897   1.965   4.215   1.958
 2666SOL    HW2 8898   1.811   4.202   2.011
 2667SOL     OW 8899   6.230   2.744   4.832
 2667SOL    HW1 8900   6.227   2.767   4.930
 2667SOL    HW2 8901   6.315   2.780   4.793
 2668SOL     OW 8902   5.700   0.819   4.215
 2668SOL    HW1 8903   5.748   0.732   4.201
 2668SOL    HW2 8904   5.689   0.865   4.127
 2669SOL     OW 8905   2.367   1.096   1.791
 2669SOL    HW1 8906   2.417   1.053   1.866
 2669SOL    HW2 8907   2.345   1.190   1.814
 2670SOL     OW 8908   0.784   0.643   0.753
 2670SOL    HW1 8909   0.845   0.721   0.741
 2670SOL    HW2 8910   0.782   0.590   0.668
 2671SOL     OW 8911   5.337   4.100   6.108
 2671SOL    HW1 8912   5.293   4.171   6.163
 2671SOL    HW2 8913   5.292   4.012   6.125
 2672SOL     OW 8914   2.071   1.914   2.687
 2672SOL    HW1 8915   2.090   1.995   2.631
 2672SOL    HW2 8916   2.075   1.939   2.784
 2673SOL     OW 8917   3.291   0.088   2.674
 2673SOL    HW1 8918   3.220   0.083   2.744
 2673SOL    HW2 8919   3.381   0.088   2.718
 2674SOL     OW 8920   6.317   5.791   3.235
 2674SOL    HW1 8921   6.404   5.837   3.250
 2674SOL    HW2 8922   6.284   5.811   3.143
 2675SOL     OW 8923   4.509   1.136   4.769
 2675SOL    HW1 8924   4.582   1.164   4.707
 2675SOL    HW2 8925   4.460   1.058   4.730
 2676SOL     OW 8926   3.866   3.109   4.679
 2676SOL    HW1 8927   3.814   3.082   4.599
 2676SOL    HW2 8928   3.938   3.174   4.652
 2677SOL     OW 8929   1.631   5.724   0.486
 2677SOL    HW1 8930   1.579   5.786   0.426
 2677SOL    HW2 8931   1.630   5.760   0.579
 2678SOL     OW 8932   3.627   1.694   2.222
 2678SOL    HW1 8933   3.540   1.648   2.240
 2678SOL    HW2 8934   3.620   1.790   2.249
 2679SOL     OW 8935   2.059   3.462   2.478
 2679SOL    HW1 8936   2.077   3.377   2.429
 2679SOL    HW2 8937   2.086   3.451   2.574
 2680SOL     OW 8938   5.626   2.615   6.772
 2680SOL    HW1 8939   5.718   2.651   6.783
 2680SOL    HW2 8940   5.613   2.536   6.832
 2681SOL     OW 8941   2.486   2.362   3.565
 2681SOL    HW1 8942   2.496   2.263   3.570
 2681SOL    HW2 8943   2.483   2.400   3.658
 2682SOL     OW 8944   3.789   3.994   2.145
 2682SOL    HW1 8945   3.749   4.081   2.113
 2682SOL    HW2 8946   3.759   3.977   2.239
 2683SOL     OW 8947   1.731   3.659   1.500
 2683SOL    HW1 8948   1.735   3.746   1.451
 2683SOL    HW2 8949   1.686   3.591   1.443
 2684SOL     OW 8950   5.439   0.544   3.594
 2684SOL    HW1 8951   5.407   0.639   3.585
 2684SOL    HW2 8952   5.523   0.542   3.648
 2685SOL     OW 8953   1.380   6.731   5.719
 2685SOL    HW1 8954   1.435   6.649   5.703
 2685SOL    HW2 8955   1.439   6.812   5.715
 2686SOL     OW 8956   1.846   1.595   6.288
 2686SOL    HW1 8957   1.821   1.499   6.279
 2686SOL    HW2 8958   1.787   1.651   6.230
 2687SOL     OW 8959   4.152   2.434   1.816
 2687SOL    HW1 8960   4.221   2.473   1.877
 2687SOL    HW2 8961   4.082   2.387   1.870
 2688SOL     OW 8962   3.793   2.852   6.666
 2688SOL    HW1 8963   3.892   2.864   6.673
 2688SOL    HW2 8964   3.772   2.766   6.620
 2689SOL     OW 8965   6.798   3.425   2.738
 2689SOL    HW1 8966   6.798   3.523   2.757
 2689SOL    HW2 8967   6.704   3.392   2.732
 2690SOL     OW 8968   5.360   1.149   4.967
 2690SOL    HW1 8969   5.277   1.193   4.934
 2690SOL    HW2 8970   5.402   1.095   4.894
 2691SOL     OW 8971   6.945   3.319   4.628
 2691SOL    HW1 8972   6.960   3.257   4.705
 2691SOL    HW2 8973   7.016   3.305   4.559
 2692SOL     OW 8974   2.031   5.161   1.884
 2692SOL    HW1 8975   1.961   5.136   1.951
 2692SOL    HW2 8976   2.032   5.094   1.810
 2693SOL     OW 8977   0.391   4.939   2.777
 2693SOL    HW1 8978   0.333   4.858   2.781
 2693SOL    HW2 8979   0.373   4.998   2.856
 2694SOL     OW 8980   2.277   0.576   2.210
 2694SOL    HW1 8981   2.207   0.505   2.203
 2694SOL    HW2 8982   2.297   0.611   2.119
 2695SOL     OW 8983   6.721   5.732   3.363
 2695SOL    HW1 8984   6.752   5.684   3.281
 2695SOL    HW2 8985   6.643   5.789   3.342
 2696SOL     OW 8986   3.824   4.375   6.223
 2696SOL    HW1 8987   3.761   4.427   6.166
 2696SOL    HW2 8988   3.833   4.419   6.312
 2697SOL     OW 8989   3.850   2.778   0.163
 2697SOL    HW1 8990   3.898   2.822   0.087
 2697SOL    HW2 8991   3.788   2.843   0.206
 2698SOL     OW 8992   1.570   5.643   0.033
 2698SOL    HW1 8993   1.643   5.706   0.061
 2698SOL    HW2 8994   1.489   5.695   0.006
 2699SOL     OW 8995   2.776   6.889   1.877
 2699SOL    HW1 8996   2.728   6.868   1.962
 2699SOL    HW2 8997   2.709   6.923   1.809
 2700SOL     OW 8998   4.700   2.350   1.669
 2700SOL    HW1 8999   4.645   2.400   1.602
 2700SOL    HW2 9000   4.640   2.292   1.724
 2701SOL     OW 9001   5.299   3.576   5.110
 2701SOL    HW1 9002   5.244   3.496   5.131
 2701SOL    HW2 9003   5.264   3.620   5.028
 2702SOL     OW 9004   1.775   1.309   4.395
 2702SOL    HW1 9005   1.813   1.346   4.479
 2702SOL    HW2 9006   1.744   1.384   4.336
 2703SOL     OW 9007   2.164   5.964   2.026
 2703SOL    HW1 9008   2.114   6.051   2.034
 2703SOL    HW2 9009   2.117   5.894   2.080
 2704SOL     OW 9010   4.247   0.821   3.474
 2704SOL    HW1 9011   4.160   0.776   3.491
 2704SOL    HW2 9012   4.299   0.827   3.560
 2705SOL     OW 9013   1.326   6.979   5.371
 2705SOL    HW1 9014   1.385   6.926   5.310
 2705SOL    HW2 9015   1.284   6.918   5.438
 2706SOL     OW 9016   6.887   4.652   3.779
 2706SOL    HW1 9017   6.981   4.674   3.804
 2706SOL    HW2 9018   6.824   4.711   3.831
 2707SOL     OW 9019   4.824   1.429   3.056
 2707SOL    HW1 9020   4.905   1.392   3.011
 2707SOL    HW2 9021   4.775   1.488   2.993
 2708SOL     OW 9022   4.917   3.331   5.920
 2708SOL    HW1 9023   4.897   3.277   5.838
 2708SOL    HW2 9024   5.000   3.294   5.964
 2709SOL     OW 9025   5.367   1.277   5.837
 2709SOL    HW1 9026   5.309   1.356   5.855
 2709SOL    HW2 9027   5.310   1.195   5.828
 2710SOL     OW 9028   1.101   2.650   4.206
 2710SOL    HW1 9029   1.165   2.688   4.273
 2710SOL    HW2 9030   1.035   2.591   4.251
 2711SOL     OW 9031   4.496   0.806   1.440
 2711SOL    HW1 9032   4.479   0.876   1.370
 2711SOL    HW2 9033   4.452   0.833   1.525
 2712SOL     OW 9034   5.211   6.022   1.622
 2712SOL    HW1 9035   5.213   6.112   1.579
 2712SOL    HW2 9036   5.179   6.031   1.717
 2713SOL     OW 9037   3.581   5.191   5.661
 2713SOL    HW1 9038   3.538   5.278   5.685
 2713SOL    HW2 9039   3.512   5.130   5.620
 2714SOL     OW 9040   3.082   4.204   6.144
 2714SOL    HW1 9041   3.106   4.182   6.238
 2714SOL    HW2 9042   2.986   4.234   6.140
 2715SOL     OW 9043   4.642   6.231   6.837
 2715SOL    HW1 9044   4.543   6.227   6.849
 2715SOL    HW2 9045   4.686   6.211   6.925
 2716SOL     OW 9046   4.256   1.182   2.669
 2716SOL    HW1 9047   4.254   1.085   2.644
 2716SOL    HW2 9048   4.199   1.233   2.606
 2717SOL     OW 9049   1.196   2.080   2.666
 2717SOL    HW1 9050   1.286   2.052   2.696
 2717SOL    HW2 9051   1.196   2.092   2.566
 2718SOL     OW 9052   6.507   1.598   5.911
 2718SOL    HW1 9053   6.408   1.611   5.911
 2718SOL    HW2 9054   6.542   1.608   6.004
 2719SOL     OW 9055   0.817   4.786   3.273
 2719SOL    HW1 9056   0.795   4.692   3.247
 2719SOL    HW2 9057   0.829   4.842   3.191
 2720SOL     OW 9058   1.989   5.241   6.464
 2720SOL    HW1 9059   2.014   5.200   6.376
 2720SOL    HW2 9060   1.891   5.263   6.463
 2721SOL     OW 9061   2.335   6.650   3.386
 2721SOL    HW1 9062   2.252   6.617   3.340
 2721SOL    HW2 9063   2.415   6.608   3.344
 2722SOL     OW 9064   3.349   4.772   6.542
 2722SOL    HW1 9065   3.258   4.790   6.504
 2722SOL    HW2 9066   3.343   4.699   6.610
 2723SOL     OW 9067   4.132   5.658   6.832
 2723SOL    HW1 9068   4.044   5.660   6.878
 2723SOL    HW2 9069   4.119   5.648   6.734
 2724SOL     OW 9070   6.634   5.723   0.978
 2724SOL    HW1 9071   6.642   5.624   0.973
 2724SOL    HW2 9072   6.541   5.748   1.005
 2725SOL     OW 9073   6.075   5.021   3.148
 2725SOL    HW1 9074   6.088   5.099   3.086
 2725SOL    HW2 9075   6.044   4.942   3.095
 2726SOL     OW 9076   6.494   2.520   2.969
 2726SOL    HW1 9077   6.512   2.617   2.951
 2726SOL    HW2 9078   6.485   2.470   2.883
 2727SOL     OW 9079   1.512   5.258   3.928
 2727SOL    HW1 9080   1.454   5.177   3.934
 2727SOL    HW2 9081   1.600   5.232   3.887
 2728SOL     OW 9082   5.176   5.360   5.683
 2728SOL    HW1 9083   5.234   5.414   5.744
 2728SOL    HW2 9084   5.113   5.305   5.738
 2729SOL     OW 9085   6.830   6.897   0.095
 2729SOL    HW1 9086   6.918   6.877   0.137
 2729SOL    HW2 9087   6.827   6.994   0.068
 2730SOL     OW 9088   1.380   5.472   3.030
 2730SOL    HW1 9089   1.445   5.542   3.059
 2730SOL    HW2 9090   1.376   5.471   2.930
 2731SOL     OW 9091   3.932   3.706   5.173
 2731SOL    HW1 9092   3.998   3.710   5.248
 2731SOL    HW2 9093   3.841   3.684   5.209
 2732SOL     OW 9094   4.706   0.541   1.741
 2732SOL    HW1 9095   4.654   0.554   1.657
 2732SOL    HW2 9096   4.759   0.623   1.760
 2733SOL     OW 9097   0.770   0.530   0.508
 2733SOL    HW1 9098   0.797   0.465   0.437
 2733SOL    HW2 9099   0.674   0.556   0.496
 2734SOL     OW 9100   3.135   0.347   2.677
 2734SOL    HW1 9101   3.222   0.298   2.679
 2734SOL    HW2 9102   3.150   0.444   2.695
 2735SOL     OW 9103   1.346   2.750   2.843
 2735SOL    HW1 9104   1.375   2.728   2.937
 2735SOL    HW2 9105   1.404   2.823   2.807
 2736SOL     OW 9106   5.722   4.634   2.683
 2736SOL    HW1 9107   5.691   4.693   2.758
 2736SOL    HW2 9108   5.730   4.688   2.599
 2737SOL     OW 9109   3.141   0.503   5.809
 2737SOL    HW1 9110   3.042   0.497   5.817
 2737SOL    HW2 9111   3.184   0.463   5.890
 2738SOL     OW 9112   5.211   6.257   0.927
 2738SOL    HW1 9113   5.160   6.334   0.965
 2738SOL    HW2 9114   5.192   6.249   0.829
 2739SOL     OW 9115   0.733   5.333   1.686
 2739SOL    HW1 9116   0.817   5.381   1.661
 2739SOL    HW2 9117   0.755   5.245   1.727
 2740SOL     OW 9118   6.988   5.408   4.320
 2740SOL    HW1 9119   6.944   5.487   4.364
 2740SOL    HW2 9120   0.033   5.369   4.381
 2741SOL     OW 9121   0.908   7.006   6.491
 2741SOL    HW1 9122   0.914   6.921   6.439
 2741SOL    HW2 9123   1.000   0.013   6.517
 2742SOL     OW 9124   2.944   5.014   2.717
 2742SOL    HW1 9125   2.851   4.983   2.737
 2742SOL    HW2 9126   2.949   5.044   2.621
 2743SOL     OW 9127   5.471   1.899   2.642
 2743SOL    HW1 9128   5.564   1.934   2.638
 2743SOL    HW2 9129   5.432   1.918   2.732
 2744SOL     OW 9130   3.439   4.102   2.555
 2744SOL    HW1 9131   3.477   4.120   2.646
 2744SOL    HW2 9132   3.514   4.091   2.490
 2745SOL     OW 9133   0.493   6.249   0.089
 2745SOL    HW1 9134   0.493   6.337   0.041
 2745SOL    HW2 9135   0.401   6.230   0.122
 2746SOL     OW 9136   1.386   0.869   4.629
 2746SOL    HW1 9137   1.336   0.825   4.704
 2746SOL    HW2 9138   1.461   0.923   4.666
 2747SOL     OW 9139   4.462   4.863   0.295
 2747SOL    HW1 9140   4.493   4.910   0.377
 2747SOL    HW2 9141   4.525   4.788   0.274
 2748SOL     OW 9142   4.199   0.328   1.236
 2748SOL    HW1 9143   4.203   0.349   1.138
 2748SOL    HW2 9144   4.279   0.366   1.282
 2749SOL     OW 9145   3.816   1.229   0.567
 2749SOL    HW1 9146   3.805   1.303   0.500
 2749SOL    HW2 9147   3.912   1.205   0.575
 2750SOL     OW 9148   2.775   6.043   2.900
 2750SOL    HW1 9149   2.697   6.042   2.963
 2750SOL    HW2 9150   2.827   5.958   2.910
 2751SOL     OW 9151   6.255   5.189   1.270
 2751SOL    HW1 9152   6.155   5.193   1.264
 2751SOL    HW2 9153   6.295   5.251   1.203
 2752SOL     OW 9154   4.041   5.406   6.211
 2752SOL    HW1 9155   4.001   5.402   6.303
 2752SOL    HW2 9156   4.040   5.315   6.171
 2753SOL     OW 9157   5.395   4.745   5.672
 2753SOL    HW1 9158   5.329   4.797   5.726
 2753SOL    HW2 9159   5.440   4.807   5.607
 2754SOL     OW 9160   1.482   0.590   4.843
 2754SOL    HW1 9161   1.565   0.590   4.899
 2754SOL    HW2 9162   1.429   0.672   4.863
 2755SOL     OW 9163   3.020   0.032   1.965
 2755SOL    HW1 9164   2.928   0.050   1.932
 2755SOL    HW2 9165   3.021   0.034   2.065
 2756SOL     OW 9166   4.580   5.876   6.926
 2756SOL    HW1 9167   4.568   5.888   6.827
 2756SOL    HW2 9168   4.499   5.829   6.963
 2757SOL     OW 9169   1.003   4.708   0.690
 2757SOL    HW1 9170   1.028   4.636   0.626
 2757SOL    HW2 9171   1.013   4.674   0.783
 2758SOL     OW 9172   4.803   0.733   5.433
 2758SOL    HW1 9173   4.712   0.735   5.473
 2758SOL    HW2 9174   4.806   0.665   5.360
 2759SOL     OW 9175   4.801   5.072   3.824
 2759SOL    HW1 9176   4.832   4.997   3.882
 2759SOL    HW2 9177   4.877   5.104   3.767
 2760SOL     OW 9178   1.075   6.392   3.429
 2760SOL    HW1 9179   1.061   6.337   3.512
 2760SOL    HW2 9180   1.033   6.482   3.442
 2761SOL     OW 9181   2.285   5.228   4.657
 2761SOL    HW1 9182   2.372   5.277   4.665
 2761SOL    HW2 9183   2.222   5.281   4.601
 2762SOL     OW 9184   1.818   0.946   5.567
 2762SOL    HW1 9185   1.887   0.877   5.547
 2762SOL    HW2 9186   1.779   0.930   5.658
 2763SOL     OW 9187   5.373   0.744   2.298
 2763SOL    HW1 9188   5.351   0.782   2.209
 2763SOL    HW2 9189   5.290   0.708   2.341
 2764SOL     OW 9190   6.385   0.837   2.122
 2764SOL    HW1 9191   6.421   0.855   2.030
 2764SOL    HW2 9192   6.367   0.923   2.169
 2765SOL     OW 9193   5.510   2.007   2.930
 2765SOL    HW1 9194   5.518   2.091   2.877
 2765SOL    HW2 9195   5.455   2.025   3.012
 2766SOL     OW 9196   5.363   6.989   2.442
 2766SOL    HW1 9197   5.406   0.050   2.473
 2766SOL    HW2 9198   5.329   6.938   2.521
 2767SOL     OW 9199   6.716   4.463   5.622
 2767SOL    HW1 9200   6.781   4.394   5.653
 2767SOL    HW2 9201   6.641   4.418   5.574
 2768SOL     OW 9202   5.780   1.305   6.350
 2768SOL    HW1 9203   5.721   1.231   6.382
 2768SOL    HW2 9204   5.868   1.268   6.320
 2769SOL     OW 9205   0.618   4.109   0.890
 2769SOL    HW1 9206   0.625   4.010   0.878
 2769SOL    HW2 9207   0.569   4.130   0.974
 2770SOL     OW 9208   5.205   6.051   2.160
 2770SOL    HW1 9209   5.206   6.105   2.244
 2770SOL    HW2 9210   5.263   5.971   2.170
 2771SOL     OW 9211   4.782   0.674   1.123
 2771SOL    HW1 9212   4.705   0.689   1.062
 2771SOL    HW2 9213   4.782   0.579   1.155
 2772SOL     OW 9214   3.816   1.422   6.714
 2772SOL    HW1 9215   3.726   1.377   6.712
 2772SOL    HW2 9216   3.812   1.500   6.775
 2773SOL     OW 9217   2.907   4.602   1.173
 2773SOL    HW1 9218   2.822   4.651   1.154
 2773SOL    HW2 9219   2.895   4.547   1.255
 2774SOL     OW 9220   5.142   3.350   1.940
 2774SOL    HW1 9221   5.146   3.434   1.993
 2774SOL    HW2 9222   5.048   3.315   1.939
 2775SOL     OW 9223   7.021   0.090   2.508
 2775SOL    HW1 9224   7.012   0.148   2.427
 2775SOL    HW2 9225   6.935   0.042   2.525
 2776SOL     OW 9226   2.354   6.176   0.079
 2776SOL    HW1 9227   2.409   6.218   0.007
 2776SOL    HW2 9228   2.383   6.212   0.168
 2777SOL     OW 9229   1.733   2.228   4.462
 2777SOL    HW1 9230   1.713   2.319   4.498
 2777SOL    HW2 9231   1.705   2.159   4.529
 2778SOL     OW 9232   2.812   2.351   5.031
 2778SOL    HW1 9233   2.912   2.349   5.030
 2778SOL    HW2 9234   2.778   2.323   5.121
 2779SOL     OW 9235   6.250   1.044   1.142
 2779SOL    HW1 9236   6.343   1.008   1.133
 2779SOL    HW2 9237   6.210   1.056   1.051
 2780SOL     OW 9238   3.586   6.088   0.072
 2780SOL    HW1 9239   3.552   6.092   0.165
 2780SOL    HW2 9240   3.606   5.993   0.048
 2781SOL     OW 9241   5.052   3.726   6.485
 2781SOL    HW1 9242   5.046   3.790   6.561
 2781SOL    HW2 9243   5.005   3.764   6.405
 2782SOL     OW 9244   3.705   1.224   5.663
 2782SOL    HW1 9245   3.709   1.324   5.669
 2782SOL    HW2 9246   3.664   1.197   5.576
 2783SOL     OW 9247   0.627   4.152   5.499
 2783SOL    HW1 9248   0.588   4.122   5.586
 2783SOL    HW2 9249   0.714   4.199   5.516
 2784SOL     OW 9250   2.379   2.428   1.426
 2784SOL    HW1 9251   2.372   2.414   1.525
 2784SOL    HW2 9252   2.465   2.473   1.405
 2785SOL     OW 9253   6.084   1.835   2.311
 2785SOL    HW1 9254   6.102   1.905   2.242
 2785SOL    HW2 9255   5.985   1.821   2.320
 2786SOL     OW 9256   3.683   0.576   0.743
 2786SOL    HW1 9257   3.654   0.539   0.655
 2786SOL    HW2 9258   3.633   0.530   0.817
 2787SOL     OW 9259   2.298   3.792   6.021
 2787SOL    HW1 9260   2.253   3.739   5.949
 2787SOL    HW2 9261   2.333   3.731   6.091
 2788SOL     OW 9262   0.564   3.584   0.134
 2788SOL    HW1 9263   0.632   3.657   0.141
 2788SOL    HW2 9264   0.519   3.572   0.223
 2789SOL     OW 9265   0.814   2.806   4.143
 2789SOL    HW1 9266   0.797   2.719   4.095
 2789SOL    HW2 9267   0.822   2.789   4.241
 2790SOL     OW 9268   3.714   6.329   3.954
 2790SOL    HW1 9269   3.737   6.258   3.887
 2790SOL    HW2 9270   3.619   6.358   3.941
 2791SOL     OW 9271   1.461   3.564   2.779
 2791SOL    HW1 9272   1.561   3.570   2.767
 2791SOL    HW2 9273   1.435   3.610   2.863
 2792SOL     OW 9274   1.126   2.283   5.403
 2792SOL    HW1 9275   1.087   2.221   5.335
 2792SOL    HW2 9276   1.054   2.312   5.466
 2793SOL     OW 9277   4.607   0.767   4.180
 2793SOL    HW1 9278   4.683   0.740   4.238
 2793SOL    HW2 9279   4.539   0.694   4.178
 2794SOL     OW 9280   0.590   1.465   1.603
 2794SOL    HW1 9281   0.549   1.546   1.645
 2794SOL    HW2 9282   0.601   1.393   1.672
 2795SOL     OW 9283   0.870   3.768   1.330
 2795SOL    HW1 9284   0.838   3.862   1.335
 2795SOL    HW2 9285   0.915   3.743   1.416
 2796SOL     OW 9286   4.831   4.587   2.526
 2796SOL    HW1 9287   4.754   4.524   2.525
 2796SOL    HW2 9288   4.827   4.647   2.446
 2797SOL     OW 9289   4.420   4.412   5.395
 2797SOL    HW1 9290   4.355   4.378   5.327
 2797SOL    HW2 9291   4.428   4.347   5.470
 2798SOL     OW 9292   1.525   4.263   3.400
 2798SOL    HW1 9293   1.581   4.196   3.449
 2798SOL    HW2 9294   1.457   4.301   3.463
 2799SOL     OW 9295   6.918   5.915   5.977
 2799SOL    HW1 9296   6.969   5.829   5.987
 2799SOL    HW2 9297   6.821   5.895   5.970
 2800SOL     OW 9298   2.707   0.939   6.182
 2800SOL    HW1 9299   2.645   0.864   6.158
 2800SOL    HW2 9300   2.716   1.001   6.103
 2801SOL     OW 9301   4.079   5.009   2.076
 2801SOL    HW1 9302   4.023   5.005   1.994
 2801SOL    HW2 9303   4.050   4.937   2.140
 2802SOL     OW 9304   6.554   0.526   6.536
 2802SOL    HW1 9305   6.463   0.493   6.508
 2802SOL    HW2 9306   6.589   0.589   6.466
 2803SOL     OW 9307   2.744   6.134   5.322
 2803SOL    HW1 9308   2.756   6.037   5.302
 2803SOL    HW2 9309   2.767   6.188   5.240
 2804SOL     OW 9310   0.411   4.689   2.332
 2804SOL    HW1 9311   0.451   4.667   2.243
 2804SOL    HW2 9312   0.326   4.637   2.343
 2805SOL     OW 9313   6.140   4.017   6.874
 2805SOL    HW1 9314   6.165   3.925   6.904
 2805SOL    HW2 9315   6.099   4.013   6.783
 2806SOL     OW 9316   6.731   5.583   2.295
 2806SOL    HW1 9317   6.789   5.566   2.216
 2806SOL    HW2 9318   6.778   5.645   2.358
 2807SOL     OW 9319   3.976   4.842   3.788
 2807SOL    HW1 9320   3.975   4.871   3.884
 2807SOL    HW2 9321   4.068   4.812   3.763
 2808SOL     OW 9322   4.667   6.226   4.614
 2808SOL    HW1 9323   4.571   6.235   4.591
 2808SOL    HW2 9324   4.676   6.192   4.708
 2809SOL     OW 9325   5.822   2.628   0.066
 2809SOL    HW1 9326   5.879   2.553   0.099
 2809SOL    HW2 9327   5.730   2.593   0.045
 2810SOL     OW 9328   1.514   0.976   6.430
 2810SOL    HW1 9329   1.435   0.928   6.469
 2810SOL    HW2 9330   1.483   1.052   6.374
 2811SOL     OW 9331   0.368   0.636   3.832
 2811SOL    HW1 9332   0.348   0.635   3.734
 2811SOL    HW2 9333   0.300   0.581   3.880
 2812SOL     OW 9334   5.026   4.822   2.827
 2812SOL    HW1 9335   4.956   4.750   2.822
 2812SOL    HW2 9336   5.108   4.793   2.778
 2813SOL     OW 9337   6.125   1.860   6.330
 2813SOL    HW1 9338   6.169   1.950   6.337
 2813SOL    HW2 9339   6.026   1.873   6.325
 2814SOL     OW 9340   5.548   4.339   4.912
 2814SOL    HW1 9341   5.561   4.435   4.938
 2814SOL    HW2 9342   5.450   4.319   4.909
 2815SOL     OW 9343   0.590   1.171   4.604
 2815SOL    HW1 9344   0.669   1.231   4.595
 2815SOL    HW2 9345   0.618   1.076   4.592
 2816SOL     OW 9346   5.126   6.831   3.191
 2816SOL    HW1 9347   5.039   6.867   3.225
 2816SOL    HW2 9348   5.199   6.898   3.209
 2817SOL     OW 9349   1.365   1.545   1.231
 2817SOL    HW1 9350   1.452   1.528   1.184
 2817SOL    HW2 9351   1.291   1.498   1.182
 2818SOL     OW 9352   1.498   3.067   0.040
 2818SOL    HW1 9353   1.515   3.107   6.974
 2818SOL    HW2 9354   1.401   3.077   0.063
 2819SOL     OW 9355   6.724   2.977   1.418
 2819SOL    HW1 9356   6.699   3.073   1.432
 2819SOL    HW2 9357   6.711   2.952   1.322
 2820SOL     OW 9358   4.890   2.275   3.977
 2820SOL    HW1 9359   4.893   2.176   3.965
 2820SOL    HW2 9360   4.847   2.297   4.065
 2821SOL     OW 9361   1.430   3.457   3.326
 2821SOL    HW1 9362   1.414   3.514   3.407
 2821SOL    HW2 9363   1.511   3.401   3.340
 2822SOL     OW 9364   2.945   1.590   0.802
 2822SOL    HW1 9365   3.015   1.544   0.857
 2822SOL    HW2 9366   2.913   1.528   0.731
 2823SOL     OW 9367   1.605   0.010   3.968
 2823SOL    HW1 9368   1.587   0.107   3.951
 2823SOL    HW2 9369   1.703   7.018   3.974
 2824SOL     OW 9370   3.213   2.009   5.450
 2824SOL    HW1 9371   3.169   1.942   5.510
 2824SOL    HW2 9372   3.143   2.063   5.403
 2825SOL     OW 9373   6.081   6.399   0.681
 2825SOL    HW1 9374   6.015   6.413   0.755
 2825SOL    HW2 9375   6.065   6.310   0.639
 2826SOL     OW 9376   4.944   3.584   4.040
 2826SOL    HW1 9377   4.905   3.494   4.021
 2826SOL    HW2 9378   4.904   3.651   3.978
 2827SOL     OW 9379   0.032   0.406   6.257
 2827SOL    HW1 9380   6.977   0.374   6.204
 2827SOL    HW2 9381   0.013   0.498   6.293
 2828SOL     OW 9382   3.848   1.862   6.434
 2828SOL    HW1 9383   3.866   1.917   6.353
 2828SOL    HW2 9384   3.884   1.770   6.421
 2829SOL     OW 9385   3.001   0.554   6.690
 2829SOL    HW1 9386   2.963   0.466   6.718
 2829SOL    HW2 9387   2.940   0.627   6.721
 2830SOL     OW 9388   3.145   3.714   6.722
 2830SOL    HW1 9389   3.195   3.801   6.720
 2830SOL    HW2 9390   3.119   3.688   6.629
 2831SOL     OW 9391   6.640   6.545   3.923
 2831SOL    HW1 9392   6.730   6.584   3.900
 2831SOL    HW2 9393   6.569   6.612   3.902
 2832SOL     OW 9394   0.296   0.929   2.203
 2832SOL    HW1 9395   0.233   0.873   2.256
 2832SOL    HW2 9396   0.382   0.940   2.253
 2833SOL     OW 9397   6.611   3.464   2.390
 2833SOL    HW1 9398   6.619   3.492   2.486
 2833SOL    HW2 9399   6.528   3.410   2.378
 2834SOL     OW 9400   4.330   0.820   5.613
 2834SOL    HW1 9401   4.306   0.723   5.622
 2834SOL    HW2 9402   4.247   0.874   5.598
 2835SOL     OW 9403   6.421   6.699   3.556
 2835SOL    HW1 9404   6.484   6.629   3.523
 2835SOL    HW2 9405   6.426   6.779   3.496
 2836SOL     OW 9406   6.529   0.504   0.743
 2836SOL    HW1 9407   6.432   0.525   0.738
 2836SOL    HW2 9408   6.542   0.414   0.785
 2837SOL     OW 9409   5.992   2.993   3.331
 2837SOL    HW1 9410   5.985   2.982   3.232
 2837SOL    HW2 9411   6.079   3.036   3.354
 2838SOL     OW 9412   1.795   4.533   4.452
 2838SOL    HW1 9413   1.819   4.504   4.360
 2838SOL    HW2 9414   1.814   4.459   4.517
 2839SOL     OW 9415   4.515   2.933   0.730
 2839SOL    HW1 9416   4.597   2.987   0.750
 2839SOL    HW2 9417   4.442   2.959   0.793
 2840SOL     OW 9418   6.663   2.618   5.016
 2840SOL    HW1 9419   6.599   2.583   4.947
 2840SOL    HW2 9420   6.729   2.679   4.972
 2841SOL     OW 9421   6.969   6.135   0.732
 2841SOL    HW1 9422   7.008   6.117   0.642
 2841SOL    HW2 9423   0.015   6.177   0.791
 2842SOL     OW 9424   5.892   3.467   3.099
 2842SOL    HW1 9425   5.893   3.566   3.115
 2842SOL    HW2 9426   5.805   3.441   3.058
 2843SOL     OW 9427   3.805   1.116   4.034
 2843SOL    HW1 9428   3.794   1.162   3.946
 2843SOL    HW2 9429   3.729   1.053   4.049
 2844SOL     OW 9430   1.237   4.144   5.199
 2844SOL    HW1 9431   1.254   4.163   5.295
 2844SOL    HW2 9432   1.144   4.171   5.175
 2845SOL     OW 9433   0.049   3.950   5.777
 2845SOL    HW1 9434   0.092   3.892   5.708
 2845SOL    HW2 9435   7.015   3.893   5.836
 2846SOL     OW 9436   5.557   1.042   5.708
 2846SOL    HW1 9437   5.540   0.948   5.677
 2846SOL    HW2 9438   5.556   1.044   5.808
 2847SOL     OW 9439   4.256   5.069   4.255
 2847SOL    HW1 9440   4.356   5.068   4.261
 2847SOL    HW2 9441   4.223   4.976   4.236
 2848SOL     OW 9442   1.834   6.519   5.351
 2848SOL    HW1 9443   1.874   6.449   5.292
 2848SOL    HW2 9444   1.853   6.498   5.446
 2849SOL     OW 9445   2.147   3.122   1.846
 2849SOL    HW1 9446   2.054   3.091   1.823
 2849SOL    HW2 9447   2.207   3.043   1.854
 2850SOL     OW 9448   4.139   1.501   0.647
 2850SOL    HW1 9449   4.172   1.549   0.728
 2850SOL    HW2 9450   4.203   1.515   0.572
 2851SOL     OW 9451   2.615   5.463   5.919
 2851SOL    HW1 9452   2.688   5.429   5.860
 2851SOL    HW2 9453   2.629   5.561   5.937
 2852SOL     OW 9454   0.909   2.402   6.768
 2852SOL    HW1 9455   0.831   2.345   6.792
 2852SOL    HW2 9456   0.878   2.495   6.751
 2853SOL     OW 9457   3.575   2.471   1.440
 2853SOL    HW1 9458   3.668   2.448   1.412
 2853SOL    HW2 9459   3.577   2.514   1.531
 2854SOL     OW 9460   0.386   0.815   3.330
 2854SOL    HW1 9461   0.407   0.731   3.280
 2854SOL    HW2 9462   0.299   0.852   3.298
 2855SOL     OW 9463   3.262   1.568   4.841
 2855SOL    HW1 9464   3.287   1.485   4.892
 2855SOL    HW2 9465   3.177   1.552   4.792
 2856SOL     OW 9466   2.302   1.295   5.467
 2856SOL    HW1 9467   2.233   1.276   5.537
 2856SOL    HW2 9468   2.313   1.394   5.458
 2857SOL     OW 9469   3.295   3.416   3.683
 2857SOL    HW1 9470   3.385   3.374   3.683
 2857SOL    HW2 9471   3.226   3.348   3.708
 2858SOL     OW 9472   5.557   2.851   3.167
 2858SOL    HW1 9473   5.595   2.764   3.197
 2858SOL    HW2 9474   5.469   2.834   3.122
 2859SOL     OW 9475   5.630   6.087   0.034
 2859SOL    HW1 9476   5.593   6.123   0.120
 2859SOL    HW2 9477   5.555   6.052   7.001
 2860SOL     OW 9478   4.216   2.049   0.810
 2860SOL    HW1 9479   4.234   2.137   0.766
 2860SOL    HW2 9480   4.117   2.034   0.816
 2861SOL     OW 9481   3.891   4.950   6.147
 2861SOL    HW1 9482   3.934   5.038   6.131
 2861SOL    HW2 9483   3.808   4.963   6.201
 2862SOL     OW 9484   6.671   0.073   3.235
 2862SOL    HW1 9485   6.615   0.125   3.299
 2862SOL    HW2 9486   6.613   0.016   3.178
 2863SOL     OW 9487   6.692   0.612   6.760
 2863SOL    HW1 9488   6.639   0.587   6.679
 2863SOL    HW2 9489   6.650   0.690   6.805
 2864SOL     OW 9490   3.662   1.889   0.694
 2864SOL    HW1 9491   3.620   1.877   0.784
 2864SOL    HW2 9492   3.642   1.809   0.638
 2865SOL     OW 9493   4.552   4.909   4.877
 2865SOL    HW1 9494   4.583   4.852   4.801
 2865SOL    HW2 9495   4.629   4.929   4.937
 2866SOL     OW 9496   0.592   6.871   6.273
 2866SOL    HW1 9497   0.531   6.800   6.309
 2866SOL    HW2 9498   0.632   6.921   6.349
 2867SOL     OW 9499   6.795   4.462   3.597
 2867SOL    HW1 9500   6.832   4.529   3.661
 2867SOL    HW2 9501   6.856   4.383   3.590
 2868SOL     OW 9502   1.977   4.746   4.686
 2868SOL    HW1 9503   1.906   4.766   4.618
 2868SOL    HW2 9504   1.940   4.685   4.756
 2869SOL     OW 9505   6.168   1.595   2.142
 2869SOL    HW1 9506   6.211   1.505   2.155
 2869SOL    HW2 9507   6.150   1.637   2.231
 2870SOL     OW 9508   4.183   2.186   2.317
 2870SOL    HW1 9509   4.237   2.104   2.335
 2870SOL    HW2 9510   4.158   2.190   2.221
 2871SOL     OW 9511   1.194   1.549   5.955
 2871SOL    HW1 9512   1.185   1.542   5.855
 2871SOL    HW2 9513   1.170   1.642   5.984
 2872SOL     OW 9514   2.088   0.500   3.901
 2872SOL    HW1 9515   2.023   0.534   3.833
 2872SOL    HW2 9516   2.144   0.427   3.861
 2873SOL     OW 9517   6.560   5.692   1.702
 2873SOL    HW1 9518   6.597   5.624   1.639
 2873SOL    HW2 9519   6.505   5.758   1.652
 2874SOL     OW 9520   5.442   2.170   2.071
 2874SOL    HW1 9521   5.489   2.245   2.025
 2874SOL    HW2 9522   5.346   2.195   2.087
 2875SOL     OW 9523   2.965   5.110   0.945
 2875SOL    HW1 9524   3.000   5.067   1.029
 2875SOL    HW2 9525   2.871   5.140   0.960
 2876SOL     OW 9526   6.536   2.397   1.880
 2876SOL    HW1 9527   6.485   2.325   1.834
 2876SOL    HW2 9528   6.478   2.442   1.948
 2877SOL     OW 9529   1.964   3.626   5.356
 2877SOL    HW1 9530   1.870   3.656   5.344
 2877SOL    HW2 9531   1.969   3.557   5.428
 2878SOL     OW 9532   4.037   4.709   0.196
 2878SOL    HW1 9533   3.963   4.693   0.262
 2878SOL    HW2 9534   3.999   4.725   0.106
 2879SOL     OW 9535   4.760   4.418   6.855
 2879SOL    HW1 9536   4.683   4.479   6.873
 2879SOL    HW2 9537   4.768   4.403   6.756
 2880SOL     OW 9538   2.091   6.747   2.911
 2880SOL    HW1 9539   2.006   6.695   2.924
 2880SOL    HW2 9540   2.123   6.780   2.999
 2881SOL     OW 9541   0.123   0.326   6.946
 2881SOL    HW1 9542   0.055   0.386   6.903
 2881SOL    HW2 9543   0.168   0.375   7.021
 2882SOL     OW 9544   6.896   3.418   3.385
 2882SOL    HW1 9545   6.936   3.351   3.323
 2882SOL    HW2 9546   6.851   3.371   3.461
 2883SOL     OW 9547   4.183   5.970   2.118
 2883SOL    HW1 9548   4.182   5.940   2.214
 2883SOL    HW2 9549   4.267   6.021   2.100
 2884SOL     OW 9550   1.957   5.509   3.065
 2884SOL    HW1 9551   1.987   5.414   3.059
 2884SOL    HW2 9552   1.873   5.521   3.013
 2885SOL     OW 9553   0.832   2.420   4.479
 2885SOL    HW1 9554   0.928   2.446   4.488
 2885SOL    HW2 9555   0.791   2.412   4.570
 2886SOL     OW 9556   2.727   2.869   6.275
 2886SOL    HW1 9557   2.772   2.853   6.188
 2886SOL    HW2 9558   2.791   2.852   6.350
 2887SOL     OW 9559   2.497   1.512   4.949
 2887SOL    HW1 9560   2.543   1.424   4.962
 2887SOL    HW2 9561   2.510   1.569   5.030
 2888SOL     OW 9562   6.920   5.210   0.009
 2888SOL    HW1 9563   6.899   5.298   6.988
 2888SOL    HW2 9564   6.877   5.136   6.981
 2889SOL     OW 9565   1.078   0.345   0.724
 2889SOL    HW1 9566   1.071   0.441   0.752
 2889SOL    HW2 9567   1.155   0.302   0.771
 2890SOL     OW 9568   3.127   0.667   0.876
 2890SOL    HW1 9569   3.222   0.682   0.849
 2890SOL    HW2 9570   3.069   0.671   0.795
 2891SOL     OW 9571   3.078   4.827   5.067
 2891SOL    HW1 9572   3.069   4.919   5.028
 2891SOL    HW2 9573   2.992   4.778   5.055
 2892SOL     OW 9574   4.172   4.260   5.338
 2892SOL    HW1 9575   4.212   4.309   5.260
 2892SOL    HW2 9576   4.170   4.162   5.317
 2893SOL     OW 9577   3.443   0.919   6.029
 2893SOL    HW1 9578   3.491   0.974   5.961
 2893SOL    HW2 9579   3.507   0.854   6.070
 2894SOL     OW 9580   4.129   3.007   1.103
 2894SOL    HW1 9581   4.054   2.957   1.146
 2894SOL    HW2 9582   4.175   3.064   1.171
 2895SOL     OW 9583   3.413   2.983   0.307
 2895SOL    HW1 9584   3.459   2.906   0.264
 2895SOL    HW2 9585   3.315   2.964   0.314
 2896SOL     OW 9586   1.546   4.625   0.178
 2896SOL    HW1 9587   1.478   4.556   0.152
 2896SOL    HW2 9588   1.638   4.588   0.164
 2897SOL     OW 9589   1.153   6.923   3.835
 2897SOL    HW1 9590   1.195   6.900   3.747
 2897SOL    HW2 9591   1.070   6.868   3.847
 2898SOL     OW 9592   2.256   5.025   2.791
 2898SOL    HW1 9593   2.327   5.072   2.740
 2898SOL    HW2 9594   2.246   5.066   2.882
 2899SOL     OW 9595   5.808   0.723   0.764
 2899SOL    HW1 9596   5.739   0.796   0.761
 2899SOL    HW2 9597   5.897   0.760   0.736
 2900SOL     OW 9598   3.189   5.369   6.324
 2900SOL    HW1 9599   3.211   5.349   6.420
 2900SOL    HW2 9600   3.147   5.289   6.282
 2901SOL     OW 9601   2.541   6.749   1.252
 2901SOL    HW1 9602   2.442   6.740   1.246
 2901SOL    HW2 9603   2.567   6.774   1.346
 2902SOL     OW 9604   4.800   4.981   0.681
 2902SOL    HW1 9605   4.717   5.037   0.676
 2902SOL    HW2 9606   4.798   4.926   0.765
 2903SOL     OW 9607   2.747   2.571   1.692
 2903SOL    HW1 9608   2.785   2.537   1.606
 2903SOL    HW2 9609   2.816   2.561   1.765
 2904SOL     OW 9610   2.518   2.603   4.474
 2904SOL    HW1 9611   2.471   2.521   4.441
 2904SOL    HW2 9612   2.614   2.580   4.494
 2905SOL     OW 9613   1.260   1.424   2.107
 2905SOL    HW1 9614   1.227   1.510   2.144
 2905SOL    HW2 9615   1.262   1.355   2.180
 2906SOL     OW 9616   5.440   5.440   2.035
 2906SOL    HW1 9617   5.370   5.413   1.969
 2906SOL    HW2 9618   5.458   5.365   2.099
 2907SOL     OW 9619   5.964   0.395   4.378
 2907SOL    HW1 9620   5.995   0.325   4.442
 2907SOL    HW2 9621   6.024   0.398   4.299
 2908SOL     OW 9622   3.473   5.892   5.152
 2908SOL    HW1 9623   3.535   5.899   5.231
 2908SOL    HW2 9624   3.527   5.891   5.068
 2909SOL     OW 9625   2.086   5.981   5.879
 2909SOL    HW1 9626   2.117   5.987   5.974
 2909SOL    HW2 9627   2.046   6.068   5.851
 2910SOL     OW 9628   4.728   6.123   5.453
 2910SOL    HW1 9629   4.714   6.160   5.545
 2910SOL    HW2 9630   4.698   6.189   5.385
 2911SOL     OW 9631   2.493   4.489   3.589
 2911SOL    HW1 9632   2.452   4.580   3.595
 2911SOL    HW2 9633   2.442   4.426   3.648
 2912SOL     OW 9634   2.723   5.104   1.264
 2912SOL    HW1 9635   2.635   5.092   1.218
 2912SOL    HW2 9636   2.796   5.067   1.206
 2913SOL     OW 9637   0.996   3.424   2.430
 2913SOL    HW1 9638   0.944   3.367   2.366
 2913SOL    HW2 9639   1.070   3.470   2.381
 2914SOL     OW 9640   5.615   4.584   5.809
 2914SOL    HW1 9641   5.583   4.530   5.886
 2914SOL    HW2 9642   5.538   4.624   5.761
 2915SOL     OW 9643   4.531   1.580   3.692
 2915SOL    HW1 9644   4.486   1.661   3.655
 2915SOL    HW2 9645   4.463   1.519   3.733
 2916SOL     OW 9646   4.856   6.876   4.595
 2916SOL    HW1 9647   4.915   6.910   4.522
 2916SOL    HW2 9648   4.892   6.790   4.630
 2917SOL     OW 9649   3.972   0.454   2.519
 2917SOL    HW1 9650   3.877   0.486   2.516
 2917SOL    HW2 9651   3.985   0.399   2.602
 2918SOL     OW 9652   1.084   2.742   4.680
 2918SOL    HW1 9653   1.059   2.826   4.632
 2918SOL    HW2 9654   1.082   2.665   4.616
 2919SOL     OW 9655   6.417   5.951   0.564
 2919SOL    HW1 9656   6.515   5.935   0.573
 2919SOL    HW2 9657   6.388   6.020   0.630
 2920SOL     OW 9658   4.619   2.049   2.643
 2920SOL    HW1 9659   4.629   1.953   2.617
 2920SOL    HW2 9660   4.638   2.107   2.564
 2921SOL     OW 9661   0.008   1.175   1.014
 2921SOL    HW1 9662   0.069   1.101   1.042
 2921SOL    HW2 9663   0.061   1.247   0.968
 2922SOL     OW 9664   4.131   6.735   5.214
 2922SOL    HW1 9665   4.209   6.684   5.177
 2922SOL    HW2 9666   4.148   6.833   5.206
 2923SOL     OW 9667   7.011   4.454   6.820
 2923SOL    HW1 9668   0.038   4.413   6.896
 2923SOL    HW2 9669   0.009   4.552   6.815
 2924SOL     OW 9670   6.411   6.688   5.953
 2924SOL    HW1 9671   6.385   6.777   5.916
 2924SOL    HW2 9672   6.332   6.645   5.996
 2925SOL     OW 9673   5.737   3.709   0.805
 2925SOL    HW1 9674   5.822   3.691   0.757
 2925SOL    HW2 9675   5.754   3.715   0.904
 2926SOL     OW 9676   0.265   1.094   3.848
 2926SOL    HW1 9677   0.263   1.019   3.914
 2926SOL    HW2 9678   0.359   1.119   3.828
 2927SOL     OW 9679   0.453   3.279   2.761
 2927SOL    HW1 9680   0.386   3.343   2.724
 2927SOL    HW2 9681   0.478   3.307   2.853
 2928SOL     OW 9682   5.436   5.969   0.406
 2928SOL    HW1 9683   5.534   5.948   0.397
 2928SOL    HW2 9684   5.402   5.936   0.493
 2929SOL     OW 9685   0.838   0.225   5.808
 2929SOL    HW1 9686   0.869   0.194   5.718
 2929SOL    HW2 9687   0.893   0.182   5.879
 2930SOL     OW 9688   3.055   6.787   4.443
 2930SOL    HW1 9689   3.021   6.825   4.529
 2930SOL    HW2 9690   2.989   6.721   4.407
 2931SOL     OW 9691   4.009   4.935   6.570
 2931SOL    HW1 9692   4.028   5.032   6.555
 2931SOL    HW2 9693   4.042   4.908   6.660
 2932SOL     OW 9694   1.734   4.535   2.194
 2932SOL    HW1 9695   1.691   4.451   2.227
 2932SOL    HW2 9696   1.664   4.603   2.173
 2933SOL     OW 9697   5.091   2.265   3.697
 2933SOL    HW1 9698   5.039   2.181   3.679
 2933SOL    HW2 9699   5.029   2.336   3.730
 2934SOL     OW 9700   2.067   1.059   0.727
 2934SOL    HW1 9701   2.061   1.155   0.700
 2934SOL    HW2 9702   2.003   1.041   0.801
 2935SOL     OW 9703   6.886   1.547   1.218
 2935SOL    HW1 9704   6.894   1.481   1.143
 2935SOL    HW2 9705   6.877   1.497   1.305
 2936SOL     OW 9706   3.219   5.352   0.218
 2936SOL    HW1 9707   3.301   5.294   0.216
 2936SOL    HW2 9708   3.213   5.397   0.307
 2937SOL     OW 9709   2.783   4.525   6.996
 2937SOL    HW1 9710   2.850   4.573   0.031
 2937SOL    HW2 9711   2.699   4.578   6.992
 2938SOL     OW 9712   5.051   4.570   5.522
 2938SOL    HW1 9713   5.027   4.563   5.425
 2938SOL    HW2 9714   5.026   4.485   5.569
 2939SOL     OW 9715   0.481   6.448   5.909
 2939SOL    HW1 9716   0.546   6.471   5.836
 2939SOL    HW2 9717   0.400   6.505   5.902
 2940SOL     OW 9718   3.360   6.983   5.233
 2940SOL    HW1 9719   3.338   6.944   5.144
 2940SOL    HW2 9720   3.459   6.998   5.240
 2941SOL     OW 9721   3.603   1.806   4.919
 2941SOL    HW1 9722   3.552   1.754   4.988
 2941SOL    HW2 9723   3.668   1.746   4.874
 2942SOL     OW 9724   4.197   6.448   4.243
 2942SOL    HW1 9725   4.245   6.473   4.327
 2942SOL    HW2 9726   4.263   6.418   4.174
 2943SOL     OW 9727   5.592   4.724   2.910
 2943SOL    HW1 9728   5.658   4.699   2.981
 2943SOL    HW2 9729   5.539   4.643   2.884
 2944SOL     OW 9730   4.714   6.051   0.053
 2944SOL    HW1 9731   4.735   6.016   0.144
 2944SOL    HW2 9732   4.665   5.982   0.000
 2945SOL     OW 9733   3.278   4.105   4.184
 2945SOL    HW1 9734   3.369   4.086   4.149
 2945SOL    HW2 9735   3.215   4.119   4.108
 2946SOL     OW 9736   0.746   6.068   6.072
 2946SOL    HW1 9737   0.791   6.124   6.143
 2946SOL    HW2 9738   0.802   6.068   5.989
 2947SOL     OW 9739   0.093   5.356   0.148
 2947SOL    HW1 9740   0.046   5.433   0.189
 2947SOL    HW2 9741   0.026   5.292   0.110
 2948SOL     OW 9742   5.789   3.794   5.628
 2948SOL    HW1 9743   5.863   3.732   5.654
 2948SOL    HW2 9744   5.712   3.740   5.594
 2949SOL     OW 9745   0.673   6.282   0.942
 2949SOL    HW1 9746   0.771   6.286   0.963
 2949SOL    HW2 9747   0.659   6.295   0.843
 2950SOL     OW 9748   4.981   3.442   4.736
 2950SOL    HW1 9749   4.976   3.363   4.675
 2950SOL    HW2 9750   4.958   3.525   4.685
 2951SOL     OW 9751   6.045   0.371   0.841
 2951SOL    HW1 9752   6.102   0.314   0.900
 2951SOL    HW2 9753   5.959   0.323   0.821
 2952SOL     OW 9754   0.830   3.648   1.766
 2952SOL    HW1 9755   0.756   3.685   1.822
 2952SOL    HW2 9756   0.917   3.687   1.796
 2953SOL     OW 9757   5.805   1.732   2.342
 2953SOL    HW1 9758   5.710   1.762   2.344
 2953SOL    HW2 9759   5.811   1.637   2.374
 2954SOL     OW 9760   5.493   6.148   1.508
 2954SOL    HW1 9761   5.516   6.154   1.411
 2954SOL    HW2 9762   5.404   6.192   1.523
 2955SOL     OW 9763   6.247   2.527   0.850
 2955SOL    HW1 9764   6.214   2.622   0.845
 2955SOL    HW2 9765   6.346   2.527   0.864
 2956SOL     OW 9766   6.540   5.925   3.276
 2956SOL    HW1 9767   6.537   6.016   3.317
 2956SOL    HW2 9768   6.571   5.932   3.181
 2957SOL     OW 9769   1.689   4.786   1.578
 2957SOL    HW1 9770   1.693   4.792   1.678
 2957SOL    HW2 9771   1.605   4.740   1.551
 2958SOL     OW 9772   2.759   5.460   6.470
 2958SOL    HW1 9773   2.666   5.465   6.506
 2958SOL    HW2 9774   2.824   5.475   6.545
 2959SOL     OW 9775   3.815   5.516   0.026
 2959SOL    HW1 9776   3.825   5.610   7.017
 2959SOL    HW2 9777   3.892   5.494   0.086
 2960SOL     OW 9778   2.986   1.468   6.649
 2960SOL    HW1 9779   3.057   1.451   6.717
 2960SOL    HW2 9780   2.900   1.490   6.695
 2961SOL     OW 9781   5.999   1.535   4.356
 2961SOL    HW1 9782   6.050   1.449   4.357
 2961SOL    HW2 9783   5.971   1.558   4.449
 2962SOL     OW 9784   4.188   0.701   2.995
 2962SOL    HW1 9785   4.234   0.695   3.084
 2962SOL    HW2 9786   4.210   0.621   2.940
 2963SOL     OW 9787   1.886   3.780   4.886
 2963SOL    HW1 9788   1.962   3.806   4.946
 2963SOL    HW2 9789   1.808   3.750   4.941
 2964SOL     OW 9790   2.866   6.012   0.355
 2964SOL    HW1 9791   2.770   5.986   0.369
 2964SOL    HW2 9792   2.870   6.106   0.322
 2965SOL     OW 9793   0.561   2.564   6.246
 2965SOL    HW1 9794   0.609   2.529   6.326
 2965SOL    HW2 9795   0.561   2.664   6.248
 2966SOL     OW 9796   5.132   4.949   3.354
 2966SOL    HW1 9797   5.145   4.918   3.448
 2966SOL    HW2 9798   5.221   4.973   3.314
 2967SOL     OW 9799   5.543   2.497   3.936
 2967SOL    HW1 9800   5.501   2.466   4.021
 2967SOL    HW2 9801   5.524   2.431   3.863
 2968SOL     OW 9802   6.374   3.602   3.258
 2968SOL    HW1 9803   6.416   3.622   3.347
 2968SOL    HW2 9804   6.445   3.585   3.190
 2969SOL     OW 9805   3.740   1.632   4.739
 2969SOL    HW1 9806   3.678   1.558   4.765
 2969SOL    HW2 9807   3.831   1.594   4.723
 2970SOL     OW 9808   1.192   3.948   6.106
 2970SOL    HW1 9809   1.223   3.947   6.201
 2970SOL    HW2 9810   1.144   4.034   6.087
 2971SOL     OW 9811   5.332   3.713   2.742
 2971SOL    HW1 9812   5.392   3.773   2.796
 2971SOL    HW2 9813   5.241   3.752   2.737
 2972SOL     OW 9814   1.028   4.316   4.800
 2972SOL    HW1 9815   0.946   4.326   4.743
 2972SOL    HW2 9816   1.084   4.399   4.791
 2973SOL     OW 9817   5.894   7.021   4.053
 2973SOL    HW1 9818   5.976   6.970   4.076
 2973SOL    HW2 9819   5.883   0.001   3.954
 2974SOL     OW 9820   6.892   4.450   2.221
 2974SOL    HW1 9821   6.910   4.359   2.182
 2974SOL    HW2 9822   6.938   4.520   2.166
 2975SOL     OW 9823   6.775   1.060   4.296
 2975SOL    HW1 9824   6.694   1.119   4.303
 2975SOL    HW2 9825   6.763   0.980   4.354
 2976SOL     OW 9826   2.203   5.990   1.451
 2976SOL    HW1 9827   2.260   6.072   1.454
 2976SOL    HW2 9828   2.129   6.004   1.385
 2977SOL     OW 9829   3.332   6.566   4.123
 2977SOL    HW1 9830   3.385   6.559   4.208
 2977SOL    HW2 9831   3.235   6.573   4.145
 2978SOL     OW 9832   3.026   6.977   6.307
 2978SOL    HW1 9833   2.995   6.916   6.380
 2978SOL    HW2 9834   3.093   6.930   6.250
 2979SOL     OW 9835   3.246   1.435   2.952
 2979SOL    HW1 9836   3.293   1.461   2.867
 2979SOL    HW2 9837   3.148   1.446   2.940
 2980SOL     OW 9838   6.200   6.558   3.652
 2980SOL    HW1 9839   6.147   6.620   3.711
 2980SOL    HW2 9840   6.255   6.612   3.589
 2981SOL     OW 9841   2.108   1.519   6.284
 2981SOL    HW1 9842   2.018   1.562   6.287
 2981SOL    HW2 9843   2.158   1.540   6.368
 2982SOL     OW 9844   4.815   5.942   2.134
 2982SOL    HW1 9845   4.902   5.963   2.091
 2982SOL    HW2 9846   4.831   5.901   2.224
 2983SOL     OW 9847   6.596   0.966   3.108
 2983SOL    HW1 9848   6.677   1.003   3.062
 2983SOL    HW2 9849   6.625   0.905   3.181
 2984SOL     OW 9850   6.214   4.668   1.679
 2984SOL    HW1 9851   6.148   4.598   1.650
 2984SOL    HW2 9852   6.306   4.628   1.680
 2985SOL     OW 9853   6.899   2.243   3.333
 2985SOL    HW1 9854   6.814   2.294   3.323
 2985SOL    HW2 9855   6.969   2.283   3.273
 2986SOL     OW 9856   2.207   3.580   5.139
 2986SOL    HW1 9857   2.286   3.612   5.190
 2986SOL    HW2 9858   2.133   3.558   5.202
 2987SOL     OW 9859   5.087   1.621   4.787
 2987SOL    HW1 9860   5.081   1.698   4.850
 2987SOL    HW2 9861   5.163   1.635   4.723
 2988SOL     OW 9862   0.883   6.876   2.173
 2988SOL    HW1 9863   0.793   6.907   2.143
 2988SOL    HW2 9864   0.954   6.929   2.127
 2989SOL     OW 9865   6.534   5.259   0.894
 2989SOL    HW1 9866   6.481   5.259   0.809
 2989SOL    HW2 9867   6.543   5.165   0.928
 2990SOL     OW 9868   2.840   1.370   1.624
 2990SOL    HW1 9869   2.881   1.443   1.568
 2990SOL    HW2 9870   2.775   1.318   1.568
 2991SOL     OW 9871   6.493   4.715   0.388
 2991SOL    HW1 9872   6.584   4.685   0.363
 2991SOL    HW2 9873   6.427   4.642   0.372
 2992SOL     OW 9874   3.988   4.381   6.843
 2992SOL    HW1 9875   4.044   4.447   6.894
 2992SOL    HW2 9876   3.933   4.430   6.775
 2993SOL     OW 9877   1.794   4.536   0.087
 2993SOL    HW1 9878   1.872   4.568   0.140
 2993SOL    HW2 9879   1.790   4.436   0.089
 2994SOL     OW 9880   4.170   6.146   0.165
 2994SOL    HW1 9881   4.232   6.162   0.242
 2994SOL    HW2 9882   4.216   6.172   0.080
 2995SOL     OW 9883   2.584   0.331   5.430
 2995SOL    HW1 9884   2.525   0.252   5.411
 2995SOL    HW2 9885   2.557   0.372   5.517
 2996SOL     OW 9886   4.489   6.210   5.611
 2996SOL    HW1 9887   4.569   6.183   5.664
 2996SOL    HW2 9888   4.417   6.241   5.674
 2997SOL     OW 9889   4.208   5.872   0.567
 2997SOL    HW1 9890   4.271   5.805   0.607
 2997SOL    HW2 9891   4.124   5.825   0.537
 2998SOL     OW 9892   6.547   5.010   5.391
 2998SOL    HW1 9893   6.622   5.031   5.453
 2998SOL    HW2 9894   6.488   4.939   5.431
 2999SOL     OW 9895   2.215   1.329   1.803
 2999SOL    HW1 9896   2.162   1.311   1.720
 2999SOL    HW2 9897   2.158   1.312   1.883
 3000SOL     OW 9898   1.168   1.990   4.775
 3000SOL    HW1 9899   1.228   1.943   4.840
 3000SOL    HW2 9900   1.114   2.059   4.824
 3001SOL     OW 9901   4.882   6.624   5.787
 3001SOL    HW1 9902   4.854   6.664   5.699
 3001SOL    HW2 9903   4.851   6.529   5.792
 3002SOL     OW 9904   2.866   0.794   5.487
 3002SOL    HW1 9905   2.949   0.744   5.515
 3002SOL    HW2 9906   2.855   0.786   5.388
 3003SOL     OW 9907   1.913   6.944   5.558
 3003SOL    HW1 9908   1.912   6.892   5.472
 3003SOL    HW2 9909   1.976   6.899   5.622
 3004SOL     OW 9910   6.854   2.651   6.045
 3004SOL    HW1 9911   6.859   2.648   5.945
 3004SOL    HW2 9912   6.848   2.558   6.081
 3005SOL     OW 9913   4.622   2.505   0.817
 3005SOL    HW1 9914   4.710   2.538   0.852
 3005SOL    HW2 9915   4.623   2.406   0.810
 3006SOL     OW 9916   4.485   6.790   1.520
 3006SOL    HW1 9917   4.523   6.773   1.611
 3006SOL    HW2 9918   4.395   6.747   1.513
 3007SOL     OW 9919   5.732   5.282   2.005
 3007SOL    HW1 9920   5.730   5.187   1.975
 3007SOL    HW2 9921   5.653   5.331   1.966
 3008SOL     OW 9922   4.447   5.547   5.366
 3008SOL    HW1 9923   4.486   5.495   5.290
 3008SOL    HW2 9924   4.409   5.633   5.331
 3009SOL     OW 9925   1.349   0.624   2.216
 3009SOL    HW1 9926   1.355   0.527   2.241
 3009SOL    HW2 9927   1.336   0.679   2.299
 3010SOL     OW 9928   2.750   6.816   2.838
 3010SOL    HW1 9929   2.828   6.762   2.870
 3010SOL    HW2 9930   2.714   6.775   2.754
 3011SOL     OW 9931   5.718   0.273   0.153
 3011SOL    HW1 9932   5.754   0.314   0.237
 3011SOL    HW2 9933   5.793   0.231   0.101
 3012SOL     OW 9934   6.951   4.819   1.345
 3012SOL    HW1 9935   0.017   4.862   1.359
 3012SOL    HW2 9936   6.920   4.778   1.431
 3013SOL     OW 9937   6.118   4.079   2.213
 3013SOL    HW1 9938   6.096   3.985   2.240
 3013SOL    HW2 9939   6.060   4.142   2.264
 3014SOL     OW 9940   5.289   6.967   5.640
 3014SOL    HW1 9941   5.213   6.994   5.582
 3014SOL    HW2 9942   5.257   6.957   5.734
 3015SOL     OW 9943   2.711   1.205   0.238
 3015SOL    HW1 9944   2.727   1.130   0.174
 3015SOL    HW2 9945   2.691   1.288   0.186
 3016SOL     OW 9946   3.848   6.337   3.322
 3016SOL    HW1 9947   3.810   6.250   3.354
 3016SOL    HW2 9948   3.773   6.399   3.298
 3017SOL     OW 9949   0.434   5.506   1.285
 3017SOL    HW1 9950   0.446   5.518   1.186
 3017SOL    HW2 9951   0.344   5.465   1.303
 3018SOL     OW 9952   4.036   6.860   6.319
 3018SOL    HW1 9953   3.936   6.851   6.328
 3018SOL    HW2 9954   4.058   6.904   6.233
 3019SOL     OW 9955   5.155   0.023   1.808
 3019SOL    HW1 9956   5.239   0.076   1.791
 3019SOL    HW2 9957   5.149   6.972   1.741
 3020SOL     OW 9958   1.897   0.823   1.830
 3020SOL    HW1 9959   1.974   0.881   1.859
 3020SOL    HW2 9960   1.816   0.880   1.816
 3021SOL     OW 9961   4.399   0.640   6.383
 3021SOL    HW1 9962   4.456   0.720   6.364
 3021SOL    HW2 9963   4.428   0.563   6.326
 3022SOL     OW 9964   6.453   0.537   2.941
 3022SOL    HW1 9965   6.371   0.594   2.934
 3022SOL    HW2 9966   6.492   0.525   2.850
 3023SOL     OW 9967   6.090   6.972   1.643
 3023SOL    HW1 9968   6.077   6.899   1.710
 3023SOL    HW2 9969   6.020   0.020   1.657
 3024SOL     OW 9970   2.813   0.110   6.244
 3024SOL    HW1 9971   2.757   0.040   6.200
 3024SOL    HW2 9972   2.910   0.084   6.237
 3025SOL     OW 9973   1.838   2.646   1.758
 3025SOL    HW1 9974   1.814   2.559   1.714
 3025SOL    HW2 9975   1.755   2.691   1.789
 3026SOL     OW 9976   2.668   5.481   0.294
 3026SOL    HW1 9977   2.672   5.551   0.365
 3026SOL    HW2 9978   2.700   5.394   0.332
 3027SOL     OW 9979   1.387   2.010   3.732
 3027SOL    HW1 9980   1.461   2.039   3.672
 3027SOL    HW2 9981   1.405   2.043   3.825
 3028SOL     OW 9982   0.822   0.756   4.898
 3028SOL    HW1 9983   0.811   0.755   4.799
 3028SOL    HW2 9984   0.881   0.833   4.924
 3029SOL     OW 9985   6.107   4.975   5.612
 3029SOL    HW1 9986   6.144   5.042   5.676
 3029SOL    HW2 9987   6.062   5.022   5.536
 3030SOL     OW 9988   0.986   0.945   5.483
 3030SOL    HW1 9989   1.065   0.979   5.433
 3030SOL    HW2 9990   0.982   0.845   5.476
 3031SOL     OW 9991   0.457   5.385   6.153
 3031SOL    HW1 9992   0.411   5.453   6.209
 3031SOL    HW2 9993   0.394   5.351   6.083
 3032SOL     OW 9994   3.812   6.596   5.960
 3032SOL    HW1 9995   3.833   6.688   5.925
 3032SOL    HW2 9996   3.800   6.533   5.883
 3033SOL     OW 9997   5.861   4.437   5.816
 3033SOL    HW1 9998   5.794   4.505   5.785
 3033SOL    HW2 9999   5.870   4.441   5.915
 3034SOL     OW10000   2.775   6.751   4.331
 3034SOL    HW110001   2.746   6.832   4.280
 3034SOL    HW210002   2.729   6.670   4.296
 3035SOL     OW10003   6.407   6.946   6.893
 3035SOL    HW110004   6.378   6.972   6.985
 3035SOL    HW210005   6.433   0.005   6.842
 3036SOL     OW10006   1.363   4.991   5.309
 3036SOL    HW110007   1.430   4.938   5.360
 3036SOL    HW210008   1.276   4.941   5.306
 3037SOL     OW10009   5.675   6.785   5.779
 3037SOL    HW110010   5.669   6.859   5.712
 3037SOL    HW210011   5.640   6.817   5.867
 3038SOL     OW10012   6.192   6.222   5.939
 3038SOL    HW110013   6.276   6.167   5.936
 3038SOL    HW210014   6.126   6.186   5.873
 3039SOL     OW10015   0.790   4.874   0.553
 3039SOL    HW110016   0.854   4.816   0.604
 3039SOL    HW210017   0.760   4.826   0.470
 3040SOL     OW10018   3.025   1.389   6.992
 3040SOL    HW110019   3.090   1.378   6.917
 3040SOL    HW210020   2.996   1.299   0.001
 3041SOL     OW10021   1.717   2.247   6.284
 3041SOL    HW110022   1.623   2.272   6.308
 3041SOL    HW210023   1.721   2.223   6.187
 3042SOL     OW10024   6.245   6.824   1.308
 3042SOL    HW110025   6.310   6.842   1.383
 3042SOL    HW210026   6.216   6.729   1.311
 3043SOL     OW10027   6.699   5.212   6.675
 3043SOL    HW110028   6.747   5.127   6.656
 3043SOL    HW210029   6.685   5.222   6.773
 3044SOL     OW10030   2.499   3.149   6.408
 3044SOL    HW110031   2.580   3.155   6.350
 3044SOL    HW210032   2.474   3.241   6.440
 3045SOL     OW10033   4.528   2.137   3.696
 3045SOL    HW110034   4.471   2.127   3.777
 3045SOL    HW210035   4.582   2.054   3.683
 3046SOL     OW10036   1.849   2.328   5.864
 3046SOL    HW110037   1.852   2.381   5.779
 3046SOL    HW210038   1.921   2.259   5.863
 3047SOL     OW10039   0.249   4.750   1.343
 3047SOL    HW110040   0.221   4.688   1.270
 3047SOL    HW210041   0.225   4.843   1.319
 3048SOL     OW10042   3.012   2.670   1.616
 3048SOL    HW110043   3.057   2.583   1.635
 3048SOL    HW210044   2.920   2.653   1.580
 3049SOL     OW10045   1.058   0.421   1.716
 3049SOL    HW110046   0.990   0.494   1.712
 3049SOL    HW210047   1.140   0.450   1.668
 3050SOL     OW10048   1.964   0.676   3.717
 3050SOL    HW110049   1.912   0.716   3.642
 3050SOL    HW210050   1.922   0.701   3.805
 3051SOL     OW10051   2.995   5.014   5.999
 3051SOL    HW110052   3.065   5.012   5.928
 3051SOL    HW210053   3.032   4.975   6.083
 3052SOL     OW10054   4.957   6.842   2.526
 3052SOL    HW110055   4.989   6.922   2.576
 3052SOL    HW210056   4.857   6.842   2.525
 3053SOL     OW10057   4.586   6.936   1.823
 3053SOL    HW110058   4.668   6.899   1.779
 3053SOL    HW210059   4.568   0.004   1.788
 3054SOL     OW10060   2.178   4.260   5.370
 3054SOL    HW110061   2.151   4.199   5.445
 3054SOL    HW210062   2.278   4.271   5.371
 3055SOL     OW10063   5.851   6.997   2.931
 3055SOL    HW110064   5.908   6.915   2.936
 3055SOL    HW210065   5.874   0.036   3.007
 3056SOL     OW10066   5.631   0.670   1.929
 3056SOL    HW110067   5.664   0.597   1.869
 3056SOL    HW210068   5.699   0.687   2.001
 3057SOL     OW10069   6.476   5.665   2.214
 3057SOL    HW110070   6.485   5.763   2.196
 3057SOL    HW210071   6.563   5.630   2.249
 3058SOL     OW10072   6.245   5.768   1.302
 3058SOL    HW110073   6.257   5.690   1.363
 3058SOL    HW210074   6.245   5.852   1.356
 3059SOL     OW10075   1.967   2.925   5.903
 3059SOL    HW110076   2.024   2.979   5.841
 3059SOL    HW210077   1.935   2.843   5.856
 3060SOL     OW10078   0.374   6.550   0.331
 3060SOL    HW110079   0.364   6.461   0.375
 3060SOL    HW210080   0.354   6.623   0.397
 3061SOL     OW10081   0.351   0.702   5.847
 3061SOL    HW110082   0.332   0.676   5.941
 3061SOL    HW210083   0.442   0.743   5.841
 3062SOL     OW10084   2.949   5.537   6.265
 3062SOL    HW110085   3.016   5.463   6.276
 3062SOL    HW210086   2.876   5.525   6.331
 3063SOL     OW10087   2.486   6.190   0.722
 3063SOL    HW110088   2.547   6.227   0.652
 3063SOL    HW210089   2.539   6.161   0.802
 3064SOL     OW10090   0.073   4.876   3.492
 3064SOL    HW110091   0.165   4.880   3.532
 3064SOL    HW210092   0.078   4.830   3.403
 3065SOL     OW10093   3.098   1.261   1.158
 3065SOL    HW110094   3.045   1.177   1.147
 3065SOL    HW210095   3.196   1.239   1.150
 3066SOL     OW10096   5.335   5.603   0.241
 3066SOL    HW110097   5.433   5.619   0.232
 3066SOL    HW210098   5.319   5.537   0.315
 3067SOL     OW10099   4.265   0.032   3.204
 3067SOL    HW110100   4.315   0.024   3.118
 3067SOL    HW210101   4.295   6.983   3.267
 3068SOL     OW10102   6.144   4.627   0.243
 3068SOL    HW110103   6.053   4.586   0.232
 3068SOL    HW210104   6.211   4.556   0.264
 3069SOL     OW10105   1.128   4.955   4.044
 3069SOL    HW110106   1.075   4.935   4.127
 3069SOL    HW210107   1.137   5.054   4.033
 3070SOL     OW10108   3.982   1.897   4.128
 3070SOL    HW110109   3.968   1.987   4.169
 3070SOL    HW210110   4.079   1.883   4.111
 3071SOL     OW10111   5.595   0.216   4.042
 3071SOL    HW110112   5.617   0.130   4.088
 3071SOL    HW210113   5.569   0.197   3.947
 3072SOL     OW10114   0.005   0.709   1.844
 3072SOL    HW110115   0.076   0.671   1.902
 3072SOL    HW210116   0.047   0.764   1.771
 3073SOL     OW10117   1.833   2.150   5.087
 3073SOL    HW110118   1.752   2.091   5.091
 3073SOL    HW210119   1.826   2.221   5.156
 3074SOL     OW10120   4.988   3.587   5.851
 3074SOL    HW110121   4.970   3.495   5.885
 3074SOL    HW210122   4.946   3.598   5.760
 3075SOL     OW10123   0.036   5.665   0.735
 3075SOL    HW110124   6.972   5.709   0.759
 3075SOL    HW210125   0.018   5.583   0.681
 3076SOL     OW10126   0.512   0.933   5.158
 3076SOL    HW110127   0.432   0.982   5.195
 3076SOL    HW210128   0.525   0.958   5.062
 3077SOL     OW10129   5.305   4.364   3.629
 3077SOL    HW110130   5.396   4.404   3.635
 3077SOL    HW210131   5.281   4.349   3.533
 3078SOL     OW10132   1.737   2.437   0.107
 3078SOL    HW110133   1.780   2.394   0.027
 3078SOL    HW210134   1.734   2.371   0.182
 3079SOL     OW10135   5.568   2.820   6.447
 3079SOL    HW110136   5.609   2.881   6.515
 3079SOL    HW210137   5.613   2.834   6.359
 3080SOL     OW10138   6.489   6.524   1.262
 3080SOL    HW110139   6.555   6.537   1.189
 3080SOL    HW210140   6.403   6.490   1.224
 3081SOL     OW10141   1.064   4.465   5.978
 3081SOL    HW110142   1.101   4.497   5.891
 3081SOL    HW210143   1.028   4.542   6.029
 3082SOL     OW10144   2.766   0.048   2.282
 3082SOL    HW110145   2.865   0.033   2.288
 3082SOL    HW210146   2.720   6.982   2.273
 3083SOL     OW10147   3.338   0.628   2.176
 3083SOL    HW110148   3.274   0.594   2.108
 3083SOL    HW210149   3.358   0.725   2.159
 3084SOL     OW10150   4.113   6.480   3.864
 3084SOL    HW110151   4.075   6.532   3.788
 3084SOL    HW210152   4.098   6.382   3.849
 3085SOL     OW10153   1.359   5.042   2.037
 3085SOL    HW110154   1.384   5.025   1.942
 3085SOL    HW210155   1.262   5.066   2.042
 3086SOL     OW10156   6.394   1.436   4.072
 3086SOL    HW110157   6.352   1.357   4.026
 3086SOL    HW210158   6.323   1.503   4.093
 3087SOL     OW10159   5.887   3.789   1.626
 3087SOL    HW110160   5.794   3.782   1.663
 3087SOL    HW210161   5.940   3.854   1.680
 3088SOL     OW10162   2.912   3.736   6.509
 3088SOL    HW110163   2.929   3.834   6.527
 3088SOL    HW210164   2.996   3.694   6.475
 3089SOL     OW10165   3.446   1.879   1.497
 3089SOL    HW110166   3.349   1.864   1.477
 3089SOL    HW210167   3.458   1.970   1.536
 3090SOL     OW10168   6.601   2.102   0.767
 3090SOL    HW110169   6.541   2.088   0.846
 3090SOL    HW210170   6.545   2.119   0.686
 3091SOL     OW10171   2.260   6.598   0.350
 3091SOL    HW110172   2.332   6.651   0.395
 3091SOL    HW210173   2.223   6.651   0.273
 3092SOL     OW10174   3.587   5.446   0.273
 3092SOL    HW110175   3.545   5.535   0.290
 3092SOL    HW210176   3.643   5.450   0.190
 3093SOL     OW10177   4.862   6.845   3.326
 3093SOL    HW110178   4.805   6.870   3.248
 3093SOL    HW210179   4.833   6.895   3.407
 3094SOL     OW10180   2.926   5.594   5.341
 3094SOL    HW110181   2.998   5.594   5.410
 3094SOL    HW210182   2.955   5.648   5.262
 3095SOL     OW10183   2.020   5.132   5.254
 3095SOL    HW110184   2.058   5.061   5.195
 3095SOL    HW210185   2.093   5.192   5.285
 3096SOL     OW10186   0.064   0.984   5.485
 3096SOL    HW110187   0.058   0.950   5.579
 3096SOL    HW210188   0.146   0.946   5.441
 3097SOL     OW10189   2.282   1.290   0.177
 3097SOL    HW110190   2.210   1.222   0.193
 3097SOL    HW210191   2.250   1.357   0.109
 3098SOL     OW10192   4.056   2.417   0.543
 3098SOL    HW110193   4.126   2.357   0.504
 3098SOL    HW210194   3.979   2.362   0.574
 3099SOL     OW10195   1.355   6.033   5.473
 3099SOL    HW110196   1.362   5.968   5.397
 3099SOL    HW210197   1.260   6.040   5.502
 3100SOL     OW10198   6.202   6.603   6.106
 3100SOL    HW110199   6.191   6.524   6.166
 3100SOL    HW210200   6.115   6.653   6.100
 3101SOL     OW10201   3.647   0.080   1.227
 3101SOL    HW110202   3.694   0.168   1.227
 3101SOL    HW210203   3.644   0.043   1.320
 3102SOL     OW10204   0.611   6.208   0.617
 3102SOL    HW110205   0.637   6.207   0.520
 3102SOL    HW210206   0.629   6.119   0.657
 3103SOL     OW10207   4.146   4.181   1.679
 3103SOL    HW110208   4.220   4.217   1.736
 3103SOL    HW210209   4.143   4.081   1.687
 3104SOL     OW10210   5.942   5.802   3.851
 3104SOL    HW110211   5.984   5.779   3.762
 3104SOL    HW210212   5.991   5.879   3.891
 3105SOL     OW10213   6.049   5.684   3.616
 3105SOL    HW110214   6.096   5.608   3.570
 3105SOL    HW210215   6.083   5.771   3.579
 3106SOL     OW10216   6.475   2.813   4.678
 3106SOL    HW110217   6.533   2.737   4.649
 3106SOL    HW210218   6.501   2.895   4.627
 3107SOL     OW10219   2.680   6.940   4.161
 3107SOL    HW110220   2.616   6.938   4.084
 3107SOL    HW210221   2.764   6.988   4.133
 3108SOL     OW10222   2.546   0.868   2.762
 3108SOL    HW110223   2.645   0.880   2.768
 3108SOL    HW210224   2.515   0.896   2.671
 3109SOL     OW10225   4.771   6.165   3.332
 3109SOL    HW110226   4.786   6.075   3.292
 3109SOL    HW210227   4.679   6.168   3.373
 3110SOL     OW10228   1.200   2.892   1.866
 3110SOL    HW110229   1.160   2.909   1.956
 3110SOL    HW210230   1.143   2.934   1.796
 3111SOL     OW10231   0.107   4.770   2.768
 3111SOL    HW110232   0.156   4.702   2.822
 3111SOL    HW210233   0.013   4.777   2.801
 3112SOL     OW10234   2.798   4.042   6.136
 3112SOL    HW110235   2.788   3.999   6.225
 3112SOL    HW210236   2.734   3.999   6.071
 3113SOL     OW10237   4.120   6.701   4.093
 3113SOL    HW110238   4.159   6.640   4.024
 3113SOL    HW210239   4.048   6.653   4.143
 3114SOL     OW10240   5.268   5.729   0.514
 3114SOL    HW110241   5.262   5.806   0.578
 3114SOL    HW210242   5.230   5.756   0.426
 3115SOL     OW10243   2.495   3.533   1.644
 3115SOL    HW110244   2.554   3.453   1.654
 3115SOL    HW210245   2.427   3.533   1.718
 3116SOL     OW10246   0.395   1.268   6.765
 3116SOL    HW110247   0.391   1.269   6.665
 3116SOL    HW210248   0.453   1.193   6.795
 3117SOL     OW10249   3.655   4.145   5.666
 3117SOL    HW110250   3.615   4.060   5.631
 3117SOL    HW210251   3.624   4.159   5.761
 3118SOL     OW10252   6.163   5.371   6.988
 3118SOL    HW110253   6.235   5.400   6.924
 3118SOL    HW210254   6.118   5.452   0.003
 3119SOL     OW10255   2.223   4.377   0.153
 3119SOL    HW110256   2.203   4.436   0.074
 3119SOL    HW210257   2.322   4.360   0.157
 3120SOL     OW10258   2.645   5.179   6.454
 3120SOL    HW110259   2.550   5.203   6.434
 3120SOL    HW210260   2.704   5.258   6.435
 3121SOL     OW10261   0.306   6.010   3.406
 3121SOL    HW110262   0.252   6.052   3.479
 3121SOL    HW210263   0.279   5.914   3.397
 3122SOL     OW10264   3.107   5.728   0.922
 3122SOL    HW110265   3.141   5.660   0.857
 3122SOL    HW210266   3.173   5.803   0.930
 3123SOL     OW10267   3.951   6.572   4.257
 3123SOL    HW110268   3.880   6.529   4.314
 3123SOL    HW210269   4.039   6.527   4.273
 3124SOL     OW10270   3.763   0.170   6.314
 3124SOL    HW110271   3.797   0.246   6.370
 3124SOL    HW210272   3.777   0.084   6.362
 3125SOL     OW10273   0.125   2.535   5.724
 3125SOL    HW110274   0.027   2.528   5.702
 3125SOL    HW210275   0.170   2.449   5.702
 3126SOL     OW10276   3.500   6.210   6.593
 3126SOL    HW110277   3.559   6.270   6.648
 3126SOL    HW210278   3.554   6.136   6.554
 3127SOL     OW10279   1.330   1.662   4.063
 3127SOL    HW110280   1.296   1.683   3.971
 3127SOL    HW210281   1.252   1.644   4.124
 3128SOL     OW10282   1.842   0.529   1.173
 3128SOL    HW110283   1.803   0.459   1.113
 3128SOL    HW210284   1.937   0.544   1.148
 3129SOL     OW10285   1.171   3.149   3.418
 3129SOL    HW110286   1.163   3.132   3.320
 3129SOL    HW210287   1.151   3.246   3.436
 3130SOL     OW10288   2.351   5.401   3.337
 3130SOL    HW110289   2.428   5.415   3.398
 3130SOL    HW210290   2.380   5.352   3.256
 3131SOL     OW10291   0.924   2.972   4.581
 3131SOL    HW110292   0.926   3.004   4.676
 3131SOL    HW210293   0.970   3.039   4.522
 3132SOL     OW10294   5.312   4.539   5.511
 3132SOL    HW110295   5.214   4.550   5.497
 3132SOL    HW210296   5.344   4.607   5.577
 3133SOL     OW10297   2.463   2.068   3.538
 3133SOL    HW110298   2.525   1.993   3.515
 3133SOL    HW210299   2.376   2.056   3.490
 3134SOL     OW10300   5.384   2.780   1.588
 3134SOL    HW110301   5.399   2.871   1.629
 3134SOL    HW210302   5.368   2.791   1.490
 3135SOL     OW10303   2.208   1.902   3.460
 3135SOL    HW110304   2.178   1.811   3.489
 3135SOL    HW210305   2.151   1.972   3.503
 3136SOL     OW10306   6.274   6.910   4.927
 3136SOL    HW110307   6.347   6.879   4.866
 3136SOL    HW210308   6.304   6.991   4.977
 3137SOL     OW10309   0.475   1.577   4.428
 3137SOL    HW110310   0.505   1.570   4.333
 3137SOL    HW210311   0.375   1.570   4.432
 3138SOL     OW10312   5.469   1.984   4.566
 3138SOL    HW110313   5.543   2.047   4.589
 3138SOL    HW210314   5.451   1.925   4.644
 3139SOL     OW10315   4.602   5.463   5.154
 3139SOL    HW110316   4.559   5.455   5.064
 3139SOL    HW210317   4.644   5.375   5.179
 3140SOL     OW10318   5.635   6.043   6.149
 3140SOL    HW110319   5.685   6.114   6.198
 3140SOL    HW210320   5.567   6.002   6.210
 3141SOL     OW10321   1.048   5.582   1.870
 3141SOL    HW110322   1.000   5.573   1.783
 3141SOL    HW210323   1.104   5.664   1.869
 3142SOL     OW10324   3.855   0.094   0.390
 3142SOL    HW110325   3.760   0.124   0.401
 3142SOL    HW210326   3.903   0.157   0.329
 3143SOL     OW10327   0.241   1.634   1.090
 3143SOL    HW110328   0.330   1.617   1.132
 3143SOL    HW210329   0.220   1.731   1.095
 3144SOL     OW10330   2.006   2.842   0.211
 3144SOL    HW110331   1.933   2.815   0.147
 3144SOL    HW210332   1.986   2.805   0.301
 3145SOL     OW10333   3.077   5.262   3.631
 3145SOL    HW110334   3.161   5.209   3.636
 3145SOL    HW210335   3.088   5.347   3.682
 3146SOL     OW10336   2.594   6.967   3.902
 3146SOL    HW110337   2.619   0.040   3.892
 3146SOL    HW210338   2.649   6.911   3.841
 3147SOL     OW10339   3.786   4.423   0.831
 3147SOL    HW110340   3.793   4.328   0.860
 3147SOL    HW210341   3.691   4.452   0.835
 3148SOL     OW10342   3.097   5.969   4.783
 3148SOL    HW110343   3.107   5.919   4.868
 3148SOL    HW210344   3.183   5.966   4.732
 3149SOL     OW10345   2.581   6.540   5.809
 3149SOL    HW110346   2.663   6.483   5.818
 3149SOL    HW210347   2.526   6.532   5.892
 3150SOL     OW10348   0.009   6.921   4.257
 3150SOL    HW110349   0.020   6.838   4.312
 3150SOL    HW210350   0.085   6.929   4.193
 3151SOL     OW10351   3.975   6.711   1.414
 3151SOL    HW110352   3.900   6.730   1.477
 3151SOL    HW210353   3.989   6.613   1.408
 3152SOL     OW10354   1.320   4.678   6.283
 3152SOL    HW110355   1.415   4.648   6.292
 3152SOL    HW210356   1.272   4.620   6.218
 3153SOL     OW10357   6.573   4.610   2.991
 3153SOL    HW110358   6.534   4.670   2.921
 3153SOL    HW210359   6.664   4.644   3.017
 3154SOL     OW10360   5.738   2.630   6.274
 3154SOL    HW110361   5.763   2.662   6.366
 3154SOL    HW210362   5.808   2.657   6.209
 3155SOL     OW10363   4.474   6.055   0.630
 3155SOL    HW110364   4.570   6.042   0.655
 3155SOL    HW210365   4.433   6.124   0.689
 3156SOL     OW10366   3.591   3.568   3.473
 3156SOL    HW110367   3.523   3.641   3.476
 3156SOL    HW210368   3.678   3.601   3.509
 3157SOL     OW10369   2.133   2.590   5.235
 3157SOL    HW110370   2.082   2.597   5.150
 3157SOL    HW210371   2.227   2.621   5.221
 3158SOL     OW10372   4.597   6.566   1.221
 3158SOL    HW110373   4.605   6.666   1.222
 3158SOL    HW210374   4.684   6.526   1.250
 3159SOL     OW10375   5.216   4.793   0.149
 3159SOL    HW110376   5.206   4.785   0.050
 3159SOL    HW210377   5.245   4.705   0.187
 3160SOL     OW10378   6.148   4.839   0.621
 3160SOL    HW110379   6.122   4.743   0.623
 3160SOL    HW210380   6.190   4.860   0.532
 3161SOL     OW10381   1.248   1.378   3.556
 3161SOL    HW110382   1.217   1.470   3.533
 3161SOL    HW210383   1.194   1.342   3.632
 3162SOL     OW10384   0.157   7.011   5.823
 3162SOL    HW110385   0.251   6.993   5.851
 3162SOL    HW210386   0.097   6.942   5.865
 3163SOL     OW10387   2.113   4.511   5.325
 3163SOL    HW110388   2.125   4.412   5.333
 3163SOL    HW210389   2.195   4.557   5.360
 3164SOL     OW10390   6.238   5.163   5.743
 3164SOL    HW110391   6.222   5.211   5.829
 3164SOL    HW210392   6.316   5.204   5.696
 3165SOL     OW10393   0.669   2.776   1.867
 3165SOL    HW110394   0.657   2.870   1.835
 3165SOL    HW210395   0.580   2.735   1.888
 3166SOL     OW10396   4.476   2.770   6.350
 3166SOL    HW110397   4.443   2.845   6.293
 3166SOL    HW210398   4.562   2.798   6.393
 3167SOL     OW10399   0.364   4.621   1.849
 3167SOL    HW110400   0.332   4.690   1.783
 3167SOL    HW210401   0.286   4.583   1.898
 3168SOL     OW10402   6.339   2.811   0.825
 3168SOL    HW110403   6.429   2.789   0.861
 3168SOL    HW210404   6.348   2.850   0.733
 3169SOL     OW10405   2.420   2.018   5.708
 3169SOL    HW110406   2.327   2.012   5.672
 3169SOL    HW210407   2.444   2.115   5.720
 3170SOL     OW10408   3.804   6.857   5.418
 3170SOL    HW110409   3.710   6.843   5.451
 3170SOL    HW210410   3.853   6.770   5.418
 3171SOL     OW10411   5.818   6.287   2.954
 3171SOL    HW110412   5.777   6.313   3.042
 3171SOL    HW210413   5.853   6.368   2.908
 3172SOL     OW10414   6.068   6.549   5.567
 3172SOL    HW110415   6.000   6.573   5.637
 3172SOL    HW210416   6.022   6.507   5.489
 3173SOL     OW10417   2.060   1.154   1.616
 3173SOL    HW110418   2.130   1.178   1.549
 3173SOL    HW210419   2.057   1.054   1.627
 3174SOL     OW10420   2.216   3.047   0.140
 3174SOL    HW110421   2.184   3.141   0.128
 3174SOL    HW210422   2.146   2.993   0.187
 3175SOL     OW10423   0.248   6.233   0.222
 3175SOL    HW110424   0.190   6.306   0.258
 3175SOL    HW210425   0.207   6.144   0.243
 3176SOL     OW10426   1.135   5.632   0.095
 3176SOL    HW110427   1.165   5.661   0.004
 3176SOL    HW210428   1.052   5.682   0.120
 3177SOL     OW10429   0.911   6.723   4.506
 3177SOL    HW110430   0.840   6.739   4.575
 3177SOL    HW210431   0.975   6.653   4.539
 3178SOL     OW10432   3.073   3.471   6.837
 3178SOL    HW110433   3.060   3.561   6.879
 3178SOL    HW210434   2.984   3.425   6.828
 3179SOL     OW10435   1.660   2.145   4.182
 3179SOL    HW110436   1.682   2.148   4.279
 3179SOL    HW210437   1.738   2.108   4.131
 3180SOL     OW10438   6.182   1.594   6.527
 3180SOL    HW110439   6.105   1.635   6.577
 3180SOL    HW210440   6.161   1.500   6.504
 3181SOL     OW10441   0.842   1.604   2.802
 3181SOL    HW110442   0.819   1.611   2.705
 3181SOL    HW210443   0.790   1.672   2.853
 3182SOL     OW10444   1.661   4.304   5.640
 3182SOL    HW110445   1.724   4.300   5.563
 3182SOL    HW210446   1.712   4.289   5.725
 3183SOL     OW10447   4.336   3.436   1.183
 3183SOL    HW110448   4.352   3.424   1.084
 3183SOL    HW210449   4.424   3.431   1.231
 3184SOL     OW10450   0.848   1.886   3.419
 3184SOL    HW110451   0.816   1.974   3.383
 3184SOL    HW210452   0.931   1.900   3.473
 3185SOL     OW10453   0.431   6.448   6.937
 3185SOL    HW110454   0.374   6.371   6.910
 3185SOL    HW210455   0.376   6.515   6.988
 3186SOL     OW10456   3.155   0.678   1.681
 3186SOL    HW110457   3.092   0.700   1.606
 3186SOL    HW210458   3.125   0.726   1.764
 3187SOL     OW10459   2.858   4.190   0.332
 3187SOL    HW110460   2.934   4.251   0.307
 3187SOL    HW210461   2.856   4.112   0.269
 3188SOL     OW10462   4.013   6.877   3.053
 3188SOL    HW110463   4.044   6.969   3.027
 3188SOL    HW210464   3.920   6.883   3.090
 3189SOL     OW10465   6.290   6.233   2.259
 3189SOL    HW110466   6.216   6.282   2.213
 3189SOL    HW210467   6.254   6.150   2.302
 3190SOL     OW10468   1.070   6.719   1.871
 3190SOL    HW110469   1.112   6.740   1.959
 3190SOL    HW210470   1.069   6.802   1.814
 3191SOL     OW10471   4.086   1.216   0.313
 3191SOL    HW110472   4.120   1.123   0.299
 3191SOL    HW210473   4.073   1.233   0.410
 3192SOL     OW10474   5.212   2.356   4.024
 3192SOL    HW110475   5.177   2.440   4.066
 3192SOL    HW210476   5.138   2.309   3.978
 3193SOL     OW10477   5.207   4.331   1.232
 3193SOL    HW110478   5.193   4.430   1.220
 3193SOL    HW210479   5.131   4.293   1.284
 3194SOL     OW10480   2.453   5.352   5.074
 3194SOL    HW110481   2.448   5.419   5.147
 3194SOL    HW210482   2.422   5.393   4.988
 3195SOL     OW10483   0.215   4.559   4.042
 3195SOL    HW110484   0.200   4.528   3.948
 3195SOL    HW210485   0.143   4.622   4.068
 3196SOL     OW10486   0.267   6.663   6.200
 3196SOL    HW110487   0.323   6.648   6.282
 3196SOL    HW210488   0.299   6.603   6.127
 3197SOL     OW10489   0.743   4.603   4.872
 3197SOL    HW110490   0.750   4.552   4.787
 3197SOL    HW210491   0.648   4.632   4.887
 3198SOL     OW10492   5.926   0.094   0.492
 3198SOL    HW110493   5.901   0.181   0.534
 3198SOL    HW210494   6.024   0.078   0.506
 3199SOL     OW10495   3.429   1.444   3.221
 3199SOL    HW110496   3.365   1.481   3.155
 3199SOL    HW210497   3.470   1.360   3.185
 3200SOL     OW10498   6.396   2.100   0.568
 3200SOL    HW110499   6.363   2.020   0.618
 3200SOL    HW210500   6.483   2.079   0.524
 3201SOL     OW10501   4.549   4.623   3.045
 3201SOL    HW110502   4.458   4.610   3.006
 3201SOL    HW210503   4.544   4.621   3.144
 3202SOL     OW10504   1.578   5.305   1.845
 3202SOL    HW110505   1.484   5.334   1.864
 3202SOL    HW210506   1.642   5.358   1.901
 3203SOL     OW10507   4.685   7.006   0.598
 3203SOL    HW110508   4.723   0.074   0.616
 3203SOL    HW210509   4.602   6.993   0.653
 3204SOL     OW10510   6.371   6.449   1.935
 3204SOL    HW110511   6.395   6.499   1.852
 3204SOL    HW210512   6.272   6.442   1.942
 3205SOL     OW10513   0.911   3.554   4.388
 3205SOL    HW110514   0.943   3.478   4.330
 3205SOL    HW210515   0.910   3.524   4.483
 3206SOL     OW10516   1.832   0.040   6.889
 3206SOL    HW110517   1.844   7.023   6.798
 3206SOL    HW210518   1.799   6.993   6.952
 3207SOL     OW10519   1.562   1.639   2.997
 3207SOL    HW110520   1.491   1.575   2.967
 3207SOL    HW210521   1.529   1.689   3.077
 3208SOL     OW10522   6.345   6.696   5.166
 3208SOL    HW110523   6.253   6.663   5.187
 3208SOL    HW210524   6.345   6.796   5.165
 3209SOL     OW10525   1.247   0.031   3.364
 3209SOL    HW110526   1.163   0.075   3.332
 3209SOL    HW210527   1.305   0.098   3.410
 3210SOL     OW10528   0.895   5.415   2.132
 3210SOL    HW110529   0.893   5.425   2.032
 3210SOL    HW210530   0.989   5.427   2.165
 3211SOL     OW10531   0.129   4.418   3.820
 3211SOL    HW110532   0.159   4.481   3.748
 3211SOL    HW210533   0.040   4.378   3.795
 3212SOL     OW10534   4.671   2.797   5.162
 3212SOL    HW110535   4.698   2.892   5.150
 3212SOL    HW210536   4.624   2.765   5.080
 3213SOL     OW10537   5.532   6.801   1.443
 3213SOL    HW110538   5.612   6.831   1.392
 3213SOL    HW210539   5.544   6.822   1.540
 3214SOL     OW10540   4.377   4.102   0.093
 3214SOL    HW110541   4.423   4.029   0.144
 3214SOL    HW210542   4.437   4.135   0.021
 3215SOL     OW10543   6.066   1.402   6.959
 3215SOL    HW110544   6.094   1.312   6.990
 3215SOL    HW210545   6.023   1.452   0.011
 3216SOL     OW10546   4.963   6.324   4.885
 3216SOL    HW110547   4.950   6.229   4.913
 3216SOL    HW210548   4.988   6.327   4.788
 3217SOL     OW10549   6.793   4.122   7.010
 3217SOL    HW110550   6.767   4.217   0.001
 3217SOL    HW210551   6.714   4.070   6.979
 3218SOL     OW10552   4.146   1.832   1.723
 3218SOL    HW110553   4.112   1.769   1.793
 3218SOL    HW210554   4.207   1.783   1.661
 3219SOL     OW10555   0.205   1.114   3.163
 3219SOL    HW110556   0.284   1.150   3.212
 3219SOL    HW210557   0.187   1.172   3.083
 3220SOL     OW10558   6.177   2.896   6.652
 3220SOL    HW110559   6.175   2.960   6.729
 3220SOL    HW210560   6.084   2.881   6.618
 3221SOL     OW10561   3.733   0.600   2.075
 3221SOL    HW110562   3.736   0.668   2.148
 3221SOL    HW210563   3.652   0.615   2.018
 3222SOL     OW10564   6.375   4.107   2.279
 3222SOL    HW110565   6.280   4.090   2.254
 3222SOL    HW210566   6.433   4.037   2.238
 3223SOL     OW10567   1.847   4.310   4.622
 3223SOL    HW110568   1.849   4.210   4.623
 3223SOL    HW210569   1.858   4.344   4.715
 3224SOL     OW10570   3.202   6.255   0.974
 3224SOL    HW110571   3.205   6.352   0.951
 3224SOL    HW210572   3.215   6.244   1.073
 3225SOL     OW10573   1.781   2.446   0.754
 3225SOL    HW110574   1.798   2.446   0.852
 3225SOL    HW210575   1.730   2.364   0.728
 3226SOL     OW10576   6.611   0.896   4.061
 3226SOL    HW110577   6.585   0.802   4.085
 3226SOL    HW210578   6.559   0.960   4.118
 3227SOL     OW10579   2.374   1.551   5.401
 3227SOL    HW110580   2.339   1.577   5.312
 3227SOL    HW210581   2.367   1.628   5.464
 3228SOL     OW10582   5.075   3.582   4.951
 3228SOL    HW110583   5.068   3.520   4.872
 3228SOL    HW210584   4.987   3.628   4.964
 3229SOL     OW10585   4.698   1.657   4.887
 3229SOL    HW110586   4.706   1.658   4.987
 3229SOL    HW210587   4.625   1.718   4.859
 3230SOL     OW10588   1.351   0.159   3.640
 3230SOL    HW110589   1.355   0.251   3.679
 3230SOL    HW210590   1.256   0.130   3.634
 3231SOL     OW10591   4.476   4.607   0.928
 3231SOL    HW110592   4.509   4.596   1.021
 3231SOL    HW210593   4.398   4.547   0.912
 3232SOL     OW10594   0.753   4.004   2.984
 3232SOL    HW110595   0.684   3.935   3.005
 3232SOL    HW210596   0.841   3.976   3.022
 3233SOL     OW10597   2.186   4.250   0.879
 3233SOL    HW110598   2.110   4.216   0.823
 3233SOL    HW210599   2.200   4.189   0.957
 3234SOL     OW10600   0.017   1.965   4.837
 3234SOL    HW110601   6.959   1.908   4.824
 3234SOL    HW210602   0.063   1.978   4.749
 3235SOL     OW10603   5.811   0.820   2.512
 3235SOL    HW110604   5.795   0.852   2.419
 3235SOL    HW210605   5.902   0.848   2.542
 3236SOL     OW10606   0.483   2.069   1.366
 3236SOL    HW110607   0.531   2.074   1.454
 3236SOL    HW210608   0.531   2.006   1.306
 3237SOL     OW10609   2.846   5.940   4.680
 3237SOL    HW110610   2.822   5.976   4.589
 3237SOL    HW210611   2.944   5.955   4.696
 3238SOL     OW10612   6.586   6.682   6.677
 3238SOL    HW110613   6.654   6.701   6.606
 3238SOL    HW210614   6.613   6.728   6.762
 3239SOL     OW10615   1.613   6.053   5.947
 3239SOL    HW110616   1.538   6.011   5.999
 3239SOL    HW210617   1.582   6.138   5.906
 3240SOL     OW10618   0.772   2.155   4.808
 3240SOL    HW110619   0.765   2.136   4.906
 3240SOL    HW210620   0.763   2.254   4.794
 3241SOL     OW10621   3.857   6.683   5.097
 3241SOL    HW110622   3.925   6.747   5.133
 3241SOL    HW210623   3.768   6.703   5.138
 3242SOL     OW10624   3.276   0.394   0.915
 3242SOL    HW110625   3.243   0.329   0.982
 3242SOL    HW210626   3.227   0.481   0.925
 3243SOL     OW10627   4.074   5.328   1.662
 3243SOL    HW110628   4.061   5.229   1.660
 3243SOL    HW210629   4.161   5.351   1.618
 3244SOL     OW10630   0.979   0.167   5.524
 3244SOL    HW110631   1.025   0.160   5.436
 3244SOL    HW210632   0.967   0.263   5.549
 3245SOL     OW10633   3.175   1.744   5.876
 3245SOL    HW110634   3.080   1.766   5.899
 3245SOL    HW210635   3.219   1.824   5.835
 3246SOL     OW10636   5.421   6.438   3.034
 3246SOL    HW110637   5.346   6.384   2.996
 3246SOL    HW210638   5.384   6.514   3.087
 3247SOL     OW10639   6.019   3.220   5.496
 3247SOL    HW110640   5.930   3.257   5.524
 3247SOL    HW210641   6.039   3.139   5.551
 3248SOL     OW10642   4.992   4.239   3.193
 3248SOL    HW110643   5.022   4.302   3.121
 3248SOL    HW210644   4.898   4.210   3.175
 3249SOL     OW10645   3.280   5.233   5.526
 3249SOL    HW110646   3.308   5.137   5.534
 3249SOL    HW210647   3.232   5.246   5.439
 3250SOL     OW10648   4.110   4.613   1.215
 3250SOL    HW110649   4.184   4.671   1.180
 3250SOL    HW210650   4.037   4.607   1.147
 3251SOL     OW10651   3.286   1.189   3.359
 3251SOL    HW110652   3.342   1.260   3.401
 3251SOL    HW210653   3.222   1.231   3.294
 3252SOL     OW10654   3.360   2.060   2.879
 3252SOL    HW110655   3.432   1.991   2.870
 3252SOL    HW210656   3.317   2.074   2.789
 3253SOL     OW10657   5.228   4.202   1.599
 3253SOL    HW110658   5.225   4.111   1.639
 3253SOL    HW210659   5.187   4.268   1.662
 3254SOL     OW10660   6.330   4.770   2.741
 3254SOL    HW110661   6.427   4.747   2.731
 3254SOL    HW210662   6.293   4.796   2.652
 3255SOL     OW10663   3.601   4.995   0.740
 3255SOL    HW110664   3.632   5.049   0.663
 3255SOL    HW210665   3.501   4.985   0.735
 3256SOL     OW10666   6.461   0.145   5.294
 3256SOL    HW110667   6.431   0.137   5.389
 3256SOL    HW210668   6.441   0.236   5.260
 3257SOL     OW10669   2.453   0.971   1.356
 3257SOL    HW110670   2.484   0.948   1.263
 3257SOL    HW210671   2.517   0.932   1.422
 3258SOL     OW10672   5.302   6.461   1.690
 3258SOL    HW110673   5.384   6.460   1.748
 3258SOL    HW210674   5.220   6.454   1.748
 3259SOL     OW10675   5.641   5.858   3.030
 3259SOL    HW110676   5.700   5.874   3.109
 3259SOL    HW210677   5.557   5.911   3.040
 3260SOL     OW10678   2.655   1.515   1.270
 3260SOL    HW110679   2.629   1.508   1.174
 3260SOL    HW210680   2.688   1.426   1.302
 3261SOL     OW10681   5.013   6.767   3.964
 3261SOL    HW110682   5.003   6.789   4.061
 3261SOL    HW210683   4.930   6.722   3.931
 3262SOL     OW10684   4.708   1.918   3.629
 3262SOL    HW110685   4.738   1.879   3.542
 3262SOL    HW210686   4.700   1.845   3.697
 3263SOL     OW10687   3.211   4.869   3.375
 3263SOL    HW110688   3.208   4.930   3.454
 3263SOL    HW210689   3.130   4.811   3.375
 3264SOL     OW10690   5.474   4.626   6.235
 3264SOL    HW110691   5.395   4.596   6.288
 3264SOL    HW210692   5.507   4.551   6.178
 3265SOL     OW10693   5.460   6.939   5.406
 3265SOL    HW110694   5.413   6.880   5.342
 3265SOL    HW210695   5.406   6.948   5.490
 3266SOL     OW10696   1.247   2.836   6.871
 3266SOL    HW110697   1.217   2.817   6.965
 3266SOL    HW210698   1.242   2.752   6.817
 3267SOL     OW10699   5.349   3.787   1.885
 3267SOL    HW110700   5.379   3.828   1.971
 3267SOL    HW210701   5.252   3.764   1.890
 3268SOL     OW10702   1.560   5.483   0.455
 3268SOL    HW110703   1.594   5.575   0.474
 3268SOL    HW210704   1.484   5.488   0.391
 3269SOL     OW10705   3.988   3.767   1.031
 3269SOL    HW110706   3.909   3.788   0.973
 3269SOL    HW210707   3.957   3.750   1.125
 3270SOL     OW10708   6.803   5.754   3.640
 3270SOL    HW110709   6.850   5.821   3.583
 3270SOL    HW210710   6.750   5.692   3.581
 3271SOL     OW10711   4.828   6.696   0.981
 3271SOL    HW110712   4.907   6.714   0.923
 3271SOL    HW210713   4.816   6.772   1.046
 3272SOL     OW10714   4.789   5.947   6.234
 3272SOL    HW110715   4.874   5.895   6.238
 3272SOL    HW210716   4.792   6.022   6.299
 3273SOL     OW10717   0.427   0.207   2.790
 3273SOL    HW110718   0.495   0.154   2.841
 3273SOL    HW210719   0.461   0.300   2.775
 3274SOL     OW10720   2.920   1.214   0.435
 3274SOL    HW110721   2.869   1.218   0.350
 3274SOL    HW210722   2.925   1.305   0.477
 3275SOL     OW10723   4.274   0.175   0.009
 3275SOL    HW110724   4.278   0.232   0.091
 3275SOL    HW210725   4.181   0.139   7.022
 3276SOL     OW10726   1.422   6.118   1.038
 3276SOL    HW110727   1.496   6.184   1.023
 3276SOL    HW210728   1.456   6.025   1.020
 3277SOL     OW10729   0.087   6.340   6.969
 3277SOL    HW110730   0.140   6.406   7.023
 3277SOL    HW210731   0.106   6.355   6.871
 3278SOL     OW10732   1.119   0.211   0.129
 3278SOL    HW110733   1.056   0.172   0.196
 3278SOL    HW210734   1.209   0.223   0.170
 3279SOL     OW10735   2.219   6.811   1.572
 3279SOL    HW110736   2.295   6.760   1.613
 3279SOL    HW210737   2.255   6.878   1.507
 3280SOL     OW10738   2.788   6.120   3.725
 3280SOL    HW110739   2.688   6.125   3.733
 3280SOL    HW210740   2.819   6.029   3.755
 3281SOL     OW10741   1.188   6.164   0.923
 3281SOL    HW110742   1.277   6.127   0.947
 3281SOL    HW210743   1.199   6.242   0.861
 3282SOL     OW10744   1.834   4.832   2.880
 3282SOL    HW110745   1.808   4.927   2.860
 3282SOL    HW210746   1.789   4.802   2.964
 3283SOL     OW10747   1.559   0.586   3.327
 3283SOL    HW110748   1.638   0.570   3.386
 3283SOL    HW210749   1.476   0.550   3.371
 3284SOL     OW10750   1.301   5.587   5.742
 3284SOL    HW110751   1.287   5.521   5.668
 3284SOL    HW210752   1.330   5.675   5.704
 3285SOL     OW10753   0.592   2.549   4.438
 3285SOL    HW110754   0.580   2.565   4.536
 3285SOL    HW210755   0.677   2.497   4.423
 3286SOL     OW10756   4.788   4.566   5.914
 3286SOL    HW110757   4.866   4.549   5.974
 3286SOL    HW210758   4.744   4.652   5.940
 3287SOL     OW10759   0.321   3.052   1.999
 3287SOL    HW110760   0.223   3.059   2.020
 3287SOL    HW210761   0.333   3.040   1.901
 3288SOL     OW10762   0.589   0.220   0.504
 3288SOL    HW110763   0.671   0.256   0.548
 3288SOL    HW210764   0.568   0.130   0.541
 3289SOL     OW10765   1.583   0.271   3.858
 3289SOL    HW110766   1.496   0.246   3.816
 3289SOL    HW210767   1.657   0.262   3.791
 3290SOL     OW10768   0.068   4.895   3.867
 3290SOL    HW110769   6.997   4.913   3.839
 3290SOL    HW210770   0.077   4.911   3.965
 3291SOL     OW10771   1.291   1.755   1.662
 3291SOL    HW110772   1.271   1.727   1.568
 3291SOL    HW210773   1.288   1.676   1.722
 3292SOL     OW10774   0.722   6.019   4.430
 3292SOL    HW110775   0.687   5.941   4.481
 3292SOL    HW210776   0.821   6.024   4.441
 3293SOL     OW10777   5.506   0.559   3.125
 3293SOL    HW110778   5.436   0.630   3.126
 3293SOL    HW210779   5.561   0.567   3.042
 3294SOL     OW10780   6.845   0.199   0.782
 3294SOL    HW110781   6.905   0.178   0.859
 3294SOL    HW210782   6.751   0.171   0.805
 3295SOL     OW10783   2.674   2.929   5.892
 3295SOL    HW110784   2.610   2.990   5.938
 3295SOL    HW210785   2.640   2.908   5.800
 3296SOL     OW10786   0.893   6.553   2.019
 3296SOL    HW110787   0.968   6.489   1.999
 3296SOL    HW210788   0.917   6.644   1.984
 3297SOL     OW10789   3.383   1.059   5.523
 3297SOL    HW110790   3.332   1.144   5.535
 3297SOL    HW210791   3.324   0.981   5.546
 3298SOL     OW10792   0.570   4.856   2.978
 3298SOL    HW110793   0.535   4.905   2.898
 3298SOL    HW210794   0.604   4.766   2.949
 3299SOL     OW10795   1.235   1.327   4.311
 3299SOL    HW110796   1.313   1.354   4.256
 3299SOL    HW210797   1.261   1.248   4.368
 3300SOL     OW10798   0.357   6.582   4.709
 3300SOL    HW110799   0.262   6.614   4.706
 3300SOL    HW210800   0.419   6.661   4.705
 3301SOL     OW10801   6.237   4.383   2.204
 3301SOL    HW110802   6.158   4.411   2.259
 3301SOL    HW210803   6.238   4.283   2.197
 3302SOL     OW10804   1.064   6.034   5.358
 3302SOL    HW110805   1.014   5.988   5.285
 3302SOL    HW210806   1.106   6.118   5.323
 3303SOL     OW10807   3.327   3.614   4.798
 3303SOL    HW110808   3.285   3.571   4.718
 3303SOL    HW210809   3.292   3.708   4.808
 3304SOL     OW10810   1.480   1.044   3.846
 3304SOL    HW110811   1.543   1.000   3.910
 3304SOL    HW210812   1.490   1.002   3.755
 3305SOL     OW10813   0.874   2.691   0.491
 3305SOL    HW110814   0.930   2.674   0.572
 3305SOL    HW210815   0.777   2.691   0.517
 3306SOL     OW10816   1.946   1.739   1.027
 3306SOL    HW110817   1.975   1.643   1.032
 3306SOL    HW210818   1.915   1.769   1.118
 3307SOL     OW10819   0.594   0.121   6.806
 3307SOL    HW110820   0.682   0.082   6.780
 3307SOL    HW210821   0.559   0.178   6.732
 3308SOL     OW10822   5.279   5.954   0.655
 3308SOL    HW110823   5.286   6.054   0.646
 3308SOL    HW210824   5.314   5.927   0.745
 3309SOL     OW10825   1.471   4.434   1.889
 3309SOL    HW110826   1.549   4.406   1.833
 3309SOL    HW210827   1.482   4.531   1.914
 3310SOL     OW10828   1.745   6.133   2.153
 3310SOL    HW110829   1.695   6.095   2.230
 3310SOL    HW210830   1.723   6.082   2.070
 3311SOL     OW10831   3.995   5.290   0.793
 3311SOL    HW110832   4.066   5.322   0.730
 3311SOL    HW210833   4.031   5.215   0.848
 3312SOL     OW10834   1.459   2.313   6.375
 3312SOL    HW110835   1.408   2.392   6.341
 3312SOL    HW210836   1.401   2.232   6.372
 3313SOL     OW10837   5.469   6.267   4.963
 3313SOL    HW110838   5.525   6.185   4.962
 3313SOL    HW210839   5.415   6.270   5.047
 3314SOL     OW10840   0.591   4.130   6.448
 3314SOL    HW110841   0.668   4.186   6.479
 3314SOL    HW210842   0.567   4.156   6.355
 3315SOL     OW10843   6.153   3.080   2.871
 3315SOL    HW110844   6.081   3.056   2.805
 3315SOL    HW210845   6.132   3.169   2.912
 3316SOL     OW10846   3.639   0.257   6.636
 3316SOL    HW110847   3.562   0.310   6.672
 3316SOL    HW210848   3.688   0.312   6.568
 3317SOL     OW10849   4.874   2.639   1.178
 3317SOL    HW110850   4.970   2.613   1.175
 3317SOL    HW210851   4.818   2.559   1.201
 3318SOL     OW10852   2.368   4.922   6.473
 3318SOL    HW110853   2.447   4.860   6.471
 3318SOL    HW210854   2.396   5.013   6.442
 3319SOL     OW10855   0.748   6.288   6.462
 3319SOL    HW110856   0.722   6.358   6.528
 3319SOL    HW210857   0.665   6.242   6.428
 3320SOL     OW10858   1.180   0.706   1.101
 3320SOL    HW110859   1.246   0.632   1.089
 3320SOL    HW210860   1.154   0.712   1.198
 3321SOL     OW10861   3.685   3.605   4.279
 3321SOL    HW110862   3.599   3.610   4.329
 3321SOL    HW210863   3.670   3.633   4.184
 3322SOL     OW10864   5.024   3.474   2.843
 3322SOL    HW110865   5.005   3.437   2.752
 3322SOL    HW210866   4.982   3.565   2.851
 3323SOL     OW10867   1.403   4.632   0.679
 3323SOL    HW110868   1.381   4.700   0.749
 3323SOL    HW210869   1.363   4.543   0.705
 3324SOL     OW10870   6.324   3.201   1.634
 3324SOL    HW110871   6.253   3.246   1.580
 3324SOL    HW210872   6.352   3.117   1.588
 3325SOL     OW10873   0.965   4.707   4.655
 3325SOL    HW110874   0.872   4.672   4.640
 3325SOL    HW210875   1.028   4.629   4.667
 3326SOL     OW10876   5.015   6.800   2.251
 3326SOL    HW110877   4.992   6.814   2.347
 3326SOL    HW210878   5.021   6.888   2.205
 3327SOL     OW10879   4.616   6.279   1.351
 3327SOL    HW110880   4.699   6.318   1.311
 3327SOL    HW210881   4.592   6.330   1.434
 3328SOL     OW10882   5.913   6.341   3.999
 3328SOL    HW110883   5.982   6.385   4.057
 3328SOL    HW210884   5.904   6.393   3.914
 3329SOL     OW10885   5.635   0.257   5.982
 3329SOL    HW110886   5.541   0.224   5.977
 3329SOL    HW210887   5.651   0.299   6.072
 3330SOL     OW10888   5.867   0.328   2.859
 3330SOL    HW110889   5.853   0.366   2.950
 3330SOL    HW210890   5.804   0.372   2.794
 3331SOL     OW10891   1.032   3.545   2.664
 3331SOL    HW110892   0.944   3.578   2.698
 3331SOL    HW210893   1.019   3.499   2.576
 3332SOL     OW10894   4.139   4.912   0.695
 3332SOL    HW110895   4.180   4.837   0.747
 3332SOL    HW210896   4.042   4.892   0.678
 3333SOL     OW10897   2.460   4.357   0.680
 3333SOL    HW110898   2.454   4.257   0.686
 3333SOL    HW210899   2.428   4.397   0.765
 3334SOL     OW10900   1.959   2.747   2.768
 3334SOL    HW110901   1.950   2.846   2.767
 3334SOL    HW210902   2.053   2.722   2.742
 3335SOL     OW10903   4.329   4.342   6.272
 3335SOL    HW110904   4.242   4.331   6.222
 3335SOL    HW210905   4.385   4.411   6.227
 3336SOL     OW10906   3.718   5.626   5.990
 3336SOL    HW110907   3.664   5.555   6.035
 3336SOL    HW210908   3.684   5.641   5.898
 3337SOL     OW10909   2.962   3.817   4.061
 3337SOL    HW110910   2.966   3.717   4.059
 3337SOL    HW210911   3.033   3.851   4.122
 3338SOL     OW10912   3.202   3.159   1.592
 3338SOL    HW110913   3.118   3.106   1.599
 3338SOL    HW210914   3.186   3.239   1.533
 3339SOL     OW10915   1.157   6.629   6.195
 3339SOL    HW110916   1.217   6.668   6.125
 3339SOL    HW210917   1.095   6.700   6.229
 3340SOL     OW10918   4.974   1.136   6.486
 3340SOL    HW110919   5.004   1.214   6.432
 3340SOL    HW210920   4.877   1.118   6.467
 3341SOL     OW10921   1.517   4.366   1.202
 3341SOL    HW110922   1.494   4.277   1.163
 3341SOL    HW210923   1.434   4.409   1.238
 3342SOL     OW10924   5.951   0.216   2.204
 3342SOL    HW110925   5.860   0.251   2.180
 3342SOL    HW210926   5.987   0.164   2.127
 3343SOL     OW10927   3.326   4.989   1.026
 3343SOL    HW110928   3.249   4.934   1.058
 3343SOL    HW210929   3.318   5.003   0.927
 3344SOL     OW10930   1.066   3.299   1.655
 3344SOL    HW110931   1.132   3.327   1.724
 3344SOL    HW210932   0.973   3.314   1.689
 3345SOL     OW10933   5.000   5.211   0.759
 3345SOL    HW110934   4.910   5.168   0.773
 3345SOL    HW210935   5.068   5.140   0.738
 3346SOL     OW10936   1.246   1.201   6.531
 3346SOL    HW110937   1.276   1.209   6.626
 3346SOL    HW210938   1.157   1.155   6.528
 3347SOL     OW10939   0.756   3.372   5.568
 3347SOL    HW110940   0.855   3.384   5.581
 3347SOL    HW210941   0.721   3.309   5.638
 3348SOL     OW10942   3.694   3.896   6.172
 3348SOL    HW110943   3.683   3.859   6.265
 3348SOL    HW210944   3.719   3.993   6.178
 3349SOL     OW10945   2.119   5.413   1.760
 3349SOL    HW110946   2.095   5.325   1.801
 3349SOL    HW210947   2.098   5.411   1.663
 3350SOL     OW10948   2.977   5.697   4.375
 3350SOL    HW110949   2.931   5.676   4.461
 3350SOL    HW210950   3.007   5.612   4.331
 3351SOL     OW10951   5.942   6.587   1.544
 3351SOL    HW110952   5.895   6.649   1.607
 3351SOL    HW210953   5.885   6.571   1.464
 3352SOL     OW10954   5.688   1.145   0.024
 3352SOL    HW110955   5.673   1.243   0.040
 3352SOL    HW210956   5.605   1.105   7.008
 3353SOL     OW10957   4.058   0.215   6.315
 3353SOL    HW110958   3.959   0.206   6.306
 3353SOL    HW210959   4.083   0.209   6.411
 3354SOL     OW10960   2.593   2.156   0.123
 3354SOL    HW110961   2.498   2.186   0.133
 3354SOL    HW210962   2.613   2.086   0.193
 3355SOL     OW10963   1.160   1.691   4.948
 3355SOL    HW110964   1.196   1.771   4.996
 3355SOL    HW210965   1.211   1.677   4.863
 3356SOL     OW10966   3.365   0.812   5.706
 3356SOL    HW110967   3.434   0.758   5.754
 3356SOL    HW210968   3.316   0.870   5.770
 3357SOL     OW10969   3.372   4.115   4.444
 3357SOL    HW110970   3.468   4.139   4.431
 3357SOL    HW210971   3.326   4.113   4.355
 3358SOL     OW10972   6.964   1.917   1.768
 3358SOL    HW110973   0.018   1.855   1.783
 3358SOL    HW210974   6.925   1.945   1.856
 3359SOL     OW10975   1.369   6.925   4.049
 3359SOL    HW110976   1.463   6.948   4.027
 3359SOL    HW210977   1.314   6.924   3.965
 3360SOL     OW10978   1.079   5.453   4.998
 3360SOL    HW110979   1.176   5.479   5.003
 3360SOL    HW210980   1.029   5.500   5.071
 3361SOL     OW10981   0.497   7.003   4.103
 3361SOL    HW110982   0.485   6.974   4.008
 3361SOL    HW210983   0.575   0.043   4.108
 3362SOL     OW10984   3.083   1.085   5.167
 3362SOL    HW110985   3.064   1.119   5.259
 3362SOL    HW210986   3.073   0.986   5.165
 3363SOL     OW10987   4.741   3.597   0.676
 3363SOL    HW110988   4.683   3.593   0.595
 3363SOL    HW210989   4.730   3.686   0.721
 3364SOL     OW10990   1.761   3.108   1.459
 3364SOL    HW110991   1.666   3.077   1.472
 3364SOL    HW210992   1.796   3.071   1.373
 3365SOL     OW10993   0.834   2.767   2.880
 3365SOL    HW110994   0.882   2.779   2.966
 3365SOL    HW210995   0.877   2.694   2.827
 3366SOL     OW10996   5.912   3.827   3.951
 3366SOL    HW110997   5.814   3.813   3.961
 3366SOL    HW210998   5.961   3.753   3.998
 3367SOL     OW10999   3.156   4.076   3.952
 3367SOL    HW111000   3.058   4.061   3.938
 3367SOL    HW211001   3.205   3.989   3.941
 3368SOL     OW11002   1.917   1.082   3.352
 3368SOL    HW111003   1.828   1.080   3.397
 3368SOL    HW211004   1.987   1.050   3.416
 3369SOL     OW11005   5.579   3.035   0.565
 3369SOL    HW111006   5.501   3.075   0.518
 3369SOL    HW211007   5.642   3.107   0.593
 3370SOL     OW11008   0.506   5.756   3.235
 3370SOL    HW111009   0.490   5.682   3.170
 3370SOL    HW211010   0.572   5.820   3.196
 3371SOL     OW11011   2.544   3.074   1.350
 3371SOL    HW111012   2.486   3.101   1.427
 3371SOL    HW211013   2.633   3.043   1.384
 3372SOL     OW11014   4.906   2.916   2.970
 3372SOL    HW111015   4.942   3.007   2.947
 3372SOL    HW211016   4.858   2.921   3.057
 3373SOL     OW11017   0.754   4.680   0.853
 3373SOL    HW111018   0.708   4.769   0.862
 3373SOL    HW211019   0.806   4.661   0.936
 3374SOL     OW11020   1.256   5.713   3.999
 3374SOL    HW111021   1.262   5.613   4.003
 3374SOL    HW211022   1.223   5.749   4.086
 3375SOL     OW11023   6.887   6.636   5.754
 3375SOL    HW111024   6.839   6.566   5.808
 3375SOL    HW211025   6.952   6.591   5.692
 3376SOL     OW11026   3.535   3.866   4.714
 3376SOL    HW111027   3.514   3.869   4.811
 3376SOL    HW211028   3.620   3.917   4.696
 3377SOL     OW11029   0.263   5.404   3.805
 3377SOL    HW111030   0.222   5.444   3.887
 3377SOL    HW211031   0.213   5.321   3.780
 3378SOL     OW11032   1.060   5.729   0.495
 3378SOL    HW111033   0.992   5.690   0.556
 3378SOL    HW211034   1.151   5.721   0.537
 3379SOL     OW11035   6.196   4.724   3.626
 3379SOL    HW111036   6.265   4.781   3.582
 3379SOL    HW211037   6.241   4.649   3.675
 3380SOL     OW11038   1.727   4.878   2.249
 3380SOL    HW111039   1.785   4.901   2.327
 3380SOL    HW211040   1.653   4.818   2.278
 3381SOL     OW11041   2.911   4.100   6.773
 3381SOL    HW111042   2.973   4.154   6.716
 3381SOL    HW211043   2.920   4.003   6.748
 3382SOL     OW11044   0.540   3.848   6.537
 3382SOL    HW111045   0.442   3.856   6.557
 3382SOL    HW211046   0.575   3.937   6.506
 3383SOL     OW11047   3.501   6.175   0.380
 3383SOL    HW111048   3.438   6.221   0.443
 3383SOL    HW211049   3.592   6.216   0.389
 3384SOL     OW11050   3.446   2.449   6.050
 3384SOL    HW111051   3.390   2.451   5.968
 3384SOL    HW211052   3.428   2.532   6.104
 3385SOL     OW11053   5.614   2.614   4.447
 3385SOL    HW111054   5.600   2.525   4.492
 3385SOL    HW211055   5.711   2.624   4.424
 3386SOL     OW11056   0.488   4.745   5.484
 3386SOL    HW111057   0.506   4.748   5.386
 3386SOL    HW211058   0.560   4.692   5.530
 3387SOL     OW11059   5.622   0.590   2.875
 3387SOL    HW111060   5.652   0.506   2.830
 3387SOL    HW211061   5.689   0.662   2.858
 3388SOL     OW11062   1.089   3.905   0.632
 3388SOL    HW111063   0.989   3.900   0.626
 3388SOL    HW211064   1.128   3.821   0.596
 3389SOL     OW11065   6.204   5.295   5.971
 3389SOL    HW111066   6.185   5.204   6.009
 3389SOL    HW211067   6.137   5.360   6.008
 3390SOL     OW11068   2.973   5.022   1.199
 3390SOL    HW111069   2.977   4.994   1.295
 3390SOL    HW211070   3.017   5.111   1.189
 3391SOL     OW11071   5.237   3.945   5.670
 3391SOL    HW111072   5.242   3.849   5.696
 3391SOL    HW211073   5.289   4.001   5.735
 3392SOL     OW11074   4.769   6.122   5.763
 3392SOL    HW111075   4.859   6.092   5.732
 3392SOL    HW211076   4.730   6.053   5.823
 3393SOL     OW11077   3.564   0.405   0.958
 3393SOL    HW111078   3.616   0.378   1.039
 3393SOL    HW211079   3.479   0.449   0.986
 3394SOL     OW11080   2.701   6.038   1.444
 3394SOL    HW111081   2.748   6.122   1.419
 3394SOL    HW211082   2.754   5.988   1.513
 3395SOL     OW11083   1.988   6.092   3.179
 3395SOL    HW111084   1.951   6.018   3.122
 3395SOL    HW211085   1.921   6.166   3.186
 3396SOL     OW11086   3.780   0.895   4.302
 3396SOL    HW111087   3.687   0.863   4.323
 3396SOL    HW211088   3.790   0.990   4.331
 3397SOL     OW11089   2.324   6.221   1.340
 3397SOL    HW111090   2.233   6.260   1.333
 3397SOL    HW211091   2.351   6.185   1.251
 3398SOL     OW11092   6.409   0.634   0.134
 3398SOL    HW111093   6.464   0.558   0.100
 3398SOL    HW211094   6.436   0.656   0.227
 3399SOL     OW11095   6.871   6.200   1.985
 3399SOL    HW111096   6.823   6.125   2.030
 3399SOL    HW211097   6.898   6.269   2.054
 3400SOL     OW11098   3.345   2.854   5.796
 3400SOL    HW111099   3.281   2.924   5.828
 3400SOL    HW211100   3.366   2.872   5.700
 3401SOL     OW11101   6.624   3.637   4.281
 3401SOL    HW111102   6.627   3.618   4.379
 3401SOL    HW211103   6.709   3.607   4.239
 3402SOL     OW11104   6.230   3.474   6.970
 3402SOL    HW111105   6.218   3.385   7.015
 3402SOL    HW211106   6.327   3.494   6.963
 3403SOL     OW11107   5.751   6.687   3.848
 3403SOL    HW111108   5.821   6.750   3.813
 3403SOL    HW211109   5.669   6.740   3.873
 3404SOL     OW11110   5.652   5.060   3.302
 3404SOL    HW111111   5.608   5.052   3.392
 3404SOL    HW211112   5.743   5.101   3.312
 3405SOL     OW11113   4.244   6.813   1.217
 3405SOL    HW111114   4.150   6.815   1.184
 3405SOL    HW211115   4.244   6.809   1.317
 3406SOL     OW11116   4.153   5.086   0.914
 3406SOL    HW111117   4.220   5.122   0.978
 3406SOL    HW211118   4.195   5.014   0.858
 3407SOL     OW11119   1.623   1.869   0.613
 3407SOL    HW111120   1.549   1.871   0.680
 3407SOL    HW211121   1.701   1.820   0.652
 3408SOL     OW11122   3.525   0.206   3.886
 3408SOL    HW111123   3.541   0.112   3.914
 3408SOL    HW211124   3.608   0.260   3.899
 3409SOL     OW11125   4.224   2.133   6.729
 3409SOL    HW111126   4.165   2.109   6.652
 3409SOL    HW211127   4.215   2.063   6.800
 3410SOL     OW11128   6.509   0.968   2.853
 3410SOL    HW111129   6.562   0.906   2.794
 3410SOL    HW211130   6.544   0.962   2.947
 3411SOL     OW11131   5.574   3.256   6.572
 3411SOL    HW111132   5.477   3.236   6.589
 3411SOL    HW211133   5.594   3.246   6.475
 3412SOL     OW11134   4.799   2.955   3.479
 3412SOL    HW111135   4.784   2.873   3.535
 3412SOL    HW211136   4.873   3.009   3.518
 3413SOL     OW11137   1.134   2.450   1.162
 3413SOL    HW111138   1.231   2.446   1.138
 3413SOL    HW211139   1.109   2.544   1.184
 3414SOL     OW11140   3.688   2.929   1.997
 3414SOL    HW111141   3.654   3.023   1.986
 3414SOL    HW211142   3.763   2.914   1.933
 3415SOL     OW11143   2.472   0.462   6.612
 3415SOL    HW111144   2.513   0.380   6.652
 3415SOL    HW211145   2.544   0.517   6.569
 3416SOL     OW11146   5.436   6.647   6.154
 3416SOL    HW111147   5.466   6.573   6.094
 3416SOL    HW211148   5.352   6.620   6.201
 3417SOL     OW11149   6.069   1.175   2.489
 3417SOL    HW111150   6.017   1.224   2.420
 3417SOL    HW211151   6.020   1.180   2.577
 3418SOL     OW11152   4.166   5.045   1.574
 3418SOL    HW111153   4.185   4.988   1.655
 3418SOL    HW211154   4.248   5.051   1.518
 3419SOL     OW11155   2.990   4.698   5.318
 3419SOL    HW111156   2.919   4.638   5.282
 3419SOL    HW211157   3.067   4.699   5.254
 3420SOL     OW11158   4.355   1.231   1.618
 3420SOL    HW111159   4.260   1.204   1.630
 3420SOL    HW211160   4.407   1.205   1.699
 3421SOL     OW11161   0.550   1.493   4.136
 3421SOL    HW111162   0.629   1.511   4.078
 3421SOL    HW211163   0.523   1.397   4.128
 3422SOL     OW11164   3.114   5.448   1.409
 3422SOL    HW111165   3.099   5.517   1.339
 3422SOL    HW211166   3.025   5.417   1.445
 3423SOL     OW11167   1.808   4.352   6.160
 3423SOL    HW111168   1.894   4.330   6.114
 3423SOL    HW211169   1.827   4.397   6.247
 3424SOL     OW11170   5.809   6.282   2.502
 3424SOL    HW111171   5.835   6.193   2.464
 3424SOL    HW211172   5.735   6.270   2.568
 3425SOL     OW11173   5.442   2.660   6.600
 3425SOL    HW111174   5.479   2.723   6.531
 3425SOL    HW211175   5.510   2.647   6.672
 3426SOL     OW11176   6.627   5.787   6.232
 3426SOL    HW111177   6.588   5.878   6.248
 3426SOL    HW211178   6.560   5.730   6.184
 3427SOL     OW11179   1.742   1.460   6.961
 3427SOL    HW111180   1.723   1.511   6.877
 3427SOL    HW211181   1.812   1.391   6.943
 3428SOL     OW11182   4.297   0.739   3.965
 3428SOL    HW111183   4.292   0.810   4.036
 3428SOL    HW211184   4.246   0.659   3.996
 3429SOL     OW11185   4.958   5.485   0.372
 3429SOL    HW111186   4.983   5.580   0.357
 3429SOL    HW211187   5.041   5.429   0.377
 3430SOL     OW11188   2.735   4.251   6.903
 3430SOL    HW111189   2.787   4.331   6.932
 3430SOL    HW211190   2.798   4.179   6.873
 3431SOL     OW11191   1.308   4.193   2.233
 3431SOL    HW111192   1.273   4.141   2.311
 3431SOL    HW211193   1.385   4.143   2.192
 3432SOL     OW11194   0.363   5.228   6.401
 3432SOL    HW111195   0.378   5.183   6.313
 3432SOL    HW211196   0.445   5.217   6.457
 3433SOL     OW11197   0.769   1.377   6.937
 3433SOL    HW111198   0.863   1.408   6.950
 3433SOL    HW211199   0.743   1.387   6.841
 3434SOL     OW11200   4.155   2.196   2.059
 3434SOL    HW111201   4.203   2.109   2.055
 3434SOL    HW211202   4.088   2.200   1.984
 3435SOL     OW11203   3.127   2.875   1.415
 3435SOL    HW111204   3.132   2.814   1.494
 3435SOL    HW211205   3.034   2.876   1.379
 3436SOL     OW11206   4.294   5.783   5.324
 3436SOL    HW111207   4.250   5.773   5.413
 3436SOL    HW211208   4.228   5.764   5.252
 3437SOL     OW11209   2.177   6.278   0.579
 3437SOL    HW111210   2.132   6.366   0.559
 3437SOL    HW211211   2.164   6.255   0.675
 3438SOL     OW11212   2.753   4.423   0.423
 3438SOL    HW111213   2.785   4.341   0.375
 3438SOL    HW211214   2.690   4.474   0.364
 3439SOL     OW11215   2.954   6.306   0.898
 3439SOL    HW111216   2.952   6.247   0.817
 3439SOL    HW211217   3.041   6.295   0.945
 3440SOL     OW11218   4.087   4.441   5.776
 3440SOL    HW111219   4.133   4.464   5.862
 3440SOL    HW211220   4.029   4.360   5.789
 3441SOL     OW11221   0.182   5.068   5.425
 3441SOL    HW111222   0.150   5.037   5.336
 3441SOL    HW211223   0.127   5.024   5.497
 3442SOL     OW11224   1.213   2.190   0.467
 3442SOL    HW111225   1.271   2.152   0.394
 3442SOL    HW211226   1.205   2.123   0.540
 3443SOL     OW11227   0.173   5.780   2.066
 3443SOL    HW111228   0.133   5.690   2.047
 3443SOL    HW211229   0.253   5.768   2.125
 3444SOL     OW11230   0.932   3.863   6.019
 3444SOL    HW111231   0.862   3.817   6.073
 3444SOL    HW211232   1.016   3.872   6.073
 3445SOL     OW11233   5.979   5.403   4.724
 3445SOL    HW111234   6.020   5.494   4.727
 3445SOL    HW211235   5.882   5.411   4.700
 3446SOL     OW11236   5.111   1.597   0.527
 3446SOL    HW111237   5.070   1.689   0.527
 3446SOL    HW211238   5.193   1.598   0.584
 3447SOL     OW11239   4.946   1.770   5.938
 3447SOL    HW111240   4.937   1.672   5.960
 3447SOL    HW211241   5.041   1.791   5.916
 3448SOL     OW11242   0.974   5.633   4.807
 3448SOL    HW111243   1.048   5.570   4.830
 3448SOL    HW211244   0.900   5.623   4.873
 3449SOL     OW11245   1.480   3.992   4.808
 3449SOL    HW111246   1.386   4.020   4.827
 3449SOL    HW211247   1.543   4.065   4.834
 3450SOL     OW11248   2.004   6.935   2.740
 3450SOL    HW111249   2.034   6.858   2.795
 3450SOL    HW211250   2.064   7.013   2.756
 3451SOL     OW11251   2.283   1.731   0.663
 3451SOL    HW111252   2.253   1.720   0.757
 3451SOL    HW211253   2.343   1.655   0.637
 3452SOL     OW11254   4.533   0.804   5.437
 3452SOL    HW111255   4.482   0.841   5.359
 3452SOL    HW211256   4.473   0.803   5.518
 3453SOL     OW11257   4.330   6.609   5.068
 3453SOL    HW111258   4.399   6.590   5.138
 3453SOL    HW211259   4.309   6.525   5.018
 3454SOL     OW11260   1.264   3.341   3.812
 3454SOL    HW111261   1.238   3.409   3.881
 3454SOL    HW211262   1.196   3.268   3.810
 3455SOL     OW11263   1.488   3.799   6.202
 3455SOL    HW111264   1.500   3.700   6.211
 3455SOL    HW211265   1.529   3.830   6.116
 3456SOL     OW11266   4.508   5.153   2.461
 3456SOL    HW111267   4.413   5.123   2.470
 3456SOL    HW211268   4.522   5.194   2.370
 3457SOL     OW11269   3.650   3.788   0.352
 3457SOL    HW111270   3.732   3.735   0.370
 3457SOL    HW211271   3.606   3.756   0.268
 3458SOL     OW11272   3.980   1.578   1.157
 3458SOL    HW111273   3.982   1.595   1.256
 3458SOL    HW211274   4.003   1.662   1.109
 3459SOL     OW11275   6.529   0.466   3.184
 3459SOL    HW111276   6.626   0.476   3.208
 3459SOL    HW211277   6.512   0.511   3.096
 3460SOL     OW11278   4.929   1.496   5.214
 3460SOL    HW111279   4.867   1.442   5.157
 3460SOL    HW211280   4.989   1.435   5.266
 3461SOL     OW11281   4.233   4.833   3.688
 3461SOL    HW111282   4.286   4.767   3.634
 3461SOL    HW211283   4.192   4.901   3.627
 3462SOL     OW11284   1.265   4.296   6.585
 3462SOL    HW111285   1.205   4.274   6.662
 3462SOL    HW211286   1.211   4.302   6.502
 3463SOL     OW11287   6.154   4.302   6.912
 3463SOL    HW111288   6.250   4.302   6.940
 3463SOL    HW211289   6.118   4.209   6.917
 3464SOL     OW11290   6.597   5.025   3.905
 3464SOL    HW111291   6.640   5.115   3.915
 3464SOL    HW211292   6.610   4.973   3.989
 3465SOL     OW11293   0.934   2.703   1.906
 3465SOL    HW111294   0.994   2.686   1.828
 3465SOL    HW211295   0.843   2.728   1.874
 3466SOL     OW11296   5.752   3.745   3.385
 3466SOL    HW111297   5.818   3.739   3.460
 3466SOL    HW211298   5.722   3.654   3.358
 3467SOL     OW11299   1.955   1.590   5.870
 3467SOL    HW111300   2.015   1.514   5.890
 3467SOL    HW211301   1.864   1.573   5.909
 3468SOL     OW11302   5.082   4.900   1.660
 3468SOL    HW111303   5.005   4.960   1.682
 3468SOL    HW211304   5.145   4.898   1.738
 3469SOL     OW11305   5.814   3.703   0.204
 3469SOL    HW111306   5.780   3.676   0.114
 3469SOL    HW211307   5.783   3.796   0.225
 3470SOL     OW11308   6.494   5.945   6.829
 3470SOL    HW111309   6.579   5.913   6.872
 3470SOL    HW211310   6.489   6.044   6.837
 3471SOL     OW11311   4.270   6.590   4.711
 3471SOL    HW111312   4.210   6.588   4.791
 3471SOL    HW211313   4.318   6.678   4.707
 3472SOL     OW11314   3.781   1.062   4.557
 3472SOL    HW111315   3.684   1.083   4.563
 3472SOL    HW211316   3.795   0.963   4.563
 3473SOL     OW11317   4.601   6.997   4.199
 3473SOL    HW111318   4.595   6.901   4.171
 3473SOL    HW211319   4.601   7.003   4.299
 3474SOL     OW11320   4.948   4.824   0.246
 3474SOL    HW111321   4.921   4.729   0.234
 3474SOL    HW211322   5.047   4.829   0.260
 3475SOL     OW11323   1.556   5.637   5.433
 3475SOL    HW111324   1.599   5.611   5.519
 3475SOL    HW211325   1.467   5.680   5.452
 3476SOL     OW11326   3.348   1.901   3.599
 3476SOL    HW111327   3.289   1.922   3.521
 3476SOL    HW211328   3.420   1.838   3.571
 3477SOL     OW11329   4.370   5.651   2.904
 3477SOL    HW111330   4.274   5.624   2.907
 3477SOL    HW211331   4.425   5.585   2.957
 3478SOL     OW11332   3.739   4.463   0.176
 3478SOL    HW111333   3.788   4.378   0.196
 3478SOL    HW211334   3.650   4.441   0.135
 3479SOL     OW11335   1.761   0.424   0.233
 3479SOL    HW111336   1.693   0.427   0.160
 3479SOL    HW211337   1.834   0.361   0.208
 3480SOL     OW11338   1.259   6.347   3.960
 3480SOL    HW111339   1.176   6.317   4.008
 3480SOL    HW211340   1.235   6.411   3.887
 3481SOL     OW11341   2.615   4.582   0.237
 3481SOL    HW111342   2.634   4.676   0.266
 3481SOL    HW211343   2.582   4.583   0.143
 3482SOL     OW11344   0.370   1.949   1.992
 3482SOL    HW111345   0.382   2.037   2.038
 3482SOL    HW211346   0.319   1.887   2.052
 3483SOL     OW11347   3.779   1.427   1.447
 3483SOL    HW111348   3.730   1.402   1.363
 3483SOL    HW211349   3.840   1.503   1.429
 3484SOL     OW11350   3.377   4.066   3.487
 3484SOL    HW111351   3.360   4.110   3.575
 3484SOL    HW211352   3.457   4.107   3.444
 3485SOL     OW11353   5.825   2.163   4.090
 3485SOL    HW111354   5.744   2.129   4.139
 3485SOL    HW211355   5.804   2.253   4.051
 3486SOL     OW11356   6.205   1.485   3.049
 3486SOL    HW111357   6.211   1.388   3.074
 3486SOL    HW211358   6.108   1.511   3.041
 3487SOL     OW11359   1.781   6.884   0.902
 3487SOL    HW111360   1.696   6.835   0.881
 3487SOL    HW211361   1.783   6.970   0.851
 3488SOL     OW11362   6.380   3.588   5.438
 3488SOL    HW111363   6.313   3.658   5.463
 3488SOL    HW211364   6.404   3.598   5.341
 3489SOL     OW11365   2.967   5.583   6.688
 3489SOL    HW111366   2.944   5.680   6.679
 3489SOL    HW211367   3.055   5.574   6.735
 3490SOL     OW11368   5.232   3.362   0.261
 3490SOL    HW111369   5.288   3.436   0.225
 3490SOL    HW211370   5.255   3.347   0.357
 3491SOL     OW11371   5.909   2.602   5.001
 3491SOL    HW111372   5.843   2.542   4.956
 3491SOL    HW211373   6.002   2.573   4.977
 3492SOL     OW11374   6.989   4.792   6.358
 3492SOL    HW111375   6.895   4.763   6.372
 3492SOL    HW211376   0.008   4.736   6.287
 3493SOL     OW11377   6.639   4.722   1.055
 3493SOL    HW111378   6.597   4.648   1.108
 3493SOL    HW211379   6.737   4.705   1.046
 3494SOL     OW11380   3.751   0.356   1.198
 3494SOL    HW111381   3.813   0.325   1.270
 3494SOL    HW211382   3.803   0.374   1.114
 3495SOL     OW11383   6.283   4.382   6.404
 3495SOL    HW111384   6.240   4.375   6.314
 3495SOL    HW211385   6.259   4.301   6.458
 3496SOL     OW11386   0.529   5.767   1.391
 3496SOL    HW111387   0.538   5.677   1.350
 3496SOL    HW211388   0.591   5.831   1.345
 3497SOL     OW11389   2.919   0.301   5.063
 3497SOL    HW111390   2.945   0.397   5.075
 3497SOL    HW211391   3.002   0.246   5.054
 3498SOL     OW11392   0.951   1.757   0.265
 3498SOL    HW111393   1.046   1.780   0.246
 3498SOL    HW211394   0.891   1.825   0.224
 3499SOL     OW11395   6.368   4.165   2.955
 3499SOL    HW111396   6.316   4.242   2.991
 3499SOL    HW211397   6.386   4.100   3.028
 3500SOL     OW11398   6.760   2.951   1.107
 3500SOL    HW111399   6.845   2.904   1.084
 3500SOL    HW211400   6.776   3.049   1.112
 3501SOL     OW11401   6.957   5.494   3.363
 3501SOL    HW111402   6.877   5.533   3.317
 3501SOL    HW211403   6.981   5.406   3.321
 3502SOL     OW11404   0.683   6.484   1.278
 3502SOL    HW111405   0.778   6.514   1.270
 3502SOL    HW211406   0.622   6.560   1.254
 3503SOL     OW11407   3.003   0.518   3.712
 3503SOL    HW111408   2.961   0.486   3.627
 3503SOL    HW211409   3.056   0.601   3.693
 3504SOL     OW11410   2.194   3.082   2.646
 3504SOL    HW111411   2.107   3.050   2.682
 3504SOL    HW211412   2.184   3.105   2.549
 3505SOL     OW11413   4.330   6.482   4.467
 3505SOL    HW111414   4.308   6.525   4.555
 3505SOL    HW211415   4.363   6.389   4.482
 3506SOL     OW11416   6.690   4.059   2.717
 3506SOL    HW111417   6.631   4.136   2.692
 3506SOL    HW211418   6.779   4.069   2.673
 3507SOL     OW11419   6.904   0.349   5.297
 3507SOL    HW111420   6.857   0.433   5.323
 3507SOL    HW211421   6.954   0.364   5.211
 3508SOL     OW11422   0.081   4.400   0.076
 3508SOL    HW111423   0.159   4.424   0.133
 3508SOL    HW211424   7.021   4.397   0.133
 3509SOL     OW11425   4.785   6.885   6.684
 3509SOL    HW111426   4.865   6.938   6.714
 3509SOL    HW211427   4.710   6.947   6.663
 3510SOL     OW11428   2.029   1.034   2.306
 3510SOL    HW111429   2.070   1.125   2.314
 3510SOL    HW211430   1.938   1.042   2.265
 3511SOL     OW11431   0.817   0.999   4.273
 3511SOL    HW111432   0.830   1.098   4.282
 3511SOL    HW211433   0.905   0.956   4.253
 3512SOL     OW11434   3.412   3.351   1.936
 3512SOL    HW111435   3.424   3.394   2.026
 3512SOL    HW211436   3.321   3.374   1.900
 3513SOL     OW11437   6.579   4.535   1.232
 3513SOL    HW111438   6.642   4.494   1.299
 3513SOL    HW211439   6.492   4.556   1.277
 3514SOL     OW11440   3.332   5.965   3.188
 3514SOL    HW111441   3.267   6.030   3.227
 3514SOL    HW211442   3.286   5.909   3.119
 3515SOL     OW11443   4.027   5.643   3.704
 3515SOL    HW111444   3.942   5.590   3.712
 3515SOL    HW211445   4.093   5.590   3.651
 3516SOL     OW11446   0.950   1.432   0.285
 3516SOL    HW111447   0.935   1.514   0.340
 3516SOL    HW211448   1.022   1.449   0.218
 3517SOL     OW11449   0.646   0.611   6.878
 3517SOL    HW111450   0.655   0.676   6.803
 3517SOL    HW211451   0.689   0.524   6.853
 3518SOL     OW11452   4.305   3.752   6.405
 3518SOL    HW111453   4.349   3.833   6.443
 3518SOL    HW211454   4.374   3.686   6.376
 3519SOL     OW11455   4.284   0.316   0.233
 3519SOL    HW111456   4.329   0.400   0.262
 3519SOL    HW211457   4.338   0.237   0.264
 3520SOL     OW11458   3.784   4.999   1.589
 3520SOL    HW111459   3.770   4.949   1.504
 3520SOL    HW211460   3.831   5.086   1.569
 3521SOL     OW11461   0.236   2.286   5.675
 3521SOL    HW111462   0.179   2.204   5.678
 3521SOL    HW211463   0.300   2.285   5.751
 3522SOL     OW11464   2.212   0.045   0.855
 3522SOL    HW111465   2.135   0.047   0.790
 3522SOL    HW211466   2.284   0.107   0.825
 3523SOL     OW11467   2.086   4.064   5.197
 3523SOL    HW111468   2.130   4.130   5.258
 3523SOL    HW211469   2.155   4.014   5.145
 3524SOL     OW11470   2.700   2.124   3.744
 3524SOL    HW111471   2.605   2.106   3.770
 3524SOL    HW211472   2.716   2.091   3.651
 3525SOL     OW11473   1.649   2.784   3.591
 3525SOL    HW111474   1.638   2.817   3.497
 3525SOL    HW211475   1.579   2.826   3.649
 3526SOL     OW11476   3.426   5.955   3.494
 3526SOL    HW111477   3.504   5.894   3.508
 3526SOL    HW211478   3.438   6.006   3.409
 3527SOL     OW11479   6.971   3.966   6.291
 3527SOL    HW111480   0.045   3.992   6.286
 3527SOL    HW211481   6.923   4.030   6.350
 3528SOL     OW11482   0.857   6.730   4.223
 3528SOL    HW111483   0.758   6.741   4.214
 3528SOL    HW211484   0.881   6.728   4.320
 3529SOL     OW11485   3.330   5.726   0.525
 3529SOL    HW111486   3.387   5.782   0.466
 3529SOL    HW211487   3.386   5.656   0.570
 3530SOL     OW11488   2.360   5.598   2.945
 3530SOL    HW111489   2.334   5.619   3.039
 3530SOL    HW211490   2.458   5.618   2.932
 3531SOL     OW11491   5.141   4.975   6.677
 3531SOL    HW111492   5.227   4.934   6.707
 3531SOL    HW211493   5.160   5.055   6.621
 3532SOL     OW11494   2.137   6.394   0.161
 3532SOL    HW111495   2.132   6.298   0.135
 3532SOL    HW211496   2.055   6.419   0.212
 3533SOL     OW11497   1.134   1.018   3.266
 3533SOL    HW111498   1.135   1.112   3.298
 3533SOL    HW211499   1.040   0.984   3.264
 3534SOL     OW11500   5.203   0.004   4.151
 3534SOL    HW111501   5.147   0.001   4.069
 3534SOL    HW211502   5.241   6.936   4.169
 3535SOL     OW11503   4.599   5.170   6.924
 3535SOL    HW111504   4.623   5.079   6.957
 3535SOL    HW211505   4.511   5.167   6.876
 3536SOL     OW11506   2.088   3.197   2.353
 3536SOL    HW111507   2.099   3.214   2.255
 3536SOL    HW211508   1.990   3.193   2.375
 3537SOL     OW11509   3.351   4.894   2.159
 3537SOL    HW111510   3.316   4.975   2.207
 3537SOL    HW211511   3.441   4.914   2.122
 3538SOL     OW11512   3.257   0.113   3.184
 3538SOL    HW111513   3.272   0.211   3.199
 3538SOL    HW211514   3.198   0.077   3.256
 3539SOL     OW11515   5.210   5.439   5.395
 3539SOL    HW111516   5.200   5.391   5.482
 3539SOL    HW211517   5.121   5.442   5.349
 3540SOL     OW11518   4.419   4.209   6.640
 3540SOL    HW111519   4.441   4.296   6.596
 3540SOL    HW211520   4.326   4.213   6.678
 3541SOL     OW11521   0.644   2.931   2.546
 3541SOL    HW111522   0.650   2.976   2.457
 3541SOL    HW211523   0.686   2.989   2.616
 3542SOL     OW11524   5.715   1.621   0.003
 3542SOL    HW111525   5.731   1.715   6.995
 3542SOL    HW211526   5.625   1.591   6.998
 3543SOL     OW11527   0.286   3.081   4.720
 3543SOL    HW111528   0.371   3.117   4.683
 3543SOL    HW211529   0.238   3.153   4.771
 3544SOL     OW11530   3.364   4.824   5.758
 3544SOL    HW111531   3.383   4.729   5.783
 3544SOL    HW211532   3.267   4.834   5.739
 3545SOL     OW11533   2.559   6.941   1.045
 3545SOL    HW111534   2.566   6.899   0.955
 3545SOL    HW211535   2.558   6.870   1.115
 3546SOL     OW11536   0.141   4.774   0.805
 3546SOL    HW111537   0.197   4.818   0.876
 3546SOL    HW211538   0.200   4.744   0.730
 3547SOL     OW11539   1.716   3.992   4.176
 3547SOL    HW111540   1.740   4.010   4.271
 3547SOL    HW211541   1.777   3.923   4.138
 3548SOL     OW11542   6.413   0.133   5.560
 3548SOL    HW111543   6.335   0.130   5.623
 3548SOL    HW211544   6.498   0.126   5.612
 3549SOL     OW11545   1.884   6.943   6.660
 3549SOL    HW111546   1.979   6.959   6.685
 3549SOL    HW211547   1.877   6.858   6.608
 3550SOL     OW11548   6.494   2.195   5.221
 3550SOL    HW111549   6.527   2.270   5.279
 3550SOL    HW211550   6.403   2.217   5.187
 3551SOL     OW11551   6.550   1.095   4.869
 3551SOL    HW111552   6.633   1.070   4.920
 3551SOL    HW211553   6.506   1.173   4.912
 3552SOL     OW11554   6.253   1.176   3.622
 3552SOL    HW111555   6.168   1.135   3.654
 3552SOL    HW211556   6.329   1.141   3.676
 3553SOL     OW11557   5.316   6.267   6.240
 3553SOL    HW111558   5.381   6.280   6.165
 3553SOL    HW211559   5.280   6.174   6.237
 3554SOL     OW11560   5.537   3.735   6.561
 3554SOL    HW111561   5.538   3.650   6.509
 3554SOL    HW211562   5.468   3.730   6.633
 3555SOL     OW11563   3.254   1.343   5.537
 3555SOL    HW111564   3.192   1.406   5.583
 3555SOL    HW211565   3.228   1.336   5.440
 3556SOL     OW11566   5.707   1.438   1.244
 3556SOL    HW111567   5.664   1.471   1.329
 3556SOL    HW211568   5.653   1.363   1.207
 3557SOL     OW11569   4.902   0.154   1.164
 3557SOL    HW111570   4.847   0.079   1.127
 3557SOL    HW211571   4.997   0.143   1.135
 3558SOL     OW11572   3.764   5.775   2.749
 3558SOL    HW111573   3.717   5.730   2.673
 3558SOL    HW211574   3.845   5.822   2.714
 3559SOL     OW11575   4.011   6.275   6.373
 3559SOL    HW111576   4.104   6.304   6.394
 3559SOL    HW211577   3.955   6.276   6.456
 3560SOL     OW11578   2.117   6.054   4.519
 3560SOL    HW111579   2.063   6.117   4.575
 3560SOL    HW211580   2.069   5.967   4.509
 3561SOL     OW11581   3.832   2.755   5.992
 3561SOL    HW111582   3.798   2.770   6.084
 3561SOL    HW211583   3.867   2.662   5.983
 3562SOL     OW11584   2.802   0.922   0.142
 3562SOL    HW111585   2.708   0.918   0.110
 3562SOL    HW211586   2.852   0.990   0.090
 3563SOL     OW11587   6.929   2.302   6.563
 3563SOL    HW111588   6.967   2.210   6.565
 3563SOL    HW211589   7.004   2.369   6.566
 3564SOL     OW11590   5.914   2.941   3.093
 3564SOL    HW111591   5.855   2.863   3.113
 3564SOL    HW211592   5.891   2.978   3.003
 3565SOL     OW11593   5.201   6.836   4.788
 3565SOL    HW111594   5.276   6.872   4.843
 3565SOL    HW211595   5.117   6.834   4.843
 3566SOL     OW11596   0.519   1.002   4.906
 3566SOL    HW111597   0.551   0.941   4.834
 3566SOL    HW211598   0.433   1.045   4.878
 3567SOL     OW11599   0.397   4.467   6.529
 3567SOL    HW111600   0.362   4.395   6.588
 3567SOL    HW211601   0.335   4.546   6.533
 3568SOL     OW11602   3.042   4.274   5.775
 3568SOL    HW111603   2.992   4.300   5.692
 3568SOL    HW211604   3.008   4.328   5.852
 3569SOL     OW11605   0.726   0.532   3.045
 3569SOL    HW111606   0.679   0.575   3.122
 3569SOL    HW211607   0.792   0.596   3.006
 3570SOL     OW11608   0.347   2.031   4.928
 3570SOL    HW111609   0.391   1.945   4.955
 3570SOL    HW211610   0.297   2.017   4.843
 3571SOL     OW11611   6.674   5.293   4.864
 3571SOL    HW111612   6.699   5.230   4.790
 3571SOL    HW211613   6.610   5.248   4.926
 3572SOL     OW11614   5.765   6.211   5.567
 3572SOL    HW111615   5.708   6.276   5.517
 3572SOL    HW211616   5.719   6.183   5.651
 3573SOL     OW11617   0.723   2.726   2.132
 3573SOL    HW111618   0.820   2.723   2.157
 3573SOL    HW211619   0.712   2.773   2.045
 3574SOL     OW11620   6.788   3.660   0.265
 3574SOL    HW111621   6.820   3.582   0.211
 3574SOL    HW211622   6.845   3.740   0.245
 3575SOL     OW11623   6.071   0.203   3.011
 3575SOL    HW111624   6.012   0.235   2.937
 3575SOL    HW211625   6.088   0.277   3.075
 3576SOL     OW11626   0.694   1.289   0.626
 3576SOL    HW111627   0.671   1.355   0.555
 3576SOL    HW211628   0.614   1.276   0.686
 3577SOL     OW11629   2.451   4.755   0.511
 3577SOL    HW111630   2.417   4.662   0.528
 3577SOL    HW211631   2.385   4.821   0.546
 3578SOL     OW11632   3.339   4.679   1.665
 3578SOL    HW111633   3.407   4.674   1.738
 3578SOL    HW211634   3.248   4.665   1.704
 3579SOL     OW11635   2.402   2.903   6.438
 3579SOL    HW111636   2.313   2.929   6.475
 3579SOL    HW211637   2.455   2.985   6.416
 3580SOL     OW11638   6.095   1.738   1.748
 3580SOL    HW111639   6.071   1.745   1.651
 3580SOL    HW211640   6.189   1.769   1.761
 3581SOL     OW11641   6.833   0.976   2.949
 3581SOL    HW111642   6.875   0.910   2.886
 3581SOL    HW211643   6.817   1.062   2.901
 3582SOL     OW11644   0.641   0.679   5.829
 3582SOL    HW111645   0.674   0.674   5.735
 3582SOL    HW211646   0.637   0.588   5.868
 3583SOL     OW11647   1.537   6.642   1.631
 3583SOL    HW111648   1.458   6.650   1.570
 3583SOL    HW211649   1.620   6.668   1.581
 3584SOL     OW11650   5.282   0.683   4.486
 3584SOL    HW111651   5.184   0.690   4.505
 3584SOL    HW211652   5.314   0.591   4.510
 3585SOL     OW11653   2.540   4.587   3.895
 3585SOL    HW111654   2.615   4.650   3.912
 3585SOL    HW211655   2.469   4.631   3.840
 3586SOL     OW11656   1.253   1.080   0.002
 3586SOL    HW111657   1.224   1.003   6.968
 3586SOL    HW211658   1.177   1.109   0.060
 3587SOL     OW11659   3.606   6.801   5.646
 3587SOL    HW111660   3.598   6.781   5.744
 3587SOL    HW211661   3.533   6.754   5.596
 3588SOL     OW11662   2.756   2.596   5.741
 3588SOL    HW111663   2.788   2.659   5.670
 3588SOL    HW211664   2.769   2.502   5.710
 3589SOL     OW11665   3.042   6.552   4.593
 3589SOL    HW111666   3.083   6.623   4.651
 3589SOL    HW211667   3.000   6.482   4.652
 3590SOL     OW11668   0.982   5.464   6.823
 3590SOL    HW111669   1.003   5.373   6.859
 3590SOL    HW211670   1.058   5.526   6.842
 3591SOL     OW11671   5.436   1.294   5.284
 3591SOL    HW111672   5.387   1.371   5.243
 3591SOL    HW211673   5.383   1.210   5.271
 3592SOL     OW11674   5.699   1.489   1.934
 3592SOL    HW111675   5.650   1.572   1.958
 3592SOL    HW211676   5.797   1.508   1.929
 3593SOL     OW11677   0.909   5.381   4.149
 3593SOL    HW111678   0.880   5.312   4.084
 3593SOL    HW211679   0.856   5.465   4.134
 3594SOL     OW11680   4.241   1.600   3.995
 3594SOL    HW111681   4.189   1.566   4.074
 3594SOL    HW211682   4.333   1.562   3.997
 3595SOL     OW11683   2.396   6.198   6.048
 3595SOL    HW111684   2.419   6.108   6.086
 3595SOL    HW211685   2.404   6.267   6.121
 3596SOL     OW11686   6.496   3.463   2.670
 3596SOL    HW111687   6.453   3.552   2.689
 3596SOL    HW211688   6.442   3.414   2.603
 3597SOL     OW11689   4.082   0.545   4.099
 3597SOL    HW111690   4.023   0.519   4.175
 3597SOL    HW211691   4.088   0.469   4.034
 3598SOL     OW11692   2.220   0.377   0.404
 3598SOL    HW111693   2.283   0.305   0.377
 3598SOL    HW211694   2.265   0.466   0.393
 3599SOL     OW11695   0.099   2.224   4.390
 3599SOL    HW111696   0.150   2.188   4.468
 3599SOL    HW211697   0.010   2.258   4.421
 3600SOL     OW11698   6.405   6.592   1.669
 3600SOL    HW111699   6.493   6.590   1.621
 3600SOL    HW211700   6.342   6.527   1.626
 3601SOL     OW11701   6.770   3.423   5.904
 3601SOL    HW111702   6.865   3.433   5.872
 3601SOL    HW211703   6.770   3.379   5.994
 3602SOL     OW11704   3.141   2.553   1.361
 3602SOL    HW111705   3.168   2.610   1.439
 3602SOL    HW211706   3.207   2.478   1.350
 3603SOL     OW11707   4.130   5.449   4.477
 3603SOL    HW111708   4.093   5.395   4.401
 3603SOL    HW211709   4.123   5.396   4.561
 3604SOL     OW11710   6.125   4.360   2.805
 3604SOL    HW111711   6.094   4.341   2.899
 3604SOL    HW211712   6.221   4.385   2.806
 3605SOL     OW11713   5.873   1.545   6.352
 3605SOL    HW111714   5.895   1.580   6.443
 3605SOL    HW211715   5.825   1.458   6.360
 3606SOL     OW11716   2.290   4.097   3.126
 3606SOL    HW111717   2.307   4.024   3.192
 3606SOL    HW211718   2.229   4.063   3.054
 3607SOL     OW11719   4.076   7.018   5.695
 3607SOL    HW111720   4.096   6.987   5.602
 3607SOL    HW211721   4.094   0.093   5.701
 3608SOL     OW11722   0.137   2.948   3.255
 3608SOL    HW111723   0.216   2.925   3.310
 3608SOL    HW211724   0.165   2.960   3.159
 3609SOL     OW11725   6.734   0.704   3.689
 3609SOL    HW111726   6.815   0.762   3.700
 3609SOL    HW211727   6.652   0.755   3.714
 3610SOL     OW11728   1.483   4.818   5.703
 3610SOL    HW111729   1.556   4.799   5.637
 3610SOL    HW211730   1.441   4.732   5.732
 3611SOL     OW11731   5.178   4.911   5.479
 3611SOL    HW111732   5.260   4.954   5.441
 3611SOL    HW211733   5.166   4.940   5.574
 3612SOL     OW11734   1.883   6.096   1.136
 3612SOL    HW111735   1.899   6.096   1.038
 3612SOL    HW211736   1.852   6.006   1.165
 3613SOL     OW11737   5.498   4.808   5.995
 3613SOL    HW111738   5.553   4.757   5.930
 3613SOL    HW211739   5.466   4.748   6.068
 3614SOL     OW11740   3.367   3.241   4.716
 3614SOL    HW111741   3.292   3.233   4.781
 3614SOL    HW211742   3.450   3.271   4.763
 3615SOL     OW11743   5.606   6.786   6.302
 3615SOL    HW111744   5.573   6.771   6.396
 3615SOL    HW211745   5.556   6.726   6.240
 3616SOL     OW11746   6.499   1.338   4.621
 3616SOL    HW111747   6.594   1.341   4.652
 3616SOL    HW211748   6.441   1.386   4.686
 3617SOL     OW11749   0.295   0.598   0.620
 3617SOL    HW111750   0.362   0.540   0.574
 3617SOL    HW211751   0.342   0.678   0.659
 3618SOL     OW11752   3.586   5.519   6.358
 3618SOL    HW111753   3.516   5.460   6.318
 3618SOL    HW211754   3.545   5.608   6.382
 3619SOL     OW11755   4.948   3.303   3.972
 3619SOL    HW111756   4.963   3.207   3.993
 3619SOL    HW211757   5.022   3.336   3.912
 3620SOL     OW11758   6.261   1.809   4.953
 3620SOL    HW111759   6.241   1.822   4.856
 3620SOL    HW211760   6.177   1.819   5.006
 3621SOL     OW11761   1.494   2.476   6.083
 3621SOL    HW111762   1.589   2.480   6.114
 3621SOL    HW211763   1.445   2.558   6.113
 3622SOL     OW11764   1.079   3.923   0.970
 3622SOL    HW111765   1.056   3.927   0.873
 3622SOL    HW211766   1.175   3.895   0.981
 3623SOL     OW11767   6.305   4.822   4.606
 3623SOL    HW111768   6.225   4.814   4.547
 3623SOL    HW211769   6.330   4.732   4.641
 3624SOL     OW11770   1.546   0.444   1.745
 3624SOL    HW111771   1.583   0.375   1.683
 3624SOL    HW211772   1.569   0.419   1.839
 3625SOL     OW11773   1.483   2.432   4.957
 3625SOL    HW111774   1.406   2.468   5.008
 3625SOL    HW211775   1.544   2.507   4.930
 3626SOL     OW11776   2.079   3.442   5.536
 3626SOL    HW111777   2.157   3.504   5.532
 3626SOL    HW211778   2.111   3.348   5.551
 3627SOL     OW11779   3.415   3.215   4.434
 3627SOL    HW111780   3.423   3.224   4.533
 3627SOL    HW211781   3.486   3.271   4.390
 3628SOL     OW11782   2.634   5.976   4.000
 3628SOL    HW111783   2.721   6.021   4.018
 3628SOL    HW211784   2.650   5.886   3.961
 3629SOL     OW11785   5.847   3.341   4.650
 3629SOL    HW111786   5.775   3.411   4.638
 3629SOL    HW211787   5.893   3.326   4.563
 3630SOL     OW11788   6.137   2.000   5.207
 3630SOL    HW111789   6.083   1.995   5.291
 3630SOL    HW211790   6.085   2.051   5.138
 3631SOL     OW11791   2.100   0.637   4.137
 3631SOL    HW111792   2.078   0.582   4.056
 3631SOL    HW211793   2.115   0.577   4.215
 3632SOL     OW11794   4.796   6.793   5.992
 3632SOL    HW111795   4.719   6.828   5.938
 3632SOL    HW211796   4.853   6.735   5.934
 3633SOL     OW11797   0.979   2.687   5.642
 3633SOL    HW111798   0.935   2.698   5.553
 3633SOL    HW211799   0.912   2.703   5.714
 3634SOL     OW11800   2.804   5.115   5.836
 3634SOL    HW111801   2.806   5.077   5.744
 3634SOL    HW211802   2.883   5.081   5.888
 3635SOL     OW11803   2.318   1.701   4.539
 3635SOL    HW111804   2.306   1.799   4.556
 3635SOL    HW211805   2.369   1.688   4.454
 3636SOL     OW11806   0.954   6.469   1.574
 3636SOL    HW111807   0.935   6.558   1.532
 3636SOL    HW211808   0.873   6.438   1.623
 3637SOL     OW11809   4.884   0.976   2.101
 3637SOL    HW111810   4.937   1.033   2.038
 3637SOL    HW211811   4.860   1.029   2.182
 3638SOL     OW11812   6.905   5.076   3.567
 3638SOL    HW111813   6.988   5.030   3.535
 3638SOL    HW211814   6.850   5.104   3.489
 3639SOL     OW11815   2.890   6.498   6.677
 3639SOL    HW111816   2.911   6.469   6.584
 3639SOL    HW211817   2.791   6.499   6.690
 3640SOL     OW11818   2.100   6.597   1.787
 3640SOL    HW111819   2.006   6.607   1.757
 3640SOL    HW211820   2.140   6.688   1.801
 3641SOL     OW11821   1.846   1.196   5.080
 3641SOL    HW111822   1.792   1.272   5.115
 3641SOL    HW211823   1.924   1.180   5.140
 3642SOL     OW11824   6.223   6.748   2.299
 3642SOL    HW111825   6.294   6.731   2.368
 3642SOL    HW211826   6.164   6.822   2.330
 3643SOL     OW11827   4.038   6.540   4.544
 3643SOL    HW111828   4.030   6.606   4.470
 3643SOL    HW211829   4.083   6.582   4.622
 3644SOL     OW11830   6.176   0.151   1.996
 3644SOL    HW111831   6.197   0.065   2.043
 3644SOL    HW211832   6.250   0.217   2.011
 3645SOL     OW11833   4.324   6.278   3.638
 3645SOL    HW111834   4.279   6.251   3.724
 3645SOL    HW211835   4.259   6.328   3.581
 3646SOL     OW11836   0.463   5.190   4.875
 3646SOL    HW111837   0.526   5.205   4.951
 3646SOL    HW211838   0.502   5.229   4.791
 3647SOL     OW11839   2.874   3.013   0.738
 3647SOL    HW111840   2.910   3.080   0.673
 3647SOL    HW211841   2.925   2.928   0.730
 3648SOL     OW11842   2.901   6.568   3.137
 3648SOL    HW111843   2.979   6.550   3.198
 3648SOL    HW211844   2.845   6.642   3.176
 3649SOL     OW11845   3.068   3.027   2.430
 3649SOL    HW111846   3.018   2.952   2.387
 3649SOL    HW211847   3.022   3.114   2.410
 3650SOL     OW11848   5.858   6.521   1.291
 3650SOL    HW111849   5.924   6.560   1.226
 3650SOL    HW211850   5.772   6.502   1.243
 3651SOL     OW11851   2.029   5.808   2.399
 3651SOL    HW111852   2.071   5.897   2.419
 3651SOL    HW211853   1.936   5.807   2.435
 3652SOL     OW11854   4.193   6.212   3.272
 3652SOL    HW111855   4.173   6.296   3.322
 3652SOL    HW211856   4.110   6.156   3.267
 3653SOL     OW11857   6.840   2.997   3.940
 3653SOL    HW111858   6.886   2.916   3.978
 3653SOL    HW211859   6.909   3.056   3.897
 3654SOL     OW11860   2.165   6.842   1.886
 3654SOL    HW111861   2.110   6.916   1.848
 3654SOL    HW211862   2.164   6.847   1.986
 3655SOL     OW11863   6.465   1.102   3.798
 3655SOL    HW111864   6.535   1.036   3.827
 3655SOL    HW211865   6.493   1.194   3.825
 3656SOL     OW11866   2.109   2.030   2.939
 3656SOL    HW111867   2.130   1.997   3.031
 3656SOL    HW211868   2.176   2.098   2.911
 3657SOL     OW11869   5.029   5.507   1.832
 3657SOL    HW111870   4.983   5.477   1.749
 3657SOL    HW211871   4.974   5.484   1.912
 3658SOL     OW11872   2.643   4.821   5.760
 3658SOL    HW111873   2.552   4.781   5.757
 3658SOL    HW211874   2.657   4.878   5.679
 3659SOL     OW11875   1.564   4.045   6.667
 3659SOL    HW111876   1.538   4.095   6.584
 3659SOL    HW211877   1.515   3.958   6.670
 3660SOL     OW11878   4.496   4.029   0.846
 3660SOL    HW111879   4.481   3.998   0.939
 3660SOL    HW211880   4.526   4.124   0.846
 3661SOL     OW11881   5.689   1.283   1.725
 3661SOL    HW111882   5.706   1.205   1.785
 3661SOL    HW211883   5.662   1.362   1.779
 3662SOL     OW11884   1.013   6.301   4.092
 3662SOL    HW111885   0.994   6.390   4.051
 3662SOL    HW211886   1.013   6.309   4.192
 3663SOL     OW11887   2.073   2.838   6.133
 3663SOL    HW111888   2.140   2.766   6.116
 3663SOL    HW211889   2.039   2.874   6.046
 3664SOL     OW11890   3.548   0.447   2.258
 3664SOL    HW111891   3.640   0.459   2.221
 3664SOL    HW211892   3.487   0.517   2.221
 3665SOL     OW11893   2.290   1.252   5.080
 3665SOL    HW111894   2.285   1.316   5.004
 3665SOL    HW211895   2.222   1.180   5.069
 3666SOL     OW11896   0.616   4.416   3.479
 3666SOL    HW111897   0.668   4.440   3.561
 3666SOL    HW211898   0.661   4.454   3.398
 3667SOL     OW11899   0.257   1.255   7.013
 3667SOL    HW111900   0.270   1.191   0.066
 3667SOL    HW211901   0.321   1.232   6.939
 3668SOL     OW11902   2.061   6.207   2.038
 3668SOL    HW111903   1.969   6.241   2.056
 3668SOL    HW211904   2.096   6.247   1.953
 3669SOL     OW11905   5.358   1.497   4.071
 3669SOL    HW111906   5.422   1.564   4.033
 3669SOL    HW211907   5.372   1.490   4.170
 3670SOL     OW11908   2.869   5.245   6.179
 3670SOL    HW111909   2.834   5.337   6.192
 3670SOL    HW211910   2.828   5.204   6.097
 3671SOL     OW11911   2.242   0.898   3.365
 3671SOL    HW111912   2.187   0.948   3.432
 3671SOL    HW211913   2.203   0.910   3.274
 3672SOL     OW11914   6.401   6.840   0.340
 3672SOL    HW111915   6.486   6.804   0.302
 3672SOL    HW211916   6.377   6.791   0.423
 3673SOL     OW11917   4.477   6.643   6.366
 3673SOL    HW111918   4.506   6.739   6.358
 3673SOL    HW211919   4.377   6.639   6.369
 3674SOL     OW11920   0.794   5.990   0.959
 3674SOL    HW111921   0.850   6.054   1.011
 3674SOL    HW211922   0.699   6.023   0.957
 3675SOL     OW11923   2.043   1.989   4.350
 3675SOL    HW111924   1.985   1.986   4.269
 3675SOL    HW211925   2.127   2.038   4.329
 3676SOL     OW11926   1.634   5.311   2.895
 3676SOL    HW111927   1.704   5.240   2.895
 3676SOL    HW211928   1.545   5.269   2.913
 3677SOL     OW11929   5.665   0.498   3.764
 3677SOL    HW111930   5.696   0.592   3.780
 3677SOL    HW211931   5.744   0.440   3.743
 3678SOL     OW11932   1.364   2.544   4.529
 3678SOL    HW111933   1.363   2.468   4.464
 3678SOL    HW211934   1.415   2.516   4.611
 3679SOL     OW11935   6.587   1.099   1.838
 3679SOL    HW111936   6.521   1.119   1.910
 3679SOL    HW211937   6.562   1.149   1.755
 3680SOL     OW11938   5.914   4.369   4.538
 3680SOL    HW111939   5.963   4.296   4.585
 3680SOL    HW211940   5.939   4.370   4.441
 3681SOL     OW11941   5.390   6.681   5.015
 3681SOL    HW111942   5.489   6.695   5.017
 3681SOL    HW211943   5.362   6.656   4.922
 3682SOL     OW11944   0.636   2.340   6.803
 3682SOL    HW111945   0.668   2.253   6.837
 3682SOL    HW211946   0.570   2.325   6.729
 3683SOL     OW11947   4.957   6.005   2.848
 3683SOL    HW111948   4.933   6.097   2.879
 3683SOL    HW211949   5.034   6.010   2.785
 3684SOL     OW11950   2.111   4.069   1.472
 3684SOL    HW111951   2.035   4.131   1.493
 3684SOL    HW211952   2.081   3.974   1.482
 3685SOL     OW11953   5.427   6.315   6.007
 3685SOL    HW111954   5.515   6.276   5.982
 3685SOL    HW211955   5.417   6.405   5.964
 3686SOL     OW11956   0.135   4.184   0.443
 3686SOL    HW111957   0.126   4.120   0.367
 3686SOL    HW211958   0.219   4.237   0.433
 3687SOL     OW11959   4.469   1.171   0.461
 3687SOL    HW111960   4.561   1.175   0.500
 3687SOL    HW211961   4.476   1.161   0.362
 3688SOL     OW11962   0.217   3.577   0.624
 3688SOL    HW111963   0.233   3.575   0.525
 3688SOL    HW211964   0.122   3.603   0.641
 3689SOL     OW11965   1.809   6.659   3.252
 3689SOL    HW111966   1.870   6.609   3.190
 3689SOL    HW211967   1.840   6.647   3.346
 3690SOL     OW11968   4.899   4.972   5.658
 3690SOL    HW111969   4.981   5.018   5.693
 3690SOL    HW211970   4.887   4.885   5.706
 3691SOL     OW11971   3.059   2.738   5.789
 3691SOL    HW111972   2.986   2.806   5.778
 3691SOL    HW211973   3.148   2.783   5.784
 3692SOL     OW11974   0.309   0.281   5.612
 3692SOL    HW111975   0.328   0.370   5.654
 3692SOL    HW211976   0.212   0.258   5.624
 3693SOL     OW11977   1.481   1.250   3.426
 3693SOL    HW111978   1.538   1.274   3.504
 3693SOL    HW211979   1.384   1.255   3.452
 3694SOL     OW11980   1.841   4.860   3.272
 3694SOL    HW111981   1.756   4.878   3.222
 3694SOL    HW211982   1.870   4.943   3.319
 3695SOL     OW11983   1.856   2.500   0.443
 3695SOL    HW111984   1.769   2.454   0.460
 3695SOL    HW211985   1.899   2.461   0.361
 3696SOL     OW11986   2.840   6.416   5.739
 3696SOL    HW111987   2.859   6.407   5.837
 3696SOL    HW211988   2.872   6.335   5.691
 3697SOL     OW11989   5.111   1.197   3.861
 3697SOL    HW111990   5.113   1.100   3.886
 3697SOL    HW211991   5.191   1.243   3.899
 3698SOL     OW11992   3.240   6.977   6.721
 3698SOL    HW111993   3.186   7.005   6.642
 3698SOL    HW211994   3.320   0.013   6.730
 3699SOL     OW11995   1.105   5.097   2.126
 3699SOL    HW111996   1.112   5.195   2.143
 3699SOL    HW211997   1.064   5.053   2.206
 3700SOL     OW11998   6.075   0.495   3.583
 3700SOL    HW111999   6.151   0.492   3.648
 3700SOL    HW212000   6.029   0.584   3.589
 3701SOL     OW12001   4.772   0.979   4.029
 3701SOL    HW112002   4.756   1.005   3.934
 3701SOL    HW212003   4.706   0.909   4.056
 3702SOL     OW12004   5.058   1.012   6.755
 3702SOL    HW112005   5.039   1.082   6.824
 3702SOL    HW212006   5.047   1.051   6.664
 3703SOL     OW12007   3.750   4.836   1.014
 3703SOL    HW112008   3.794   4.922   0.984
 3703SOL    HW212009   3.658   4.856   1.047
 3704SOL     OW12010   3.249   6.182   1.229
 3704SOL    HW112011   3.177   6.131   1.276
 3704SOL    HW212012   3.334   6.130   1.232
 3705SOL     OW12013   6.968   1.110   4.698
 3705SOL    HW112014   6.959   1.101   4.599
 3705SOL    HW212015   6.974   1.019   4.739
 3706SOL     OW12016   2.910   2.020   3.246
 3706SOL    HW112017   2.857   2.060   3.171
 3706SOL    HW212018   3.008   2.036   3.229
 3707SOL     OW12019   4.395   2.404   5.326
 3707SOL    HW112020   4.376   2.428   5.421
 3707SOL    HW212021   4.394   2.486   5.269
 3708SOL     OW12022   6.501   0.406   7.020
 3708SOL    HW112023   6.453   0.431   6.937
 3708SOL    HW212024   6.588   0.361   6.997
 3709SOL     OW12025   0.101   6.877   6.647
 3709SOL    HW112026   0.062   6.965   6.619
 3709SOL    HW212027   0.196   6.892   6.676
 3710SOL     OW12028   0.340   4.971   6.650
 3710SOL    HW112029   0.274   4.968   6.724
 3710SOL    HW212030   0.433   4.969   6.688
 3711SOL     OW12031   0.073   5.474   2.183
 3711SOL    HW112032   0.145   5.411   2.155
 3711SOL    HW212033   0.007   5.486   2.108
 3712SOL     OW12034   1.720   0.276   6.802
 3712SOL    HW112035   1.760   0.198   6.850
 3712SOL    HW212036   1.648   0.243   6.740
 3713SOL     OW12037   3.512   5.470   5.723
 3713SOL    HW112038   3.499   5.464   5.822
 3713SOL    HW212039   3.456   5.545   5.687
 3714SOL     OW12040   4.853   1.887   4.939
 3714SOL    HW112041   4.918   1.904   5.013
 3714SOL    HW212042   4.815   1.795   4.948
 3715SOL     OW12043   4.909   3.871   3.554
 3715SOL    HW112044   4.875   3.946   3.497
 3715SOL    HW212045   5.009   3.875   3.559
 3716SOL     OW12046   0.990   1.463   3.878
 3716SOL    HW112047   1.043   1.397   3.825
 3716SOL    HW212048   1.043   1.491   3.958
 3717SOL     OW12049   5.870   0.681   6.393
 3717SOL    HW112050   5.951   0.640   6.435
 3717SOL    HW212051   5.825   0.741   6.459
 3718SOL     OW12052   0.953   6.404   6.678
 3718SOL    HW112053   1.013   6.483   6.694
 3718SOL    HW212054   1.007   6.320   6.686
 3719SOL     OW12055   3.369   4.541   0.515
 3719SOL    HW112056   3.414   4.630   0.519
 3719SOL    HW212057   3.317   4.526   0.599
 3720SOL     OW12058   0.064   1.032   6.188
 3720SOL    HW112059   0.129   0.982   6.245
 3720SOL    HW212060   0.078   1.130   6.201
 3721SOL     OW12061   4.876   2.854   0.444
 3721SOL    HW112062   4.898   2.815   0.533
 3721SOL    HW212063   4.952   2.912   0.412
 3722SOL     OW12064   5.326   5.867   1.434
 3722SOL    HW112065   5.264   5.914   1.497
 3722SOL    HW212066   5.404   5.926   1.415
 3723SOL     OW12067   4.799   1.117   0.891
 3723SOL    HW112068   4.766   1.183   0.959
 3723SOL    HW212069   4.867   1.161   0.832
 3724SOL     OW12070   0.780   4.193   5.855
 3724SOL    HW112071   0.819   4.267   5.799
 3724SOL    HW212072   0.809   4.105   5.817
 3725SOL     OW12073   5.520   6.501   1.400
 3725SOL    HW112074   5.530   6.601   1.400
 3725SOL    HW212075   5.556   6.464   1.486
 3726SOL     OW12076   6.181   2.643   1.575
 3726SOL    HW112077   6.199   2.601   1.486
 3726SOL    HW212078   6.083   2.654   1.587
 3727SOL     OW12079   2.693   2.970   5.350
 3727SOL    HW112080   2.611   3.012   5.311
 3727SOL    HW212081   2.773   3.026   5.327
 3728SOL     OW12082   0.541   3.977   6.856
 3728SOL    HW112083   0.562   3.880   6.842
 3728SOL    HW212084   0.623   4.025   6.885
 3729SOL     OW12085   0.745   2.637   3.927
 3729SOL    HW112086   0.816   2.592   3.873
 3729SOL    HW212087   0.698   2.704   3.871
 3730SOL     OW12088   2.121   0.556   1.097
 3730SOL    HW112089   2.189   0.570   1.026
 3730SOL    HW212090   2.125   0.462   1.129
 3731SOL     OW12091   2.250   5.441   6.851
 3731SOL    HW112092   2.291   5.454   6.941
 3731SOL    HW212093   2.216   5.528   6.816
 3732SOL     OW12094   2.190   3.954   4.550
 3732SOL    HW112095   2.207   3.992   4.460
 3732SOL    HW212096   2.207   3.855   4.548
 3733SOL     OW12097   3.162   4.285   1.409
 3733SOL    HW112098   3.237   4.250   1.465
 3733SOL    HW212099   3.089   4.217   1.403
 3734SOL     OW12100   4.325   0.619   3.222
 3734SOL    HW112101   4.297   0.636   3.317
 3734SOL    HW212102   4.424   0.622   3.215
 3735SOL     OW12103   3.822   1.872   2.000
 3735SOL    HW112104   3.766   1.909   2.075
 3735SOL    HW212105   3.804   1.924   1.916
 3736SOL     OW12106   4.834   1.038   6.203
 3736SOL    HW112107   4.785   0.982   6.136
 3736SOL    HW212108   4.772   1.065   6.276
 3737SOL     OW12109   3.254   0.129   3.770
 3737SOL    HW112110   3.313   0.193   3.818
 3737SOL    HW212111   3.234   0.051   3.829
 3738SOL     OW12112   0.149   0.419   3.978
 3738SOL    HW112113   0.207   0.455   4.051
 3738SOL    HW212114   0.122   0.325   4.001
 3739SOL     OW12115   0.133   3.315   1.309
 3739SOL    HW112116   0.087   3.226   1.305
 3739SOL    HW212117   0.226   3.302   1.343
 3740SOL     OW12118   5.781   6.778   0.196
 3740SOL    HW112119   5.821   6.867   0.216
 3740SOL    HW212120   5.820   6.741   0.112
 3741SOL     OW12121   3.803   1.642   6.873
 3741SOL    HW112122   3.755   1.702   6.809
 3741SOL    HW212123   3.796   1.678   6.965
 3742SOL     OW12124   3.594   3.399   6.148
 3742SOL    HW112125   3.689   3.392   6.115
 3742SOL    HW212126   3.553   3.308   6.151
 3743SOL     OW12127   0.666   5.900   6.459
 3743SOL    HW112128   0.631   5.977   6.512
 3743SOL    HW212129   0.589   5.842   6.431
 3744SOL     OW12130   6.712   5.109   3.357
 3744SOL    HW112131   6.730   5.086   3.261
 3744SOL    HW212132   6.668   5.198   3.362
 3745SOL     OW12133   5.256   4.851   1.419
 3745SOL    HW112134   5.305   4.883   1.500
 3745SOL    HW212135   5.159   4.876   1.426
 3746SOL     OW12136   4.504   1.889   1.391
 3746SOL    HW112137   4.436   1.891   1.317
 3746SOL    HW212138   4.479   1.956   1.461
 3747SOL     OW12139   2.460   0.179   0.739
 3747SOL    HW112140   2.536   0.151   0.798
 3747SOL    HW212141   2.493   0.245   0.672
 3748SOL     OW12142   5.957   0.498   2.083
 3748SOL    HW112143   5.960   0.463   2.177
 3748SOL    HW212144   5.970   0.597   2.084
 3749SOL     OW12145   0.862   0.448   4.188
 3749SOL    HW112146   0.908   0.512   4.249
 3749SOL    HW212147   0.821   0.498   4.112
 3750SOL     OW12148   0.595   3.704   6.752
 3750SOL    HW112149   0.516   3.646   6.771
 3750SOL    HW212150   0.574   3.763   6.674
 3751SOL     OW12151   1.675   5.301   1.558
 3751SOL    HW112152   1.711   5.209   1.540
 3751SOL    HW212153   1.615   5.299   1.638
 3752SOL     OW12154   4.911   5.837   6.482
 3752SOL    HW112155   4.998   5.845   6.532
 3752SOL    HW212156   4.914   5.757   6.422
 3753SOL     OW12157   0.435   0.366   3.061
 3753SOL    HW112158   0.528   0.334   3.077
 3753SOL    HW212159   0.386   0.298   3.005
 3754SOL     OW12160   3.205   1.928   1.397
 3754SOL    HW112161   3.107   1.920   1.416
 3754SOL    HW212162   3.223   2.016   1.354
 3755SOL     OW12163   2.328   6.132   4.345
 3755SOL    HW112164   2.235   6.129   4.382
 3755SOL    HW212165   2.393   6.152   4.418
 3756SOL     OW12166   1.454   6.425   0.650
 3756SOL    HW112167   1.440   6.399   0.555
 3756SOL    HW212168   1.552   6.422   0.671
 3757SOL     OW12169   0.711   4.765   0.319
 3757SOL    HW112170   0.738   4.763   0.223
 3757SOL    HW212171   0.632   4.826   0.330
 3758SOL     OW12172   0.515   6.209   3.638
 3758SOL    HW112173   0.452   6.286   3.641
 3758SOL    HW212174   0.476   6.131   3.687
 3759SOL     OW12175   4.619   0.660   3.671
 3759SOL    HW112176   4.717   0.667   3.648
 3759SOL    HW212177   4.588   0.566   3.655
 3760SOL     OW12178   0.483   0.867   2.777
 3760SOL    HW112179   0.428   0.886   2.858
 3760SOL    HW212180   0.518   0.952   2.739
 3761SOL     OW12181   4.705   1.218   5.436
 3761SOL    HW112182   4.723   1.152   5.363
 3761SOL    HW212183   4.609   1.213   5.462
 3762SOL     OW12184   0.443   2.309   4.404
 3762SOL    HW112185   0.457   2.308   4.305
 3762SOL    HW212186   0.463   2.400   4.439
 3763SOL     OW12187   0.787   6.382   0.018
 3763SOL    HW112188   0.864   6.433   7.003
 3763SOL    HW212189   0.731   6.443   0.074
 3764SOL     OW12190   2.914   1.487   2.578
 3764SOL    HW112191   2.992   1.443   2.533
 3764SOL    HW212192   2.946   1.541   2.655
 3765SOL     OW12193   5.654   3.617   2.695
 3765SOL    HW112194   5.571   3.566   2.718
 3765SOL    HW212195   5.681   3.674   2.772
 3766SOL     OW12196   1.567   2.703   2.077
 3766SOL    HW112197   1.475   2.670   2.101
 3766SOL    HW212198   1.632   2.674   2.148
 3767SOL     OW12199   1.889   5.772   6.334
 3767SOL    HW112200   1.860   5.678   6.317
 3767SOL    HW212201   1.889   5.822   6.247
 3768SOL     OW12202   1.545   6.692   3.164
 3768SOL    HW112203   1.637   6.683   3.203
 3768SOL    HW212204   1.536   6.631   3.085
 3769SOL     OW12205   5.396   5.019   5.355
 3769SOL    HW112206   5.400   5.117   5.338
 3769SOL    HW212207   5.421   4.969   5.272
 3770SOL     OW12208   2.899   6.977   0.904
 3770SOL    HW112209   2.928   6.932   0.820
 3770SOL    HW212210   2.890   6.909   0.977
 3771SOL     OW12211   6.363   6.054   5.528
 3771SOL    HW112212   6.305   6.000   5.590
 3771SOL    HW212213   6.420   6.116   5.583
 3772SOL     OW12214   2.578   5.815   1.861
 3772SOL    HW112215   2.634   5.822   1.779
 3772SOL    HW212216   2.526   5.899   1.874
 3773SOL     OW12217   5.071   4.729   6.448
 3773SOL    HW112218   5.105   4.689   6.534
 3773SOL    HW212219   5.132   4.803   6.419
 3774SOL     OW12220   6.905   4.348   1.146
 3774SOL    HW112221   6.880   4.270   1.203
 3774SOL    HW212222   7.002   4.342   1.120
 3775SOL     OW12223   5.556   5.906   4.678
 3775SOL    HW112224   5.651   5.938   4.685
 3775SOL    HW212225   5.497   5.983   4.655
 3776SOL     OW12226   4.492   2.154   6.754
 3776SOL    HW112227   4.510   2.176   6.658
 3776SOL    HW212228   4.393   2.155   6.771
 3777SOL     OW12229   2.980   5.079   4.019
 3777SOL    HW112230   2.995   4.981   4.013
 3777SOL    HW212231   2.882   5.099   4.009
 3778SOL     OW12232   2.896   5.315   6.705
 3778SOL    HW112233   2.938   5.406   6.701
 3778SOL    HW212234   2.830   5.313   6.780
 3779SOL     OW12235   0.031   4.841   5.865
 3779SOL    HW112236   0.116   4.871   5.908
 3779SOL    HW212237   6.998   4.920   5.842
 3780SOL     OW12238   6.250   2.833   2.034
 3780SOL    HW112239   6.274   2.810   1.939
 3780SOL    HW212240   6.169   2.781   2.060
 3781SOL     OW12241   1.231   6.616   5.920
 3781SOL    HW112242   1.184   6.537   5.881
 3781SOL    HW212243   1.268   6.673   5.846
 3782SOL     OW12244   3.645   5.449   6.819
 3782SOL    HW112245   3.682   5.452   6.912
 3782SOL    HW212246   3.654   5.356   6.783
 3783SOL     OW12247   4.543   4.730   5.743
 3783SOL    HW112248   4.598   4.652   5.714
 3783SOL    HW212249   4.455   4.698   5.779
 3784SOL     OW12250   6.129   3.213   4.678
 3784SOL    HW112251   6.034   3.245   4.680
 3784SOL    HW212252   6.167   3.216   4.770
 3785SOL     OW12253   0.805   3.083   2.719
 3785SOL    HW112254   0.872   3.010   2.723
 3785SOL    HW212255   0.770   3.101   2.810
 3786SOL     OW12256   2.336   2.967   5.963
 3786SOL    HW112257   2.295   3.017   6.039
 3786SOL    HW212258   2.290   2.993   5.878
 3787SOL     OW12259   4.981   5.945   4.918
 3787SOL    HW112260   4.924   5.978   4.843
 3787SOL    HW212261   4.950   5.985   5.004
 3788SOL     OW12262   5.820   3.087   6.002
 3788SOL    HW112263   5.919   3.097   5.986
 3788SOL    HW212264   5.785   3.012   5.946
 3789SOL     OW12265   1.660   4.082   0.855
 3789SOL    HW112266   1.691   4.170   0.820
 3789SOL    HW212267   1.733   4.014   0.846
 3790SOL     OW12268   1.868   6.735   1.525
 3790SOL    HW112269   1.881   6.828   1.491
 3790SOL    HW212270   1.944   6.677   1.493
 3791SOL     OW12271   4.674   0.763   4.560
 3791SOL    HW112272   4.750   0.814   4.521
 3791SOL    HW212273   4.592   0.776   4.503
 3792SOL     OW12274   6.007   6.934   3.542
 3792SOL    HW112275   5.955   6.865   3.491
 3792SOL    HW212276   6.038   7.005   3.479
 3793SOL     OW12277   4.993   3.554   0.263
 3793SOL    HW112278   5.026   3.571   0.170
 3793SOL    HW212279   5.032   3.467   0.296
 3794SOL     OW12280   1.171   4.975   5.911
 3794SOL    HW112281   1.270   4.992   5.910
 3794SOL    HW212282   1.141   4.957   6.004
 3795SOL     OW12283   3.298   6.238   0.569
 3795SOL    HW112284   3.287   6.140   0.587
 3795SOL    HW212285   3.208   6.280   0.562
 3796SOL     OW12286   5.419   0.666   0.273
 3796SOL    HW112287   5.368   0.631   0.352
 3796SOL    HW212288   5.465   0.590   0.227
 3797SOL     OW12289   6.854   3.248   1.255
 3797SOL    HW112290   6.915   3.170   1.270
 3797SOL    HW212291   6.793   3.258   1.334
 3798SOL     OW12292   0.676   4.942   3.472
 3798SOL    HW112293   0.744   4.870   3.485
 3798SOL    HW212294   0.641   4.971   3.561
 3799SOL     OW12295   6.998   1.786   2.776
 3799SOL    HW112296   6.966   1.878   2.753
 3799SOL    HW212297   7.011   1.779   2.875
 3800SOL     OW12298   5.088   3.194   2.364
 3800SOL    HW112299   5.181   3.227   2.374
 3800SOL    HW212300   5.029   3.269   2.332
 3801SOL     OW12301   5.867   1.324   0.982
 3801SOL    HW112302   5.847   1.421   0.997
 3801SOL    HW212303   5.889   1.280   1.069
 3802SOL     OW12304   6.061   3.356   2.924
 3802SOL    HW112305   6.019   3.386   2.839
 3802SOL    HW212306   6.015   3.400   3.001
 3803SOL     OW12307   4.290   3.769   5.832
 3803SOL    HW112308   4.315   3.838   5.765
 3803SOL    HW212309   4.249   3.813   5.912
 3804SOL     OW12310   3.131   6.140   3.251
 3804SOL    HW112311   3.072   6.082   3.308
 3804SOL    HW212312   3.093   6.145   3.159
 3805SOL     OW12313   2.596   1.926   6.580
 3805SOL    HW112314   2.553   1.965   6.662
 3805SOL    HW212315   2.565   1.976   6.499
 3806SOL     OW12316   1.919   3.803   2.120
 3806SOL    HW112317   1.887   3.755   2.038
 3806SOL    HW212318   1.982   3.744   2.171
 3807SOL     OW12319   0.664   4.097   4.240
 3807SOL    HW112320   0.657   4.119   4.143
 3807SOL    HW212321   0.604   4.020   4.261
 3808SOL     OW12322   2.451   6.546   6.078
 3808SOL    HW112323   2.393   6.482   6.129
 3808SOL    HW212324   2.544   6.541   6.114
 3809SOL     OW12325   5.287   1.311   1.996
 3809SOL    HW112326   5.376   1.268   1.979
 3809SOL    HW212327   5.253   1.351   1.910
 3810SOL     OW12328   5.402   2.008   3.184
 3810SOL    HW112329   5.474   2.054   3.237
 3810SOL    HW212330   5.315   2.053   3.202
 3811SOL     OW12331   0.398   5.739   5.418
 3811SOL    HW112332   0.455   5.679   5.362
 3811SOL    HW212333   0.305   5.740   5.380
 3812SOL     OW12334   4.154   5.711   0.239
 3812SOL    HW112335   4.113   5.655   0.311
 3812SOL    HW212336   4.228   5.660   0.195
 3813SOL     OW12337   6.290   3.192   6.744
 3813SOL    HW112338   6.267   3.214   6.839
 3813SOL    HW212339   6.209   3.203   6.687
 3814SOL     OW12340   0.023   0.357   5.050
 3814SOL    HW112341   0.075   0.286   5.098
 3814SOL    HW212342   0.061   0.371   4.959
 3815SOL     OW12343   4.754   1.971   5.401
 3815SOL    HW112344   4.703   1.905   5.457
 3815SOL    HW212345   4.849   1.941   5.392
 3816SOL     OW12346   6.867   6.691   0.833
 3816SOL    HW112347   6.837   6.761   0.768
 3816SOL    HW212348   6.931   6.732   0.899
 3817SOL     OW12349   3.670   3.735   2.091
 3817SOL    HW112350   3.602   3.745   2.018
 3817SOL    HW212351   3.715   3.823   2.106
 3818SOL     OW12352   4.328   5.561   2.536
 3818SOL    HW112353   4.405   5.537   2.595
 3818SOL    HW212354   4.336   5.512   2.449
 3819SOL     OW12355   6.243   3.092   3.364
 3819SOL    HW112356   6.275   3.116   3.456
 3819SOL    HW212357   6.267   3.165   3.300
 3820SOL     OW12358   2.939   6.582   6.094
 3820SOL    HW112359   2.912   6.668   6.137
 3820SOL    HW212360   2.991   6.527   6.160
 3821SOL     OW12361   1.940   6.867   1.113
 3821SOL    HW112362   1.962   6.770   1.126
 3821SOL    HW212363   1.889   6.878   1.028
 3822SOL     OW12364   5.903   0.102   1.783
 3822SOL    HW112365   5.922   0.038   1.859
 3822SOL    HW212366   5.915   0.196   1.815
 3823SOL     OW12367   5.097   5.778   5.186
 3823SOL    HW112368   5.105   5.789   5.285
 3823SOL    HW212369   5.094   5.868   5.143
 3824SOL     OW12370   2.112   2.264   0.794
 3824SOL    HW112371   2.110   2.353   0.749
 3824SOL    HW212372   2.153   2.196   0.733
 3825SOL     OW12373   0.853   4.472   5.087
 3825SOL    HW112374   0.773   4.428   5.128
 3825SOL    HW212375   0.834   4.492   4.990
 3826SOL     OW12376   4.771   4.086   3.787
 3826SOL    HW112377   4.773   3.986   3.797
 3826SOL    HW212378   4.767   4.128   3.877
 3827SOL     OW12379   0.583   1.491   6.721
 3827SOL    HW112380   0.520   1.427   6.764
 3827SOL    HW212381   0.536   1.577   6.701
 3828SOL     OW12382   3.132   3.683   5.300
 3828SOL    HW112383   3.062   3.754   5.292
 3828SOL    HW212384   3.088   3.595   5.319
 3829SOL     OW12385   0.282   3.052   1.734
 3829SOL    HW112386   0.312   3.132   1.683
 3829SOL    HW212387   0.232   2.991   1.673
 3830SOL     OW12388   5.337   6.874   3.580
 3830SOL    HW112389   5.323   6.791   3.635
 3830SOL    HW212390   5.264   6.939   3.600
 3831SOL     OW12391   5.237   2.044   3.749
 3831SOL    HW112392   5.190   1.956   3.746
 3831SOL    HW212393   5.173   2.117   3.724
 3832SOL     OW12394   6.249   1.229   3.993
 3832SOL    HW112395   6.307   1.168   3.939
 3832SOL    HW212396   6.162   1.244   3.944
 3833SOL     OW12397   1.804   3.081   6.083
 3833SOL    HW112398   1.781   3.024   6.162
 3833SOL    HW212399   1.869   3.033   6.024
 3834SOL     OW12400   5.317   4.688   0.691
 3834SOL    HW112401   5.257   4.672   0.613
 3834SOL    HW212402   5.376   4.766   0.672
 3835SOL     OW12403   4.499   5.194   4.952
 3835SOL    HW112404   4.484   5.100   4.921
 3835SOL    HW212405   4.595   5.218   4.942
 3836SOL     OW12406   0.478   6.889   4.675
 3836SOL    HW112407   0.379   6.902   4.668
 3836SOL    HW212408   0.525   6.974   4.653
 3837SOL     OW12409   4.614   4.521   5.595
 3837SOL    HW112410   4.671   4.497   5.516
 3837SOL    HW212411   4.588   4.438   5.644
 3838SOL     OW12412   6.931   0.772   4.341
 3838SOL    HW112413   6.844   0.723   4.329
 3838SOL    HW212414   6.919   0.844   4.408
 3839SOL     OW12415   4.730   1.054   3.752
 3839SOL    HW112416   4.793   1.109   3.697
 3839SOL    HW212417   4.648   1.033   3.698
 3840SOL     OW12418   3.965   1.219   6.604
 3840SOL    HW112419   3.916   1.304   6.626
 3840SOL    HW212420   4.008   1.229   6.514
 3841SOL     OW12421   5.803   4.311   3.473
 3841SOL    HW112422   5.742   4.357   3.408
 3841SOL    HW212423   5.749   4.274   3.549
 3842SOL     OW12424   2.130   3.848   5.384
 3842SOL    HW112425   2.064   3.773   5.377
 3842SOL    HW212426   2.099   3.926   5.331
 3843SOL     OW12427   5.812   2.369   6.219
 3843SOL    HW112428   5.771   2.458   6.239
 3843SOL    HW212429   5.892   2.355   6.277
 3844SOL     OW12430   6.680   6.662   1.084
 3844SOL    HW112431   6.733   6.717   1.149
 3844SOL    HW212432   6.686   6.704   0.993
 3845SOL     OW12433   2.073   5.201   0.517
 3845SOL    HW112434   2.149   5.218   0.454
 3845SOL    HW212435   2.003   5.147   0.470
 3846SOL     OW12436   6.712   3.321   3.006
 3846SOL    HW112437   6.688   3.264   2.927
 3846SOL    HW212438   6.811   3.331   3.011
 3847SOL     OW12439   0.813   1.623   6.625
 3847SOL    HW112440   0.866   1.666   6.699
 3847SOL    HW212441   0.738   1.570   6.665
 3848SOL     OW12442   6.328   5.162   2.108
 3848SOL    HW112443   6.293   5.255   2.097
 3848SOL    HW212444   6.254   5.096   2.091
 3849SOL     OW12445   0.734   3.768   5.552
 3849SOL    HW112446   0.689   3.693   5.505
 3849SOL    HW212447   0.740   3.748   5.650
 3850SOL     OW12448   3.068   2.881   1.079
 3850SOL    HW112449   3.132   2.847   1.010
 3850SOL    HW212450   3.082   2.833   1.165
 3851SOL     OW12451   0.252   5.766   2.823
 3851SOL    HW112452   0.244   5.863   2.800
 3851SOL    HW212453   0.301   5.755   2.910
 3852SOL     OW12454   2.194   0.597   4.912
 3852SOL    HW112455   2.139   0.604   4.995
 3852SOL    HW212456   2.256   0.675   4.907
 3853SOL     OW12457   2.356   1.027   2.919
 3853SOL    HW112458   2.414   0.973   2.860
 3853SOL    HW212459   2.263   1.029   2.882
 3854SOL     OW12460   0.635   1.922   2.159
 3854SOL    HW112461   0.602   1.924   2.253
 3854SOL    HW212462   0.676   1.833   2.139
 3855SOL     OW12463   2.839   6.353   6.340
 3855SOL    HW112464   2.917   6.411   6.362
 3855SOL    HW212465   2.871   6.260   6.320
 3856SOL     OW12466   6.863   2.697   6.672
 3856SOL    HW112467   6.776   2.661   6.638
 3856SOL    HW212468   6.911   2.743   6.597
 3857SOL     OW12469   2.055   0.351   6.465
 3857SOL    HW112470   1.982   0.283   6.457
 3857SOL    HW212471   2.045   0.419   6.392
 3858SOL     OW12472   3.771   1.000   5.005
 3858SOL    HW112473   3.742   0.908   4.979
 3858SOL    HW212474   3.799   1.050   4.924
 3859SOL     OW12475   6.097   0.374   2.350
 3859SOL    HW112476   6.184   0.334   2.379
 3859SOL    HW212477   6.065   0.329   2.266
 3860SOL     OW12478   1.479   6.716   4.492
 3860SOL    HW112479   1.528   6.753   4.413
 3860SOL    HW212480   1.440   6.791   4.545
 3861SOL     OW12481   3.338   5.711   2.179
 3861SOL    HW112482   3.254   5.766   2.176
 3861SOL    HW212483   3.354   5.669   2.090
 3862SOL     OW12484   1.171   0.451   4.505
 3862SOL    HW112485   1.103   0.512   4.547
 3862SOL    HW212486   1.262   0.492   4.512
 3863SOL     OW12487   4.274   0.689   0.610
 3863SOL    HW112488   4.217   0.639   0.546
 3863SOL    HW212489   4.216   0.736   0.677
 3864SOL     OW12490   0.923   0.011   4.415
 3864SOL    HW112491   0.930   7.000   4.321
 3864SOL    HW212492   0.964   6.968   4.478
 3865SOL     OW12493   5.227   1.146   0.934
 3865SOL    HW112494   5.156   1.135   1.003
 3865SOL    HW212495   5.201   1.098   0.850
 3866SOL     OW12496   3.143   0.975   6.827
 3866SOL    HW112497   3.146   0.875   6.828
 3866SOL    HW212498   3.203   1.011   6.898
 3867SOL     OW12499   6.888   3.308   2.497
 3867SOL    HW112500   6.808   3.248   2.492
 3867SOL    HW212501   6.887   3.359   2.583
 3868SOL     OW12502   3.749   0.337   6.914
 3868SOL    HW112503   3.772   0.278   6.992
 3868SOL    HW212504   3.833   0.376   6.876
 3869SOL     OW12505   4.021   1.342   4.190
 3869SOL    HW112506   3.994   1.302   4.103
 3869SOL    HW212507   4.019   1.272   4.261
 3870SOL     OW12508   6.969   1.648   5.752
 3870SOL    HW112509   6.968   1.723   5.687
 3870SOL    HW212510   0.035   1.604   5.752
 3871SOL     OW12511   2.602   5.671   4.003
 3871SOL    HW112512   2.504   5.656   4.014
 3871SOL    HW212513   2.641   5.703   4.089
 3872SOL     OW12514   2.943   3.927   5.235
 3872SOL    HW112515   2.905   3.867   5.164
 3872SOL    HW212516   2.868   3.977   5.279
 3873SOL     OW12517   4.889   1.767   6.855
 3873SOL    HW112518   4.972   1.739   6.902
 3873SOL    HW212519   4.837   1.830   6.914
 3874SOL     OW12520   2.704   1.266   1.410
 3874SOL    HW112521   2.763   1.188   1.391
 3874SOL    HW212522   2.620   1.258   1.355
 3875SOL     OW12523   1.109   1.673   6.270
 3875SOL    HW112524   1.209   1.679   6.272
 3875SOL    HW212525   1.080   1.588   6.312
 3876SOL     OW12526   3.409   5.546   2.659
 3876SOL    HW112527   3.430   5.630   2.708
 3876SOL    HW212528   3.383   5.567   2.565
 3877SOL     OW12529   0.663   1.432   5.570
 3877SOL    HW112530   0.570   1.466   5.585
 3877SOL    HW212531   0.711   1.427   5.658
 3878SOL     OW12532   4.780   1.322   5.064
 3878SOL    HW112533   4.787   1.269   4.979
 3878SOL    HW212534   4.684   1.338   5.085
 3879SOL     OW12535   5.278   5.793   0.023
 3879SOL    HW112536   5.336   5.722   0.063
 3879SOL    HW212537   5.228   5.840   0.096
 3880SOL     OW12538   5.151   4.918   4.003
 3880SOL    HW112539   5.114   4.930   4.095
 3880SOL    HW212540   5.154   4.820   3.982
 3881SOL     OW12541   1.462   3.084   0.486
 3881SOL    HW112542   1.445   3.116   0.579
 3881SOL    HW212543   1.440   3.157   0.421
 3882SOL     OW12544   0.400   2.290   5.877
 3882SOL    HW112545   0.389   2.291   5.976
 3882SOL    HW212546   0.449   2.372   5.847
 3883SOL     OW12547   4.335   5.998   4.086
 3883SOL    HW112548   4.353   5.920   4.025
 3883SOL    HW212549   4.321   5.964   4.179
 3884SOL     OW12550   0.598   3.802   2.297
 3884SOL    HW112551   0.549   3.816   2.383
 3884SOL    HW212552   0.541   3.832   2.220
 3885SOL     OW12553   4.360   5.465   2.255
 3885SOL    HW112554   4.445   5.481   2.303
 3885SOL    HW212555   4.325   5.551   2.218
 3886SOL     OW12556   2.575   5.752   5.879
 3886SOL    HW112557   2.499   5.775   5.819
 3886SOL    HW212558   2.652   5.814   5.862
 3887SOL     OW12559   1.940   5.649   1.914
 3887SOL    HW112560   1.947   5.705   1.996
 3887SOL    HW212561   2.032   5.633   1.877
 3888SOL     OW12562   5.213   5.094   3.792
 3888SOL    HW112563   5.288   5.139   3.840
 3888SOL    HW212564   5.165   5.033   3.855
 3889SOL     OW12565   5.550   4.383   0.145
 3889SOL    HW112566   5.618   4.430   0.200
 3889SOL    HW212567   5.561   4.284   0.156
 3890SOL     OW12568   5.640   3.827   3.990
 3890SOL    HW112569   5.615   3.740   3.948
 3890SOL    HW212570   5.557   3.877   4.014
 3891SOL     OW12571   5.056   5.343   3.951
 3891SOL    HW112572   5.051   5.297   3.862
 3891SOL    HW212573   4.964   5.346   3.992
 3892SOL     OW12574   6.751   2.115   1.417
 3892SOL    HW112575   6.780   2.125   1.512
 3892SOL    HW212576   6.764   2.202   1.369
 3893SOL     OW12577   4.000   3.300   3.393
 3893SOL    HW112578   4.017   3.364   3.317
 3893SOL    HW212579   4.059   3.322   3.470
 3894SOL     OW12580   4.314   0.892   5.954
 3894SOL    HW112581   4.235   0.840   5.987
 3894SOL    HW212582   4.349   0.949   6.029
 3895SOL     OW12583   0.542   0.014   3.744
 3895SOL    HW112584   0.487   0.098   3.753
 3895SOL    HW212585   0.569   0.003   3.648
 3896SOL     OW12586   2.110   1.237   6.237
 3896SOL    HW112587   2.085   1.209   6.330
 3896SOL    HW212588   2.097   1.335   6.227
 3897SOL     OW12589   3.993   5.776   1.532
 3897SOL    HW112590   4.059   5.851   1.538
 3897SOL    HW212591   3.932   5.791   1.454
 3898SOL     OW12592   3.313   2.949   1.732
 3898SOL    HW112593   3.267   3.013   1.671
 3898SOL    HW212594   3.249   2.878   1.761
 3899SOL     OW12595   3.053   0.302   5.371
 3899SOL    HW112596   3.020   0.263   5.285
 3899SOL    HW212597   3.150   0.280   5.383
 3900SOL     OW12598   4.618   4.850   2.908
 3900SOL    HW112599   4.556   4.896   2.845
 3900SOL    HW212600   4.569   4.777   2.956
 3901SOL     OW12601   2.749   0.980   6.591
 3901SOL    HW112602   2.669   1.023   6.634
 3901SOL    HW212603   2.806   0.938   6.661
 3902SOL     OW12604   5.241   3.148   3.195
 3902SOL    HW112605   5.278   3.137   3.103
 3902SOL    HW212606   5.143   3.166   3.189
 3903SOL     OW12607   3.095   4.489   6.163
 3903SOL    HW112608   3.026   4.491   6.091
 3903SOL    HW212609   3.082   4.409   6.221
 3904SOL     OW12610   2.082   6.848   0.648
 3904SOL    HW112611   2.062   6.886   0.558
 3904SOL    HW212612   2.004   6.865   0.709
 3905SOL     OW12613   6.935   6.343   4.990
 3905SOL    HW112614   6.858   6.337   5.054
 3905SOL    HW212615   6.904   6.387   4.906
 3906SOL     OW12616   6.887   6.061   5.088
 3906SOL    HW112617   6.934   5.998   5.027
 3906SOL    HW212618   6.911   6.039   5.183
 3907SOL     OW12619   5.748   1.953   3.717
 3907SOL    HW112620   5.742   1.939   3.618
 3907SOL    HW212621   5.683   1.892   3.763
 3908SOL     OW12622   2.824   4.343   6.179
 3908SOL    HW112623   2.761   4.291   6.121
 3908SOL    HW212624   2.803   4.441   6.170
 3909SOL     OW12625   5.941   5.934   3.430
 3909SOL    HW112626   6.038   5.912   3.426
 3909SOL    HW212627   5.923   5.997   3.506
 3910SOL     OW12628   3.689   3.262   2.860
 3910SOL    HW112629   3.730   3.176   2.890
 3910SOL    HW212630   3.703   3.274   2.761
 3911SOL     OW12631   5.889   2.598   5.675
 3911SOL    HW112632   5.824   2.616   5.602
 3911SOL    HW212633   5.981   2.595   5.637
 3912SOL     OW12634   5.266   2.661   6.178
 3912SOL    HW112635   5.184   2.604   6.177
 3912SOL    HW212636   5.333   2.622   6.241
 3913SOL     OW12637   1.377   6.816   1.304
 3913SOL    HW112638   1.411   6.854   1.390
 3913SOL    HW212639   1.453   6.800   1.242
 3914SOL     OW12640   2.989   5.954   5.677
 3914SOL    HW112641   3.018   5.960   5.773
 3914SOL    HW212642   3.030   5.873   5.635
 3915SOL     OW12643   0.218   5.812   1.376
 3915SOL    HW112644   0.187   5.863   1.456
 3915SOL    HW212645   0.298   5.757   1.401
 3916SOL     OW12646   0.786   0.252   3.008
 3916SOL    HW112647   0.717   0.181   2.994
 3916SOL    HW212648   0.743   0.342   3.000
 3917SOL     OW12649   2.666   0.051   6.488
 3917SOL    HW112650   2.707   6.994   6.532
 3917SOL    HW212651   2.728   0.087   6.418
 3918SOL     OW12652   5.639   3.444   6.794
 3918SOL    HW112653   5.637   3.398   6.706
 3918SOL    HW212654   5.621   3.379   6.867
 3919SOL     OW12655   3.273   6.692   0.755
 3919SOL    HW112656   3.237   6.785   0.767
 3919SOL    HW212657   3.304   6.681   0.660
 3920SOL     OW12658   2.495   1.083   6.666
 3920SOL    HW112659   2.472   1.149   6.594
 3920SOL    HW212660   2.412   1.039   6.700
 3921SOL     OW12661   0.642   3.567   1.403
 3921SOL    HW112662   0.729   3.616   1.399
 3921SOL    HW212663   0.603   3.576   1.495
 3922SOL     OW12664   1.450   5.291   1.326
 3922SOL    HW112665   1.542   5.318   1.296
 3922SOL    HW212666   1.406   5.368   1.372
 3923SOL     OW12667   6.677   0.340   1.035
 3923SOL    HW112668   6.774   0.320   1.024
 3923SOL    HW212669   6.626   0.296   0.961
 3924SOL     OW12670   6.524   4.905   4.444
 3924SOL    HW112671   6.595   4.854   4.492
 3924SOL    HW212672   6.435   4.885   4.485
 3925SOL     OW12673   1.494   4.736   1.919
 3925SOL    HW112674   1.456   4.816   1.873
 3925SOL    HW212675   1.466   4.736   2.015
 3926SOL     OW12676   3.703   5.425   2.957
 3926SOL    HW112677   3.772   5.444   3.026
 3926SOL    HW212678   3.649   5.508   2.940
 3927SOL     OW12679   1.547   3.171   6.808
 3927SOL    HW112680   1.531   3.268   6.824
 3927SOL    HW212681   1.466   3.130   6.767
 3928SOL     OW12682   6.188   6.370   6.266
 3928SOL    HW112683   6.179   6.270   6.261
 3928SOL    HW212684   6.133   6.404   6.343
 3929SOL     OW12685   0.864   1.706   4.258
 3929SOL    HW112686   0.912   1.791   4.237
 3929SOL    HW212687   0.795   1.688   4.188
 3930SOL     OW12688   2.836   2.027   3.974
 3930SOL    HW112689   2.801   2.109   4.021
 3930SOL    HW212690   2.818   2.035   3.876
 3931SOL     OW12691   4.636   0.116   2.079
 3931SOL    HW112692   4.652   0.204   2.124
 3931SOL    HW212693   4.598   0.132   1.988
 3932SOL     OW12694   1.563   2.421   4.033
 3932SOL    HW112695   1.553   2.344   4.095
 3932SOL    HW212696   1.514   2.501   4.069
 3933SOL     OW12697   1.830   0.623   5.979
 3933SOL    HW112698   1.843   0.721   5.995
 3933SOL    HW212699   1.735   0.599   5.998
 3934SOL     OW12700   5.511   6.562   7.016
 3934SOL    HW112701   5.517   6.604   0.084
 3934SOL    HW212702   5.416   6.563   6.985
 3935SOL     OW12703   5.235   6.258   1.497
 3935SOL    HW112704   5.191   6.287   1.412
 3935SOL    HW212705   5.264   6.340   1.548
 3936SOL     OW12706   0.608   4.309   2.598
 3936SOL    HW112707   0.566   4.339   2.512
 3936SOL    HW212708   0.680   4.373   2.625
 3937SOL     OW12709   0.428   2.196   2.148
 3937SOL    HW112710   0.490   2.272   2.131
 3937SOL    HW212711   0.465   2.138   2.221
 3938SOL     OW12712   6.728   2.699   3.515
 3938SOL    HW112713   6.705   2.795   3.502
 3938SOL    HW212714   6.726   2.651   3.427
 3939SOL     OW12715   2.283   1.776   1.525
 3939SOL    HW112716   2.262   1.866   1.563
 3939SOL    HW212717   2.364   1.782   1.467
 3940SOL     OW12718   4.427   3.949   1.124
 3940SOL    HW112719   4.459   3.854   1.112
 3940SOL    HW212720   4.459   3.983   1.213
 3941SOL     OW12721   4.694   3.054   6.807
 3941SOL    HW112722   4.696   2.954   6.809
 3941SOL    HW212723   4.744   3.086   6.726
 3942SOL     OW12724   0.027   0.550   0.539
 3942SOL    HW112725   0.031   0.460   0.494
 3942SOL    HW212726   0.108   0.562   0.597
 3943SOL     OW12727   6.528   2.989   5.210
 3943SOL    HW112728   6.499   3.085   5.205
 3943SOL    HW212729   6.490   2.939   5.132
 3944SOL     OW12730   5.671   1.330   4.771
 3944SOL    HW112731   5.707   1.245   4.810
 3944SOL    HW212732   5.720   1.408   4.811
 3945SOL     OW12733   7.006   0.455   1.034
 3945SOL    HW112734   6.932   0.507   0.992
 3945SOL    HW212735   0.062   0.456   0.973
 3946SOL     OW12736   3.965   5.153   3.356
 3946SOL    HW112737   3.915   5.091   3.297
 3946SOL    HW212738   3.935   5.247   3.339
 3947SOL     OW12739   6.631   4.286   6.152
 3947SOL    HW112740   6.571   4.222   6.104
 3947SOL    HW212741   6.708   4.310   6.092
 3948SOL     OW12742   6.124   3.899   0.784
 3948SOL    HW112743   6.123   3.990   0.827
 3948SOL    HW212744   6.132   3.829   0.855
 3949SOL     OW12745   5.685   6.136   3.284
 3949SOL    HW112746   5.603   6.081   3.300
 3949SOL    HW212747   5.761   6.075   3.261
 3950SOL     OW12748   1.495   6.096   0.682
 3950SOL    HW112749   1.418   6.113   0.621
 3950SOL    HW212750   1.541   6.012   0.655
 3951SOL     OW12751   5.930   6.027   1.739
 3951SOL    HW112752   5.881   6.001   1.656
 3951SOL    HW212753   5.971   5.947   1.781
 3952SOL     OW12754   5.962   1.763   6.659
 3952SOL    HW112755   5.958   1.666   6.681
 3952SOL    HW212756   5.871   1.796   6.634
 3953SOL     OW12757   3.308   4.122   2.869
 3953SOL    HW112758   3.240   4.137   2.942
 3953SOL    HW212759   3.274   4.053   2.806
 3954SOL     OW12760   3.878   4.995   5.596
 3954SOL    HW112761   3.891   4.980   5.694
 3954SOL    HW212762   3.828   5.080   5.581
 3955SOL     OW12763   3.974   1.457   4.672
 3955SOL    HW112764   4.068   1.482   4.649
 3955SOL    HW212765   3.971   1.361   4.699
 3956SOL     OW12766   2.269   1.158   1.466
 3956SOL    HW112767   2.339   1.089   1.451
 3956SOL    HW212768   2.289   1.238   1.410
 3957SOL     OW12769   3.337   1.161   3.949
 3957SOL    HW112770   3.344   1.224   4.026
 3957SOL    HW212771   3.299   1.209   3.870
 3958SOL     OW12772   5.644   6.707   5.487
 3958SOL    HW112773   5.589   6.776   5.440
 3958SOL    HW212774   5.590   6.664   5.559
 3959SOL     OW12775   5.582   5.221   6.631
 3959SOL    HW112776   5.602   5.154   6.559
 3959SOL    HW212777   5.643   5.299   6.622
 3960SOL     OW12778   6.139   2.086   4.764
 3960SOL    HW112779   6.127   1.989   4.744
 3960SOL    HW212780   6.223   2.118   4.720
 3961SOL     OW12781   5.393   6.319   4.441
 3961SOL    HW112782   5.486   6.310   4.404
 3961SOL    HW212783   5.355   6.408   4.413
 3962SOL     OW12784   6.800   5.429   5.085
 3962SOL    HW112785   6.753   5.387   5.007
 3962SOL    HW212786   6.826   5.357   5.150
 3963SOL     OW12787   4.675   6.931   2.278
 3963SOL    HW112788   4.688   6.993   2.200
 3963SOL    HW212789   4.696   6.837   2.249
 3964SOL     OW12790   5.004   3.094   3.569
 3964SOL    HW112791   5.048   3.022   3.622
 3964SOL    HW212792   5.071   3.165   3.548
 3965SOL     OW12793   4.817   3.898   4.131
 3965SOL    HW112794   4.814   3.842   4.213
 3965SOL    HW212795   4.795   3.842   4.051
 3966SOL     OW12796   2.185   6.958   6.487
 3966SOL    HW112797   2.204   6.874   6.538
 3966SOL    HW212798   2.155   0.006   6.551
 3967SOL     OW12799   1.873   4.511   3.981
 3967SOL    HW112800   1.833   4.570   4.051
 3967SOL    HW212801   1.876   4.416   4.014
 3968SOL     OW12802   4.015   0.154   0.732
 3968SOL    HW112803   4.075   0.156   0.812
 3968SOL    HW212804   4.025   0.066   0.685
 3969SOL     OW12805   0.247   5.139   3.238
 3969SOL    HW112806   0.299   5.135   3.324
 3969SOL    HW212807   0.182   5.063   3.234
 3970SOL     OW12808   5.133   5.752   1.858
 3970SOL    HW112809   5.209   5.752   1.923
 3970SOL    HW212810   5.104   5.658   1.841
 3971SOL     OW12811   1.713   6.392   3.446
 3971SOL    HW112812   1.652   6.326   3.490
 3971SOL    HW212813   1.731   6.468   3.509
 3972SOL     OW12814   1.293   3.674   0.055
 3972SOL    HW112815   1.393   3.666   0.060
 3972SOL    HW212816   1.269   3.736   7.003
 3973SOL     OW12817   1.845   4.741   0.811
 3973SOL    HW112818   1.813   4.718   0.903
 3973SOL    HW212819   1.934   4.699   0.794
 3974SOL     OW12820   2.753   1.449   5.743
 3974SOL    HW112821   2.725   1.449   5.647
 3974SOL    HW212822   2.687   1.501   5.797
 3975SOL     OW12823   6.340   2.889   6.387
 3975SOL    HW112824   6.282   2.886   6.468
 3975SOL    HW212825   6.320   2.972   6.335
 3976SOL     OW12826   2.000   4.663   2.509
 3976SOL    HW112827   2.003   4.671   2.609
 3976SOL    HW212828   2.082   4.617   2.476
 3977SOL     OW12829   0.799   3.204   0.218
 3977SOL    HW112830   0.821   3.117   0.173
 3977SOL    HW212831   0.858   3.217   0.297
 3978SOL     OW12832   6.230   4.849   4.122
 3978SOL    HW112833   6.238   4.946   4.096
 3978SOL    HW212834   6.234   4.792   4.040
 3979SOL     OW12835   4.453   6.146   5.932
 3979SOL    HW112836   4.365   6.097   5.931
 3979SOL    HW212837   4.449   6.217   6.002
 3980SOL     OW12838   5.394   5.059   5.910
 3980SOL    HW112839   5.430   4.969   5.933
 3980SOL    HW212840   5.451   5.101   5.839
 3981SOL     OW12841   4.356   5.532   6.932
 3981SOL    HW112842   4.278   5.579   6.892
 3981SOL    HW212843   4.349   5.534   0.009
 3982SOL     OW12844   2.890   5.896   3.212
 3982SOL    HW112845   2.902   5.809   3.164
 3982SOL    HW212846   2.834   5.882   3.294
 3983SOL     OW12847   3.616   5.800   4.259
 3983SOL    HW112848   3.521   5.791   4.232
 3983SOL    HW212849   3.661   5.870   4.203
 3984SOL     OW12850   6.446   2.810   3.417
 3984SOL    HW112851   6.503   2.862   3.480
 3984SOL    HW212852   6.490   2.807   3.327
 3985SOL     OW12853   3.933   5.365   6.626
 3985SOL    HW112854   4.025   5.328   6.610
 3985SOL    HW212855   3.895   5.324   6.709
 3986SOL     OW12856   5.158   0.618   2.664
 3986SOL    HW112857   5.143   0.647   2.570
 3986SOL    HW212858   5.220   0.682   2.710
 3987SOL     OW12859   3.963   5.830   4.881
 3987SOL    HW112860   3.968   5.857   4.977
 3987SOL    HW212861   3.943   5.910   4.824
 3988SOL     OW12862   4.421   5.372   0.756
 3988SOL    HW112863   4.425   5.472   0.750
 3988SOL    HW212864   4.407   5.334   0.664
 3989SOL     OW12865   6.179   3.076   1.110
 3989SOL    HW112866   6.092   3.126   1.116
 3989SOL    HW212867   6.167   2.993   1.055
 3990SOL     OW12868   0.089   1.503   1.972
 3990SOL    HW112869   0.002   1.512   2.021
 3990SOL    HW212870   0.155   1.454   2.029
 3991SOL     OW12871   5.380   0.749   2.858
 3991SOL    HW112872   5.459   0.706   2.903
 3991SOL    HW212873   5.316   0.781   2.928
 3992SOL     OW12874   3.888   1.960   1.144
 3992SOL    HW112875   3.932   1.895   1.081
 3992SOL    HW212876   3.889   2.051   1.104
 3993SOL     OW12877   1.016   2.975   2.091
 3993SOL    HW112878   1.052   3.028   2.168
 3993SOL    HW212879   0.927   3.011   2.065
 3994SOL     OW12880   2.384   6.363   4.210
 3994SOL    HW112881   2.431   6.340   4.125
 3994SOL    HW212882   2.356   6.280   4.257
 3995SOL     OW12883   1.868   1.432   4.607
 3995SOL    HW112884   1.945   1.493   4.625
 3995SOL    HW212885   1.823   1.409   4.693
 3996SOL     OW12886   0.060   6.233   4.505
 3996SOL    HW112887   0.084   6.278   4.419
 3996SOL    HW212888   0.119   6.267   4.579
 3997SOL     OW12889   3.004   1.168   3.819
 3997SOL    HW112890   3.103   1.176   3.821
 3997SOL    HW212891   2.964   1.257   3.799
 3998SOL     OW12892   4.625   2.015   3.193
 3998SOL    HW112893   4.584   1.927   3.170
 3998SOL    HW212894   4.642   2.067   3.109
 3999SOL     OW12895   4.944   1.971   3.972
 3999SOL    HW112896   4.968   1.949   4.066
 3999SOL    HW212897   5.004   1.921   3.909
 4000SOL     OW12898   3.981   5.957   3.981
 4000SOL    HW112899   3.926   6.027   3.936
 4000SOL    HW212900   4.048   5.920   3.916
 4001SOL     OW12901   0.784   1.592   4.006
 4001SOL    HW112902   0.750   1.653   3.934
 4001SOL    HW212903   0.865   1.543   3.973
 4002SOL     OW12904   2.205   4.443   1.159
 4002SOL    HW112905   2.223   4.363   1.216
 4002SOL    HW212906   2.139   4.420   1.088
 4003SOL     OW12907   4.050   2.162   4.970
 4003SOL    HW112908   4.094   2.248   4.946
 4003SOL    HW212909   4.058   2.146   5.068
 4004SOL     OW12910   6.451   1.991   6.075
 4004SOL    HW112911   6.365   1.962   6.031
 4004SOL    HW212912   6.448   1.966   6.172
 4005SOL     OW12913   5.804   4.229   5.333
 4005SOL    HW112914   5.717   4.192   5.366
 4005SOL    HW212915   5.790   4.270   5.243
 4006SOL     OW12916   3.630   6.031   2.839
 4006SOL    HW112917   3.696   6.103   2.821
 4006SOL    HW212918   3.649   5.952   2.780
 4007SOL     OW12919   0.339   1.765   5.944
 4007SOL    HW112920   0.248   1.769   5.984
 4007SOL    HW212921   0.372   1.671   5.945
 4008SOL     OW12922   3.120   1.671   5.431
 4008SOL    HW112923   3.115   1.585   5.380
 4008SOL    HW212924   3.109   1.747   5.367
 4009SOL     OW12925   3.598   3.570   3.005
 4009SOL    HW112926   3.569   3.655   2.959
 4009SOL    HW212927   3.590   3.582   3.104
 4010SOL     OW12928   1.449   3.354   0.388
 4010SOL    HW112929   1.471   3.406   0.471
 4010SOL    HW212930   1.380   3.403   0.335
 4011SOL     OW12931   0.738   2.889   0.822
 4011SOL    HW112932   0.687   2.844   0.748
 4011SOL    HW212933   0.774   2.820   0.885
 4012SOL     OW12934   5.572   3.441   3.630
 4012SOL    HW112935   5.558   3.347   3.600
 4012SOL    HW212936   5.495   3.498   3.601
 4013SOL     OW12937   5.314   2.824   3.032
 4013SOL    HW112938   5.225   2.779   3.044
 4013SOL    HW212939   5.300   2.923   3.026
 4014SOL     OW12940   5.459   5.890   2.047
 4014SOL    HW112941   5.554   5.920   2.058
 4014SOL    HW212942   5.440   5.873   1.951
 4015SOL     OW12943   4.540   3.899   0.204
 4015SOL    HW112944   4.603   3.824   0.224
 4015SOL    HW212945   4.474   3.908   0.279
 4016SOL     OW12946   3.370   5.985   4.689
 4016SOL    HW112947   3.406   5.893   4.707
 4016SOL    HW212948   3.439   6.039   4.641
 4017SOL     OW12949   6.408   0.102   6.454
 4017SOL    HW112950   6.428   0.007   6.431
 4017SOL    HW212951   6.427   0.160   6.375
 4018SOL     OW12952   2.197   0.265   6.902
 4018SOL    HW112953   2.127   0.212   6.951
 4018SOL    HW212954   2.287   0.227   6.922
 4019SOL     OW12955   4.875   5.913   3.297
 4019SOL    HW112956   4.937   5.916   3.375
 4019SOL    HW212957   4.922   5.871   3.219
 4020SOL     OW12958   5.544   2.113   4.815
 4020SOL    HW112959   5.581   2.151   4.900
 4020SOL    HW212960   5.460   2.160   4.791
 4021SOL     OW12961   4.687   3.680   6.783
 4021SOL    HW112962   4.665   3.749   6.713
 4021SOL    HW212963   4.753   3.718   6.847
 4022SOL     OW12964   5.643   0.514   0.719
 4022SOL    HW112965   5.719   0.575   0.738
 4022SOL    HW212966   5.557   0.557   0.748
 4023SOL     OW12967   6.488   6.524   5.737
 4023SOL    HW112968   6.415   6.519   5.669
 4023SOL    HW212969   6.454   6.569   5.819
 4024SOL     OW12970   4.583   4.500   4.990
 4024SOL    HW112971   4.585   4.401   4.974
 4024SOL    HW212972   4.493   4.526   5.025
 4025SOL     OW12973   0.520   3.884   4.316
 4025SOL    HW112974   0.595   3.818   4.324
 4025SOL    HW212975   0.501   3.923   4.406
 4026SOL     OW12976   5.051   0.351   5.578
 4026SOL    HW112977   5.034   0.266   5.627
 4026SOL    HW212978   4.977   0.416   5.599
 4027SOL     OW12979   3.377   5.198   2.407
 4027SOL    HW112980   3.384   5.192   2.507
 4027SOL    HW212981   3.460   5.240   2.370
 4028SOL     OW12982   2.300   5.640   3.200
 4028SOL    HW112983   2.296   5.557   3.255
 4028SOL    HW212984   2.364   5.704   3.241
 4029SOL     OW12985   1.781   4.117   3.532
 4029SOL    HW112986   1.782   4.216   3.544
 4029SOL    HW212987   1.874   4.082   3.540
 4030SOL     OW12988   2.082   1.397   6.759
 4030SOL    HW112989   1.994   1.350   6.760
 4030SOL    HW212990   2.084   1.464   6.684
 4031SOL     OW12991   6.487   5.810   4.165
 4031SOL    HW112992   6.542   5.755   4.227
 4031SOL    HW212993   6.545   5.877   4.118
 4032SOL     OW12994   3.570   0.297   4.972
 4032SOL    HW112995   3.585   0.304   4.873
 4032SOL    HW212996   3.574   0.389   5.012
 4033SOL     OW12997   4.192   3.819   6.138
 4033SOL    HW112998   4.210   3.806   6.236
 4033SOL    HW212999   4.096   3.799   6.119
 4034SOL     OW13000   5.928   3.448   4.941
 4034SOL    HW113001   5.882   3.403   4.864
 4034SOL    HW213002   5.862   3.465   5.014
 4035SOL     OW13003   0.455   6.179   1.798
 4035SOL    HW113004   0.385   6.148   1.862
 4035SOL    HW213005   0.468   6.111   1.727
 4036SOL     OW13006   6.361   5.869   1.613
 4036SOL    HW113007   6.266   5.889   1.589
 4036SOL    HW213008   6.395   5.939   1.676
 4037SOL     OW13009   0.154   3.782   5.592
 4037SOL    HW113010   0.218   3.773   5.515
 4037SOL    HW213011   0.088   3.707   5.588
 4038SOL     OW13012   6.165   5.259   3.024
 4038SOL    HW113013   6.231   5.296   2.959
 4038SOL    HW213014   6.074   5.295   3.003
 4039SOL     OW13015   2.587   5.621   1.081
 4039SOL    HW113016   2.684   5.611   1.058
 4039SOL    HW213017   2.553   5.535   1.119
 4040SOL     OW13018   3.379   6.649   0.079
 4040SOL    HW113019   3.354   6.745   0.085
 4040SOL    HW213020   3.422   6.620   0.164
 4041SOL     OW13021   0.735   5.783   2.971
 4041SOL    HW113022   0.696   5.874   2.961
 4041SOL    HW213023   0.736   5.757   3.067
 4042SOL     OW13024   6.188   5.952   1.901
 4042SOL    HW113025   6.248   5.999   1.836
 4042SOL    HW213026   6.229   5.864   1.926
 4043SOL     OW13027   6.304   3.821   1.229
 4043SOL    HW113028   6.321   3.723   1.239
 4043SOL    HW213029   6.212   3.843   1.263
 4044SOL     OW13030   5.688   4.973   1.869
 4044SOL    HW113031   5.650   4.882   1.854
 4044SOL    HW213032   5.755   4.969   1.944
 4045SOL     OW13033   2.819   4.794   5.980
 4045SOL    HW113034   2.896   4.857   5.981
 4045SOL    HW213035   2.758   4.817   5.904
 4046SOL     OW13036   0.607   3.237   0.650
 4046SOL    HW113037   0.661   3.231   0.734
 4046SOL    HW213038   0.559   3.325   0.648
 4047SOL     OW13039   2.901   3.591   2.776
 4047SOL    HW113040   2.930   3.684   2.752
 4047SOL    HW213041   2.884   3.585   2.874
 4048SOL     OW13042   4.426   2.435   0.455
 4048SOL    HW113043   4.377   2.454   0.370
 4048SOL    HW213044   4.471   2.519   0.487
 4049SOL     OW13045   6.572   0.112   0.139
 4049SOL    HW113046   6.509   0.189   0.154
 4049SOL    HW213047   6.655   0.126   0.192
 4050SOL     OW13048   2.811   0.609   2.686
 4050SOL    HW113049   2.830   0.706   2.699
 4050SOL    HW213050   2.721   0.587   2.723
 4051SOL     OW13051   1.787   3.801   1.022
 4051SOL    HW113052   1.874   3.793   0.973
 4051SOL    HW213053   1.793   3.874   1.089
 4052SOL     OW13054   1.250   0.086   1.424
 4052SOL    HW113055   1.278   0.120   1.514
 4052SOL    HW213056   1.175   0.020   1.435
 4053SOL     OW13057   2.959   5.334   3.193
 4053SOL    HW113058   2.910   5.336   3.106
 4053SOL    HW213059   3.050   5.296   3.180
 4054SOL     OW13060   5.261   1.597   6.765
 4054SOL    HW113061   5.221   1.629   6.851
 4054SOL    HW213062   5.205   1.628   6.688
 4055SOL     OW13063   4.886   3.271   0.460
 4055SOL    HW113064   4.906   3.301   0.367
 4055SOL    HW213065   4.800   3.218   0.460
 4056SOL     OW13066   4.518   2.895   0.055
 4056SOL    HW113067   4.542   2.991   0.040
 4056SOL    HW213068   4.541   2.870   0.149
 4057SOL     OW13069   6.332   2.778   0.387
 4057SOL    HW113070   6.358   2.859   0.439
 4057SOL    HW213071   6.370   2.696   0.430
 4058SOL     OW13072   0.995   2.480   3.799
 4058SOL    HW113073   1.089   2.487   3.764
 4058SOL    HW213074   0.987   2.399   3.856
 4059SOL     OW13075   6.855   2.158   4.890
 4059SOL    HW113076   6.906   2.244   4.893
 4059SOL    HW213077   6.920   2.082   4.886
 4060SOL     OW13078   2.960   6.941   5.782
 4060SOL    HW113079   3.003   7.002   5.849
 4060SOL    HW213080   3.014   6.857   5.775
 4061SOL     OW13081   2.270   3.204   1.123
 4061SOL    HW113082   2.366   3.177   1.110
 4061SOL    HW213083   2.255   3.226   1.220
 4062SOL     OW13084   3.134   6.878   2.664
 4062SOL    HW113085   3.087   6.866   2.751
 4062SOL    HW213086   3.225   6.916   2.680
 4063SOL     OW13087   3.194   5.724   6.027
 4063SOL    HW113088   3.135   5.661   6.078
 4063SOL    HW213089   3.270   5.674   5.987
 4064SOL     OW13090   6.389   6.994   4.381
 4064SOL    HW113091   6.455   0.027   4.430
 4064SOL    HW213092   6.309   6.978   4.439
 4065SOL     OW13093   1.317   4.369   5.871
 4065SOL    HW113094   1.281   4.365   5.778
 4065SOL    HW213095   1.338   4.464   5.895
 4066SOL     OW13096   5.027   5.320   1.376
 4066SOL    HW113097   5.115   5.340   1.333
 4066SOL    HW213098   4.953   5.361   1.322
 4067SOL     OW13099   5.749   0.826   1.186
 4067SOL    HW113100   5.702   0.888   1.248
 4067SOL    HW213101   5.802   0.879   1.119
 4068SOL     OW13102   5.192   0.882   4.804
 4068SOL    HW113103   5.277   0.832   4.818
 4068SOL    HW213104   5.207   0.954   4.736
 4069SOL     OW13105   6.345   6.120   0.770
 4069SOL    HW113106   6.323   6.213   0.739
 4069SOL    HW213107   6.336   6.115   0.870
 4070SOL     OW13108   6.385   3.729   2.682
 4070SOL    HW113109   6.395   3.829   2.678
 4070SOL    HW213110   6.339   3.704   2.767
 4071SOL     OW13111   2.694   0.600   4.648
 4071SOL    HW113112   2.705   0.691   4.688
 4071SOL    HW213113   2.638   0.606   4.565
 4072SOL     OW13114   0.619   0.078   4.425
 4072SOL    HW113115   0.707   0.039   4.453
 4072SOL    HW213116   0.612   0.075   4.325
 4073SOL     OW13117   2.547   4.926   2.535
 4073SOL    HW113118   2.597   4.952   2.452
 4073SOL    HW213119   2.532   5.007   2.591
 4074SOL     OW13120   0.383   3.047   0.851
 4074SOL    HW113121   0.475   3.007   0.842
 4074SOL    HW213122   0.333   3.031   0.766
 4075SOL     OW13123   6.187   6.973   3.803
 4075SOL    HW113124   6.250   0.026   3.792
 4075SOL    HW213125   6.153   6.944   3.714
 4076SOL     OW13126   1.617   2.836   3.319
 4076SOL    HW113127   1.546   2.884   3.267
 4076SOL    HW213128   1.639   2.750   3.274
 4077SOL     OW13129   3.625   0.837   1.278
 4077SOL    HW113130   3.716   0.848   1.238
 4077SOL    HW213131   3.632   0.791   1.366
 4078SOL     OW13132   4.889   4.618   3.104
 4078SOL    HW113133   4.959   4.551   3.076
 4078SOL    HW213134   4.827   4.635   3.027
 4079SOL     OW13135   5.066   0.954   3.992
 4079SOL    HW113136   5.106   0.943   4.083
 4079SOL    HW213137   4.969   0.978   4.000
 4080SOL     OW13138   3.487   4.181   4.847
 4080SOL    HW113139   3.492   4.273   4.809
 4080SOL    HW213140   3.574   4.156   4.888
 4081SOL     OW13141   2.571   0.703   6.976
 4081SOL    HW113142   2.497   0.653   6.932
 4081SOL    HW213143   2.543   0.797   6.993
 4082SOL     OW13144   1.099   1.050   5.773
 4082SOL    HW113145   1.020   1.099   5.738
 4082SOL    HW213146   1.144   1.001   5.699
 4083SOL     OW13147   6.143   4.949   2.219
 4083SOL    HW113148   6.164   4.969   2.315
 4083SOL    HW213149   6.141   4.850   2.205
 4084SOL     OW13150   4.482   6.638   2.111
 4084SOL    HW113151   4.540   6.700   2.164
 4084SOL    HW213152   4.397   6.685   2.086
 4085SOL     OW13153   2.291   4.314   2.910
 4085SOL    HW113154   2.307   4.250   2.986
 4085SOL    HW213155   2.206   4.364   2.925
 4086SOL     OW13156   5.613   5.174   5.068
 4086SOL    HW113157   5.712   5.157   5.071
 4086SOL    HW213158   5.597   5.272   5.056
 4087SOL     OW13159   1.763   1.147   1.886
 4087SOL    HW113160   1.690   1.190   1.938
 4087SOL    HW213161   1.803   1.213   1.823
 4088SOL     OW13162   0.100   2.060   5.678
 4088SOL    HW113163   0.005   2.072   5.651
 4088SOL    HW213164   0.105   2.046   5.777
 4089SOL     OW13165   0.838   0.561   2.545
 4089SOL    HW113166   0.896   0.517   2.613
 4089SOL    HW213167   0.781   0.631   2.589
 4090SOL     OW13168   3.061   2.511   5.643
 4090SOL    HW113169   3.064   2.602   5.683
 4090SOL    HW213170   3.070   2.518   5.543
 4091SOL     OW13171   3.845   6.304   2.340
 4091SOL    HW113172   3.818   6.396   2.311
 4091SOL    HW213173   3.790   6.277   2.419
 4092SOL     OW13174   5.625   1.650   6.207
 4092SOL    HW113175   5.555   1.580   6.197
 4092SOL    HW213176   5.696   1.618   6.270
 4093SOL     OW13177   5.838   4.125   2.370
 4093SOL    HW113178   5.894   4.154   2.448
 4093SOL    HW213179   5.799   4.035   2.389
 4094SOL     OW13180   6.649   6.744   0.296
 4094SOL    HW113181   6.702   6.768   0.214
 4094SOL    HW213182   6.696   6.671   0.345
 4095SOL     OW13183   1.526   4.953   0.940
 4095SOL    HW113184   1.555   5.048   0.950
 4095SOL    HW213185   1.600   4.892   0.968
 4096SOL     OW13186   0.813   6.958   6.118
 4096SOL    HW113187   0.796   0.032   6.105
 4096SOL    HW213188   0.743   6.919   6.178
 4097SOL     OW13189   1.278   3.854   5.095
 4097SOL    HW113190   1.263   3.953   5.092
 4097SOL    HW213191   1.198   3.807   5.058
 4098SOL     OW13192   1.649   5.888   1.995
 4098SOL    HW113193   1.566   5.888   1.940
 4098SOL    HW213194   1.625   5.872   2.091
 4099SOL     OW13195   6.819   2.671   5.782
 4099SOL    HW113196   6.741   2.627   5.827
 4099SOL    HW213197   6.821   2.645   5.686
 4100SOL     OW13198   2.364   0.506   3.560
 4100SOL    HW113199   2.279   0.557   3.549
 4100SOL    HW213200   2.414   0.505   3.473
 4101SOL     OW13201   6.416   6.382   6.067
 4101SOL    HW113202   6.356   6.385   6.146
 4101SOL    HW213203   6.362   6.396   5.984
 4102SOL     OW13204   2.270   5.322   0.902
 4102SOL    HW113205   2.284   5.399   0.839
 4102SOL    HW213206   2.204   5.258   0.863
 4103SOL     OW13207   2.522   5.050   2.992
 4103SOL    HW113208   2.442   5.095   3.031
 4103SOL    HW213209   2.602   5.108   3.004
 4104SOL     OW13210   1.727   5.668   5.897
 4104SOL    HW113211   1.748   5.744   5.836
 4104SOL    HW213212   1.637   5.631   5.874
 4105SOL     OW13213   3.642   6.983   1.469
 4105SOL    HW113214   3.690   0.002   1.546
 4105SOL    HW213215   3.629   6.886   1.487
 4106SOL     OW13216   1.211   7.014   2.706
 4106SOL    HW113217   1.297   0.041   2.706
 4106SOL    HW213218   1.139   0.049   2.668
 4107SOL     OW13219   1.916   2.090   0.935
 4107SOL    HW113220   1.957   2.169   0.890
 4107SOL    HW213221   1.977   2.011   0.925
 4108SOL     OW13222   0.779   6.086   4.886
 4108SOL    HW113223   0.843   6.159   4.865
 4108SOL    HW213224   0.687   6.124   4.897
 4109SOL     OW13225   4.972   6.906   4.978
 4109SOL    HW113226   4.903   6.977   4.988
 4109SOL    HW213227   5.050   6.926   5.037
 4110SOL     OW13228   4.312   2.499   0.194
 4110SOL    HW113229   4.247   2.575   0.198
 4110SOL    HW213230   4.386   2.522   0.130
 4111SOL     OW13231   6.088   4.990   3.660
 4111SOL    HW113232   6.120   4.897   3.678
 4111SOL    HW213233   6.121   5.020   3.570
 4112SOL     OW13234   4.145   5.783   5.617
 4112SOL    HW113235   4.158   5.684   5.625
 4112SOL    HW213236   4.220   5.830   5.663
 4113SOL     OW13237   4.861   5.344   5.631
 4113SOL    HW113238   4.891   5.281   5.560
 4113SOL    HW213239   4.827   5.428   5.589
 4114SOL     OW13240   6.593   1.636   2.961
 4114SOL    HW113241   6.505   1.658   3.004
 4114SOL    HW213242   6.641   1.720   2.938
 4115SOL     OW13243   3.985   6.264   4.561
 4115SOL    HW113244   4.010   6.356   4.532
 4115SOL    HW213245   3.994   6.201   4.484
 4116SOL     OW13246   6.490   3.696   3.765
 4116SOL    HW113247   6.402   3.730   3.797
 4116SOL    HW213248   6.550   3.680   3.844
 4117SOL     OW13249   0.380   2.105   2.778
 4117SOL    HW113250   0.455   2.041   2.766
 4117SOL    HW213251   0.303   2.079   2.719
 4118SOL     OW13252   1.391   0.113   1.674
 4118SOL    HW113253   1.460   0.070   1.732
 4118SOL    HW213254   1.352   0.192   1.721
 4119SOL     OW13255   6.731   1.012   5.034
 4119SOL    HW113256   6.670   1.016   5.113
 4119SOL    HW213257   6.813   1.067   5.052
 4120SOL     OW13258   1.719   0.560   6.370
 4120SOL    HW113259   1.740   0.565   6.468
 4120SOL    HW213260   1.775   0.627   6.322
 4121SOL     OW13261   6.738   0.892   1.155
 4121SOL    HW113262   6.802   0.889   1.232
 4121SOL    HW213263   6.687   0.806   1.150
 4122SOL     OW13264   0.701   4.703   3.669
 4122SOL    HW113265   0.675   4.718   3.765
 4122SOL    HW213266   0.800   4.710   3.659
 4123SOL     OW13267   5.751   4.282   1.714
 4123SOL    HW113268   5.752   4.264   1.615
 4123SOL    HW213269   5.669   4.243   1.754
 4124SOL     OW13270   6.201   6.698   0.099
 4124SOL    HW113271   6.215   6.623   0.164
 4124SOL    HW213272   6.209   6.785   0.147
 4125SOL     OW13273   0.134   2.933   6.795
 4125SOL    HW113274   0.153   2.870   6.870
 4125SOL    HW213275   0.123   2.882   6.710
 4126SOL     OW13276   0.822   4.009   3.840
 4126SOL    HW113277   0.898   4.010   3.905
 4126SOL    HW213278   0.854   4.041   3.751
 4127SOL     OW13279   4.376   2.393   4.146
 4127SOL    HW113280   4.431   2.323   4.191
 4127SOL    HW213281   4.378   2.379   4.047
 4128SOL     OW13282   6.410   2.414   6.506
 4128SOL    HW113283   6.482   2.479   6.528
 4128SOL    HW213284   6.343   2.412   6.580
 4129SOL     OW13285   3.417   0.214   2.162
 4129SOL    HW113286   3.381   0.149   2.229
 4129SOL    HW213287   3.434   0.302   2.207
 4130SOL     OW13288   5.163   2.456   0.327
 4130SOL    HW113289   5.252   2.493   0.352
 4130SOL    HW213290   5.100   2.532   0.308
 4131SOL     OW13291   5.147   6.465   3.428
 4131SOL    HW113292   5.073   6.515   3.473
 4131SOL    HW213293   5.118   6.372   3.407
 4132SOL     OW13294   6.055   3.761   2.824
 4132SOL    HW113295   6.105   3.702   2.887
 4132SOL    HW213296   6.093   3.854   2.829
 4133SOL     OW13297   5.875   6.468   3.738
 4133SOL    HW113298   5.829   6.549   3.773
 4133SOL    HW213299   5.929   6.492   3.657
 4134SOL     OW13300   1.028   3.280   1.383
 4134SOL    HW113301   0.990   3.189   1.367
 4134SOL    HW213302   1.037   3.295   1.482
 4135SOL     OW13303   5.909   1.306   0.708
 4135SOL    HW113304   5.885   1.296   0.804
 4135SOL    HW213305   5.835   1.273   0.650
 4136SOL     OW13306   0.920   4.570   0.398
 4136SOL    HW113307   0.972   4.564   0.313
 4136SOL    HW213308   0.838   4.625   0.383
 4137SOL     OW13309   0.201   2.762   5.591
 4137SOL    HW113310   0.190   2.678   5.643
 4137SOL    HW213311   0.132   2.766   5.519
 4138SOL     OW13312   5.857   6.921   6.198
 4138SOL    HW113313   5.765   6.888   6.179
 4138SOL    HW213314   5.876   6.915   6.296
 4139SOL     OW13315   1.747   3.879   2.303
 4139SOL    HW113316   1.821   3.862   2.237
 4139SOL    HW213317   1.738   3.800   2.364
 4140SOL     OW13318   2.342   6.529   0.039
 4140SOL    HW113319   2.371   6.452   7.006
 4140SOL    HW213320   2.275   6.497   0.106
 4141SOL     OW13321   5.373   0.188   6.057
 4141SOL    HW113322   5.284   0.178   6.012
 4141SOL    HW213323   5.370   0.143   6.146
 4142SOL     OW13324   0.045   6.635   1.479
 4142SOL    HW113325   0.114   6.706   1.497
 4142SOL    HW213326   7.010   6.625   1.560
 4143SOL     OW13327   6.829   3.750   6.955
 4143SOL    HW113328   6.886   3.813   6.903
 4143SOL    HW213329   6.819   3.665   6.903
 4144SOL     OW13330   3.894   0.490   1.733
 4144SOL    HW113331   3.908   0.543   1.649
 4144SOL    HW213332   3.927   0.542   1.811
 4145SOL     OW13333   5.142   1.025   1.482
 4145SOL    HW113334   5.183   0.998   1.395
 4145SOL    HW213335   5.213   1.038   1.551
 4146SOL     OW13336   3.893   0.073   2.450
 4146SOL    HW113337   3.942   0.101   2.367
 4146SOL    HW213338   3.941   7.021   2.493
 4147SOL     OW13339   4.860   4.068   6.692
 4147SOL    HW113340   4.803   4.067   6.774
 4147SOL    HW213341   4.950   4.106   6.715
 4148SOL     OW13342   3.313   1.287   5.828
 4148SOL    HW113343   3.281   1.322   5.740
 4148SOL    HW213344   3.365   1.203   5.813
 4149SOL     OW13345   1.860   3.435   0.133
 4149SOL    HW113346   1.768   3.398   0.147
 4149SOL    HW213347   1.859   3.533   0.151
 4150SOL     OW13348   6.369   1.278   0.509
 4150SOL    HW113349   6.306   1.273   0.431
 4150SOL    HW213350   6.317   1.271   0.594
 4151SOL     OW13351   2.872   5.612   4.615
 4151SOL    HW113352   2.785   5.642   4.655
 4151SOL    HW213353   2.902   5.528   4.661
 4152SOL     OW13354   2.613   3.864   1.157
 4152SOL    HW113355   2.632   3.925   1.234
 4152SOL    HW213356   2.533   3.807   1.178
 4153SOL     OW13357   6.573   6.156   1.153
 4153SOL    HW113358   6.638   6.226   1.123
 4153SOL    HW213359   6.576   6.078   1.091
 4154SOL     OW13360   0.190   6.317   4.273
 4154SOL    HW113361   0.275   6.369   4.282
 4154SOL    HW213362   0.210   6.219   4.276
 4155SOL     OW13363   5.971   1.575   1.943
 4155SOL    HW113364   6.034   1.591   2.019
 4155SOL    HW213365   5.996   1.634   1.866
 4156SOL     OW13366   0.886   4.756   5.661
 4156SOL    HW113367   0.985   4.757   5.665
 4156SOL    HW213368   0.850   4.840   5.702
 4157SOL     OW13369   5.383   5.920   0.900
 4157SOL    HW113370   5.325   5.952   0.973
 4157SOL    HW213371   5.473   5.964   0.906
 4158SOL     OW13372   6.531   1.951   6.952
 4158SOL    HW113373   6.550   1.963   0.026
 4158SOL    HW213374   6.590   2.011   6.898
 4159SOL     OW13375   3.119   0.743   4.903
 4159SOL    HW113376   3.139   0.713   4.810
 4159SOL    HW213377   3.037   0.698   4.936
 4160SOL     OW13378   1.602   6.876   5.703
 4160SOL    HW113379   1.655   6.829   5.633
 4160SOL    HW213380   1.631   6.972   5.709
 4161SOL     OW13381   3.215   2.924   4.726
 4161SOL    HW113382   3.227   2.943   4.629
 4161SOL    HW213383   3.198   2.827   4.739
 4162SOL     OW13384   4.744   5.837   1.438
 4162SOL    HW113385   4.719   5.903   1.510
 4162SOL    HW213386   4.767   5.749   1.480
 4163SOL     OW13387   3.768   5.805   1.061
 4163SOL    HW113388   3.745   5.845   0.973
 4163SOL    HW213389   3.761   5.705   1.055
 4164SOL     OW13390   5.486   1.506   6.920
 4164SOL    HW113391   5.419   1.518   6.846
 4164SOL    HW213392   5.438   1.502   7.008
 4165SOL     OW13393   3.254   2.123   4.068
 4165SOL    HW113394   3.258   2.031   4.106
 4165SOL    HW213395   3.295   2.123   3.977
 4166SOL     OW13396   6.137   2.848   2.497
 4166SOL    HW113397   6.134   2.774   2.564
 4166SOL    HW213398   6.049   2.854   2.450
 4167SOL     OW13399   3.837   6.476   4.733
 4167SOL    HW113400   3.783   6.405   4.687
 4167SOL    HW213401   3.928   6.481   4.691
 4168SOL     OW13402   4.855   3.833   6.259
 4168SOL    HW113403   4.875   3.822   6.162
 4168SOL    HW213404   4.806   3.752   6.292
 4169SOL     OW13405   5.055   3.846   6.733
 4169SOL    HW113406   5.047   3.941   6.703
 4169SOL    HW213407   4.996   3.831   6.812
 4170SOL     OW13408   1.655   3.065   5.024
 4170SOL    HW113409   1.691   3.147   5.069
 4170SOL    HW213410   1.562   3.084   4.992
 4171SOL     OW13411   0.459   0.987   6.282
 4171SOL    HW113412   0.437   1.022   6.191
 4171SOL    HW213413   0.527   0.913   6.274
 4172SOL     OW13414   2.583   2.834   6.999
 4172SOL    HW113415   2.535   2.785   0.049
 4172SOL    HW213416   2.603   2.927   0.006
 4173SOL     OW13417   5.258   1.062   5.323
 4173SOL    HW113418   5.229   0.985   5.380
 4173SOL    HW213419   5.181   1.091   5.266
 4174SOL     OW13420   2.979   0.148   3.815
 4174SOL    HW113421   3.079   0.157   3.811
 4174SOL    HW213422   2.940   0.163   3.724
 4175SOL     OW13423   1.040   4.893   6.152
 4175SOL    HW113424   1.012   4.799   6.170
 4175SOL    HW213425   0.980   4.956   6.202
 4176SOL     OW13426   4.558   0.018   5.574
 4176SOL    HW113427   4.507   0.104   5.575
 4176SOL    HW213428   4.606   0.009   5.486
 4177SOL     OW13429   4.199   5.940   3.449
 4177SOL    HW113430   4.209   6.035   3.476
 4177SOL    HW213431   4.238   5.926   3.358
 4178SOL     OW13432   3.948   6.904   0.940
 4178SOL    HW113433   3.928   6.908   1.037
 4178SOL    HW213434   3.867   6.932   0.888
 4179SOL     OW13435   4.464   1.846   6.844
 4179SOL    HW113436   4.365   1.850   6.829
 4179SOL    HW213437   4.483   1.850   6.942
 4180SOL     OW13438   3.475   4.160   6.877
 4180SOL    HW113439   3.457   4.068   6.912
 4180SOL    HW213440   3.564   4.191   6.909
 4181SOL     OW13441   5.406   6.400   5.304
 4181SOL    HW113442   5.354   6.482   5.329
 4181SOL    HW213443   5.348   6.337   5.254
 4182SOL     OW13444   6.883   5.323   5.536
 4182SOL    HW113445   6.840   5.233   5.522
 4182SOL    HW213446   6.819   5.384   5.581
 4183SOL     OW13447   5.010   2.670   0.244
 4183SOL    HW113448   5.011   2.656   0.145
 4183SOL    HW213449   4.929   2.724   0.269
 4184SOL     OW13450   3.558   5.804   3.206
 4184SOL    HW113451   3.574   5.781   3.302
 4184SOL    HW213452   3.484   5.871   3.199
 4185SOL     OW13453   4.596   4.358   3.213
 4185SOL    HW113454   4.592   4.384   3.116
 4185SOL    HW213455   4.673   4.295   3.227
 4186SOL     OW13456   1.701   4.946   6.974
 4186SOL    HW113457   1.611   4.908   6.992
 4186SOL    HW213458   1.698   5.046   6.985
 4187SOL     OW13459   2.359   4.111   6.592
 4187SOL    HW113460   2.295   4.180   6.625
 4187SOL    HW213461   2.308   4.037   6.548
 4188SOL     OW13462   5.354   0.688   6.388
 4188SOL    HW113463   5.321   0.782   6.378
 4188SOL    HW213464   5.343   0.639   6.301
 4189SOL     OW13465   4.544   5.624   3.224
 4189SOL    HW113466   4.482   5.586   3.293
 4189SOL    HW213467   4.555   5.558   3.150
 4190SOL     OW13468   6.554   6.217   1.633
 4190SOL    HW113469   6.647   6.250   1.647
 4190SOL    HW213470   6.522   6.245   1.542
 4191SOL     OW13471   4.448   2.441   6.007
 4191SOL    HW113472   4.496   2.361   5.970
 4191SOL    HW213473   4.463   2.445   6.106
 4192SOL     OW13474   1.373   3.499   6.234
 4192SOL    HW113475   1.372   3.454   6.323
 4192SOL    HW213476   1.284   3.542   6.218
 4193SOL     OW13477   6.331   6.848   1.575
 4193SOL    HW113478   6.350   6.761   1.620
 4193SOL    HW213479   6.244   6.885   1.608
 4194SOL     OW13480   5.495   0.455   6.834
 4194SOL    HW113481   5.439   0.378   6.804
 4194SOL    HW213482   5.578   0.459   6.778
 4195SOL     OW13483   2.241   5.729   0.607
 4195SOL    HW113484   2.232   5.733   0.507
 4195SOL    HW213485   2.320   5.782   0.635
 4196SOL     OW13486   6.598   3.104   3.769
 4196SOL    HW113487   6.528   3.146   3.827
 4196SOL    HW213488   6.670   3.066   3.827
 4197SOL     OW13489   4.496   0.548   0.246
 4197SOL    HW113490   4.551   0.552   0.163
 4197SOL    HW213491   4.443   0.633   0.254
 4198SOL     OW13492   0.036   2.273   1.465
 4198SOL    HW113493   0.096   2.234   1.395
 4198SOL    HW213494   7.010   2.200   1.512
 4199SOL     OW13495   1.010   4.040   6.764
 4199SOL    HW113496   1.018   4.020   6.666
 4199SOL    HW213497   0.916   4.023   6.794
 4200SOL     OW13498   5.432   1.601   2.534
 4200SOL    HW113499   5.413   1.672   2.601
 4200SOL    HW213500   5.360   1.599   2.465
 4201SOL     OW13501   5.116   0.138   4.711
 4201SOL    HW113502   5.200   0.095   4.677
 4201SOL    HW213503   5.043   0.070   4.715
 4202SOL     OW13504   4.455   4.051   1.666
 4202SOL    HW113505   4.438   4.124   1.732
 4202SOL    HW213506   4.372   3.996   1.655
 4203SOL     OW13507   5.948   3.872   5.080
 4203SOL    HW113508   5.949   3.909   5.172
 4203SOL    HW213509   5.999   3.786   5.078
 4204SOL     OW13510   2.368   4.292   5.963
 4204SOL    HW113511   2.320   4.205   5.968
 4204SOL    HW213512   2.367   4.326   5.869
 4205SOL     OW13513   5.646   6.184   5.903
 4205SOL    HW113514   5.663   6.129   5.984
 4205SOL    HW213515   5.701   6.268   5.907
 4206SOL     OW13516   2.392   2.309   4.727
 4206SOL    HW113517   2.464   2.276   4.788
 4206SOL    HW213518   2.411   2.403   4.700
 4207SOL     OW13519   2.092   2.740   1.236
 4207SOL    HW113520   2.075   2.646   1.266
 4207SOL    HW213521   2.017   2.770   1.176
 4208SOL     OW13522   2.640   2.331   3.051
 4208SOL    HW113523   2.662   2.337   3.148
 4208SOL    HW213524   2.598   2.417   3.021
 4209SOL     OW13525   6.623   5.850   2.554
 4209SOL    HW113526   6.568   5.908   2.494
 4209SOL    HW213527   6.717   5.845   2.519
 4210SOL     OW13528   3.108   4.915   5.720
 4210SOL    HW113529   3.121   4.831   5.667
 4210SOL    HW213530   3.055   4.980   5.665
 4211SOL     OW13531   4.295   2.654   5.855
 4211SOL    HW113532   4.222   2.585   5.858
 4211SOL    HW213533   4.382   2.612   5.882
 4212SOL     OW13534   0.798   2.715   3.151
 4212SOL    HW113535   0.808   2.634   3.093
 4212SOL    HW213536   0.700   2.730   3.169
 4213SOL     OW13537   3.635   0.790   3.411
 4213SOL    HW113538   3.655   0.818   3.317
 4213SOL    HW213539   3.565   0.851   3.449
 4214SOL     OW13540   6.606   6.882   3.892
 4214SOL    HW113541   6.536   6.813   3.874
 4214SOL    HW213542   6.574   6.945   3.962
 4215SOL     OW13543   5.755   0.189   5.272
 4215SOL    HW113544   5.764   0.244   5.355
 4215SOL    HW213545   5.659   0.167   5.257
 4216SOL     OW13546   2.513   5.581   2.613
 4216SOL    HW113547   2.460   5.504   2.650
 4216SOL    HW213548   2.452   5.643   2.564
 4217SOL     OW13549   0.647   0.779   2.585
 4217SOL    HW113550   0.582   0.794   2.659
 4217SOL    HW213551   0.600   0.781   2.497
 4218SOL     OW13552   2.919   0.382   1.793
 4218SOL    HW113553   3.006   0.331   1.798
 4218SOL    HW213554   2.903   0.411   1.699
 4219SOL     OW13555   3.318   5.222   3.090
 4219SOL    HW113556   3.252   5.226   3.016
 4219SOL    HW213557   3.277   5.176   3.169
 4220SOL     OW13558   6.131   2.071   1.446
 4220SOL    HW113559   6.111   2.169   1.446
 4220SOL    HW213560   6.059   2.022   1.495
 4221SOL     OW13561   0.495   6.954   1.113
 4221SOL    HW113562   0.538   0.020   1.121
 4221SOL    HW213563   0.565   6.882   1.113
 4222SOL     OW13564   5.006   3.358   4.475
 4222SOL    HW113565   5.105   3.350   4.488
 4222SOL    HW213566   4.985   3.442   4.424
 4223SOL     OW13567   3.151   4.057   3.088
 4223SOL    HW113568   3.171   4.031   3.183
 4223SOL    HW213569   3.103   3.983   3.042
 4224SOL     OW13570   4.662   4.272   4.520
 4224SOL    HW113571   4.688   4.175   4.526
 4224SOL    HW213572   4.612   4.298   4.602
 4225SOL     OW13573   0.699   1.908   6.520
 4225SOL    HW113574   0.617   1.870   6.478
 4225SOL    HW213575   0.772   1.840   6.517
 4226SOL     OW13576   5.400   4.812   4.593
 4226SOL    HW113577   5.490   4.775   4.570
 4226SOL    HW213578   5.348   4.825   4.509
 4227SOL     OW13579   5.659   5.614   1.178
 4227SOL    HW113580   5.596   5.644   1.107
 4227SOL    HW213581   5.743   5.579   1.136
 4228SOL     OW13582   1.253   4.492   3.602
 4228SOL    HW113583   1.254   4.568   3.537
 4228SOL    HW213584   1.347   4.468   3.627
 4229SOL     OW13585   6.113   6.124   5.394
 4229SOL    HW113586   6.049   6.080   5.329
 4229SOL    HW213587   6.193   6.065   5.407
 4230SOL     OW13588   0.366   1.160   2.074
 4230SOL    HW113589   0.316   1.089   2.124
 4230SOL    HW213590   0.387   1.128   1.982
 4231SOL     OW13591   0.457   0.548   6.237
 4231SOL    HW113592   0.414   0.470   6.284
 4231SOL    HW213593   0.387   0.606   6.197
 4232SOL     OW13594   1.456   4.588   3.266
 4232SOL    HW113595   1.364   4.614   3.239
 4232SOL    HW213596   1.463   4.488   3.272
 4233SOL     OW13597   4.278   5.048   2.406
 4233SOL    HW113598   4.238   5.086   2.322
 4233SOL    HW213599   4.342   4.975   2.381
 4234SOL     OW13600   3.678   5.131   5.937
 4234SOL    HW113601   3.633   5.052   5.979
 4234SOL    HW213602   3.650   5.139   5.842
 4235SOL     OW13603   6.963   6.232   6.611
 4235SOL    HW113604   0.007   6.286   6.561
 4235SOL    HW213605   6.907   6.180   6.547
 4236SOL     OW13606   0.402   5.508   3.089
 4236SOL    HW113607   0.442   5.425   3.127
 4236SOL    HW213608   0.426   5.515   2.993
 4237SOL     OW13609   6.638   4.683   3.501
 4237SOL    HW113610   6.559   4.633   3.466
 4237SOL    HW213611   6.702   4.618   3.542
 4238SOL     OW13612   2.886   5.787   2.896
 4238SOL    HW113613   2.915   5.780   2.801
 4238SOL    HW213614   2.917   5.707   2.947
 4239SOL     OW13615   3.923   0.853   3.378
 4239SOL    HW113616   3.934   0.847   3.279
 4239SOL    HW213617   3.829   0.832   3.402
 4240SOL     OW13618   5.684   0.108   2.372
 4240SOL    HW113619   5.590   0.124   2.402
 4240SOL    HW213620   5.684   0.065   2.282
 4241SOL     OW13621   6.871   4.493   0.209
 4241SOL    HW113622   6.853   4.505   0.306
 4241SOL    HW213623   6.886   4.582   0.166
 4242SOL     OW13624   3.508   2.127   3.103
 4242SOL    HW113625   3.592   2.118   3.051
 4242SOL    HW213626   3.429   2.116   3.042
 4243SOL     OW13627   3.462   2.080   2.492
 4243SOL    HW113628   3.552   2.112   2.462
 4243SOL    HW213629   3.404   2.063   2.412
 4244SOL     OW13630   3.085   3.399   5.112
 4244SOL    HW113631   3.161   3.428   5.170
 4244SOL    HW213632   3.105   3.309   5.072
 4245SOL     OW13633   6.680   0.592   6.223
 4245SOL    HW113634   6.617   0.651   6.172
 4245SOL    HW213635   6.741   0.546   6.160
 4246SOL     OW13636   0.725   4.496   6.173
 4246SOL    HW113637   0.656   4.555   6.131
 4246SOL    HW213638   0.712   4.402   6.142
 4247SOL     OW13639   0.183   5.297   5.099
 4247SOL    HW113640   0.131   5.307   5.184
 4247SOL    HW213641   0.243   5.376   5.086
 4248SOL     OW13642   2.182   3.725   6.659
 4248SOL    HW113643   2.180   3.656   6.732
 4248SOL    HW213644   2.230   3.688   6.580
 4249SOL     OW13645   5.276   2.880   6.355
 4249SOL    HW113646   5.275   2.811   6.283
 4249SOL    HW213647   5.358   2.870   6.411
 4250SOL     OW13648   6.491   4.210   3.598
 4250SOL    HW113649   6.568   4.224   3.660
 4250SOL    HW213650   6.499   4.120   3.554
 4251SOL     OW13651   6.103   4.787   6.051
 4251SOL    HW113652   6.044   4.729   6.107
 4251SOL    HW213653   6.197   4.779   6.084
 4252SOL     OW13654   6.851   4.884   5.251
 4252SOL    HW113655   6.934   4.935   5.228
 4252SOL    HW213656   6.778   4.909   5.187
 4253SOL     OW13657   3.402   6.478   3.173
 4253SOL    HW113658   3.410   6.577   3.174
 4253SOL    HW213659   3.336   6.450   3.103
 4254SOL     OW13660   3.072   3.220   1.996
 4254SOL    HW113661   3.092   3.125   2.019
 4254SOL    HW213662   3.081   3.277   2.078
 4255SOL     OW13663   0.484   2.264   4.138
 4255SOL    HW113664   0.395   2.220   4.127
 4255SOL    HW213665   0.545   2.202   4.187
 4256SOL     OW13666   1.556   1.320   1.974
 4256SOL    HW113667   1.617   1.399   1.973
 4256SOL    HW213668   1.497   1.324   2.054
 4257SOL     OW13669   4.093   2.129   5.247
 4257SOL    HW113670   4.042   2.046   5.270
 4257SOL    HW213671   4.187   2.120   5.281
 4258SOL     OW13672   5.244   6.198   2.379
 4258SOL    HW113673   5.193   6.276   2.342
 4258SOL    HW213674   5.251   6.206   2.478
 4259SOL     OW13675   2.449   3.449   1.371
 4259SOL    HW113676   2.462   3.482   1.465
 4259SOL    HW213677   2.354   3.421   1.359
 4260SOL     OW13678   4.299   5.946   4.343
 4260SOL    HW113679   4.228   5.876   4.343
 4260SOL    HW213680   4.263   6.030   4.383
 4261SOL     OW13681   1.069   1.290   3.310
 4261SOL    HW113682   1.001   1.322   3.375
 4261SOL    HW213683   1.148   1.352   3.310
 4262SOL     OW13684   0.827   6.168   5.795
 4262SOL    HW113685   0.861   6.200   5.706
 4262SOL    HW213686   0.735   6.129   5.782
 4263SOL     OW13687   4.146   5.174   6.562
 4263SOL    HW113688   4.176   5.121   6.483
 4263SOL    HW213689   4.209   5.251   6.576
 4264SOL     OW13690   0.356   0.174   1.637
 4264SOL    HW113691   0.433   0.238   1.644
 4264SOL    HW213692   0.270   0.225   1.634
 4265SOL     OW13693   1.586   1.344   0.466
 4265SOL    HW113694   1.634   1.376   0.385
 4265SOL    HW213695   1.636   1.267   0.506
 4266SOL     OW13696   3.188   4.640   0.807
 4266SOL    HW113697   3.162   4.545   0.797
 4266SOL    HW213698   3.161   4.691   0.725
 4267SOL     OW13699   1.494   3.877   5.639
 4267SOL    HW113700   1.589   3.856   5.614
 4267SOL    HW213701   1.469   3.967   5.605
 4268SOL     OW13702   1.359   1.405   1.455
 4268SOL    HW113703   1.270   1.410   1.501
 4268SOL    HW213704   1.360   1.472   1.380
 4269SOL     OW13705   2.810   3.609   0.927
 4269SOL    HW113706   2.871   3.554   0.869
 4269SOL    HW213707   2.861   3.686   0.966
 4270SOL     OW13708   4.056   2.943   6.693
 4270SOL    HW113709   4.024   3.036   6.716
 4270SOL    HW213710   4.127   2.949   6.623
 4271SOL     OW13711   1.509   0.670   1.017
 4271SOL    HW113712   1.566   0.693   1.097
 4271SOL    HW213713   1.439   0.604   1.044
 4272SOL     OW13714   0.026   3.901   3.780
 4272SOL    HW113715   0.021   3.958   3.862
 4272SOL    HW213716   0.121   3.885   3.756
 4273SOL     OW13717   5.840   6.979   3.788
 4273SOL    HW113718   5.783   0.038   3.791
 4273SOL    HW213719   5.888   6.975   3.700
 4274SOL     OW13720   2.453   0.344   4.016
 4274SOL    HW113721   2.399   0.404   3.956
 4274SOL    HW213722   2.411   0.253   4.018
 4275SOL     OW13723   0.381   0.414   5.346
 4275SOL    HW113724   0.464   0.384   5.300
 4275SOL    HW213725   0.395   0.412   5.445
 4276SOL     OW13726   2.307   4.231   2.663
 4276SOL    HW113727   2.302   4.248   2.762
 4276SOL    HW213728   2.351   4.308   2.618
 4277SOL     OW13729   0.673   5.196   5.496
 4277SOL    HW113730   0.603   5.126   5.512
 4277SOL    HW213731   0.764   5.155   5.503
 4278SOL     OW13732   1.397   6.184   6.487
 4278SOL    HW113733   1.433   6.174   6.394
 4278SOL    HW213734   1.411   6.278   6.518
 4279SOL     OW13735   3.067   6.186   3.657
 4279SOL    HW113736   3.093   6.090   3.663
 4279SOL    HW213737   3.039   6.218   3.748
 4280SOL     OW13738   5.269   2.290   3.494
 4280SOL    HW113739   5.207   2.271   3.570
 4280SOL    HW213740   5.356   2.325   3.530
 4281SOL     OW13741   1.822   4.011   5.129
 4281SOL    HW113742   1.888   4.075   5.170
 4281SOL    HW213743   1.868   3.925   5.108
 4282SOL     OW13744   0.334   2.141   0.717
 4282SOL    HW113745   0.322   2.042   0.722
 4282SOL    HW213746   0.245   2.186   0.727
 4283SOL     OW13747   2.233   1.061   4.437
 4283SOL    HW113748   2.270   1.153   4.453
 4283SOL    HW213749   2.271   1.025   4.352
 4284SOL     OW13750   6.544   2.206   2.915
 4284SOL    HW113751   6.459   2.155   2.902
 4284SOL    HW213752   6.556   2.226   3.013
 4285SOL     OW13753   0.963   6.134   4.493
 4285SOL    HW113754   0.941   6.203   4.425
 4285SOL    HW213755   1.059   6.141   4.519
 4286SOL     OW13756   4.065   5.662   6.574
 4286SOL    HW113757   4.126   5.633   6.500
 4286SOL    HW213758   3.971   5.636   6.552
 4287SOL     OW13759   3.761   5.577   5.530
 4287SOL    HW113760   3.765   5.649   5.599
 4287SOL    HW213761   3.677   5.587   5.476
 4288SOL     OW13762   1.324   5.932   3.577
 4288SOL    HW113763   1.266   5.966   3.652
 4288SOL    HW213764   1.285   5.847   3.541
 4289SOL     OW13765   0.393   4.161   6.966
 4289SOL    HW113766   0.445   4.182   0.025
 4289SOL    HW213767   0.440   4.089   6.914
 4290SOL     OW13768   1.960   1.464   3.145
 4290SOL    HW113769   1.979   1.562   3.137
 4290SOL    HW213770   2.044   1.412   3.136
 4291SOL     OW13771   0.262   4.013   1.447
 4291SOL    HW113772   0.337   3.956   1.479
 4291SOL    HW213773   0.298   4.089   1.393
 4292SOL     OW13774   5.929   5.325   5.275
 4292SOL    HW113775   5.927   5.325   5.175
 4292SOL    HW213776   5.854   5.380   5.311
 4293SOL     OW13777   0.437   2.126   7.004
 4293SOL    HW113778   0.407   2.035   0.010
 4293SOL    HW213779   0.479   2.119   6.914
 4294SOL     OW13780   5.444   1.425   6.217
 4294SOL    HW113781   5.380   1.376   6.276
 4294SOL    HW213782   5.477   1.364   6.145
 4295SOL     OW13783   3.724   6.069   5.744
 4295SOL    HW113784   3.644   6.038   5.795
 4295SOL    HW213785   3.793   6.102   5.807
 4296SOL     OW13786   2.251   1.180   2.567
 4296SOL    HW113787   2.321   1.248   2.590
 4296SOL    HW213788   2.187   1.219   2.501
 4297SOL     OW13789   6.038   0.411   0.535
 4297SOL    HW113790   6.052   0.508   0.515
 4297SOL    HW213791   6.121   0.373   0.578
 4298SOL     OW13792   1.888   5.080   2.099
 4298SOL    HW113793   1.853   5.167   2.132
 4298SOL    HW213794   1.859   5.006   2.160
 4299SOL     OW13795   1.468   5.204   5.178
 4299SOL    HW113796   1.558   5.168   5.155
 4299SOL    HW213797   1.409   5.131   5.211
 4300SOL     OW13798   6.152   6.822   5.588
 4300SOL    HW113799   6.132   6.724   5.601
 4300SOL    HW213800   6.086   6.861   5.524
 4301SOL     OW13801   3.146   0.824   0.522
 4301SOL    HW113802   3.092   0.851   0.442
 4301SOL    HW213803   3.131   0.890   0.596
 4302SOL     OW13804   0.849   0.396   6.444
 4302SOL    HW113805   0.772   0.348   6.400
 4302SOL    HW213806   0.870   0.478   6.392
 4303SOL     OW13807   0.336   4.191   1.707
 4303SOL    HW113808   0.421   4.190   1.760
 4303SOL    HW213809   0.307   4.098   1.687
 4304SOL     OW13810   3.100   3.656   5.674
 4304SOL    HW113811   3.149   3.713   5.740
 4304SOL    HW213812   3.048   3.714   5.612
 4305SOL     OW13813   0.141   1.410   5.508
 4305SOL    HW113814   0.046   1.407   5.475
 4305SOL    HW213815   0.203   1.393   5.432
 4306SOL     OW13816   6.190   5.478   5.531
 4306SOL    HW113817   6.178   5.382   5.506
 4306SOL    HW213818   6.110   5.530   5.502
 4307SOL     OW13819   5.786   3.395   0.182
 4307SOL    HW113820   5.826   3.485   0.168
 4307SOL    HW213821   5.786   3.374   0.280
 4308SOL     OW13822   3.233   6.745   5.364
 4308SOL    HW113823   3.271   6.832   5.332
 4308SOL    HW213824   3.140   6.760   5.397
 4309SOL     OW13825   1.490   0.595   1.362
 4309SOL    HW113826   1.581   0.582   1.403
 4309SOL    HW213827   1.481   0.690   1.331
 4310SOL     OW13828   1.605   0.038   2.877
 4310SOL    HW113829   1.529   0.077   2.929
 4310SOL    HW213830   1.666   0.111   2.846
 4311SOL     OW13831   1.513   5.599   4.421
 4311SOL    HW113832   1.522   5.601   4.322
 4311SOL    HW213833   1.497   5.505   4.452
 4312SOL     OW13834   1.256   5.727   1.661
 4312SOL    HW113835   1.334   5.688   1.711
 4312SOL    HW213836   1.285   5.811   1.614
 4313SOL     OW13837   5.007   0.525   1.634
 4313SOL    HW113838   4.931   0.461   1.620
 4313SOL    HW213839   5.003   0.597   1.565
 4314SOL     OW13840   5.699   3.406   1.082
 4314SOL    HW113841   5.741   3.497   1.082
 4314SOL    HW213842   5.618   3.406   1.023
 4315SOL     OW13843   2.112   1.286   2.351
 4315SOL    HW113844   2.055   1.367   2.361
 4315SOL    HW213845   2.205   1.313   2.327
 4316SOL     OW13846   0.580   1.350   2.459
 4316SOL    HW113847   0.492   1.302   2.467
 4316SOL    HW213848   0.576   1.412   2.381
 4317SOL     OW13849   3.710   0.523   3.168
 4317SOL    HW113850   3.696   0.493   3.262
 4317SOL    HW213851   3.795   0.576   3.163
 4318SOL     OW13852   6.760   2.473   5.238
 4318SOL    HW113853   6.787   2.530   5.315
 4318SOL    HW213854   6.714   2.528   5.169
 4319SOL     OW13855   3.620   2.223   6.088
 4319SOL    HW113856   3.579   2.313   6.070
 4319SOL    HW213857   3.671   2.227   6.175
 4320SOL     OW13858   0.018   6.267   3.393
 4320SOL    HW113859   7.021   6.194   3.328
 4320SOL    HW213860   0.043   6.350   3.343
 4321SOL     OW13861   0.660   0.514   4.964
 4321SOL    HW113862   0.722   0.437   4.981
 4321SOL    HW213863   0.711   0.591   4.927
 4322SOL     OW13864   5.975   1.466   1.404
 4322SOL    HW113865   5.896   1.450   1.345
 4322SOL    HW213866   6.049   1.505   1.351
 4323SOL     OW13867   6.872   1.854   3.829
 4323SOL    HW113868   6.857   1.827   3.734
 4323SOL    HW213869   6.824   1.789   3.889
 4324SOL     OW13870   5.473   2.698   5.721
 4324SOL    HW113871   5.460   2.651   5.808
 4324SOL    HW213872   5.457   2.633   5.646
 4325SOL     OW13873   1.542   2.271   6.642
 4325SOL    HW113874   1.514   2.287   6.547
 4325SOL    HW213875   1.625   2.322   6.662
 4326SOL     OW13876   6.452   2.504   5.182
 4326SOL    HW113877   6.520   2.556   5.131
 4326SOL    HW213878   6.384   2.467   5.119
 4327SOL     OW13879   4.736   1.067   2.662
 4327SOL    HW113880   4.652   1.109   2.697
 4327SOL    HW213881   4.758   0.986   2.716
 4328SOL     OW13882   5.757   4.840   0.327
 4328SOL    HW113883   5.795   4.853   0.236
 4328SOL    HW213884   5.829   4.849   0.395
 4329SOL     OW13885   4.980   1.923   0.273
 4329SOL    HW113886   4.907   1.943   0.207
 4329SOL    HW213887   5.054   1.989   0.263
 4330SOL     OW13888   0.977   1.026   6.554
 4330SOL    HW113889   0.882   1.025   6.586
 4330SOL    HW213890   0.989   0.956   6.483
 4331SOL     OW13891   5.121   2.276   6.661
 4331SOL    HW113892   5.029   2.245   6.682
 4331SOL    HW213893   5.168   2.301   6.745
 4332SOL     OW13894   5.636   3.716   1.731
 4332SOL    HW113895   5.566   3.771   1.777
 4332SOL    HW213896   5.612   3.619   1.738
 4333SOL     OW13897   6.386   1.669   5.278
 4333SOL    HW113898   6.455   1.639   5.212
 4333SOL    HW213899   6.411   1.758   5.315
 4334SOL     OW13900   3.606   0.072   1.943
 4334SOL    HW113901   3.652   0.139   2.001
 4334SOL    HW213902   3.538   0.022   1.996
 4335SOL     OW13903   3.641   4.492   5.759
 4335SOL    HW113904   3.692   4.430   5.698
 4335SOL    HW213905   3.701   4.567   5.787
 4336SOL     OW13906   1.056   6.928   5.729
 4336SOL    HW113907   1.013   6.881   5.806
 4336SOL    HW213908   1.107   6.862   5.673
 4337SOL     OW13909   0.633   5.734   6.982
 4337SOL    HW113910   0.565   5.766   6.917
 4337SOL    HW213911   0.643   5.801   0.033
 4338SOL     OW13912   5.549   6.613   3.298
 4338SOL    HW113913   5.571   6.556   3.377
 4338SOL    HW213914   5.450   6.617   3.285
 4339SOL     OW13915   6.472   1.364   6.495
 4339SOL    HW113916   6.520   1.387   6.580
 4339SOL    HW213917   6.475   1.442   6.433
 4340SOL     OW13918   4.248   3.644   1.684
 4340SOL    HW113919   4.205   3.569   1.734
 4340SOL    HW213920   4.290   3.609   1.600
 4341SOL     OW13921   1.258   3.491   0.985
 4341SOL    HW113922   1.182   3.510   1.048
 4341SOL    HW213923   1.287   3.575   0.941
 4342SOL     OW13924   0.183   2.062   3.331
 4342SOL    HW113925   0.184   2.130   3.404
 4342SOL    HW213926   0.268   2.067   3.279
 4343SOL     OW13927   2.800   1.916   0.742
 4343SOL    HW113928   2.812   2.015   0.749
 4343SOL    HW213929   2.886   1.870   0.762
 4344SOL     OW13930   1.888   3.615   1.898
 4344SOL    HW113931   1.818   3.623   1.827
 4344SOL    HW213932   1.853   3.559   1.973
 4345SOL     OW13933   2.789   1.171   6.002
 4345SOL    HW113934   2.699   1.212   6.018
 4345SOL    HW213935   2.860   1.238   6.024
 4346SOL     OW13936   6.737   3.950   1.492
 4346SOL    HW113937   6.726   3.940   1.591
 4346SOL    HW213938   6.773   3.865   1.454
 4347SOL     OW13939   4.537   5.566   2.706
 4347SOL    HW113940   4.495   5.594   2.792
 4347SOL    HW213941   4.581   5.645   2.663
 4348SOL     OW13942   1.192   3.650   0.589
 4348SOL    HW113943   1.101   3.613   0.572
 4348SOL    HW213944   1.249   3.638   0.508
 4349SOL     OW13945   6.781   0.955   1.628
 4349SOL    HW113946   6.817   0.930   1.538
 4349SOL    HW213947   6.768   0.873   1.683
 4350SOL     OW13948   4.065   0.821   2.782
 4350SOL    HW113949   4.130   0.784   2.849
 4350SOL    HW213950   3.977   0.774   2.792
 4351SOL     OW13951   3.018   6.865   6.823
 4351SOL    HW113952   3.103   6.905   6.790
 4351SOL    HW213953   3.019   6.766   6.809
 4352SOL     OW13954   6.682   1.851   2.371
 4352SOL    HW113955   6.624   1.921   2.412
 4352SOL    HW213956   6.732   1.890   2.294
 4353SOL     OW13957   3.115   5.632   1.190
 4353SOL    HW113958   3.211   5.658   1.185
 4353SOL    HW213959   3.073   5.641   1.099
 4354SOL     OW13960   3.082   0.624   1.123
 4354SOL    HW113961   3.078   0.659   1.029
 4354SOL    HW213962   3.017   0.548   1.133
 4355SOL     OW13963   4.940   6.657   0.324
 4355SOL    HW113964   4.891   6.735   0.283
 4355SOL    HW213965   5.034   6.684   0.343
 4356SOL     OW13966   3.498   3.660   0.694
 4356SOL    HW113967   3.478   3.609   0.611
 4356SOL    HW213968   3.426   3.726   0.712
 4357SOL     OW13969   5.642   0.818   0.055
 4357SOL    HW113970   5.691   0.862   7.003
 4357SOL    HW213971   5.555   0.782   0.022
 4358SOL     OW13972   6.171   0.849   1.304
 4358SOL    HW113973   6.159   0.777   1.236
 4358SOL    HW213974   6.211   0.930   1.260
 4359SOL     OW13975   6.920   4.176   4.476
 4359SOL    HW113976   6.987   4.133   4.536
 4359SOL    HW213977   6.841   4.115   4.465
 4360SOL     OW13978   2.153   3.943   0.769
 4360SOL    HW113979   2.169   3.937   0.670
 4360SOL    HW213980   2.240   3.963   0.816
 4361SOL     OW13981   5.946   2.606   2.413
 4361SOL    HW113982   6.017   2.570   2.352
 4361SOL    HW213983   5.868   2.637   2.358
 4362SOL     OW13984   5.137   4.012   2.516
 4362SOL    HW113985   5.169   3.957   2.439
 4362SOL    HW213986   5.107   3.952   2.590
 4363SOL     OW13987   5.143   0.567   6.561
 4363SOL    HW113988   5.094   0.494   6.513
 4363SOL    HW213989   5.211   0.608   6.501
 4364SOL     OW13990   3.806   3.981   4.709
 4364SOL    HW113991   3.882   3.978   4.643
 4364SOL    HW213992   3.837   4.025   4.793
 4365SOL     OW13993   4.316   2.215   0.230
 4365SOL    HW113994   4.393   2.177   0.281
 4365SOL    HW213995   4.342   2.304   0.192
 4366SOL     OW13996   5.054   4.757   6.854
 4366SOL    HW113997   5.146   4.753   6.815
 4366SOL    HW213998   5.003   4.833   6.813
 4367SOL     OW13999   6.785   0.038   1.041
 4367SOL    HW114000   6.723   6.995   0.999
 4367SOL    HW214001   6.768   0.042   1.139
 4368SOL     OW14002   4.297   4.647   2.219
 4368SOL    HW114003   4.336   4.555   2.214
 4368SOL    HW214004   4.370   4.714   2.233
 4369SOL     OW14005   3.239   5.247   1.599
 4369SOL    HW114006   3.226   5.153   1.568
 4369SOL    HW214007   3.202   5.310   1.532
 4370SOL     OW14008   5.110   4.420   2.086
 4370SOL    HW114009   5.101   4.487   2.013
 4370SOL    HW214010   5.174   4.348   2.059
 4371SOL     OW14011   1.146   1.759   2.614
 4371SOL    HW114012   1.224   1.780   2.556
 4371SOL    HW214013   1.179   1.735   2.706
 4372SOL     OW14014   4.740   0.045   3.754
 4372SOL    HW114015   4.640   0.047   3.745
 4372SOL    HW214016   4.781   0.104   3.685
 4373SOL     OW14017   6.949   1.444   6.123
 4373SOL    HW114018   0.024   1.437   6.139
 4373SOL    HW214019   6.928   1.534   6.083
 4374SOL     OW14020   3.573   1.417   0.404
 4374SOL    HW114021   3.603   1.324   0.383
 4374SOL    HW214022   3.495   1.413   0.467
 4375SOL     OW14023   3.758   5.626   4.058
 4375SOL    HW114024   3.857   5.613   4.057
 4375SOL    HW214025   3.736   5.712   4.104
 4376SOL     OW14026   0.232   2.118   4.173
 4376SOL    HW114027   0.168   2.142   4.247
 4376SOL    HW214028   0.265   2.025   4.186
 4377SOL     OW14029   6.635   4.874   6.163
 4377SOL    HW114030   6.618   4.934   6.085
 4377SOL    HW214031   6.549   4.832   6.192
 4378SOL     OW14032   3.013   1.887   4.127
 4378SOL    HW114033   3.007   1.922   4.221
 4378SOL    HW214034   2.950   1.938   4.069
 4379SOL     OW14035   3.973   1.958   6.230
 4379SOL    HW114036   3.978   2.058   6.223
 4379SOL    HW214037   4.054   1.918   6.186
 4380SOL     OW14038   0.468   2.326   3.083
 4380SOL    HW114039   0.402   2.362   3.148
 4380SOL    HW214040   0.437   2.345   2.990
 4381SOL     OW14041   1.358   5.474   0.093
 4381SOL    HW114042   1.432   5.534   0.063
 4381SOL    HW214043   1.271   5.524   0.089
 4382SOL     OW14044   1.188   5.429   4.585
 4382SOL    HW114045   1.189   5.482   4.500
 4382SOL    HW214046   1.279   5.391   4.601
 4383SOL     OW14047   7.017   4.046   0.659
 4383SOL    HW114048   6.918   4.051   0.645
 4383SOL    HW214049   0.040   4.069   0.574
 4384SOL     OW14050   4.971   6.916   3.640
 4384SOL    HW114051   4.889   6.917   3.697
 4384SOL    HW214052   5.001   6.822   3.624
 4385SOL     OW14053   4.583   1.104   5.731
 4385SOL    HW114054   4.528   1.113   5.647
 4385SOL    HW214055   4.590   1.008   5.756
 4386SOL     OW14056   2.175   3.803   4.238
 4386SOL    HW114057   2.180   3.739   4.314
 4386SOL    HW214058   2.175   3.753   4.152
 4387SOL     OW14059   5.605   2.130   0.963
 4387SOL    HW114060   5.552   2.181   0.895
 4387SOL    HW214061   5.553   2.048   0.991
 4388SOL     OW14062   5.471   3.527   0.302
 4388SOL    HW114063   5.468   3.578   0.388
 4388SOL    HW214064   5.566   3.502   0.281
 4389SOL     OW14065   2.659   1.137   6.896
 4389SOL    HW114066   2.648   1.232   6.926
 4389SOL    HW214067   2.590   1.117   6.826
 4390SOL     OW14068   0.035   1.987   0.703
 4390SOL    HW114069   6.985   1.929   0.739
 4390SOL    HW214070   0.120   1.935   0.698
 4391SOL     OW14071   0.699   5.966   1.295
 4391SOL    HW114072   0.662   6.052   1.259
 4391SOL    HW214073   0.780   5.941   1.242
 4392SOL     OW14074   1.258   2.767   6.148
 4392SOL    HW114075   1.320   2.794   6.074
 4392SOL    HW214076   1.191   2.701   6.113
 4393SOL     OW14077   6.084   0.276   2.654
 4393SOL    HW114078   6.006   0.236   2.604
 4393SOL    HW214079   6.060   0.283   2.751
 4394SOL     OW14080   0.388   0.017   2.227
 4394SOL    HW114081   0.301   0.066   2.213
 4394SOL    HW214082   0.420   0.033   2.321
 4395SOL     OW14083   1.539   3.545   2.311
 4395SOL    HW114084   1.630   3.579   2.335
 4395SOL    HW214085   1.491   3.616   2.259
 4396SOL     OW14086   2.977   1.417   3.076
 4396SOL    HW114087   2.916   1.370   3.013
 4396SOL    HW214088   2.958   1.386   3.170
 4397SOL     OW14089   3.747   1.406   5.245
 4397SOL    HW114090   3.794   1.402   5.157
 4397SOL    HW214091   3.746   1.315   5.286
 4398SOL     OW14092   2.343   3.284   5.785
 4398SOL    HW114093   2.333   3.280   5.685
 4398SOL    HW214094   2.434   3.317   5.808
 4399SOL     OW14095   2.861   6.251   1.421
 4399SOL    HW114096   2.864   6.320   1.493
 4399SOL    HW214097   2.848   6.296   1.333
 4400SOL     OW14098   1.724   6.191   4.855
 4400SOL    HW114099   1.783   6.270   4.872
 4400SOL    HW214100   1.660   6.181   4.932
 4401SOL     OW14101   2.495   6.627   6.499
 4401SOL    HW114102   2.464   6.591   6.411
 4401SOL    HW214103   2.487   6.727   6.499
 4402SOL     OW14104   1.542   0.497   2.614
 4402SOL    HW114105   1.570   0.449   2.531
 4402SOL    HW214106   1.479   0.440   2.666
 4403SOL     OW14107   6.823   5.669   2.840
 4403SOL    HW114108   6.776   5.584   2.815
 4403SOL    HW214109   6.916   5.667   2.802
 4404SOL     OW14110   0.719   6.835   5.712
 4404SOL    HW114111   0.726   6.765   5.641
 4404SOL    HW214112   0.776   6.809   5.790
 4405SOL     OW14113   1.314   5.092   2.624
 4405SOL    HW114114   1.264   5.167   2.667
 4405SOL    HW214115   1.404   5.124   2.594
 4406SOL     OW14116   6.435   4.746   2.250
 4406SOL    HW114117   6.370   4.781   2.182
 4406SOL    HW214118   6.496   4.680   2.207
 4407SOL     OW14119   6.285   6.551   1.021
 4407SOL    HW114120   6.333   6.519   0.940
 4407SOL    HW214121   6.257   6.472   1.076
 4408SOL     OW14122   4.935   0.899   1.245
 4408SOL    HW114123   4.888   0.826   1.196
 4408SOL    HW214124   4.871   0.942   1.310
 4409SOL     OW14125   2.957   1.059   4.545
 4409SOL    HW114126   2.859   1.078   4.546
 4409SOL    HW214127   2.984   1.026   4.454
 4410SOL     OW14128   0.684   0.287   0.924
 4410SOL    HW114129   0.592   0.326   0.914
 4410SOL    HW214130   0.731   0.291   0.837
 4411SOL     OW14131   4.449   4.688   5.359
 4411SOL    HW114132   4.527   4.719   5.413
 4411SOL    HW214133   4.447   4.588   5.358
 4412SOL     OW14134   4.403   6.070   1.951
 4412SOL    HW114135   4.427   6.137   1.881
 4412SOL    HW214136   4.323   6.018   1.922
 4413SOL     OW14137   4.791   6.208   3.940
 4413SOL    HW114138   4.746   6.119   3.929
 4413SOL    HW214139   4.890   6.194   3.951
 4414SOL     OW14140   5.666   3.855   1.237
 4414SOL    HW114141   5.725   3.920   1.189
 4414SOL    HW214142   5.591   3.904   1.282
 4415SOL     OW14143   1.887   4.008   1.173
 4415SOL    HW114144   1.983   3.989   1.193
 4415SOL    HW214145   1.875   4.106   1.156
 4416SOL     OW14146   5.195   3.040   4.513
 4416SOL    HW114147   5.221   3.079   4.601
 4416SOL    HW214148   5.253   3.078   4.441
 4417SOL     OW14149   0.134   4.303   1.844
 4417SOL    HW114150   0.108   4.209   1.867
 4417SOL    HW214151   0.223   4.302   1.798
 4418SOL     OW14152   6.159   1.569   5.384
 4418SOL    HW114153   6.145   1.627   5.465
 4418SOL    HW214154   6.231   1.609   5.327
 4419SOL     OW14155   6.612   6.394   6.678
 4419SOL    HW114156   6.608   6.492   6.660
 4419SOL    HW214157   6.706   6.367   6.697
 4420SOL     OW14158   3.984   1.374   0.983
 4420SOL    HW114159   3.948   1.414   0.899
 4420SOL    HW214160   3.971   1.438   1.059
 4421SOL     OW14161   2.403   2.901   0.293
 4421SOL    HW114162   2.397   2.808   0.254
 4421SOL    HW214163   2.331   2.958   0.254
 4422SOL     OW14164   0.416   2.997   6.203
 4422SOL    HW114165   0.428   3.094   6.224
 4422SOL    HW214166   0.325   2.968   6.233
 4423SOL     OW14167   5.688   4.819   4.536
 4423SOL    HW114168   5.707   4.825   4.438
 4423SOL    HW214169   5.720   4.731   4.570
 4424SOL     OW14170   4.188   5.807   2.600
 4424SOL    HW114171   4.253   5.851   2.662
 4424SOL    HW214172   4.228   5.723   2.564
 4425SOL     OW14173   0.439   6.550   1.563
 4425SOL    HW114174   0.523   6.565   1.511
 4425SOL    HW214175   0.383   6.633   1.560
 4426SOL     OW14176   0.308   0.202   4.620
 4426SOL    HW114177   0.405   0.207   4.642
 4426SOL    HW214178   0.276   0.108   4.635
 4427SOL     OW14179   2.965   5.772   2.339
 4427SOL    HW114180   2.928   5.680   2.329
 4427SOL    HW214181   2.948   5.824   2.255
 4428SOL     OW14182   6.343   5.705   3.848
 4428SOL    HW114183   6.440   5.694   3.870
 4428SOL    HW214184   6.331   5.781   3.785
 4429SOL     OW14185   2.733   6.289   3.263
 4429SOL    HW114186   2.783   6.367   3.224
 4429SOL    HW214187   2.746   6.288   3.362
 4430SOL     OW14188   6.349   3.485   4.928
 4430SOL    HW114189   6.440   3.475   4.888
 4430SOL    HW214190   6.301   3.398   4.924
 4431SOL     OW14191   4.449   6.885   5.005
 4431SOL    HW114192   4.350   6.873   5.012
 4431SOL    HW214193   4.494   6.797   5.020
 4432SOL     OW14194   1.170   3.447   6.702
 4432SOL    HW114195   1.093   3.417   6.646
 4432SOL    HW214196   1.207   3.533   6.665
 4433SOL     OW14197   0.731   0.654   4.543
 4433SOL    HW114198   0.814   0.641   4.489
 4433SOL    HW214199   0.734   0.743   4.589
 4434SOL     OW14200   6.509   1.202   2.117
 4434SOL    HW114201   6.591   1.164   2.075
 4434SOL    HW214202   6.485   1.149   2.198
 4435SOL     OW14203   2.795   4.426   0.930
 4435SOL    HW114204   2.812   4.503   0.992
 4435SOL    HW214205   2.767   4.461   0.841
 4436SOL     OW14206   4.884   2.169   1.644
 4436SOL    HW114207   4.799   2.217   1.621
 4436SOL    HW214208   4.947   2.232   1.688
 4437SOL     OW14209   6.590   4.826   7.008
 4437SOL    HW114210   6.543   4.889   0.048
 4437SOL    HW214211   6.522   4.769   6.962
 4438SOL     OW14212   4.170   1.642   4.643
 4438SOL    HW114213   4.112   1.666   4.720
 4438SOL    HW214214   4.137   1.688   4.560
 4439SOL     OW14215   2.655   5.207   2.476
 4439SOL    HW114216   2.637   5.277   2.407
 4439SOL    HW214217   2.735   5.154   2.449
 4440SOL     OW14218   1.733   5.218   5.638
 4440SOL    HW114219   1.714   5.120   5.627
 4440SOL    HW214220   1.776   5.233   5.728
 4441SOL     OW14221   6.868   1.594   1.567
 4441SOL    HW114222   6.948   1.538   1.586
 4441SOL    HW214223   6.798   1.575   1.636
 4442SOL     OW14224   1.939   4.960   1.317
 4442SOL    HW114225   2.001   5.019   1.265
 4442SOL    HW214226   1.950   4.865   1.288
 4443SOL     OW14227   0.829   5.668   5.463
 4443SOL    HW114228   0.801   5.589   5.518
 4443SOL    HW214229   0.840   5.747   5.523
 4444SOL     OW14230   5.578   5.592   6.948
 4444SOL    HW114231   5.613   5.645   0.002
 4444SOL    HW214232   5.527   5.513   6.983
 4445SOL     OW14233   2.270   3.922   0.516
 4445SOL    HW114234   2.309   4.005   0.555
 4445SOL    HW214235   2.329   3.890   0.441
 4446SOL     OW14236   4.820   2.242   2.210
 4446SOL    HW114237   4.882   2.164   2.211
 4446SOL    HW214238   4.871   2.324   2.185
 4447SOL     OW14239   4.668   5.721   5.251
 4447SOL    HW114240   4.610   5.652   5.208
 4447SOL    HW214241   4.614   5.772   5.319
 4448SOL     OW14242   3.237   6.399   2.278
 4448SOL    HW114243   3.164   6.386   2.210
 4448SOL    HW214244   3.287   6.314   2.291
 4449SOL     OW14245   4.204   1.840   5.404
 4449SOL    HW114246   4.254   1.926   5.400
 4449SOL    HW214247   4.257   1.773   5.456
 4450SOL     OW14248   2.016   5.807   0.314
 4450SOL    HW114249   1.979   5.734   0.372
 4450SOL    HW214250   2.019   5.892   0.366
 4451SOL     OW14251   4.672   5.842   3.450
 4451SOL    HW114252   4.742   5.834   3.379
 4451SOL    HW214253   4.712   5.885   3.531
 4452SOL     OW14254   5.194   4.593   3.787
 4452SOL    HW114255   5.218   4.569   3.881
 4452SOL    HW214256   5.208   4.513   3.728
 4453SOL     OW14257   0.531   4.884   1.179
 4453SOL    HW114258   0.580   4.817   1.234
 4453SOL    HW214259   0.574   4.974   1.190
 4454SOL     OW14260   0.586   2.055   0.308
 4454SOL    HW114261   0.529   1.972   0.305
 4454SOL    HW214262   0.660   2.047   0.241
 4455SOL     OW14263   1.262   0.388   3.762
 4455SOL    HW114264   1.210   0.307   3.788
 4455SOL    HW214265   1.215   0.470   3.796
 4456SOL     OW14266   1.759   5.774   4.203
 4456SOL    HW114267   1.816   5.850   4.172
 4456SOL    HW214268   1.752   5.777   4.303
 4457SOL     OW14269   1.436   1.555   4.445
 4457SOL    HW114270   1.358   1.501   4.414
 4457SOL    HW214271   1.405   1.645   4.476
 4458SOL     OW14272   1.890   2.713   6.299
 4458SOL    HW114273   1.942   2.754   6.224
 4458SOL    HW214274   1.933   2.737   6.386
 4459SOL     OW14275   0.133   4.024   2.978
 4459SOL    HW114276   0.083   4.020   3.064
 4459SOL    HW214277   0.122   4.115   2.937
 4460SOL     OW14278   6.798   3.046   4.821
 4460SOL    HW114279   6.885   3.092   4.838
 4460SOL    HW214280   6.734   3.110   4.778
 4461SOL     OW14281   1.896   0.442   0.708
 4461SOL    HW114282   1.879   0.521   0.767
 4461SOL    HW214283   1.917   0.472   0.615
 4462SOL     OW14284   6.553   4.295   2.395
 4462SOL    HW114285   6.497   4.221   2.359
 4462SOL    HW214286   6.548   4.374   2.333
 4463SOL     OW14287   5.828   1.880   0.039
 4463SOL    HW114288   5.917   1.835   0.031
 4463SOL    HW214289   5.841   1.975   0.066
 4464SOL     OW14290   0.455   3.615   1.180
 4464SOL    HW114291   0.522   3.589   1.249
 4464SOL    HW214292   0.374   3.652   1.225
 4465SOL     OW14293   4.430   5.157   1.711
 4465SOL    HW114294   4.526   5.184   1.718
 4465SOL    HW214295   4.396   5.133   1.801
 4466SOL     OW14296   0.346   3.031   2.701
 4466SOL    HW114297   0.411   3.106   2.689
 4466SOL    HW214298   0.253   3.066   2.701
 4467SOL     OW14299   5.263   4.597   1.357
 4467SOL    HW114300   5.357   4.567   1.343
 4467SOL    HW214301   5.263   4.690   1.394
 4468SOL     OW14302   1.433   3.325   0.831
 4468SOL    HW114303   1.408   3.239   0.787
 4468SOL    HW214304   1.351   3.379   0.846
 4469SOL     OW14305   1.865   6.097   1.487
 4469SOL    HW114306   1.824   6.014   1.449
 4469SOL    HW214307   1.917   6.073   1.569
 4470SOL     OW14308   1.143   6.834   2.469
 4470SOL    HW114309   1.123   6.787   2.555
 4470SOL    HW214310   1.065   6.890   2.442
 4471SOL     OW14311   1.215   0.904   6.799
 4471SOL    HW114312   1.224   0.911   6.700
 4471SOL    HW214313   1.118   0.901   6.823
 4472SOL     OW14314   1.616   2.234   0.741
 4472SOL    HW114315   1.520   2.260   0.746
 4472SOL    HW214316   1.631   2.149   0.790
 4473SOL     OW14317   0.609   2.562   5.128
 4473SOL    HW114318   0.663   2.492   5.175
 4473SOL    HW214319   0.655   2.650   5.133
 4474SOL     OW14320   2.200   6.181   0.831
 4474SOL    HW114321   2.299   6.193   0.835
 4474SOL    HW214322   2.177   6.086   0.851
 4475SOL     OW14323   1.030   3.479   0.423
 4475SOL    HW114324   1.001   3.445   0.513
 4475SOL    HW214325   0.973   3.557   0.397
 4476SOL     OW14326   5.199   0.434   3.619
 4476SOL    HW114327   5.163   0.428   3.713
 4476SOL    HW214328   5.296   0.458   3.623
 4477SOL     OW14329   7.003   1.210   4.183
 4477SOL    HW114330   6.919   1.156   4.186
 4477SOL    HW214331   7.023   1.237   4.089
 4478SOL     OW14332   1.551   0.695   2.061
 4478SOL    HW114333   1.638   0.687   2.108
 4478SOL    HW214334   1.476   0.685   2.126
 4479SOL     OW14335   2.625   2.445   6.803
 4479SOL    HW114336   2.681   2.523   6.831
 4479SOL    HW214337   2.538   2.477   6.765
 4480SOL     OW14338   6.651   6.693   3.196
 4480SOL    HW114339   6.663   6.594   3.206
 4480SOL    HW214340   6.698   6.740   3.270
 4481SOL     OW14341   2.283   4.038   5.904
 4481SOL    HW114342   2.319   3.957   5.951
 4481SOL    HW214343   2.303   4.031   5.807
 4482SOL     OW14344   2.800   0.067   1.174
 4482SOL    HW114345   2.852   0.003   1.230
 4482SOL    HW214346   2.731   0.017   1.122
 4483SOL     OW14347   0.647   3.354   1.244
 4483SOL    HW114348   0.642   3.425   1.314
 4483SOL    HW214349   0.700   3.388   1.166
 4484SOL     OW14350   3.627   0.846   0.682
 4484SOL    HW114351   3.654   0.753   0.705
 4484SOL    HW214352   3.600   0.850   0.586
 4485SOL     OW14353   0.407   2.956   5.013
 4485SOL    HW114354   0.372   2.982   5.103
 4485SOL    HW214355   0.341   2.985   4.943
 4486SOL     OW14356   4.887   4.823   3.287
 4486SOL    HW114357   4.977   4.864   3.302
 4486SOL    HW214358   4.897   4.731   3.250
 4487SOL     OW14359   0.798   2.664   6.737
 4487SOL    HW114360   0.871   2.732   6.751
 4487SOL    HW214361   0.797   2.637   6.640
 4488SOL     OW14362   6.086   4.406   4.215
 4488SOL    HW114363   6.147   4.485   4.217
 4488SOL    HW214364   5.994   4.435   4.190
 4489SOL     OW14365   3.286   6.034   6.670
 4489SOL    HW114366   3.260   6.043   6.767
 4489SOL    HW214367   3.369   6.086   6.652
 4490SOL     OW14368   5.536   1.718   2.012
 4490SOL    HW114369   5.546   1.743   2.109
 4490SOL    HW214370   5.448   1.751   1.978
 4491SOL     OW14371   0.014   3.754   2.988
 4491SOL    HW114372   7.017   3.782   3.082
 4491SOL    HW214373   0.087   3.811   2.952
 4492SOL     OW14374   6.323   1.377   2.187
 4492SOL    HW114375   6.344   1.398   2.283
 4492SOL    HW214376   6.399   1.328   2.146
 4493SOL     OW14377   5.549   1.256   6.024
 4493SOL    HW114378   5.631   1.212   5.986
 4493SOL    HW214379   5.488   1.283   5.949
 4494SOL     OW14380   1.365   1.366   2.629
 4494SOL    HW114381   1.267   1.387   2.632
 4494SOL    HW214382   1.378   1.267   2.628
 4495SOL     OW14383   4.575   6.347   0.993
 4495SOL    HW114384   4.551   6.253   1.018
 4495SOL    HW214385   4.566   6.405   1.074
 4496SOL     OW14386   2.366   5.644   6.046
 4496SOL    HW114387   2.436   5.645   5.974
 4496SOL    HW214388   2.286   5.594   6.013
 4497SOL     OW14389   4.323   6.893   5.830
 4497SOL    HW114390   4.258   6.957   5.790
 4497SOL    HW214391   4.389   6.943   5.886
 4498SOL     OW14392   1.518   4.856   4.177
 4498SOL    HW114393   1.539   4.915   4.255
 4498SOL    HW214394   1.464   4.907   4.110
 4499SOL     OW14395   5.802   1.871   2.095
 4499SOL    HW114396   5.797   1.951   2.155
 4499SOL    HW214397   5.806   1.788   2.151
 4500SOL     OW14398   3.464   6.528   6.887
 4500SOL    HW114399   3.406   6.561   6.961
 4500SOL    HW214400   3.416   6.538   6.800
 4501SOL     OW14401   6.340   0.256   2.910
 4501SOL    HW114402   6.254   0.218   2.945
 4501SOL    HW214403   6.333   0.356   2.904
 4502SOL     OW14404   1.186   3.860   6.881
 4502SOL    HW114405   1.210   3.799   6.805
 4502SOL    HW214406   1.123   3.931   6.847
 4503SOL     OW14407   3.563   1.383   2.810
 4503SOL    HW114408   3.617   1.348   2.733
 4503SOL    HW214409   3.529   1.474   2.788
 4504SOL     OW14410   1.691   2.623   3.872
 4504SOL    HW114411   1.641   2.548   3.916
 4504SOL    HW214412   1.757   2.586   3.807
 4505SOL     OW14413   6.648   2.992   3.511
 4505SOL    HW114414   6.702   3.043   3.444
 4505SOL    HW214415   6.637   3.047   3.594
 4506SOL     OW14416   4.121   3.883   0.187
 4506SOL    HW114417   4.028   3.848   0.199
 4506SOL    HW214418   4.124   3.941   0.106
 4507SOL     OW14419   6.001   2.377   3.226
 4507SOL    HW114420   5.975   2.441   3.297
 4507SOL    HW214421   6.097   2.392   3.201
 4508SOL     OW14422   6.384   5.302   0.635
 4508SOL    HW114423   6.457   5.235   0.623
 4508SOL    HW214424   6.408   5.386   0.587
 4509SOL     OW14425   5.162   2.326   2.495
 4509SOL    HW114426   5.079   2.354   2.545
 4509SOL    HW214427   5.187   2.399   2.430
 4510SOL     OW14428   4.741   1.786   3.854
 4510SOL    HW114429   4.806   1.711   3.847
 4510SOL    HW214430   4.779   1.858   3.912
 4511SOL     OW14431   0.547   4.501   6.838
 4511SOL    HW114432   0.494   4.582   6.862
 4511SOL    HW214433   0.486   4.433   6.798
 4512SOL     OW14434   3.026   3.246   5.994
 4512SOL    HW114435   2.934   3.225   6.027
 4512SOL    HW214436   3.022   3.325   5.933
 4513SOL     OW14437   0.443   0.867   1.076
 4513SOL    HW114438   0.425   0.806   1.153
 4513SOL    HW214439   0.534   0.849   1.039
 4514SOL     OW14440   4.625   4.659   6.402
 4514SOL    HW114441   4.616   4.706   6.490
 4514SOL    HW214442   4.722   4.653   6.378
 4515SOL     OW14443   4.512   6.952   6.053
 4515SOL    HW114444   4.544   6.882   6.117
 4515SOL    HW214445   4.477   0.007   6.104
 4516SOL     OW14446   3.359   1.862   5.268
 4516SOL    HW114447   3.306   1.906   5.340
 4516SOL    HW214448   3.360   1.919   5.187
 4517SOL     OW14449   3.524   0.909   4.245
 4517SOL    HW114450   3.456   0.954   4.304
 4517SOL    HW214451   3.521   0.951   4.154
 4518SOL     OW14452   0.026   0.116   0.614
 4518SOL    HW114453   0.044   0.155   0.523
 4518SOL    HW214454   6.973   0.165   0.656
 4519SOL     OW14455   5.140   0.243   6.285
 4519SOL    HW114456   5.094   0.186   6.217
 4519SOL    HW214457   5.237   0.219   6.288
 4520SOL     OW14458   4.447   5.109   5.295
 4520SOL    HW114459   4.392   5.040   5.248
 4520SOL    HW214460   4.409   5.200   5.277
 4521SOL     OW14461   4.380   2.384   3.868
 4521SOL    HW114462   4.425   2.464   3.828
 4521SOL    HW214463   4.309   2.351   3.807
 4522SOL     OW14464   5.558   3.943   3.455
 4522SOL    HW114465   5.618   3.864   3.450
 4522SOL    HW214466   5.462   3.913   3.455
 4523SOL     OW14467   0.465   2.917   6.507
 4523SOL    HW114468   0.527   2.942   6.581
 4523SOL    HW214469   0.399   2.990   6.492
 4524SOL     OW14470   2.130   3.845   1.829
 4524SOL    HW114471   2.043   3.888   1.805
 4524SOL    HW214472   2.183   3.906   1.888
 4525SOL     OW14473   3.974   1.669   5.922
 4525SOL    HW114474   3.967   1.570   5.935
 4525SOL    HW214475   3.886   1.712   5.942
 4526SOL     OW14476   1.588   0.079   5.030
 4526SOL    HW114477   1.647   0.018   4.977
 4526SOL    HW214478   1.591   0.052   5.126
 4527SOL     OW14479   0.926   2.241   2.829
 4527SOL    HW114480   0.987   2.278   2.899
 4527SOL    HW214481   0.972   2.168   2.779
 4528SOL     OW14482   5.387   1.802   4.798
 4528SOL    HW114483   5.377   1.707   4.768
 4528SOL    HW214484   5.403   1.805   4.897
 4529SOL     OW14485   1.707   1.902   3.724
 4529SOL    HW114486   1.633   1.835   3.725
 4529SOL    HW214487   1.710   1.948   3.635
 4530SOL     OW14488   3.988   4.933   5.840
 4530SOL    HW114489   4.085   4.956   5.840
 4530SOL    HW214490   3.954   4.930   5.934
 4531SOL     OW14491   1.431   6.796   5.223
 4531SOL    HW114492   1.475   6.720   5.271
 4531SOL    HW214493   1.470   6.805   5.131
 4532SOL     OW14494   5.546   1.208   1.967
 4532SOL    HW114495   5.626   1.150   1.953
 4532SOL    HW214496   5.572   1.290   2.019
 4533SOL     OW14497   2.848   6.353   1.174
 4533SOL    HW114498   2.889   6.325   1.088
 4533SOL    HW214499   2.802   6.441   1.162
 4534SOL     OW14500   5.844   0.945   4.596
 4534SOL    HW114501   5.763   0.913   4.548
 4534SOL    HW214502   5.913   0.873   4.597
 4535SOL     OW14503   1.269   0.712   7.018
 4535SOL    HW114504   1.245   0.762   6.935
 4535SOL    HW214505   1.213   0.745   0.071
 4536SOL     OW14506   3.841   0.775   5.793
 4536SOL    HW114507   3.847   0.854   5.855
 4536SOL    HW214508   3.789   0.802   5.711
 4537SOL     OW14509   3.244   3.455   3.382
 4537SOL    HW114510   3.268   3.478   3.476
 4537SOL    HW214511   3.153   3.490   3.361
 4538SOL     OW14512   1.405   2.858   0.362
 4538SOL    HW114513   1.439   2.949   0.385
 4538SOL    HW214514   1.326   2.836   0.420
 4539SOL     OW14515   1.274   4.915   4.458
 4539SOL    HW114516   1.323   4.965   4.386
 4539SOL    HW214517   1.213   4.978   4.506
 4540SOL     OW14518   2.055   1.829   0.535
 4540SOL    HW114519   2.126   1.801   0.600
 4540SOL    HW214520   2.080   1.797   0.443
 4541SOL     OW14521   4.005   3.121   0.170
 4541SOL    HW114522   4.008   3.167   0.081
 4541SOL    HW214523   3.918   3.075   0.181
 4542SOL     OW14524   6.949   1.605   0.827
 4542SOL    HW114525   6.884   1.677   0.854
 4542SOL    HW214526   6.944   1.530   0.893
 4543SOL     OW14527   4.392   1.529   1.164
 4543SOL    HW114528   4.401   1.509   1.261
 4543SOL    HW214529   4.335   1.460   1.120
 4544SOL     OW14530   5.172   5.917   0.278
 4544SOL    HW114531   5.120   5.992   0.238
 4544SOL    HW214532   5.251   5.954   0.327
 4545SOL     OW14533   3.211   3.232   5.356
 4545SOL    HW114534   3.266   3.305   5.315
 4545SOL    HW214535   3.221   3.236   5.456
 4546SOL     OW14536   4.976   6.951   6.176
 4546SOL    HW114537   4.901   6.986   6.231
 4546SOL    HW214538   4.941   6.883   6.111
 4547SOL     OW14539   6.795   1.410   0.172
 4547SOL    HW114540   6.757   1.495   0.209
 4547SOL    HW214541   6.819   1.424   0.076
 4548SOL     OW14542   3.111   1.233   2.094
 4548SOL    HW114543   3.163   1.151   2.115
 4548SOL    HW214544   3.171   1.301   2.052
 4549SOL     OW14545   6.382   4.879   3.815
 4549SOL    HW114546   6.397   4.784   3.841
 4549SOL    HW214547   6.457   4.936   3.849
 4550SOL     OW14548   2.690   5.262   6.874
 4550SOL    HW114549   2.595   5.252   6.847
 4550SOL    HW214550   2.703   5.225   6.967
 4551SOL     OW14551   3.736   3.017   5.961
 4551SOL    HW114552   3.737   3.088   5.890
 4551SOL    HW214553   3.800   2.944   5.937
 4552SOL     OW14554   4.915   0.564   6.838
 4552SOL    HW114555   4.882   0.623   6.765
 4552SOL    HW214556   5.001   0.521   6.809
 4553SOL     OW14557   0.105   0.079   0.251
 4553SOL    HW114558   0.155   0.067   0.165
 4553SOL    HW214559   0.065   7.016   0.280
 4554SOL     OW14560   5.530   6.423   2.785
 4554SOL    HW114561   5.602   6.356   2.769
 4554SOL    HW214562   5.512   6.430   2.883
 4555SOL     OW14563   0.663   0.363   2.745
 4555SOL    HW114564   0.744   0.407   2.783
 4555SOL    HW214565   0.685   0.269   2.717
 4556SOL     OW14566   5.104   4.701   4.636
 4556SOL    HW114567   5.111   4.799   4.649
 4556SOL    HW214568   5.008   4.676   4.622
 4557SOL     OW14569   0.115   5.588   4.848
 4557SOL    HW114570   0.150   5.681   4.861
 4557SOL    HW214571   0.102   5.544   4.937
 4558SOL     OW14572   0.902   4.620   4.158
 4558SOL    HW114573   0.986   4.666   4.188
 4558SOL    HW214574   0.923   4.528   4.127
 4559SOL     OW14575   0.324   3.292   4.364
 4559SOL    HW114576   0.383   3.355   4.314
 4559SOL    HW214577   0.351   3.290   4.460
 4560SOL     OW14578   6.260   4.451   3.188
 4560SOL    HW114579   6.264   4.533   3.131
 4560SOL    HW214580   6.344   4.444   3.242
 4561SOL     OW14581   4.869   3.031   4.268
 4561SOL    HW114582   4.864   3.111   4.209
 4561SOL    HW214583   4.891   3.059   4.361
 4562SOL     OW14584   4.751   1.012   1.400
 4562SOL    HW114585   4.654   0.988   1.405
 4562SOL    HW214586   4.767   1.099   1.445
 4563SOL     OW14587   0.854   4.142   1.707
 4563SOL    HW114588   0.913   4.162   1.786
 4563SOL    HW214589   0.912   4.124   1.627
 4564SOL     OW14590   2.081   3.618   2.251
 4564SOL    HW114591   2.117   3.562   2.176
 4564SOL    HW214592   2.107   3.577   2.339
 4565SOL     OW14593   2.190   6.945   5.231
 4565SOL    HW114594   2.280   6.986   5.215
 4565SOL    HW214595   2.121   6.994   5.176
 4566SOL     OW14596   6.902   5.050   3.170
 4566SOL    HW114597   6.950   4.986   3.110
 4566SOL    HW214598   6.952   5.136   3.174
 4567SOL     OW14599   0.808   0.018   0.592
 4567SOL    HW114600   0.717   7.001   0.585
 4567SOL    HW214601   0.871   6.975   0.633
 4568SOL     OW14602   0.282   4.118   3.443
 4568SOL    HW114603   0.379   4.138   3.430
 4568SOL    HW214604   0.255   4.145   3.535
 4569SOL     OW14605   0.836   2.944   3.519
 4569SOL    HW114606   0.795   2.943   3.428
 4569SOL    HW214607   0.771   2.907   3.585
 4570SOL     OW14608   4.893   6.009   0.975
 4570SOL    HW114609   4.956   6.085   0.962
 4570SOL    HW214610   4.839   6.024   1.058
 4571SOL     OW14611   2.034   2.810   5.581
 4571SOL    HW114612   1.989   2.865   5.511
 4571SOL    HW214613   2.102   2.750   5.538
 4572SOL     OW14614   4.412   3.073   1.720
 4572SOL    HW114615   4.426   3.172   1.721
 4572SOL    HW214616   4.472   3.031   1.788
 4573SOL     OW14617   2.102   5.106   1.119
 4573SOL    HW114618   2.173   5.171   1.146
 4573SOL    HW214619   2.145   5.019   1.094
 4574SOL     OW14620   5.416   0.388   1.811
 4574SOL    HW114621   5.357   0.402   1.890
 4574SOL    HW214622   5.380   0.437   1.732
 4575SOL     OW14623   7.003   1.685   5.312
 4575SOL    HW114624   0.000   1.682   5.214
 4575SOL    HW214625   6.959   1.600   5.340
 4576SOL     OW14626   3.072   3.742   0.075
 4576SOL    HW114627   3.041   3.795   7.019
 4576SOL    HW214628   3.140   3.793   0.126
 4577SOL     OW14629   0.547   1.706   1.740
 4577SOL    HW114630   0.474   1.772   1.754
 4577SOL    HW214631   0.635   1.747   1.764
 4578SOL     OW14632   1.207   0.626   3.096
 4578SOL    HW114633   1.177   0.641   3.190
 4578SOL    HW214634   1.294   0.673   3.081
 4579SOL     OW14635   4.409   1.008   2.918
 4579SOL    HW114636   4.456   1.062   2.848
 4579SOL    HW214637   4.415   1.054   3.006
 4580SOL     OW14638   0.733   0.617   1.831
 4580SOL    HW114639   0.680   0.542   1.793
 4580SOL    HW214640   0.672   0.681   1.879
 4581SOL     OW14641   2.789   0.511   1.570
 4581SOL    HW114642   2.731   0.430   1.566
 4581SOL    HW214643   2.874   0.494   1.520
 4582SOL     OW14644   5.853   0.563   4.130
 4582SOL    HW114645   5.950   0.539   4.132
 4582SOL    HW214646   5.801   0.496   4.183
 4583SOL     OW14647   1.954   6.640   7.018
 4583SOL    HW114648   1.979   6.564   0.055
 4583SOL    HW214649   2.023   6.650   6.946
 4584SOL     OW14650   0.185   1.262   4.565
 4584SOL    HW114651   0.107   1.323   4.580
 4584SOL    HW214652   0.269   1.316   4.562
 4585SOL     OW14653   0.917   2.974   3.092
 4585SOL    HW114654   0.884   2.899   3.149
 4585SOL    HW214655   0.950   2.938   3.005
 4586SOL     OW14656   0.060   5.294   5.726
 4586SOL    HW114657   0.067   5.264   5.822
 4586SOL    HW214658   6.987   5.299   5.700
 4587SOL     OW14659   4.199   3.347   5.829
 4587SOL    HW114660   4.234   3.364   5.921
 4587SOL    HW214661   4.262   3.286   5.781
 4588SOL     OW14662   2.844   4.217   6.426
 4588SOL    HW114663   2.832   4.238   6.329
 4588SOL    HW214664   2.754   4.214   6.471
 4589SOL     OW14665   5.437   6.232   1.999
 4589SOL    HW114666   5.373   6.201   2.069
 4589SOL    HW214667   5.422   6.181   1.915
 4590SOL     OW14668   2.390   4.826   1.818
 4590SOL    HW114669   2.381   4.922   1.844
 4590SOL    HW214670   2.479   4.792   1.848
 4591SOL     OW14671   2.030   1.174   4.609
 4591SOL    HW114672   1.984   1.263   4.610
 4591SOL    HW214673   2.107   1.177   4.546
 4592SOL     OW14674   2.657   2.280   3.328
 4592SOL    HW114675   2.576   2.331   3.356
 4592SOL    HW214676   2.721   2.273   3.405
 4593SOL     OW14677   1.660   5.948   4.463
 4593SOL    HW114678   1.688   6.040   4.435
 4593SOL    HW214679   1.710   5.922   4.546
 4594SOL     OW14680   1.137   6.034   3.771
 4594SOL    HW114681   1.062   5.969   3.758
 4594SOL    HW214682   1.147   6.055   3.869
 4595SOL     OW14683   5.853   2.201   6.781
 4595SOL    HW114684   5.797   2.212   6.699
 4595SOL    HW214685   5.931   2.142   6.761
 4596SOL     OW14686   0.755   1.555   2.553
 4596SOL    HW114687   0.702   1.471   2.551
 4596SOL    HW214688   0.703   1.628   2.509
 4597SOL     OW14689   2.122   5.507   0.708
 4597SOL    HW114690   2.174   5.578   0.661
 4597SOL    HW214691   2.034   5.494   0.661
 4598SOL     OW14692   0.471   2.831   0.037
 4598SOL    HW114693   0.525   2.877   0.108
 4598SOL    HW214694   0.528   2.766   7.010
 4599SOL     OW14695   3.132   6.520   3.258
 4599SOL    HW114696   3.219   6.569   3.260
 4599SOL    HW214697   3.144   6.430   3.299
 4600SOL     OW14698   0.946   6.427   5.865
 4600SOL    HW114699   0.939   6.328   5.850
 4600SOL    HW214700   0.936   6.448   5.962
 4601SOL     OW14701   1.129   1.043   5.269
 4601SOL    HW114702   1.173   1.110   5.209
 4601SOL    HW214703   1.150   0.951   5.237
 4602SOL     OW14704   4.211   0.599   6.581
 4602SOL    HW114705   4.274   0.636   6.512
 4602SOL    HW214706   4.240   0.506   6.606
 4603SOL     OW14707   4.220   6.998   0.961
 4603SOL    HW114708   4.272   6.966   1.040
 4603SOL    HW214709   4.131   6.953   0.959
 4604SOL     OW14710   0.792   6.541   3.013
 4604SOL    HW114711   0.794   6.640   3.006
 4604SOL    HW214712   0.867   6.509   3.072
 4605SOL     OW14713   4.413   1.247   1.910
 4605SOL    HW114714   4.447   1.258   2.003
 4605SOL    HW214715   4.364   1.161   1.902
 4606SOL     OW14716   6.714   6.802   4.583
 4606SOL    HW114717   6.750   6.879   4.636
 4606SOL    HW214718   6.756   6.802   4.492
 4607SOL     OW14719   3.021   1.986   1.139
 4607SOL    HW114720   2.948   1.918   1.143
 4607SOL    HW214721   2.983   2.077   1.153
 4608SOL     OW14722   0.539   2.475   5.620
 4608SOL    HW114723   0.532   2.571   5.591
 4608SOL    HW214724   0.554   2.417   5.540
 4609SOL     OW14725   6.179   5.061   6.152
 4609SOL    HW114726   6.182   4.991   6.081
 4609SOL    HW214727   6.124   5.028   6.229
 4610SOL     OW14728   5.256   4.517   6.376
 4610SOL    HW114729   5.203   4.465   6.309
 4610SOL    HW214730   5.208   4.516   6.464
 4611SOL     OW14731   0.226   0.606   6.662
 4611SOL    HW114732   0.142   0.654   6.635
 4611SOL    HW214733   0.242   0.622   6.760
 4612SOL     OW14734   2.058   1.045   2.889
 4612SOL    HW114735   2.024   0.983   2.818
 4612SOL    HW214736   2.055   1.139   2.855
 4613SOL     OW14737   1.297   4.967   3.320
 4613SOL    HW114738   1.273   5.059   3.291
 4613SOL    HW214739   1.218   4.923   3.362
 4614SOL     OW14740   0.240   4.586   2.932
 4614SOL    HW114741   0.306   4.524   2.891
 4614SOL    HW214742   0.223   4.559   3.027
 4615SOL     OW14743   1.361   4.532   6.997
 4615SOL    HW114744   1.293   4.461   7.014
 4615SOL    HW214745   1.435   4.495   6.941
 4616SOL     OW14746   1.312   3.936   6.372
 4616SOL    HW114747   1.383   3.898   6.312
 4616SOL    HW214748   1.338   4.028   6.400
 4617SOL     OW14749   0.232   4.110   3.965
 4617SOL    HW114750   0.247   4.203   3.996
 4617SOL    HW214751   0.147   4.075   4.004
 4618SOL     OW14752   2.392   4.058   5.646
 4618SOL    HW114753   2.329   3.982   5.634
 4618SOL    HW214754   2.422   4.091   5.557
 4619SOL     OW14755   4.115   5.972   6.688
 4619SOL    HW114756   4.156   6.011   6.606
 4619SOL    HW214757   4.187   5.942   6.751
 4620SOL     OW14758   1.468   4.640   1.564
 4620SOL    HW114759   1.413   4.665   1.644
 4620SOL    HW214760   1.407   4.625   1.486
 4621SOL     OW14761   2.636   0.261   2.746
 4621SOL    HW114762   2.632   0.239   2.648
 4621SOL    HW214763   2.618   0.178   2.799
 4622SOL     OW14764   6.138   0.381   0.245
 4622SOL    HW114765   6.050   0.352   0.283
 4622SOL    HW214766   6.154   0.477   0.268
 4623SOL     OW14767   3.092   4.862   2.889
 4623SOL    HW114768   3.044   4.917   2.821
 4623SOL    HW214769   3.028   4.798   2.932
 4624SOL     OW14770   5.315   1.755   1.013
 4624SOL    HW114771   5.362   1.668   0.994
 4624SOL    HW214772   5.226   1.735   1.054
 4625SOL     OW14773   0.631   5.994   2.114
 4625SOL    HW114774   0.674   6.081   2.140
 4625SOL    HW214775   0.686   5.949   2.044
 4626SOL     OW14776   4.082   3.639   2.051
 4626SOL    HW114777   4.066   3.591   2.137
 4626SOL    HW214778   4.083   3.738   2.068
 4627SOL     OW14779   6.071   6.627   4.453
 4627SOL    HW114780   6.036   6.715   4.420
 4627SOL    HW214781   6.141   6.594   4.390
 4628SOL     OW14782   6.742   4.828   3.041
 4628SOL    HW114783   6.656   4.879   3.033
 4628SOL    HW214784   6.767   4.821   3.138
 4629SOL     OW14785   1.265   5.065   0.961
 4629SOL    HW114786   1.216   5.017   0.888
 4629SOL    HW214787   1.360   5.032   0.965
 4630SOL     OW14788   1.999   3.835   1.470
 4630SOL    HW114789   1.903   3.852   1.494
 4630SOL    HW214790   2.004   3.764   1.400
 4631SOL     OW14791   6.507   1.990   2.592
 4631SOL    HW114792   6.486   1.899   2.627
 4631SOL    HW214793   6.424   2.045   2.589
 4632SOL     OW14794   3.219   4.907   3.831
 4632SOL    HW114795   3.304   4.940   3.872
 4632SOL    HW214796   3.166   4.858   3.900
 4633SOL     OW14797   5.413   2.755   3.965
 4633SOL    HW114798   5.328   2.707   3.946
 4633SOL    HW214799   5.489   2.690   3.965
 4634SOL     OW14800   3.630   3.212   5.528
 4634SOL    HW114801   3.583   3.139   5.480
 4634SOL    HW214802   3.638   3.190   5.625
 4635SOL     OW14803   4.256   6.785   2.424
 4635SOL    HW114804   4.314   6.844   2.369
 4635SOL    HW214805   4.310   6.709   2.460
 4636SOL     OW14806   1.752   5.381   6.499
 4636SOL    HW114807   1.666   5.405   6.454
 4636SOL    HW214808   1.822   5.449   6.475
 4637SOL     OW14809   1.968   2.481   3.286
 4637SOL    HW114810   1.968   2.409   3.216
 4637SOL    HW214811   1.952   2.570   3.242
 4638SOL     OW14812   4.189   4.474   6.991
 4638SOL    HW114813   4.286   4.453   6.978
 4638SOL    HW214814   4.169   4.483   0.065
 4639SOL     OW14815   4.317   1.980   1.862
 4639SOL    HW114816   4.244   1.952   1.799
 4639SOL    HW214817   4.289   1.960   1.956
 4640SOL     OW14818   7.005   2.848   1.011
 4640SOL    HW114819   0.016   2.819   1.100
 4640SOL    HW214820   0.017   2.786   0.940
 4641SOL     OW14821   1.080   5.900   4.793
 4641SOL    HW114822   1.037   5.811   4.777
 4641SOL    HW214823   1.017   5.972   4.767
 4642SOL     OW14824   6.284   1.372   6.101
 4642SOL    HW114825   6.216   1.301   6.084
 4642SOL    HW214826   6.237   1.456   6.129
 4643SOL     OW14827   0.797   2.118   6.856
 4643SOL    HW114828   0.866   2.154   6.918
 4643SOL    HW214829   0.769   2.027   6.887
 4644SOL     OW14830   1.123   1.432   1.138
 4644SOL    HW114831   1.101   1.339   1.109
 4644SOL    HW214832   1.088   1.497   1.071
 4645SOL     OW14833   5.677   2.602   5.465
 4645SOL    HW114834   5.659   2.656   5.383
 4645SOL    HW214835   5.592   2.589   5.516
 4646SOL     OW14836   1.547   4.149   2.550
 4646SOL    HW114837   1.515   4.087   2.478
 4646SOL    HW214838   1.570   4.096   2.632
 4647SOL     OW14839   2.112   6.198   2.684
 4647SOL    HW114840   2.174   6.267   2.720
 4647SOL    HW214841   2.126   6.112   2.732
 4648SOL     OW14842   2.414   0.877   4.561
 4648SOL    HW114843   2.329   0.928   4.554
 4648SOL    HW214844   2.432   0.830   4.474
 4649SOL     OW14845   4.898   2.574   0.866
 4649SOL    HW114846   4.966   2.634   0.910
 4649SOL    HW214847   4.916   2.479   0.890
 4650SOL     OW14848   3.797   5.312   0.419
 4650SOL    HW114849   3.724   5.353   0.366
 4650SOL    HW214850   3.801   5.213   0.401
 4651SOL     OW14851   1.083   3.859   0.152
 4651SOL    HW114852   1.100   3.776   0.206
 4651SOL    HW214853   1.098   3.839   0.055
 4652SOL     OW14854   0.327   0.559   5.622
 4652SOL    HW114855   0.344   0.599   5.712
 4652SOL    HW214856   0.248   0.603   5.580
 4653SOL     OW14857   0.162   6.202   0.876
 4653SOL    HW114858   0.234   6.135   0.891
 4653SOL    HW214859   0.189   6.289   0.917
 4654SOL     OW14860   0.312   1.396   5.298
 4654SOL    HW114861   0.303   1.400   5.199
 4654SOL    HW214862   0.407   1.375   5.322
 4655SOL     OW14863   5.681   5.004   3.034
 4655SOL    HW114864   5.641   4.918   3.000
 4655SOL    HW214865   5.670   5.008   3.133
 4656SOL     OW14866   5.784   0.377   1.538
 4656SOL    HW114867   5.819   0.471   1.541
 4656SOL    HW214868   5.856   0.315   1.509
 4657SOL     OW14869   3.518   1.889   2.696
 4657SOL    HW114870   3.568   1.820   2.645
 4657SOL    HW214871   3.493   1.964   2.634
 4658SOL     OW14872   1.228   1.715   0.237
 4658SOL    HW114873   1.265   1.668   0.316
 4658SOL    HW214874   1.186   1.649   0.175
 4659SOL     OW14875   2.338   4.946   0.703
 4659SOL    HW114876   2.266   5.010   0.731
 4659SOL    HW214877   2.369   4.894   0.782
 4660SOL     OW14878   0.142   5.067   4.310
 4660SOL    HW114879   0.214   5.111   4.256
 4660SOL    HW214880   0.183   5.024   4.390
 4661SOL     OW14881   1.137   0.809   5.922
 4661SOL    HW114882   1.228   0.810   5.963
 4661SOL    HW214883   1.109   0.903   5.901
 4662SOL     OW14884   3.227   0.699   5.995
 4662SOL    HW114885   3.234   0.796   5.973
 4662SOL    HW214886   3.226   0.646   5.910
 4663SOL     OW14887   0.570   0.619   1.475
 4663SOL    HW114888   0.630   0.680   1.526
 4663SOL    HW214889   0.622   0.573   1.403
 4664SOL     OW14890   5.800   6.018   4.720
 4664SOL    HW114891   5.869   5.946   4.727
 4664SOL    HW214892   5.845   6.107   4.711
 4665SOL     OW14893   6.671   0.839   2.692
 4665SOL    HW114894   6.740   0.910   2.703
 4665SOL    HW214895   6.715   0.750   2.685
 4666SOL     OW14896   1.697   2.162   6.002
 4666SOL    HW114897   1.746   2.218   5.935
 4666SOL    HW214898   1.600   2.185   6.001
 4667SOL     OW14899   6.430   3.181   1.250
 4667SOL    HW114900   6.433   3.085   1.223
 4667SOL    HW214901   6.375   3.233   1.184
 4668SOL     OW14902   4.975   1.518   6.042
 4668SOL    HW114903   4.976   1.572   6.126
 4668SOL    HW214904   4.886   1.472   6.033
 4669SOL     OW14905   5.766   0.143   6.367
 4669SOL    HW114906   5.762   0.140   6.267
 4669SOL    HW214907   5.693   0.086   6.405
 4670SOL     OW14908   0.536   3.324   0.045
 4670SOL    HW114909   0.551   3.416   0.079
 4670SOL    HW214910   0.437   3.306   0.041
 4671SOL     OW14911   6.717   2.265   2.043
 4671SOL    HW114912   6.661   2.277   1.961
 4671SOL    HW214913   6.742   2.354   2.080
 4672SOL     OW14914   3.276   3.039   0.576
 4672SOL    HW114915   3.190   2.990   0.570
 4672SOL    HW214916   3.351   2.980   0.546
 4673SOL     OW14917   5.480   1.044   0.944
 4673SOL    HW114918   5.419   1.100   0.889
 4673SOL    HW214919   5.551   1.101   0.984
 4674SOL     OW14920   1.367   3.091   0.742
 4674SOL    HW114921   1.276   3.080   0.703
 4674SOL    HW214922   1.402   3.002   0.772
 4675SOL     OW14923   1.495   5.912   0.277
 4675SOL    HW114924   1.428   5.844   0.247
 4675SOL    HW214925   1.578   5.904   0.222
 4676SOL     OW14926   1.345   5.930   4.744
 4676SOL    HW114927   1.364   5.837   4.714
 4676SOL    HW214928   1.249   5.937   4.772
 4677SOL     OW14929   4.393   7.014   6.834
 4677SOL    HW114930   4.344   0.021   6.916
 4677SOL    HW214931   4.448   0.066   6.799
 4678SOL     OW14932   2.640   4.861   0.353
 4678SOL    HW114933   2.565   4.836   0.414
 4678SOL    HW214934   2.723   4.877   0.407
 4679SOL     OW14935   2.414   6.810   4.944
 4679SOL    HW114936   2.452   6.856   5.024
 4679SOL    HW214937   2.373   6.877   4.883
 4680SOL     OW14938   0.775   4.838   6.510
 4680SOL    HW114939   0.840   4.896   6.461
 4680SOL    HW214940   0.778   4.746   6.472
 4681SOL     OW14941   6.723   5.708   5.108
 4681SOL    HW114942   6.696   5.737   5.200
 4681SOL    HW214943   6.746   5.610   5.109
 4682SOL     OW14944   3.300   0.507   1.240
 4682SOL    HW114945   3.202   0.514   1.221
 4682SOL    HW214946   3.348   0.586   1.204
 4683SOL     OW14947   0.389   4.608   3.789
 4683SOL    HW114948   0.456   4.537   3.768
 4683SOL    HW214949   0.400   4.638   3.883
 4684SOL     OW14950   1.949   1.387   4.883
 4684SOL    HW114951   1.865   1.441   4.886
 4684SOL    HW214952   1.955   1.329   4.964
 4685SOL     OW14953   5.347   4.068   4.342
 4685SOL    HW114954   5.396   4.154   4.352
 4685SOL    HW214955   5.266   4.081   4.285
 4686SOL     OW14956   4.921   5.548   6.656
 4686SOL    HW114957   4.971   5.524   6.739
 4686SOL    HW214958   4.986   5.566   6.582
 4687SOL     OW14959   4.727   0.283   4.470
 4687SOL    HW114960   4.740   0.369   4.521
 4687SOL    HW214961   4.684   0.215   4.530
 4688SOL     OW14962   6.604   1.421   0.609
 4688SOL    HW114963   6.644   1.336   0.643
 4688SOL    HW214964   6.520   1.400   0.559
 4689SOL     OW14965   2.048   5.641   4.268
 4689SOL    HW114966   2.099   5.566   4.309
 4689SOL    HW214967   2.002   5.693   4.340
 4690SOL     OW14968   2.467   1.381   0.821
 4690SOL    HW114969   2.459   1.292   0.864
 4690SOL    HW214970   2.449   1.372   0.723
 4691SOL     OW14971   3.498   4.453   0.060
 4691SOL    HW114972   3.500   4.552   0.051
 4691SOL    HW214973   3.403   4.420   0.051
 4692SOL     OW14974   1.191   5.233   3.718
 4692SOL    HW114975   1.229   5.310   3.667
 4692SOL    HW214976   1.224   5.147   3.679
 4693SOL     OW14977   0.813   1.444   2.179
 4693SOL    HW114978   0.885   1.438   2.109
 4693SOL    HW214979   0.820   1.366   2.241
 4694SOL     OW14980   1.235   1.085   4.957
 4694SOL    HW114981   1.225   1.177   4.996
 4694SOL    HW214982   1.332   1.064   4.946
 4695SOL     OW14983   3.241   3.623   2.853
 4695SOL    HW114984   3.189   3.699   2.893
 4695SOL    HW214985   3.221   3.617   2.755
 4696SOL     OW14986   6.807   3.514   0.706
 4696SOL    HW114987   6.794   3.555   0.796
 4696SOL    HW214988   6.810   3.414   0.715
 4697SOL     OW14989   1.112   5.913   6.668
 4697SOL    HW114990   1.047   5.952   6.603
 4697SOL    HW214991   1.066   5.894   6.755
 4698SOL     OW14992   6.214   3.144   2.064
 4698SOL    HW114993   6.290   3.127   2.002
 4698SOL    HW214994   6.229   3.095   2.150
 4699SOL     OW14995   6.816   6.867   3.316
 4699SOL    HW114996   6.865   6.845   3.401
 4699SOL    HW214997   6.770   6.955   3.326
 4700SOL     OW14998   4.937   6.669   6.577
 4700SOL    HW114999   5.008   6.671   6.506
 4700SOL    HW215000   4.878   6.749   6.566
 4701SOL     OW15001   1.843   0.546   6.829
 4701SOL    HW115002   1.926   0.508   6.788
 4701SOL    HW215003   1.794   0.473   6.877
 4702SOL     OW15004   3.147   2.875   0.795
 4702SOL    HW115005   3.105   2.838   0.712
 4702SOL    HW215006   3.229   2.822   0.816
 4703SOL     OW15007   1.172   6.763   2.119
 4703SOL    HW115008   1.256   6.708   2.123
 4703SOL    HW215009   1.104   6.724   2.181
 4704SOL     OW15010   4.685   6.329   6.420
 4704SOL    HW115011   4.757   6.263   6.436
 4704SOL    HW215012   4.641   6.353   6.506
 4705SOL     OW15013   3.826   2.998   4.927
 4705SOL    HW115014   3.912   3.021   4.972
 4705SOL    HW215015   3.832   3.019   4.829
 4706SOL     OW15016   5.757   3.648   6.967
 4706SOL    HW115017   5.827   3.695   6.915
 4706SOL    HW215018   5.723   3.570   6.915
 4707SOL     OW15019   2.553   5.274   0.738
 4707SOL    HW115020   2.616   5.352   0.733
 4707SOL    HW215021   2.462   5.307   0.764
 4708SOL     OW15022   1.527   2.894   2.411
 4708SOL    HW115023   1.448   2.896   2.349
 4708SOL    HW215024   1.610   2.915   2.360
 4709SOL     OW15025   3.029   4.246   0.568
 4709SOL    HW115026   2.944   4.229   0.518
 4709SOL    HW215027   3.088   4.165   0.562
 4710SOL     OW15028   4.692   3.339   1.136
 4710SOL    HW115029   4.631   3.301   1.067
 4710SOL    HW215030   4.710   3.270   1.207
 4711SOL     OW15031   2.721   6.933   3.621
 4711SOL    HW115032   2.724   6.833   3.614
 4711SOL    HW215033   2.813   6.969   3.638
 4712SOL     OW15034   1.563   3.673   6.839
 4712SOL    HW115035   1.571   3.699   6.743
 4712SOL    HW215036   1.638   3.713   6.892
 4713SOL     OW15037   0.977   5.123   0.789
 4713SOL    HW115038   1.020   5.189   0.849
 4713SOL    HW215039   1.041   5.048   0.770
 4714SOL     OW15040   4.083   2.612   1.359
 4714SOL    HW115041   4.038   2.701   1.347
 4714SOL    HW215042   4.147   2.618   1.436
 4715SOL     OW15043   4.870   3.877   4.847
 4715SOL    HW115044   4.804   3.948   4.872
 4715SOL    HW215045   4.852   3.794   4.899
 4716SOL     OW15046   2.537   5.509   6.590
 4716SOL    HW115047   2.462   5.445   6.572
 4716SOL    HW215048   2.500   5.600   6.608
 4717SOL     OW15049   2.141   5.444   4.538
 4717SOL    HW115050   2.203   5.498   4.481
 4717SOL    HW215051   2.114   5.497   4.618
 4718SOL     OW15052   4.629   6.872   6.975
 4718SOL    HW115053   4.695   6.851   6.903
 4718SOL    HW215054   4.588   6.962   6.957
 4719SOL     OW15055   4.409   3.371   1.730
 4719SOL    HW115056   4.340   3.405   1.795
 4719SOL    HW215057   4.467   3.446   1.701
 4720SOL     OW15058   2.524   1.542   2.821
 4720SOL    HW115059   2.529   1.642   2.815
 4720SOL    HW215060   2.443   1.516   2.874
 4721SOL     OW15061   1.659   1.373   1.478
 4721SOL    HW115062   1.695   1.464   1.497
 4721SOL    HW215063   1.559   1.375   1.483
 4722SOL     OW15064   2.919   0.417   2.540
 4722SOL    HW115065   2.860   0.481   2.589
 4722SOL    HW215066   2.983   0.375   2.604
 4723SOL     OW15067   3.149   0.182   5.108
 4723SOL    HW115068   3.208   0.136   5.174
 4723SOL    HW215069   3.205   0.219   5.033
 4724SOL     OW15070   4.509   5.035   0.980
 4724SOL    HW115071   4.595   4.986   0.997
 4724SOL    HW215072   4.503   5.115   1.040
 4725SOL     OW15073   6.057   5.620   2.907
 4725SOL    HW115074   5.978   5.570   2.942
 4725SOL    HW215075   6.036   5.718   2.907
 4726SOL     OW15076   0.421   6.402   4.522
 4726SOL    HW115077   0.390   6.470   4.589
 4726SOL    HW215078   0.428   6.313   4.566
 4727SOL     OW15079   5.653   6.654   1.685
 4727SOL    HW115080   5.589   6.592   1.729
 4727SOL    HW215081   5.668   6.734   1.743
 4728SOL     OW15082   6.702   0.330   6.853
 4728SOL    HW115083   6.677   0.247   6.803
 4728SOL    HW215084   6.675   0.410   6.801
 4729SOL     OW15085   3.390   0.799   0.812
 4729SOL    HW115086   3.487   0.814   0.795
 4729SOL    HW215087   3.350   0.881   0.853
 4730SOL     OW15088   1.925   0.375   6.023
 4730SOL    HW115089   1.999   0.339   5.965
 4730SOL    HW215090   1.896   0.464   5.987
 4731SOL     OW15091   4.764   1.350   6.095
 4731SOL    HW115092   4.822   1.310   6.166
 4731SOL    HW215093   4.758   1.287   6.017
 4732SOL     OW15094   0.593   0.215   0.221
 4732SOL    HW115095   0.580   0.231   0.319
 4732SOL    HW215096   0.620   0.120   0.206
 4733SOL     OW15097   6.137   3.526   3.404
 4733SOL    HW115098   6.203   3.577   3.349
 4733SOL    HW215099   6.138   3.430   3.377
 4734SOL     OW15100   6.444   4.337   5.513
 4734SOL    HW115101   6.472   4.427   5.478
 4734SOL    HW215102   6.351   4.344   5.550
 4735SOL     OW15103   0.266   3.796   3.704
 4735SOL    HW115104   0.273   3.844   3.617
 4735SOL    HW215105   0.324   3.841   3.772
 4736SOL     OW15106   1.794   0.189   2.399
 4736SOL    HW115107   1.746   0.113   2.354
 4736SOL    HW215108   1.884   0.159   2.430
 4737SOL     OW15109   3.605   5.015   2.072
 4737SOL    HW115110   3.622   4.930   2.022
 4737SOL    HW215111   3.582   5.087   2.006
 4738SOL     OW15112   0.879   6.974   2.428
 4738SOL    HW115113   0.850   0.036   2.385
 4738SOL    HW215114   0.877   6.900   2.361
 4739SOL     OW15115   3.618   0.134   1.681
 4739SOL    HW115116   3.540   0.162   1.625
 4739SOL    HW215117   3.587   0.119   1.775
 4740SOL     OW15118   0.825   2.003   3.949
 4740SOL    HW115119   0.818   1.948   3.866
 4740SOL    HW215120   0.747   1.985   4.008
 4741SOL     OW15121   4.084   3.793   2.888
 4741SOL    HW115122   4.151   3.758   2.822
 4741SOL    HW215123   4.001   3.819   2.840
 4742SOL     OW15124   4.897   0.824   1.798
 4742SOL    HW115125   4.884   0.923   1.802
 4742SOL    HW215126   4.945   0.800   1.714
 4743SOL     OW15127   1.261   5.300   1.100
 4743SOL    HW115128   1.315   5.289   1.183
 4743SOL    HW215129   1.266   5.215   1.046
 4744SOL     OW15130   1.661   5.547   1.455
 4744SOL    HW115131   1.675   5.458   1.499
 4744SOL    HW215132   1.659   5.535   1.356
 4745SOL     OW15133   1.684   2.948   0.595
 4745SOL    HW115134   1.703   2.898   0.510
 4745SOL    HW215135   1.588   2.976   0.597
 4746SOL     OW15136   5.225   5.198   4.112
 4746SOL    HW115137   5.212   5.103   4.084
 4746SOL    HW215138   5.151   5.254   4.075
 4747SOL     OW15139   4.047   0.609   0.450
 4747SOL    HW115140   4.024   0.628   0.355
 4747SOL    HW215141   4.030   0.513   0.470
 4748SOL     OW15142   1.986   6.942   3.231
 4748SOL    HW115143   1.970   6.912   3.325
 4748SOL    HW215144   1.899   6.945   3.182
 4749SOL     OW15145   2.451   1.106   0.894
 4749SOL    HW115146   2.359   1.090   0.931
 4749SOL    HW215147   2.519   1.086   0.964
 4750SOL     OW15148   5.056   3.141   6.238
 4750SOL    HW115149   5.113   3.141   6.156
 4750SOL    HW215150   4.998   3.060   6.239
 4751SOL     OW15151   4.815   1.377   2.400
 4751SOL    HW115152   4.757   1.430   2.339
 4751SOL    HW215153   4.836   1.289   2.358
 4752SOL     OW15154   5.636   0.819   6.739
 4752SOL    HW115155   5.695   0.894   6.769
 4752SOL    HW215156   5.591   0.778   6.819
 4753SOL     OW15157   2.489   6.305   5.383
 4753SOL    HW115158   2.488   6.346   5.291
 4753SOL    HW215159   2.580   6.268   5.402
 4754SOL     OW15160   5.141   4.477   6.624
 4754SOL    HW115161   5.164   4.467   6.720
 4754SOL    HW215162   5.064   4.416   6.601
 4755SOL     OW15163   0.710   0.839   1.575
 4755SOL    HW115164   0.793   0.856   1.522
 4755SOL    HW215165   0.670   0.926   1.605
 4756SOL     OW15166   7.021   3.453   5.709
 4756SOL    HW115167   7.014   3.484   5.615
 4756SOL    HW215168   0.041   3.362   5.712
 4757SOL     OW15169   1.979   2.976   0.708
 4757SOL    HW115170   1.964   2.992   0.806
 4757SOL    HW215171   1.892   2.953   0.665
 4758SOL     OW15172   2.006   5.069   2.660
 4758SOL    HW115173   1.988   5.165   2.680
 4758SOL    HW215174   2.086   5.038   2.712
 4759SOL     OW15175   0.487   6.640   2.168
 4759SOL    HW115176   0.519   6.547   2.147
 4759SOL    HW215177   0.446   6.680   2.086
 4760SOL     OW15178   1.842   6.403   1.968
 4760SOL    HW115179   1.819   6.476   2.032
 4760SOL    HW215180   1.864   6.442   1.879
 4761SOL     OW15181   4.643   6.045   1.580
 4761SOL    HW115182   4.737   6.070   1.558
 4761SOL    HW215183   4.606   6.108   1.649
 4762SOL     OW15184   0.904   1.113   2.671
 4762SOL    HW115185   0.996   1.091   2.640
 4762SOL    HW215186   0.908   1.190   2.735
 4763SOL     OW15187   5.546   5.230   1.459
 4763SOL    HW115188   5.471   5.243   1.524
 4763SOL    HW215189   5.518   5.162   1.390
 4764SOL     OW15190   4.658   2.793   6.840
 4764SOL    HW115191   4.664   2.695   6.820
 4764SOL    HW215192   4.649   2.806   6.939
 4765SOL     OW15193   4.121   1.268   6.013
 4765SOL    HW115194   4.112   1.237   5.918
 4765SOL    HW215195   4.217   1.268   6.038
 4766SOL     OW15196   0.772   1.307   4.334
 4766SOL    HW115197   0.773   1.354   4.422
 4766SOL    HW215198   0.698   1.343   4.278
 4767SOL     OW15199   2.360   4.741   3.592
 4767SOL    HW115200   2.385   4.818   3.534
 4767SOL    HW215201   2.291   4.685   3.545
 4768SOL     OW15202   4.483   1.463   6.410
 4768SOL    HW115203   4.426   1.534   6.449
 4768SOL    HW215204   4.486   1.474   6.310
 4769SOL     OW15205   2.282   2.944   0.665
 4769SOL    HW115206   2.204   2.968   0.723
 4769SOL    HW215207   2.254   2.880   0.595
 4770SOL     OW15208   6.480   1.616   3.694
 4770SOL    HW115209   6.576   1.643   3.688
 4770SOL    HW215210   6.423   1.686   3.652
 4771SOL     OW15211   2.837   0.780   4.131
 4771SOL    HW115212   2.791   0.732   4.057
 4771SOL    HW215213   2.919   0.825   4.096
 4772SOL     OW15214   2.832   4.775   2.981
 4772SOL    HW115215   2.804   4.699   3.041
 4772SOL    HW215216   2.778   4.772   2.897
 4773SOL     OW15217   3.069   5.448   4.277
 4773SOL    HW115218   3.124   5.365   4.275
 4773SOL    HW215219   2.979   5.429   4.236
 4774SOL     OW15220   1.070   4.629   0.945
 4774SOL    HW115221   1.012   4.686   1.004
 4774SOL    HW215222   1.093   4.544   0.993
 4775SOL     OW15223   5.993   5.038   4.499
 4775SOL    HW115224   5.915   5.057   4.558
 4775SOL    HW215225   6.065   5.106   4.517
 4776SOL     OW15226   6.594   1.880   5.453
 4776SOL    HW115227   6.661   1.870   5.379
 4776SOL    HW215228   6.506   1.906   5.414
 4777SOL     OW15229   1.243   6.864   3.576
 4777SOL    HW115230   1.215   6.927   3.503
 4777SOL    HW215231   1.320   6.809   3.544
 4778SOL     OW15232   1.462   0.399   0.474
 4778SOL    HW115233   1.415   0.485   0.495
 4778SOL    HW215234   1.502   0.405   0.383
 4779SOL     OW15235   4.711   1.275   4.611
 4779SOL    HW115236   4.635   1.303   4.552
 4779SOL    HW215237   4.750   1.355   4.655
 4780SOL     OW15238   5.117   2.880   4.966
 4780SOL    HW115239   5.061   2.943   4.912
 4780SOL    HW215240   5.057   2.819   5.018
 4781SOL     OW15241   2.058   5.421   2.134
 4781SOL    HW115242   2.008   5.466   2.060
 4781SOL    HW215243   2.097   5.490   2.194
 4782SOL     OW15244   1.078   5.965   3.215
 4782SOL    HW115245   1.035   6.024   3.284
 4782SOL    HW215246   1.113   6.022   3.140
 4783SOL     OW15247   0.765   3.483   6.706
 4783SOL    HW115248   0.790   3.452   6.797
 4783SOL    HW215249   0.708   3.564   6.712
 4784SOL     OW15250   5.564   3.265   0.020
 4784SOL    HW115251   5.613   3.319   0.089
 4784SOL    HW215252   5.576   3.168   0.039
 4785SOL     OW15253   6.950   0.569   3.987
 4785SOL    HW115254   6.982   0.649   4.038
 4785SOL    HW215255   7.014   0.493   3.998
 4786SOL     OW15256   0.861   5.417   0.362
 4786SOL    HW115257   0.780   5.358   0.362
 4786SOL    HW215258   0.917   5.397   0.442
 4787SOL     OW15259   4.987   1.112   5.190
 4787SOL    HW115260   4.915   1.061   5.237
 4787SOL    HW215261   4.948   1.194   5.147
 4788SOL     OW15262   6.799   5.790   1.170
 4788SOL    HW115263   6.831   5.885   1.161
 4788SOL    HW215264   6.732   5.771   1.098
 4789SOL     OW15265   5.909   1.159   2.742
 4789SOL    HW115266   5.851   1.181   2.663
 4789SOL    HW215267   5.855   1.108   2.810
 4790SOL     OW15268   6.989   2.349   5.148
 4790SOL    HW115269   0.023   2.323   5.226
 4790SOL    HW215270   6.912   2.405   5.180
 4791SOL     OW15271   0.652   0.813   6.506
 4791SOL    HW115272   0.599   0.740   6.549
 4791SOL    HW215273   0.744   0.778   6.483
 4792SOL     OW15274   0.217   3.611   1.595
 4792SOL    HW115275   0.198   3.605   1.497
 4792SOL    HW215276   0.315   3.624   1.610
 4793SOL     OW15277   1.330   3.520   5.214
 4793SOL    HW115278   1.376   3.470   5.141
 4793SOL    HW215279   1.398   3.568   5.269
 4794SOL     OW15280   5.406   1.076   6.663
 4794SOL    HW115281   5.386   1.174   6.672
 4794SOL    HW215282   5.330   1.031   6.618
 4795SOL     OW15283   0.263   0.644   6.923
 4795SOL    HW115284   0.273   0.590   7.007
 4795SOL    HW215285   0.312   0.730   6.931
 4796SOL     OW15286   6.006   0.664   5.541
 4796SOL    HW115287   5.938   0.717   5.591
 4796SOL    HW215288   5.962   0.612   5.468
 4797SOL     OW15289   2.620   4.972   5.513
 4797SOL    HW115290   2.706   4.945   5.471
 4797SOL    HW215291   2.559   5.010   5.443
 4798SOL     OW15292   2.896   6.280   0.174
 4798SOL    HW115293   2.966   6.349   0.154
 4798SOL    HW215294   2.916   6.197   0.122
 4799SOL     OW15295   4.052   3.392   1.027
 4799SOL    HW115296   4.063   3.334   0.946
 4799SOL    HW215297   4.138   3.438   1.047
 4800SOL     OW15298   1.018   4.686   6.993
 4800SOL    HW115299   0.948   4.744   6.951
 4800SOL    HW215300   1.105   4.735   6.996
 4801SOL     OW15301   4.925   2.604   3.393
 4801SOL    HW115302   4.835   2.640   3.367
 4801SOL    HW215303   4.928   2.506   3.373
 4802SOL     OW15304   6.824   1.018   5.379
 4802SOL    HW115305   6.802   1.111   5.349
 4802SOL    HW215306   6.921   1.014   5.403
 4803SOL     OW15307   5.176   3.330   5.651
 4803SOL    HW115308   5.209   3.421   5.625
 4803SOL    HW215309   5.235   3.293   5.723
 4804SOL     OW15310   5.311   2.693   0.652
 4804SOL    HW115311   5.254   2.771   0.676
 4804SOL    HW215312   5.274   2.610   0.694
 4805SOL     OW15313   5.566   0.839   6.452
 4805SOL    HW115314   5.604   0.854   6.544
 4805SOL    HW215315   5.508   0.758   6.453
 4806SOL     OW15316   1.215   2.648   3.572
 4806SOL    HW115317   1.194   2.745   3.561
 4806SOL    HW215318   1.154   2.594   3.514
 4807SOL     OW15319   0.843   3.832   6.842
 4807SOL    HW115320   0.826   3.870   6.933
 4807SOL    HW215321   0.769   3.769   6.818
 4808SOL     OW15322   3.485   6.331   2.724
 4808SOL    HW115323   3.451   6.425   2.715
 4808SOL    HW215324   3.538   6.307   2.642
 4809SOL     OW15325   3.090   3.498   0.194
 4809SOL    HW115326   3.003   3.449   0.200
 4809SOL    HW215327   3.079   3.579   0.136
 4810SOL     OW15328   1.789   4.963   4.815
 4810SOL    HW115329   1.804   5.004   4.905
 4810SOL    HW215330   1.861   4.897   4.795
 4811SOL     OW15331   3.213   3.403   4.267
 4811SOL    HW115332   3.277   3.449   4.329
 4811SOL    HW215333   3.135   3.464   4.249
 4812SOL     OW15334   2.565   6.558   1.822
 4812SOL    HW115335   2.665   6.555   1.823
 4812SOL    HW215336   2.532   6.581   1.914
 4813SOL     OW15337   1.082   2.499   4.519
 4813SOL    HW115338   1.093   2.475   4.615
 4813SOL    HW215339   1.167   2.483   4.470
 4814SOL     OW15340   5.765   1.578   1.021
 4814SOL    HW115341   5.739   1.534   1.107
 4814SOL    HW215342   5.831   1.651   1.040
 4815SOL     OW15343   6.397   4.472   2.819
 4815SOL    HW115344   6.340   4.550   2.790
 4815SOL    HW215345   6.448   4.498   2.901
 4816SOL     OW15346   2.374   0.125   2.626
 4816SOL    HW115347   2.300   0.095   2.686
 4816SOL    HW215348   2.383   0.225   2.631
 4817SOL     OW15349   3.441   2.434   0.210
 4817SOL    HW115350   3.519   2.458   0.153
 4817SOL    HW215351   3.425   2.508   0.276
 4818SOL     OW15352   4.871   6.657   4.954
 4818SOL    HW115353   4.886   6.630   4.858
 4818SOL    HW215354   4.924   6.740   4.974
 4819SOL     OW15355   3.716   0.727   0.272
 4819SOL    HW115356   3.719   0.673   0.188
 4819SOL    HW215357   3.798   0.785   0.276
 4820SOL     OW15358   0.249   4.843   1.730
 4820SOL    HW115359   0.171   4.838   1.667
 4820SOL    HW215360   0.266   4.939   1.752
 4821SOL     OW15361   0.230   6.614   1.242
 4821SOL    HW115362   0.139   6.623   1.282
 4821SOL    HW215363   0.260   6.519   1.247
 4822SOL     OW15364   0.555   3.854   1.559
 4822SOL    HW115365   0.592   3.910   1.633
 4822SOL    HW215366   0.542   3.911   1.478
 4823SOL     OW15367   0.291   1.897   2.984
 4823SOL    HW115368   0.305   1.943   2.896
 4823SOL    HW215369   0.339   1.947   3.056
 4824SOL     OW15370   5.462   2.484   2.094
 4824SOL    HW115371   5.463   2.584   2.086
 4824SOL    HW215372   5.462   2.444   2.003
 4825SOL     OW15373   1.677   3.123   4.343
 4825SOL    HW115374   1.681   3.190   4.268
 4825SOL    HW215375   1.616   3.157   4.415
 4826SOL     OW15376   0.285   6.814   0.480
 4826SOL    HW115377   0.228   6.787   0.558
 4826SOL    HW215378   0.227   6.851   0.408
 4827SOL     OW15379   5.141   1.756   7.007
 4827SOL    HW115380   5.096   1.750   0.073
 4827SOL    HW215381   5.237   1.781   7.020
 4828SOL     OW15382   5.906   3.439   6.694
 4828SOL    HW115383   5.813   3.465   6.722
 4828SOL    HW215384   5.903   3.396   6.604
 4829SOL     OW15385   2.818   0.246   5.557
 4829SOL    HW115386   2.898   0.273   5.502
 4829SOL    HW215387   2.734   0.274   5.510
 4830SOL     OW15388   4.970   4.788   4.969
 4830SOL    HW115389   4.893   4.850   4.954
 4830SOL    HW215390   5.045   4.838   5.012
 4831SOL     OW15391   6.423   2.133   6.446
 4831SOL    HW115392   6.513   2.162   6.478
 4831SOL    HW215393   6.355   2.202   6.469
 4832SOL     OW15394   1.342   3.034   6.680
 4832SOL    HW115395   1.261   3.047   6.623
 4832SOL    HW215396   1.318   2.980   6.760
 4833SOL     OW15397   6.224   2.492   3.084
 4833SOL    HW115398   6.323   2.495   3.096
 4833SOL    HW215399   6.187   2.585   3.089
 4834SOL     OW15400   5.874   0.453   3.109
 4834SOL    HW115401   5.943   0.432   3.178
 4834SOL    HW215402   5.866   0.552   3.099
 4835SOL     OW15403   2.138   1.181   6.500
 4835SOL    HW115404   2.165   1.220   6.588
 4835SOL    HW215405   2.066   1.113   6.514
 4836SOL     OW15406   5.768   3.768   2.900
 4836SOL    HW115407   5.864   3.783   2.876
 4836SOL    HW215408   5.760   3.751   2.998
 4837SOL     OW15409   0.880   5.223   1.398
 4837SOL    HW115410   0.792   5.263   1.426
 4837SOL    HW215411   0.942   5.296   1.369
 4838SOL     OW15412   2.668   5.908   2.530
 4838SOL    HW115413   2.748   5.870   2.578
 4838SOL    HW215414   2.585   5.875   2.575
 4839SOL     OW15415   1.241   0.250   6.210
 4839SOL    HW115416   1.332   0.286   6.233
 4839SOL    HW215417   1.196   0.312   6.145
 4840SOL     OW15418   6.894   5.874   6.367
 4840SOL    HW115419   6.872   5.832   6.279
 4840SOL    HW215420   6.859   5.817   6.441
 4841SOL     OW15421   1.850   5.837   1.268
 4841SOL    HW115422   1.773   5.849   1.331
 4841SOL    HW215423   1.884   5.744   1.275
 4842SOL     OW15424   3.131   6.446   0.552
 4842SOL    HW115425   3.071   6.512   0.507
 4842SOL    HW215426   3.214   6.492   0.583
 4843SOL     OW15427   1.398   3.733   0.363
 4843SOL    HW115428   1.430   3.772   0.448
 4843SOL    HW215429   1.375   3.806   0.298
 4844SOL     OW15430   0.542   1.614   5.318
 4844SOL    HW115431   0.467   1.615   5.252
 4844SOL    HW215432   0.506   1.602   5.410
 4845SOL     OW15433   5.250   6.604   3.230
 4845SOL    HW115434   5.201   6.685   3.198
 4845SOL    HW215435   5.202   6.566   3.310
 4846SOL     OW15436   6.804   5.089   6.274
 4846SOL    HW115437   6.742   5.146   6.328
 4846SOL    HW215438   6.754   5.009   6.241
 4847SOL     OW15439   4.719   2.781   4.441
 4847SOL    HW115440   4.685   2.875   4.441
 4847SOL    HW215441   4.641   2.718   4.438
 4848SOL     OW15442   2.678   3.308   1.601
 4848SOL    HW115443   2.755   3.370   1.583
 4848SOL    HW215444   2.709   3.233   1.660
 4849SOL     OW15445   2.078   6.309   6.329
 4849SOL    HW115446   1.999   6.249   6.317
 4849SOL    HW215447   2.108   6.307   6.424
 4850SOL     OW15448   3.423   6.662   2.769
 4850SOL    HW115449   3.457   6.683   2.861
 4850SOL    HW215450   3.461   6.728   2.704
 4851SOL     OW15451   5.180   1.093   5.751
 4851SOL    HW115452   5.120   1.029   5.799
 4851SOL    HW215453   5.146   1.109   5.659
 4852SOL     OW15454   1.761   2.048   1.431
 4852SOL    HW115455   1.787   2.135   1.389
 4852SOL    HW215456   1.752   2.059   1.530
 4853SOL     OW15457   3.776   1.349   1.852
 4853SOL    HW115458   3.728   1.433   1.879
 4853SOL    HW215459   3.804   1.298   1.933
 4854SOL     OW15460   4.032   6.983   6.073
 4854SOL    HW115461   4.001   6.935   5.991
 4854SOL    HW215462   4.042   0.057   6.053
 4855SOL     OW15463   0.337   2.764   2.620
 4855SOL    HW115464   0.239   2.740   2.622
 4855SOL    HW215465   0.356   2.828   2.694
 4856SOL     OW15466   0.210   4.503   2.316
 4856SOL    HW115467   0.262   4.417   2.324
 4856SOL    HW215468   0.141   4.507   2.388
 4857SOL     OW15469   0.317   0.888   5.415
 4857SOL    HW115470   0.331   0.966   5.355
 4857SOL    HW215471   0.329   0.803   5.364
 4858SOL     OW15472   1.782   0.768   3.941
 4858SOL    HW115473   1.738   0.681   3.962
 4858SOL    HW215474   1.739   0.841   3.994
 4859SOL     OW15475   3.628   6.249   6.030
 4859SOL    HW115476   3.559   6.269   5.960
 4859SOL    HW215477   3.663   6.335   6.067
 4860SOL     OW15478   3.318   4.857   0.402
 4860SOL    HW115479   3.296   4.842   0.306
 4860SOL    HW215480   3.418   4.861   0.413
 4861SOL     OW15481   4.147   4.162   6.745
 4861SOL    HW115482   4.093   4.238   6.781
 4861SOL    HW215483   4.151   4.089   6.812
 4862SOL     OW15484   1.714   0.256   0.562
 4862SOL    HW115485   1.738   0.326   0.629
 4862SOL    HW215486   1.632   0.284   0.512
 4863SOL     OW15487   5.164   3.861   6.226
 4863SOL    HW115488   5.086   3.921   6.241
 4863SOL    HW215489   5.132   3.771   6.194
 4864SOL     OW15490   3.381   1.302   4.172
 4864SOL    HW115491   3.474   1.317   4.205
 4864SOL    HW215492   3.333   1.390   4.166
 4865SOL     OW15493   1.462   6.364   5.428
 4865SOL    HW115494   1.514   6.297   5.375
 4865SOL    HW215495   1.490   6.359   5.524
 4866SOL     OW15496   0.199   4.395   5.815
 4866SOL    HW115497   0.215   4.444   5.729
 4866SOL    HW215498   0.287   4.371   5.856
 4867SOL     OW15499   4.011   1.123   3.419
 4867SOL    HW115500   3.963   1.038   3.441
 4867SOL    HW215501   3.946   1.198   3.411
 4868SOL     OW15502   0.292   5.071   0.514
 4868SOL    HW115503   0.340   5.008   0.574
 4868SOL    HW215504   0.326   5.164   0.528
 4869SOL     OW15505   0.166   1.691   0.819
 4869SOL    HW115506   0.197   1.691   0.914
 4869SOL    HW215507   0.072   1.659   0.815
 4870SOL     OW15508   0.211   0.110   1.207
 4870SOL    HW115509   0.231   0.020   1.245
 4870SOL    HW215510   0.160   0.165   1.274
 4871SOL     OW15511   0.710   1.762   3.015
 4871SOL    HW115512   0.622   1.753   3.062
 4871SOL    HW215513   0.784   1.735   3.077
 4872SOL     OW15514   5.196   0.205   3.217
 4872SOL    HW115515   5.272   0.226   3.156
 4872SOL    HW215516   5.231   0.154   3.297
 4873SOL     OW15517   0.140   5.787   3.746
 4873SOL    HW115518   0.076   5.714   3.770
 4873SOL    HW215519   0.230   5.747   3.728
 4874SOL     OW15520   5.655   4.014   1.935
 4874SOL    HW115521   5.685   3.924   1.965
 4874SOL    HW215522   5.700   4.084   1.990
 4875SOL     OW15523   6.032   6.771   4.705
 4875SOL    HW115524   6.054   6.695   4.644
 4875SOL    HW215525   6.107   6.837   4.704
 4876SOL     OW15526   6.461   1.603   2.447
 4876SOL    HW115527   6.465   1.504   2.462
 4876SOL    HW215528   6.541   1.632   2.394
 4877SOL     OW15529   0.333   1.640   6.736
 4877SOL    HW115530   0.294   1.613   6.647
 4877SOL    HW215531   0.261   1.678   6.793
 4878SOL     OW15532   6.006   4.485   3.313
 4878SOL    HW115533   6.089   4.455   3.267
 4878SOL    HW215534   6.019   4.480   3.412
 4879SOL     OW15535   5.144   0.554   3.219
 4879SOL    HW115536   5.218   0.497   3.256
 4879SOL    HW215537   5.182   0.639   3.182
 4880SOL     OW15538   0.039   3.140   6.368
 4880SOL    HW115539   0.052   3.069   6.299
 4880SOL    HW215540   6.979   3.120   6.420
 4881SOL     OW15541   0.222   3.782   1.846
 4881SOL    HW115542   0.190   3.717   1.915
 4881SOL    HW215543   0.241   3.733   1.761
 4882SOL     OW15544   5.229   1.865   4.096
 4882SOL    HW115545   5.172   1.791   4.131
 4882SOL    HW215546   5.325   1.845   4.112
 4883SOL     OW15547   6.417   4.614   6.869
 4883SOL    HW115548   6.403   4.613   6.770
 4883SOL    HW215549   6.445   4.522   6.899
 4884SOL     OW15550   2.101   1.848   2.062
 4884SOL    HW115551   2.157   1.796   1.997
 4884SOL    HW215552   2.131   1.944   2.063
 4885SOL     OW15553   0.988   5.145   6.477
 4885SOL    HW115554   0.924   5.164   6.551
 4885SOL    HW215555   0.940   5.096   6.404
 4886SOL     OW15556   2.752   0.972   2.284
 4886SOL    HW115557   2.755   1.042   2.213
 4886SOL    HW215558   2.722   1.013   2.370
 4887SOL     OW15559   4.630   5.203   0.645
 4887SOL    HW115560   4.616   5.243   0.736
 4887SOL    HW215561   4.648   5.276   0.579
 4888SOL     OW15562   4.617   0.796   2.549
 4888SOL    HW115563   4.694   0.740   2.518
 4888SOL    HW215564   4.611   0.792   2.649
 4889SOL     OW15565   5.604   3.566   3.873
 4889SOL    HW115566   5.672   3.532   3.939
 4889SOL    HW215567   5.607   3.510   3.790
 4890SOL     OW15568   6.419   2.155   4.659
 4890SOL    HW115569   6.487   2.141   4.731
 4890SOL    HW215570   6.392   2.251   4.657
 4891SOL     OW15571   2.601   6.310   0.501
 4891SOL    HW115572   2.676   6.356   0.452
 4891SOL    HW215573   2.528   6.288   0.436
 4892SOL     OW15574   5.197   4.832   1.912
 4892SOL    HW115575   5.173   4.803   2.005
 4892SOL    HW215576   5.280   4.887   1.914
 4893SOL     OW15577   1.281   2.840   1.513
 4893SOL    HW115578   1.215   2.898   1.562
 4893SOL    HW215579   1.285   2.750   1.558
 4894SOL     OW15580   4.992   5.905   0.628
 4894SOL    HW115581   4.905   5.951   0.641
 4894SOL    HW215582   5.067   5.969   0.647
 4895SOL     OW15583   6.463   3.587   5.174
 4895SOL    HW115584   6.459   3.683   5.144
 4895SOL    HW215585   6.407   3.531   5.114
 4896SOL     OW15586   2.852   5.236   4.545
 4896SOL    HW115587   2.770   5.185   4.572
 4896SOL    HW215588   2.870   5.223   4.448
 4897SOL     OW15589   2.052   1.395   5.190
 4897SOL    HW115590   2.057   1.476   5.249
 4897SOL    HW215591   2.144   1.359   5.174
 4898SOL     OW15592   4.325   2.064   3.872
 4898SOL    HW115593   4.262   2.137   3.899
 4898SOL    HW215594   4.313   1.985   3.933
 4899SOL     OW15595   6.625   6.564   1.512
 4899SOL    HW115596   6.722   6.538   1.507
 4899SOL    HW215597   6.585   6.558   1.420
 4900SOL     OW15598   3.507   6.068   6.187
 4900SOL    HW115599   3.542   6.128   6.115
 4900SOL    HW215600   3.574   5.997   6.207
 4901SOL     OW15601   2.184   0.582   0.083
 4901SOL    HW115602   2.230   0.584   7.017
 4901SOL    HW215603   2.109   0.648   0.084
 4902SOL     OW15604   2.297   0.227   5.270
 4902SOL    HW115605   2.303   0.203   5.173
 4902SOL    HW215606   2.323   0.149   5.326
 4903SOL     OW15607   4.842   3.856   2.407
 4903SOL    HW115608   4.744   3.877   2.403
 4903SOL    HW215609   4.894   3.933   2.369
 4904SOL     OW15610   1.816   0.954   2.119
 4904SOL    HW115611   1.735   0.952   2.176
 4904SOL    HW215612   1.806   1.024   2.049
 4905SOL     OW15613   2.684   1.248   2.238
 4905SOL    HW115614   2.666   1.254   2.336
 4905SOL    HW215615   2.660   1.335   2.195
 4906SOL     OW15616   5.208   3.180   4.746
 4906SOL    HW115617   5.225   3.175   4.844
 4906SOL    HW215618   5.213   3.275   4.716
 4907SOL     OW15619   3.372   2.054   0.459
 4907SOL    HW115620   3.283   2.080   0.495
 4907SOL    HW215621   3.378   2.079   0.362
 4908SOL     OW15622   3.225   6.837   6.183
 4908SOL    HW115623   3.238   6.740   6.205
 4908SOL    HW215624   3.309   6.872   6.141
 4909SOL     OW15625   5.089   5.270   4.710
 4909SOL    HW115626   5.162   5.205   4.730
 4909SOL    HW215627   5.118   5.362   4.735
 4910SOL     OW15628   4.343   1.847   0.080
 4910SOL    HW115629   4.301   1.931   0.045
 4910SOL    HW215630   4.275   1.796   0.132
 4911SOL     OW15631   6.483   4.373   3.367
 4911SOL    HW115632   6.583   4.369   3.363
 4911SOL    HW215633   6.450   4.315   3.442
 4912SOL     OW15634   5.797   2.489   3.749
 4912SOL    HW115635   5.779   2.395   3.777
 4912SOL    HW215636   5.727   2.550   3.788
 4913SOL     OW15637   1.053   3.446   5.243
 4913SOL    HW115638   0.984   3.502   5.198
 4913SOL    HW215639   1.141   3.493   5.239
 4914SOL     OW15640   3.591   6.983   3.977
 4914SOL    HW115641   3.535   6.964   4.058
 4914SOL    HW215642   3.596   6.901   3.921
 4915SOL     OW15643   3.918   5.868   5.458
 4915SOL    HW115644   3.975   5.814   5.520
 4915SOL    HW215645   3.890   5.952   5.503
 4916SOL     OW15646   5.542   2.397   3.497
 4916SOL    HW115647   5.557   2.330   3.569
 4916SOL    HW215648   5.533   2.488   3.538
 4917SOL     OW15649   4.199   6.635   6.429
 4917SOL    HW115650   4.136   6.713   6.432
 4917SOL    HW215651   4.215   6.601   6.521
 4918SOL     OW15652   5.537   6.042   3.839
 4918SOL    HW115653   5.585   5.985   3.906
 4918SOL    HW215654   5.491   5.984   3.772
 4919SOL     OW15655   4.043   3.901   2.094
 4919SOL    HW115656   4.115   3.968   2.111
 4919SOL    HW215657   3.957   3.933   2.134
 4920SOL     OW15658   6.501   0.699   6.033
 4920SOL    HW115659   6.481   0.636   5.958
 4920SOL    HW215660   6.529   0.788   5.996
 4921SOL     OW15661   6.757   0.265   2.613
 4921SOL    HW115662   6.693   0.261   2.690
 4921SOL    HW215663   6.765   0.360   2.582
 4922SOL     OW15664   3.945   0.981   6.335
 4922SOL    HW115665   4.036   0.995   6.374
 4922SOL    HW215666   3.876   0.989   6.407
 4923SOL     OW15667   4.125   1.367   1.717
 4923SOL    HW115668   4.075   1.453   1.709
 4923SOL    HW215669   4.212   1.375   1.669
 4924SOL     OW15670   2.651   1.274   4.994
 4924SOL    HW115671   2.720   1.201   5.003
 4924SOL    HW215672   2.627   1.308   5.085
 4925SOL     OW15673   4.553   6.754   4.164
 4925SOL    HW115674   4.488   6.706   4.106
 4925SOL    HW215675   4.582   6.693   4.238
 4926SOL     OW15676   4.733   2.666   1.436
 4926SOL    HW115677   4.736   2.731   1.512
 4926SOL    HW215678   4.824   2.629   1.419
 4927SOL     OW15679   2.358   1.015   0.271
 4927SOL    HW115680   2.391   1.102   0.307
 4927SOL    HW215681   2.281   0.983   0.326
 4928SOL     OW15682   0.433   1.145   1.160
 4928SOL    HW115683   0.382   1.059   1.167
 4928SOL    HW215684   0.435   1.173   1.064
 4929SOL     OW15685   6.558   6.924   4.964
 4929SOL    HW115686   6.654   6.951   4.964
 4929SOL    HW215687   6.538   6.868   4.884
 4930SOL     OW15688   4.195   5.936   2.993
 4930SOL    HW115689   4.263   5.926   2.920
 4930SOL    HW215690   4.236   5.906   3.080
 4931SOL     OW15691   5.984   0.207   1.433
 4931SOL    HW115692   5.972   0.111   1.406
 4931SOL    HW215693   6.077   0.221   1.467
 4932SOL     OW15694   3.656   3.868   3.172
 4932SOL    HW115695   3.562   3.833   3.179
 4932SOL    HW215696   3.683   3.871   3.076
 4933SOL     OW15697   1.574   6.716   4.960
 4933SOL    HW115698   1.630   6.647   5.005
 4933SOL    HW215699   1.552   6.687   4.867
 4934SOL     OW15700   2.629   0.043   2.893
 4934SOL    HW115701   2.556   0.029   2.960
 4934SOL    HW215702   2.681   6.982   2.883
 4935SOL     OW15703   6.021   6.883   5.070
 4935SOL    HW115704   6.120   6.883   5.054
 4935SOL    HW215705   5.987   6.977   5.072
 4936SOL     OW15706   4.221   2.972   0.291
 4936SOL    HW115707   4.309   2.993   0.332
 4936SOL    HW215708   4.183   3.054   0.248
 4937SOL     OW15709   3.638   2.696   5.283
 4937SOL    HW115710   3.561   2.632   5.288
 4937SOL    HW215711   3.609   2.779   5.236
 4938SOL     OW15712   3.254   4.532   0.262
 4938SOL    HW115713   3.301   4.577   0.186
 4938SOL    HW215714   3.309   4.541   0.345
 4939SOL     OW15715   4.734   3.631   6.379
 4939SOL    HW115716   4.653   3.629   6.321
 4939SOL    HW215717   4.723   3.702   6.449
 4940SOL     OW15718   1.435   5.952   3.936
 4940SOL    HW115719   1.480   5.893   3.868
 4940SOL    HW215720   1.337   5.934   3.936
 4941SOL     OW15721   6.150   1.211   1.482
 4941SOL    HW115722   6.186   1.125   1.520
 4941SOL    HW215723   6.097   1.259   1.552
 4942SOL     OW15724   5.342   2.194   5.656
 4942SOL    HW115725   5.347   2.103   5.615
 4942SOL    HW215726   5.253   2.206   5.699
 4943SOL     OW15727   5.688   3.073   1.438
 4943SOL    HW115728   5.639   3.019   1.506
 4943SOL    HW215729   5.712   3.015   1.360
 4944SOL     OW15730   1.830   3.417   2.084
 4944SOL    HW115731   1.759   3.361   2.040
 4944SOL    HW215732   1.920   3.380   2.062
 4945SOL     OW15733   7.001   5.987   4.459
 4945SOL    HW115734   7.020   6.079   4.493
 4945SOL    HW215735   0.060   5.951   4.415
 4946SOL     OW15736   6.985   4.516   1.791
 4946SOL    HW115737   6.976   4.570   1.875
 4946SOL    HW215738   0.021   4.438   1.808
 4947SOL     OW15739   6.246   0.529   0.752
 4947SOL    HW115740   6.202   0.599   0.695
 4947SOL    HW215741   6.176   0.469   0.790
 4948SOL     OW15742   2.309   1.570   2.400
 4948SOL    HW115743   2.227   1.605   2.445
 4948SOL    HW215744   2.283   1.517   2.319
 4949SOL     OW15745   5.575   2.227   5.425
 4949SOL    HW115746   5.544   2.201   5.334
 4949SOL    HW215747   5.529   2.312   5.453
 4950SOL     OW15748   3.380   5.396   4.005
 4950SOL    HW115749   3.455   5.394   3.939
 4950SOL    HW215750   3.315   5.324   3.984
 4951SOL     OW15751   4.339   2.261   3.520
 4951SOL    HW115752   4.255   2.289   3.567
 4951SOL    HW215753   4.411   2.246   3.588
 4952SOL     OW15754   6.876   4.393   4.014
 4952SOL    HW115755   6.889   4.492   4.000
 4952SOL    HW215756   6.954   4.356   4.065
 4953SOL     OW15757   1.190   4.545   2.063
 4953SOL    HW115758   1.237   4.630   2.041
 4953SOL    HW215759   1.221   4.472   2.002
 4954SOL     OW15760   6.820   6.128   6.423
 4954SOL    HW115761   6.843   6.163   6.332
 4954SOL    HW215762   6.795   6.032   6.416
 4955SOL     OW15763   1.779   0.016   1.634
 4955SOL    HW115764   1.748   0.111   1.632
 4955SOL    HW215765   1.832   7.020   1.551
 4956SOL     OW15766   5.991   6.478   3.496
 4956SOL    HW115767   6.075   6.471   3.549
 4956SOL    HW215768   6.011   6.462   3.399
 4957SOL     OW15769   1.207   5.811   4.256
 4957SOL    HW115770   1.280   5.836   4.319
 4957SOL    HW215771   1.176   5.718   4.275
 4958SOL     OW15772   6.624   6.788   6.957
 4958SOL    HW115773   6.695   6.826   7.016
 4958SOL    HW215774   6.554   6.857   6.940
 4959SOL     OW15775   0.837   2.382   0.517
 4959SOL    HW115776   0.860   2.448   0.589
 4959SOL    HW215777   0.919   2.358   0.466
 4960SOL     OW15778   3.286   0.338   5.659
 4960SOL    HW115779   3.239   0.402   5.719
 4960SOL    HW215780   3.220   0.294   5.599
 4961SOL     OW15781   4.991   0.255   5.113
 4961SOL    HW115782   4.913   0.253   5.051
 4961SOL    HW215783   4.964   0.297   5.200
 4962SOL     OW15784   6.372   2.485   2.095
 4962SOL    HW115785   6.421   2.568   2.123
 4962SOL    HW215786   6.373   2.419   2.170
 4963SOL     OW15787   0.796   4.049   1.227
 4963SOL    HW115788   0.728   3.989   1.187
 4963SOL    HW215789   0.824   4.118   1.160
 4964SOL     OW15790   2.992   6.703   2.906
 4964SOL    HW115791   3.045   6.635   2.856
 4964SOL    HW215792   2.998   6.685   3.004
 4965SOL     OW15793   7.012   5.994   5.329
 4965SOL    HW115794   0.019   5.904   5.297
 4965SOL    HW215795   0.026   6.011   5.420
 4966SOL     OW15796   4.947   5.457   5.257
 4966SOL    HW115797   4.858   5.476   5.216
 4966SOL    HW215798   5.016   5.451   5.185
 4967SOL     OW15799   5.654   1.149   6.597
 4967SOL    HW115800   5.571   1.110   6.637
 4967SOL    HW215801   5.691   1.219   6.659
 4968SOL     OW15802   5.313   3.915   6.460
 4968SOL    HW115803   5.360   3.844   6.511
 4968SOL    HW215804   5.241   3.873   6.404
 4969SOL     OW15805   1.624   1.374   1.189
 4969SOL    HW115806   1.656   1.347   1.280
 4969SOL    HW215807   1.667   1.316   1.120
 4970SOL     OW15808   1.789   2.034   6.460
 4970SOL    HW115809   1.760   2.086   6.380
 4970SOL    HW215810   1.743   2.068   6.541
 4971SOL     OW15811   6.228   5.465   3.905
 4971SOL    HW115812   6.255   5.551   3.862
 4971SOL    HW215813   6.152   5.425   3.855
 4972SOL     OW15814   1.689   2.053   4.666
 4972SOL    HW115815   1.669   2.125   4.733
 4972SOL    HW215816   1.756   1.990   4.705
 4973SOL     OW15817   4.988   5.768   3.008
 4973SOL    HW115818   4.987   5.840   2.938
 4973SOL    HW215819   4.901   5.720   3.008
 4974SOL     OW15820   3.698   6.615   6.401
 4974SOL    HW115821   3.758   6.577   6.330
 4974SOL    HW215822   3.623   6.551   6.419
 4975SOL     OW15823   4.244   6.144   0.486
 4975SOL    HW115824   4.330   6.174   0.527
 4975SOL    HW215825   4.223   6.052   0.517
 4976SOL     OW15826   2.362   0.839   4.847
 4976SOL    HW115827   2.317   0.927   4.835
 4976SOL    HW215828   2.406   0.811   4.762
 4977SOL     OW15829   3.503   3.120   1.233
 4977SOL    HW115830   3.586   3.113   1.178
 4977SOL    HW215831   3.437   3.051   1.203
 4978SOL     OW15832   6.659   4.026   6.424
 4978SOL    HW115833   6.589   4.052   6.357
 4978SOL    HW215834   6.632   3.941   6.469
 4979SOL     OW15835   2.467   2.471   3.825
 4979SOL    HW115836   2.507   2.493   3.914
 4979SOL    HW215837   2.372   2.501   3.823
 4980SOL     OW15838   2.270   4.614   3.231
 4980SOL    HW115839   2.346   4.664   3.190
 4980SOL    HW215840   2.220   4.566   3.159
 4981SOL     OW15841   5.233   5.854   5.429
 4981SOL    HW115842   5.296   5.932   5.432
 4981SOL    HW215843   5.280   5.773   5.466
 4982SOL     OW15844   2.431   1.252   6.440
 4982SOL    HW115845   2.478   1.333   6.475
 4982SOL    HW215846   2.338   1.249   6.479
 4983SOL     OW15847   6.880   2.386   4.143
 4983SOL    HW115848   6.977   2.373   4.125
 4983SOL    HW215849   6.826   2.346   4.069
 4984SOL     OW15850   5.146   5.287   3.593
 4984SOL    HW115851   5.054   5.263   3.561
 4984SOL    HW215852   5.177   5.218   3.659
 4985SOL     OW15853   5.651   3.574   2.350
 4985SOL    HW115854   5.610   3.630   2.422
 4985SOL    HW215855   5.594   3.577   2.268
 4986SOL     OW15856   4.504   5.103   3.603
 4986SOL    HW115857   4.532   5.071   3.693
 4986SOL    HW215858   4.469   5.026   3.549
 4987SOL     OW15859   1.208   2.829   0.552
 4987SOL    HW115860   1.178   2.807   0.645
 4987SOL    HW215861   1.164   2.914   0.523
 4988SOL     OW15862   2.095   2.214   5.326
 4988SOL    HW115863   2.159   2.253   5.261
 4988SOL    HW215864   2.086   2.275   5.405
 4989SOL     OW15865   0.115   1.210   0.610
 4989SOL    HW115866   0.170   1.139   0.653
 4989SOL    HW215867   0.092   1.280   0.679
 4990SOL     OW15868   1.603   2.155   6.919
 4990SOL    HW115869   1.603   2.134   7.017
 4990SOL    HW215870   1.514   2.194   6.894
 4991SOL     OW15871   2.829   1.721   5.640
 4991SOL    HW115872   2.845   1.629   5.677
 4991SOL    HW215873   2.761   1.768   5.696
 4992SOL     OW15874   4.190   6.905   4.915
 4992SOL    HW115875   4.146   6.990   4.945
 4992SOL    HW215876   4.151   6.875   4.828
 4993SOL     OW15877   1.603   6.580   4.710
 4993SOL    HW115878   1.618   6.482   4.694
 4993SOL    HW215879   1.546   6.617   4.636
 4994SOL     OW15880   0.181   6.348   2.951
 4994SOL    HW115881   0.214   6.254   2.946
 4994SOL    HW215882   0.187   6.391   2.861
 4995SOL     OW15883   5.475   2.934   5.367
 4995SOL    HW115884   5.423   2.913   5.284
 4995SOL    HW215885   5.414   2.925   5.446
 4996SOL     OW15886   0.667   1.758   3.829
 4996SOL    HW115887   0.603   1.822   3.873
 4996SOL    HW215888   0.641   1.747   3.733
 4997SOL     OW15889   0.128   2.549   3.958
 4997SOL    HW115890   0.222   2.558   3.991
 4997SOL    HW215891   0.102   2.453   3.957
 4998SOL     OW15892   0.927   5.809   5.829
 4998SOL    HW115893   0.919   5.838   5.734
 4998SOL    HW215894   0.990   5.732   5.836
 4999SOL     OW15895   5.761   4.709   1.163
 4999SOL    HW115896   5.688   4.649   1.131
 4999SOL    HW215897   5.726   4.803   1.169
 5000SOL     OW15898   6.311   5.535   4.414
 5000SOL    HW115899   6.274   5.465   4.475
 5000SOL    HW215900   6.268   5.527   4.324
 5001SOL     OW15901   4.932   3.508   5.295
 5001SOL    HW115902   4.844   3.479   5.259
 5001SOL    HW215903   5.003   3.443   5.268
 5002SOL     OW15904   1.564   2.233   1.980
 5002SOL    HW115905   1.540   2.286   2.061
 5002SOL    HW215906   1.487   2.230   1.917
 5003SOL     OW15907   6.588   5.480   4.493
 5003SOL    HW115908   6.619   5.385   4.501
 5003SOL    HW215909   6.496   5.482   4.454
 5004SOL     OW15910   1.817   3.904   5.833
 5004SOL    HW115911   1.876   3.966   5.886
 5004SOL    HW215912   1.811   3.816   5.881
 5005SOL     OW15913   4.844   2.395   0.352
 5005SOL    HW115914   4.886   2.353   0.432
 5005SOL    HW215915   4.913   2.408   0.281
 5006SOL     OW15916   5.089   5.082   2.360
 5006SOL    HW115917   5.024   5.087   2.435
 5006SOL    HW215918   5.182   5.082   2.396
 5007SOL     OW15919   4.428   1.065   5.013
 5007SOL    HW115920   4.470   1.112   4.936
 5007SOL    HW215921   4.488   0.990   5.043
 5008SOL     OW15922   6.530   1.920   4.152
 5008SOL    HW115923   6.552   2.010   4.115
 5008SOL    HW215924   6.488   1.863   4.081
 5009SOL     OW15925   2.877   6.513   1.593
 5009SOL    HW115926   2.844   6.551   1.679
 5009SOL    HW215927   2.976   6.500   1.598
 5010SOL     OW15928   3.468   3.126   6.176
 5010SOL    HW115929   3.467   3.030   6.149
 5010SOL    HW215930   3.468   3.132   6.276
 5011SOL     OW15931   1.427   1.401   4.123
 5011SOL    HW115932   1.509   1.419   4.177
 5011SOL    HW215933   1.384   1.487   4.098
 5012SOL     OW15934   6.296   2.575   0.130
 5012SOL    HW115935   6.318   2.627   0.212
 5012SOL    HW215936   6.296   2.636   0.051
 5013SOL     OW15937   5.016   1.812   5.393
 5013SOL    HW115938   5.067   1.739   5.439
 5013SOL    HW215939   5.028   1.803   5.294
 5014SOL     OW15940   6.864   4.773   0.052
 5014SOL    HW115941   6.783   4.748   0.000
 5014SOL    HW215942   6.917   4.841   0.001
 5015SOL     OW15943   5.085   1.823   3.820
 5015SOL    HW115944   5.055   1.732   3.789
 5015SOL    HW215945   5.171   1.814   3.871
 5016SOL     OW15946   2.736   6.178   1.817
 5016SOL    HW115947   2.651   6.220   1.784
 5016SOL    HW215948   2.727   6.078   1.812
 5017SOL     OW15949   0.653   2.009   1.667
 5017SOL    HW115950   0.553   2.015   1.677
 5017SOL    HW215951   0.697   2.047   1.747
 5018SOL     OW15952   6.641   5.151   4.310
 5018SOL    HW115953   6.621   5.105   4.396
 5018SOL    HW215954   6.577   5.228   4.297
 5019SOL     OW15955   2.786   5.747   4.900
 5019SOL    HW115956   2.752   5.803   4.825
 5019SOL    HW215957   2.766   5.651   4.881
 5020SOL     OW15958   4.677   4.902   6.951
 5020SOL    HW115959   4.715   4.932   0.015
 5020SOL    HW215960   4.751   4.881   6.887
 5021SOL     OW15961   1.824   4.955   5.879
 5021SOL    HW115962   1.860   5.048   5.883
 5021SOL    HW215963   1.776   4.934   5.964
 5022SOL     OW15964   1.781   3.882   6.898
 5022SOL    HW115965   1.845   3.909   6.970
 5022SOL    HW215966   1.720   3.959   6.877
 5023SOL     OW15967   6.939   2.580   4.715
 5023SOL    HW115968   7.019   2.596   4.657
 5023SOL    HW215969   6.871   2.652   4.699
 5024SOL     OW15970   4.710   3.924   5.211
 5024SOL    HW115971   4.729   3.976   5.295
 5024SOL    HW215972   4.723   3.983   5.132
 5025SOL     OW15973   5.624   0.538   4.674
 5025SOL    HW115974   5.714   0.548   4.717
 5025SOL    HW215975   5.628   0.572   4.580
 5026SOL     OW15976   0.940   5.464   2.939
 5026SOL    HW115977   1.003   5.473   3.017
 5026SOL    HW215978   0.846   5.471   2.971
 5027SOL     OW15979   0.959   5.472   3.758
 5027SOL    HW115980   1.051   5.460   3.721
 5027SOL    HW215981   0.901   5.396   3.729
 5028SOL     OW15982   0.886   6.148   3.388
 5028SOL    HW115983   0.915   6.194   3.472
 5028SOL    HW215984   0.813   6.201   3.344
 5029SOL     OW15985   5.582   0.571   4.395
 5029SOL    HW115986   5.626   0.511   4.329
 5029SOL    HW215987   5.484   0.576   4.375
 5030SOL     OW15988   1.320   6.043   0.463
 5030SOL    HW115989   1.224   6.037   0.435
 5030SOL    HW215990   1.377   5.992   0.398
 5031SOL     OW15991   5.546   0.478   0.105
 5031SOL    HW115992   5.604   0.406   0.141
 5031SOL    HW215993   5.576   0.503   0.012
 5032SOL     OW15994   1.632   5.485   2.425
 5032SOL    HW115995   1.701   5.439   2.370
 5032SOL    HW215996   1.676   5.533   2.501
 5033SOL     OW15997   0.473   4.660   4.668
 5033SOL    HW115998   0.383   4.625   4.694
 5033SOL    HW215999   0.473   4.760   4.670
 5034SOL     OW16000   0.680   3.136   6.070
 5034SOL    HW116001   0.688   3.060   6.134
 5034SOL    HW216002   0.596   3.187   6.088
 5035SOL     OW16003   6.516   4.215   1.291
 5035SOL    HW116004   6.547   4.122   1.271
 5035SOL    HW216005   6.533   4.273   1.211
 5036SOL     OW16006   1.332   1.833   2.868
 5036SOL    HW116007   1.389   1.883   2.803
 5036SOL    HW216008   1.337   1.877   2.958
 5037SOL     OW16009   4.786   4.646   1.870
 5037SOL    HW116010   4.749   4.556   1.848
 5037SOL    HW216011   4.886   4.644   1.861
 5038SOL     OW16012   3.144   5.719   5.665
 5038SOL    HW116013   3.224   5.779   5.665
 5038SOL    HW216014   3.162   5.638   5.610
 5039SOL     OW16015   1.248   2.684   3.843
 5039SOL    HW116016   1.251   2.639   3.754
 5039SOL    HW216017   1.339   2.720   3.866
 5040SOL     OW16018   2.576   3.392   5.893
 5040SOL    HW116019   2.636   3.468   5.870
 5040SOL    HW216020   2.519   3.417   5.971
 5041SOL     OW16021   0.271   5.616   0.474
 5041SOL    HW116022   0.193   5.675   0.496
 5041SOL    HW216023   0.311   5.645   0.387
 5042SOL     OW16024   6.104   1.587   6.190
 5042SOL    HW116025   6.112   1.683   6.218
 5042SOL    HW216026   6.011   1.555   6.207
 5043SOL     OW16027   5.616   5.724   3.551
 5043SOL    HW116028   5.612   5.646   3.489
 5043SOL    HW216029   5.669   5.797   3.510
 5044SOL     OW16030   6.319   3.885   1.822
 5044SOL    HW116031   6.266   3.801   1.811
 5044SOL    HW216032   6.358   3.912   1.734
 5045SOL     OW16033   5.055   2.811   5.469
 5045SOL    HW116034   4.962   2.801   5.435
 5045SOL    HW216035   5.086   2.905   5.456
 5046SOL     OW16036   4.368   2.917   5.904
 5046SOL    HW116037   4.333   2.827   5.879
 5046SOL    HW216038   4.346   2.982   5.831
 5047SOL     OW16039   0.474   1.971   2.395
 5047SOL    HW116040   0.472   2.060   2.440
 5047SOL    HW216041   0.384   1.951   2.358
 5048SOL     OW16042   5.899   3.526   0.681
 5048SOL    HW116043   5.989   3.561   0.658
 5048SOL    HW216044   5.907   3.448   0.744
 5049SOL     OW16045   0.637   1.079   1.350
 5049SOL    HW116046   0.718   1.114   1.303
 5049SOL    HW216047   0.574   1.038   1.284
 5050SOL     OW16048   1.606   4.374   0.553
 5050SOL    HW116049   1.647   4.331   0.473
 5050SOL    HW216050   1.642   4.466   0.564
 5051SOL     OW16051   2.426   3.860   6.297
 5051SOL    HW116052   2.418   3.926   6.223
 5051SOL    HW216053   2.522   3.853   6.325
 5052SOL     OW16054   6.154   2.590   1.267
 5052SOL    HW116055   6.056   2.605   1.250
 5052SOL    HW216056   6.187   2.518   1.207
 5053SOL     OW16057   1.215   3.968   1.369
 5053SOL    HW116058   1.140   3.942   1.430
 5053SOL    HW216059   1.288   3.900   1.377
 5054SOL     OW16060   3.875   6.171   5.013
 5054SOL    HW116061   3.957   6.222   5.041
 5054SOL    HW216062   3.793   6.221   5.040
 5055SOL     OW16063   0.540   0.386   3.561
 5055SOL    HW116064   0.590   0.464   3.523
 5055SOL    HW216065   0.530   0.398   3.660
 5056SOL     OW16066   2.922   1.799   5.963
 5056SOL    HW116067   2.912   1.896   5.940
 5056SOL    HW216068   2.969   1.790   6.051
 5057SOL     OW16069   0.238   4.243   2.514
 5057SOL    HW116070   0.242   4.155   2.468
 5057SOL    HW216071   0.150   4.252   2.562
 5058SOL     OW16072   4.168   1.719   0.233
 5058SOL    HW116073   4.186   1.622   0.249
 5058SOL    HW216074   4.133   1.761   0.317
 5059SOL     OW16075   5.722   2.769   2.294
 5059SOL    HW116076   5.664   2.732   2.221
 5059SOL    HW216077   5.666   2.785   2.375
 5060SOL     OW16078   5.964   2.911   5.424
 5060SOL    HW116079   6.025   2.963   5.364
 5060SOL    HW216080   5.982   2.935   5.519
 5061SOL     OW16081   3.750   2.565   5.495
 5061SOL    HW116082   3.745   2.638   5.563
 5061SOL    HW216083   3.716   2.599   5.407
 5062SOL     OW16084   5.357   1.071   3.272
 5062SOL    HW116085   5.450   1.048   3.299
 5062SOL    HW216086   5.293   1.036   3.340
 5063SOL     OW16087   0.716   1.589   0.912
 5063SOL    HW116088   0.781   1.620   0.843
 5063SOL    HW216089   0.758   1.591   1.002
 5064SOL     OW16090   6.151   4.852   1.044
 5064SOL    HW116091   6.215   4.872   0.970
 5064SOL    HW216092   6.063   4.896   1.026
 5065SOL     OW16093   1.881   2.071   3.084
 5065SOL    HW116094   1.945   2.067   3.007
 5065SOL    HW216095   1.848   1.979   3.105
 5066SOL     OW16096   1.379   4.982   3.929
 5066SOL    HW116097   1.363   4.988   3.831
 5066SOL    HW216098   1.292   4.976   3.977
 5067SOL     OW16099   5.095   2.781   0.956
 5067SOL    HW116100   5.160   2.706   0.974
 5067SOL    HW216101   5.080   2.833   1.040
 5068SOL     OW16102   1.677   0.024   1.241
 5068SOL    HW116103   1.613   7.010   1.309
 5068SOL    HW216104   1.762   0.051   1.286
 5069SOL     OW16105   4.142   4.506   6.041
 5069SOL    HW116106   4.086   4.564   6.100
 5069SOL    HW216107   4.155   4.417   6.086
 5070SOL     OW16108   6.944   3.433   6.397
 5070SOL    HW116109   0.016   3.410   6.416
 5070SOL    HW216110   6.938   3.528   6.366
 5071SOL     OW16111   2.027   6.614   2.376
 5071SOL    HW116112   2.115   6.631   2.421
 5071SOL    HW216113   1.970   6.696   2.383
 5072SOL     OW16114   0.908   1.891   2.521
 5072SOL    HW116115   0.875   1.926   2.609
 5072SOL    HW216116   0.989   1.834   2.536
 5073SOL     OW16117   1.905   1.345   3.430
 5073SOL    HW116118   1.887   1.247   3.421
 5073SOL    HW216119   1.922   1.385   3.339
 5074SOL     OW16120   3.720   1.644   1.094
 5074SOL    HW116121   3.819   1.633   1.091
 5074SOL    HW216122   3.694   1.701   1.172
 5075SOL     OW16123   6.421   2.326   0.194
 5075SOL    HW116124   6.429   2.411   0.142
 5075SOL    HW216125   6.337   2.328   0.249
 5076SOL     OW16126   0.195   1.180   5.846
 5076SOL    HW116127   0.221   1.173   5.750
 5076SOL    HW216128   0.101   1.213   5.853
 5077SOL     OW16129   0.231   4.532   4.337
 5077SOL    HW116130   0.229   4.498   4.431
 5077SOL    HW216131   0.143   4.573   4.314
 5078SOL     OW16132   6.045   2.188   2.854
 5078SOL    HW116133   6.111   2.126   2.899
 5078SOL    HW216134   5.972   2.210   2.919
 5079SOL     OW16135   1.713   3.904   5.357
 5079SOL    HW116136   1.784   3.849   5.401
 5079SOL    HW216137   1.743   3.930   5.265
 5080SOL     OW16138   6.403   5.590   6.967
 5080SOL    HW116139   6.348   5.651   0.001
 5080SOL    HW216140   6.451   5.524   0.002
 5081SOL     OW16141   3.149   4.687   5.561
 5081SOL    HW116142   3.219   4.615   5.552
 5081SOL    HW216143   3.130   4.725   5.470
 5082SOL     OW16144   6.012   6.987   2.652
 5082SOL    HW116145   5.953   7.006   2.730
 5082SOL    HW216146   6.108   6.995   2.681
 5083SOL     OW16147   0.810   0.167   3.444
 5083SOL    HW116148   0.843   0.134   3.356
 5083SOL    HW216149   0.756   0.250   3.430
 5084SOL     OW16150   3.192   5.512   5.490
 5084SOL    HW116151   3.173   5.421   5.526
 5084SOL    HW216152   3.252   5.505   5.410
 5085SOL     OW16153   0.254   4.100   5.613
 5085SOL    HW116154   0.322   4.124   5.682
 5085SOL    HW216155   0.250   4.001   5.604
 5086SOL     OW16156   1.276   4.469   2.307
 5086SOL    HW116157   1.286   4.370   2.308
 5086SOL    HW216158   1.238   4.498   2.219
 5087SOL     OW16159   6.997   5.728   1.582
 5087SOL    HW116160   0.007   5.664   1.512
 5087SOL    HW216161   6.975   5.816   1.540
 5088SOL     OW16162   4.646   4.831   1.761
 5088SOL    HW116163   4.561   4.828   1.814
 5088SOL    HW216164   4.714   4.773   1.805
 5089SOL     OW16165   5.109   6.189   5.458
 5089SOL    HW116166   5.188   6.146   5.413
 5089SOL    HW216167   5.093   6.144   5.546
 5090SOL     OW16168   2.181   6.864   4.106
 5090SOL    HW116169   2.129   6.944   4.078
 5090SOL    HW216170   2.159   6.841   4.201
 5091SOL     OW16171   6.107   5.888   5.996
 5091SOL    HW116172   6.016   5.892   5.954
 5091SOL    HW216173   6.155   5.806   5.965
 5092SOL     OW16174   3.521   2.866   4.469
 5092SOL    HW116175   3.445   2.929   4.488
 5092SOL    HW216176   3.506   2.780   4.517
 5093SOL     OW16177   3.577   2.143   3.602
 5093SOL    HW116178   3.650   2.081   3.573
 5093SOL    HW216179   3.501   2.137   3.537
 5094SOL     OW16180   1.933   5.731   5.130
 5094SOL    HW116181   1.979   5.692   5.210
 5094SOL    HW216182   1.834   5.724   5.144
 5095SOL     OW16183   6.075   1.772   3.599
 5095SOL    HW116184   6.016   1.821   3.534
 5095SOL    HW216185   6.019   1.738   3.675
 5096SOL     OW16186   5.962   2.706   6.108
 5096SOL    HW116187   6.053   2.690   6.146
 5096SOL    HW216188   5.969   2.769   6.030
 5097SOL     OW16189   0.873   1.142   5.634
 5097SOL    HW116190   0.778   1.115   5.644
 5097SOL    HW216191   0.923   1.073   5.581
 5098SOL     OW16192   2.840   2.192   1.206
 5098SOL    HW116193   2.845   2.217   1.303
 5098SOL    HW216194   2.745   2.198   1.175
 5099SOL     OW16195   2.278   5.648   2.452
 5099SOL    HW116196   2.246   5.737   2.483
 5099SOL    HW216197   2.332   5.658   2.369
 5100SOL     OW16198   6.034   3.535   1.248
 5100SOL    HW116199   6.122   3.569   1.279
 5100SOL    HW216200   5.966   3.548   1.321
 5101SOL     OW16201   3.499   1.458   5.326
 5101SOL    HW116202   3.591   1.424   5.305
 5101SOL    HW216203   3.440   1.380   5.350
 5102SOL     OW16204   5.545   4.308   5.462
 5102SOL    HW116205   5.463   4.283   5.411
 5102SOL    HW216206   5.569   4.403   5.442
 5103SOL     OW16207   0.669   0.405   5.894
 5103SOL    HW116208   0.586   0.351   5.911
 5103SOL    HW216209   0.742   0.345   5.861
 5104SOL     OW16210   4.127   3.489   3.629
 5104SOL    HW116211   4.047   3.445   3.670
 5104SOL    HW216212   4.206   3.477   3.690
 5105SOL     OW16213   4.263   3.189   6.855
 5105SOL    HW116214   4.329   3.145   6.916
 5105SOL    HW216215   4.225   3.270   6.899
 5106SOL     OW16216   3.935   1.221   1.594
 5106SOL    HW116217   4.004   1.272   1.645
 5106SOL    HW216218   3.866   1.284   1.559
 5107SOL     OW16219   6.625   4.835   6.682
 5107SOL    HW116220   6.645   4.753   6.736
 5107SOL    HW216221   6.556   4.889   6.728
 5108SOL     OW16222   3.895   4.117   1.127
 5108SOL    HW116223   3.973   4.079   1.177
 5108SOL    HW216224   3.826   4.149   1.192
 5109SOL     OW16225   2.268   2.515   2.190
 5109SOL    HW116226   2.175   2.540   2.216
 5109SOL    HW216227   2.294   2.565   2.108
 5110SOL     OW16228   3.738   6.456   4.367
 5110SOL    HW116229   3.704   6.375   4.416
 5110SOL    HW216230   3.661   6.506   4.328
 5111SOL     OW16231   2.147   5.315   5.801
 5111SOL    HW116232   2.107   5.345   5.715
 5111SOL    HW216233   2.132   5.217   5.812
 5112SOL     OW16234   1.113   4.554   2.561
 5112SOL    HW116235   1.173   4.524   2.487
 5112SOL    HW216236   1.078   4.645   2.542
 5113SOL     OW16237   2.797   3.882   0.983
 5113SOL    HW116238   2.739   3.877   1.064
 5113SOL    HW216239   2.740   3.886   0.901
 5114SOL     OW16240   4.901   4.693   1.583
 5114SOL    HW116241   4.801   4.702   1.578
 5114SOL    HW216242   4.940   4.778   1.619
 5115SOL     OW16243   1.346   4.532   0.408
 5115SOL    HW116244   1.366   4.601   0.477
 5115SOL    HW216245   1.411   4.457   0.416
 5116SOL     OW16246   0.266   6.652   5.912
 5116SOL    HW116247   0.179   6.701   5.921
 5116SOL    HW216248   0.328   6.705   5.853
 5117SOL     OW16249   6.813   3.536   3.762
 5117SOL    HW116250   6.815   3.613   3.699
 5117SOL    HW216251   6.907   3.510   3.786
 5118SOL     OW16252   4.238   4.973   0.203
 5118SOL    HW116253   4.193   4.883   0.202
 5118SOL    HW216254   4.322   4.967   0.256
 5119SOL     OW16255   5.062   1.445   0.914
 5119SOL    HW116256   5.024   1.507   0.983
 5119SOL    HW216257   5.149   1.409   0.947
 5120SOL     OW16258   5.934   6.675   6.082
 5120SOL    HW116259   5.880   6.591   6.086
 5120SOL    HW216260   5.891   6.745   6.139
 5121SOL     OW16261   1.489   3.490   0.612
 5121SOL    HW116262   1.494   3.578   0.660
 5121SOL    HW216263   1.478   3.417   0.678
 5122SOL     OW16264   4.891   5.184   3.553
 5122SOL    HW116265   4.853   5.267   3.512
 5122SOL    HW216266   4.829   5.108   3.537
 5123SOL     OW16267   5.421   2.516   1.408
 5123SOL    HW116268   5.426   2.569   1.492
 5123SOL    HW216269   5.474   2.432   1.417
 5124SOL     OW16270   0.196   5.764   4.442
 5124SOL    HW116271   0.200   5.670   4.476
 5124SOL    HW216272   0.266   5.778   4.373
 5125SOL     OW16273   5.939   1.952   3.921
 5125SOL    HW116274   5.890   1.972   3.836
 5125SOL    HW216275   5.917   2.022   3.989
 5126SOL     OW16276   1.870   1.336   1.708
 5126SOL    HW116277   1.807   1.393   1.654
 5126SOL    HW216278   1.921   1.276   1.647
 5127SOL     OW16279   1.867   6.882   0.075
 5127SOL    HW116280   1.827   6.858   0.163
 5127SOL    HW216281   1.916   6.803   0.039
 5128SOL     OW16282   4.580   6.886   1.280
 5128SOL    HW116283   4.579   6.833   1.365
 5128SOL    HW216284   4.487   6.920   1.261
 5129SOL     OW16285   6.304   5.656   0.186
 5129SOL    HW116286   6.206   5.634   0.178
 5129SOL    HW216287   6.344   5.601   0.260
 5130SOL     OW16288   6.222   5.410   2.086
 5130SOL    HW116289   6.247   5.481   2.020
 5130SOL    HW216290   6.231   5.446   2.179
 5131SOL     OW16291   2.770   2.323   2.326
 5131SOL    HW116292   2.823   2.341   2.244
 5131SOL    HW216293   2.685   2.375   2.323
 5132SOL     OW16294   1.937   6.208   5.806
 5132SOL    HW116295   1.904   6.281   5.865
 5132SOL    HW216296   2.004   6.244   5.741
 5133SOL     OW16297   3.723   6.733   4.788
 5133SOL    HW116298   3.639   6.706   4.835
 5133SOL    HW216299   3.787   6.657   4.788
 5134SOL     OW16300   0.581   3.225   6.417
 5134SOL    HW116301   0.492   3.202   6.456
 5134SOL    HW216302   0.653   3.182   6.470
 5135SOL     OW16303   6.788   1.679   4.036
 5135SOL    HW116304   6.844   1.646   4.112
 5135SOL    HW216305   6.699   1.708   4.071
 5136SOL     OW16306   3.270   1.869   6.268
 5136SOL    HW116307   3.309   1.777   6.278
 5136SOL    HW216308   3.313   1.915   6.190
 5137SOL     OW16309   3.844   3.269   6.984
 5137SOL    HW116310   3.789   3.193   6.952
 5137SOL    HW216311   3.787   3.332   0.014
 5138SOL     OW16312   2.301   3.153   6.192
 5138SOL    HW116313   2.211   3.147   6.236
 5138SOL    HW216314   2.370   3.175   6.261
 5139SOL     OW16315   0.443   6.838   3.900
 5139SOL    HW116316   0.491   6.895   3.833
 5139SOL    HW216317   0.425   6.748   3.860
 5140SOL     OW16318   3.154   3.427   1.805
 5140SOL    HW116319   3.173   3.407   1.709
 5140SOL    HW216320   3.097   3.353   1.843
 5141SOL     OW16321   1.021   3.442   5.557
 5141SOL    HW116322   1.054   3.524   5.603
 5141SOL    HW216323   1.044   3.447   5.460
 5142SOL     OW16324   5.540   3.376   1.910
 5142SOL    HW116325   5.536   3.290   1.960
 5142SOL    HW216326   5.469   3.377   1.839
 5143SOL     OW16327   6.844   5.035   5.794
 5143SOL    HW116328   6.758   4.987   5.807
 5143SOL    HW216329   6.855   5.104   5.865
 5144SOL     OW16330   1.897   1.614   5.113
 5144SOL    HW116331   1.850   1.525   5.121
 5144SOL    HW216332   1.944   1.634   5.199
 5145SOL     OW16333   3.974   5.591   5.901
 5145SOL    HW116334   3.990   5.497   5.870
 5145SOL    HW216335   3.883   5.598   5.941
 5146SOL     OW16336   3.534   4.902   1.163
 5146SOL    HW116337   3.462   4.948   1.112
 5146SOL    HW216338   3.498   4.816   1.201
 5147SOL     OW16339   0.142   5.270   6.606
 5147SOL    HW116340   0.103   5.195   6.661
 5147SOL    HW216341   0.219   5.235   6.554
 5148SOL     OW16342   0.089   0.944   1.368
 5148SOL    HW116343   0.114   0.985   1.280
 5148SOL    HW216344   0.172   0.916   1.416
 5149SOL     OW16345   6.625   0.364   5.562
 5149SOL    HW116346   6.696   0.415   5.514
 5149SOL    HW216347   6.666   0.284   5.605
 5150SOL     OW16348   2.479   5.845   5.437
 5150SOL    HW116349   2.572   5.842   5.399
 5150SOL    HW216350   2.482   5.823   5.534
 5151SOL     OW16351   4.170   0.450   5.381
 5151SOL    HW116352   4.141   0.541   5.409
 5151SOL    HW216353   4.104   0.382   5.413
 5152SOL     OW16354   6.769   4.984   6.890
 5152SOL    HW116355   6.786   4.946   6.799
 5152SOL    HW216356   6.697   4.932   6.935
 5153SOL     OW16357   2.083   2.480   0.646
 5153SOL    HW116358   1.984   2.482   0.635
 5153SOL    HW216359   2.112   2.555   0.706
 5154SOL     OW16360   1.643   4.635   5.005
 5154SOL    HW116361   1.671   4.541   5.023
 5154SOL    HW216362   1.553   4.636   4.962
 5155SOL     OW16363   4.243   0.505   2.528
 5155SOL    HW116364   4.144   0.507   2.543
 5155SOL    HW216365   4.264   0.449   2.449
 5156SOL     OW16366   5.234   3.338   6.330
 5156SOL    HW116367   5.265   3.243   6.323
 5156SOL    HW216368   5.134   3.341   6.320
 5157SOL     OW16369   6.226   1.984   3.875
 5157SOL    HW116370   6.285   1.904   3.859
 5157SOL    HW216371   6.135   1.952   3.902
 5158SOL     OW16372   3.644   0.742   1.549
 5158SOL    HW116373   3.580   0.666   1.560
 5158SOL    HW216374   3.629   0.810   1.621
 5159SOL     OW16375   2.152   3.516   4.846
 5159SOL    HW116376   2.151   3.612   4.819
 5159SOL    HW216377   2.203   3.506   4.931
 5160SOL     OW16378   2.707   2.417   4.199
 5160SOL    HW116379   2.758   2.406   4.113
 5160SOL    HW216380   2.739   2.351   4.266
 5161SOL     OW16381   1.980   3.361   6.900
 5161SOL    HW116382   1.931   3.390   6.982
 5161SOL    HW216383   1.914   3.326   6.833
 5162SOL     OW16384   6.660   5.543   4.761
 5162SOL    HW116385   6.618   5.548   4.671
 5162SOL    HW216386   6.661   5.448   4.793
 5163SOL     OW16387   5.561   4.149   0.606
 5163SOL    HW116388   5.523   4.061   0.636
 5163SOL    HW216389   5.573   4.209   0.684
 5164SOL     OW16390   6.572   6.135   4.841
 5164SOL    HW116391   6.526   6.113   4.927
 5164SOL    HW216392   6.596   6.233   4.841
 5165SOL     OW16393   5.501   3.968   5.232
 5165SOL    HW116394   5.577   3.985   5.294
 5165SOL    HW216395   5.535   3.950   5.140
 5166SOL     OW16396   0.807   6.673   2.633
 5166SOL    HW116397   0.771   6.714   2.549
 5166SOL    HW216398   0.883   6.612   2.610
 5167SOL     OW16399   1.900   0.162   5.247
 5167SOL    HW116400   1.925   0.094   5.178
 5167SOL    HW216401   1.980   0.219   5.267
 5168SOL     OW16402   3.613   2.030   2.147
 5168SOL    HW116403   3.523   1.987   2.147
 5168SOL    HW216404   3.618   2.095   2.071
 5169SOL     OW16405   3.801   5.170   6.380
 5169SOL    HW116406   3.758   5.217   6.303
 5169SOL    HW216407   3.830   5.238   6.448
 5170SOL     OW16408   4.371   5.366   4.069
 5170SOL    HW116409   4.392   5.396   3.975
 5170SOL    HW216410   4.417   5.278   4.086
 5171SOL     OW16411   2.599   4.732   4.993
 5171SOL    HW116412   2.562   4.643   5.022
 5171SOL    HW216413   2.698   4.731   5.002
 5172SOL     OW16414   2.008   4.277   6.422
 5172SOL    HW116415   2.034   4.365   6.463
 5172SOL    HW216416   1.928   4.241   6.470
 5173SOL     OW16417   0.171   2.594   4.576
 5173SOL    HW116418   0.169   2.562   4.481
 5173SOL    HW216419   0.250   2.555   4.623
 5174SOL     OW16420   2.862   4.917   7.010
 5174SOL    HW116421   2.775   4.924   6.961
 5174SOL    HW216422   2.918   4.997   6.989
 5175SOL     OW16423   6.973   5.447   6.556
 5175SOL    HW116424   6.951   5.431   6.460
 5175SOL    HW216425   0.019   5.382   6.586
 5176SOL     OW16426   5.607   3.501   6.205
 5176SOL    HW116427   5.530   3.526   6.265
 5176SOL    HW216428   5.685   3.560   6.226
 5177SOL     OW16429   5.174   4.909   5.762
 5177SOL    HW116430   5.117   4.832   5.790
 5177SOL    HW216431   5.193   4.967   5.841
 5178SOL     OW16432   3.420   4.295   0.376
 5178SOL    HW116433   3.436   4.328   0.283
 5178SOL    HW216434   3.414   4.372   0.439
 5179SOL     OW16435   3.151   6.241   5.193
 5179SOL    HW116436   3.222   6.175   5.218
 5179SOL    HW216437   3.106   6.275   5.275
 5180SOL     OW16438   4.825   1.485   0.083
 5180SOL    HW116439   4.752   1.549   0.061
 5180SOL    HW216440   4.884   1.524   0.153
 5181SOL     OW16441   3.037   6.137   2.264
 5181SOL    HW116442   2.951   6.087   2.269
 5181SOL    HW216443   3.059   6.173   2.355
 5182SOL     OW16444   4.722   4.208   1.073
 5182SOL    HW116445   4.656   4.214   1.147
 5182SOL    HW216446   4.682   4.245   0.989
 5183SOL     OW16447   3.438   0.526   3.865
 5183SOL    HW116448   3.537   0.540   3.853
 5183SOL    HW216449   3.407   0.580   3.944
 5184SOL     OW16450   0.630   2.462   3.342
 5184SOL    HW116451   0.630   2.462   3.242
 5184SOL    HW216452   0.721   2.441   3.376
 5185SOL     OW16453   3.915   7.010   1.659
 5185SOL    HW116454   3.999   7.013   1.604
 5185SOL    HW216455   3.903   0.073   1.707
 5186SOL     OW16456   5.586   4.051   6.759
 5186SOL    HW116457   5.566   4.097   6.673
 5186SOL    HW216458   5.677   4.078   6.790
 5187SOL     OW16459   4.946   3.106   4.501
 5187SOL    HW116460   5.038   3.070   4.514
 5187SOL    HW216461   4.950   3.203   4.479
 5188SOL     OW16462   0.194   0.925   3.649
 5188SOL    HW116463   0.206   0.976   3.734
 5188SOL    HW216464   0.216   0.983   3.571
 5189SOL     OW16465   4.698   5.407   5.840
 5189SOL    HW116466   4.767   5.371   5.776
 5189SOL    HW216467   4.733   5.489   5.883
 5190SOL     OW16468   2.526   2.449   2.279
 5190SOL    HW116469   2.556   2.423   2.187
 5190SOL    HW216470   2.434   2.486   2.276
 5191SOL     OW16471   4.969   0.367   2.026
 5191SOL    HW116472   4.925   0.456   2.039
 5191SOL    HW216473   4.900   0.298   2.007
 5192SOL     OW16474   6.197   4.069   1.149
 5192SOL    HW116475   6.273   4.007   1.167
 5192SOL    HW216476   6.165   4.108   1.235
 5193SOL     OW16477   4.014   4.765   2.679
 5193SOL    HW116478   4.085   4.779   2.609
 5193SOL    HW216479   3.951   4.843   2.678
 5194SOL     OW16480   5.203   1.014   0.695
 5194SOL    HW116481   5.116   1.058   0.674
 5194SOL    HW216482   5.190   0.915   0.701
 5195SOL     OW16483   0.292   5.803   5.005
 5195SOL    HW116484   0.317   5.735   5.074
 5195SOL    HW216485   0.318   5.894   5.039
 5196SOL     OW16486   0.285   3.542   3.605
 5196SOL    HW116487   0.258   3.464   3.660
 5196SOL    HW216488   0.261   3.627   3.652
 5197SOL     OW16489   3.978   5.926   5.179
 5197SOL    HW116490   3.948   6.021   5.170
 5197SOL    HW216491   3.949   5.890   5.267
 5198SOL     OW16492   4.445   1.136   5.493
 5198SOL    HW116493   4.384   1.210   5.466
 5198SOL    HW216494   4.405   1.049   5.464
 5199SOL     OW16495   0.791   5.788   1.997
 5199SOL    HW116496   0.872   5.799   1.940
 5199SOL    HW216497   0.793   5.698   2.040
 5200SOL     OW16498   6.089   6.590   5.222
 5200SOL    HW116499   6.059   6.664   5.283
 5200SOL    HW216500   6.047   6.504   5.251
 5201SOL     OW16501   6.777   4.036   5.417
 5201SOL    HW116502   6.698   3.984   5.449
 5201SOL    HW216503   6.833   4.062   5.496
 5202SOL     OW16504   3.738   2.094   5.890
 5202SOL    HW116505   3.686   2.008   5.885
 5202SOL    HW216506   3.699   2.152   5.961
 5203SOL     OW16507   0.743   0.475   6.178
 5203SOL    HW116508   0.646   0.496   6.165
 5203SOL    HW216509   0.798   0.537   6.123
 5204SOL     OW16510   1.985   0.581   1.913
 5204SOL    HW116511   1.927   0.661   1.897
 5204SOL    HW216512   2.050   0.572   1.837
 5205SOL     OW16513   6.650   0.105   2.420
 5205SOL    HW116514   6.677   0.193   2.461
 5205SOL    HW216515   6.700   0.031   2.465
 5206SOL     OW16516   1.203   5.056   4.909
 5206SOL    HW116517   1.211   4.981   4.843
 5206SOL    HW216518   1.245   5.028   4.996
 5207SOL     OW16519   4.611   0.822   5.031
 5207SOL    HW116520   4.608   0.730   5.070
 5207SOL    HW216521   4.687   0.830   4.967
 5208SOL     OW16522   6.688   1.675   0.264
 5208SOL    HW116523   6.596   1.641   0.245
 5208SOL    HW216524   6.694   1.706   0.359
 5209SOL     OW16525   5.015   6.417   2.330
 5209SOL    HW116526   5.095   6.476   2.344
 5209SOL    HW216527   4.980   6.430   2.237
 5210SOL     OW16528   6.054   4.222   1.368
 5210SOL    HW116529   6.078   4.299   1.308
 5210SOL    HW216530   5.961   4.236   1.404
 5211SOL     OW16531   5.542   3.061   4.812
 5211SOL    HW116532   5.597   3.004   4.873
 5211SOL    HW216533   5.503   3.137   4.863
 5212SOL     OW16534   6.482   3.561   7.000
 5212SOL    HW116535   6.492   3.661   6.994
 5212SOL    HW216536   6.507   3.530   0.069
 5213SOL     OW16537   3.461   3.194   3.623
 5213SOL    HW116538   3.546   3.216   3.575
 5213SOL    HW216539   3.395   3.157   3.557
 5214SOL     OW16540   5.381   3.121   6.256
 5214SOL    HW116541   5.351   3.104   6.162
 5214SOL    HW216542   5.345   3.050   6.316
 5215SOL     OW16543   0.254   5.051   4.979
 5215SOL    HW116544   0.342   5.085   4.945
 5215SOL    HW216545   0.210   5.122   5.034
 5216SOL     OW16546   6.529   4.333   0.662
 5216SOL    HW116547   6.569   4.391   0.733
 5216SOL    HW216548   6.594   4.323   0.587
 5217SOL     OW16549   3.331   0.054   2.405
 5217SOL    HW116550   3.430   0.049   2.393
 5217SOL    HW216551   3.310   0.060   2.503
 5218SOL     OW16552   6.464   0.239   0.871
 5218SOL    HW116553   6.377   0.255   0.918
 5218SOL    HW216554   6.451   0.167   0.803
 5219SOL     OW16555   4.459   1.788   4.792
 5219SOL    HW116556   4.517   1.869   4.794
 5219SOL    HW216557   4.363   1.815   4.789
 5220SOL     OW16558   1.796   4.820   4.505
 5220SOL    HW116559   1.794   4.729   4.463
 5220SOL    HW216560   1.742   4.883   4.449
 5221SOL     OW16561   4.469   6.031   1.051
 5221SOL    HW116562   4.400   6.103   1.057
 5221SOL    HW216563   4.440   5.962   0.984
 5222SOL     OW16564   6.427   3.162   2.333
 5222SOL    HW116565   6.512   3.168   2.281
 5222SOL    HW216566   6.382   3.075   2.313
 5223SOL     OW16567   0.303   2.445   0.883
 5223SOL    HW116568   0.237   2.413   0.815
 5223SOL    HW216569   0.255   2.489   0.959
 5224SOL     OW16570   1.533   1.180   4.483
 5224SOL    HW116571   1.618   1.228   4.462
 5224SOL    HW216572   1.534   1.090   4.441
 5225SOL     OW16573   0.028   2.149   6.314
 5225SOL    HW116574   0.055   2.106   6.400
 5225SOL    HW216575   6.956   2.127   6.295
 5226SOL     OW16576   7.014   0.076   3.925
 5226SOL    HW116577   6.961   0.160   3.932
 5226SOL    HW216578   0.078   0.088   3.972
 5227SOL     OW16579   1.676   2.555   6.293
 5227SOL    HW116580   1.703   2.463   6.320
 5227SOL    HW216581   1.757   2.607   6.268
 5228SOL     OW16582   0.951   2.135   5.227
 5228SOL    HW116583   0.882   2.084   5.279
 5228SOL    HW216584   0.931   2.128   5.129
 5229SOL     OW16585   3.910   1.375   6.971
 5229SOL    HW116586   3.828   1.383   0.005
 5229SOL    HW216587   3.884   1.382   6.875
 5230SOL     OW16588   6.739   0.320   2.184
 5230SOL    HW116589   6.654   0.272   2.162
 5230SOL    HW216590   6.809   0.253   2.209
 5231SOL     OW16591   6.012   3.396   1.785
 5231SOL    HW116592   6.085   3.412   1.852
 5231SOL    HW216593   5.926   3.433   1.819
 5232SOL     OW16594   1.731   1.523   6.012
 5232SOL    HW116595   1.639   1.486   5.995
 5232SOL    HW216596   1.723   1.617   6.046
 5233SOL     OW16597   2.485   0.004   3.485
 5233SOL    HW116598   2.582   7.023   3.509
 5233SOL    HW216599   2.437   6.949   3.525
 5234SOL     OW16600   3.179   2.159   6.513
 5234SOL    HW116601   3.186   2.258   6.504
 5234SOL    HW216602   3.269   2.118   6.502
 5235SOL     OW16603   2.210   2.950   1.446
 5235SOL    HW116604   2.134   2.913   1.394
 5235SOL    HW216605   2.186   3.041   1.481
 5236SOL     OW16606   3.060   4.910   2.306
 5236SOL    HW116607   3.038   4.982   2.240
 5236SOL    HW216608   3.085   4.826   2.257
 5237SOL     OW16609   1.643   1.831   1.679
 5237SOL    HW116610   1.699   1.754   1.648
 5237SOL    HW216611   1.590   1.867   1.602
 5238SOL     OW16612   5.889   0.706   3.053
 5238SOL    HW116613   5.930   0.681   2.965
 5238SOL    HW216614   5.952   0.765   3.103
 5239SOL     OW16615   2.732   3.982   7.012
 5239SOL    HW116616   2.655   4.045   6.996
 5239SOL    HW216617   2.785   3.972   6.928
 5240SOL     OW16618   1.842   4.121   5.444
 5240SOL    HW116619   1.922   4.100   5.501
 5240SOL    HW216620   1.790   4.038   5.429
 5241SOL     OW16621   2.227   5.614   3.689
 5241SOL    HW116622   2.129   5.607   3.667
 5241SOL    HW216623   2.281   5.594   3.608
 5242SOL     OW16624   3.884   6.209   5.445
 5242SOL    HW116625   3.867   6.145   5.520
 5242SOL    HW216626   3.982   6.213   5.427
 5243SOL     OW16627   2.017   5.951   3.844
 5243SOL    HW116628   2.080   5.895   3.897
 5243SOL    HW216629   1.930   5.903   3.833
 5244SOL     OW16630   5.462   1.055   6.180
 5244SOL    HW116631   5.484   1.134   6.123
 5244SOL    HW216632   5.546   1.012   6.212
 5245SOL     OW16633   3.345   4.043   1.978
 5245SOL    HW116634   3.264   4.034   2.037
 5245SOL    HW216635   3.342   3.971   1.908
 5246SOL     OW16636   6.056   2.985   5.664
 5246SOL    HW116637   6.009   2.930   5.733
 5246SOL    HW216638   6.154   2.969   5.670
 5247SOL     OW16639   4.817   1.158   5.903
 5247SOL    HW116640   4.853   1.067   5.883
 5247SOL    HW216641   4.769   1.194   5.823
 5248SOL     OW16642   4.546   1.233   2.782
 5248SOL    HW116643   4.449   1.237   2.756
 5248SOL    HW216644   4.585   1.325   2.780
 5249SOL     OW16645   0.342   5.749   1.770
 5249SOL    HW116646   0.429   5.700   1.771
 5249SOL    HW216647   0.282   5.710   1.840
 5250SOL     OW16648   1.605   4.926   0.529
 5250SOL    HW116649   1.584   4.902   0.434
 5250SOL    HW216650   1.687   4.983   0.532
 5251SOL     OW16651   1.041   4.657   6.432
 5251SOL    HW116652   1.135   4.687   6.414
 5251SOL    HW216653   1.017   4.676   6.527
 5252SOL     OW16654   3.946   6.060   2.982
 5252SOL    HW116655   4.029   6.013   2.954
 5252SOL    HW216656   3.963   6.109   3.068
 5253SOL     OW16657   0.118   5.874   4.712
 5253SOL    HW116658   0.099   5.853   4.617
 5253SOL    HW216659   0.032   5.881   4.763
 5254SOL     OW16660   4.644   6.168   2.098
 5254SOL    HW116661   4.577   6.144   2.027
 5254SOL    HW216662   4.708   6.092   2.110
 5255SOL     OW16663   0.582   1.506   6.288
 5255SOL    HW116664   0.650   1.485   6.218
 5255SOL    HW216665   0.599   1.451   6.370
 5256SOL     OW16666   4.323   2.309   2.718
 5256SOL    HW116667   4.321   2.344   2.812
 5256SOL    HW216668   4.301   2.212   2.718
 5257SOL     OW16669   5.484   1.588   0.279
 5257SOL    HW116670   5.411   1.564   0.214
 5257SOL    HW216671   5.530   1.671   0.248
 5258SOL     OW16672   5.497   1.731   5.363
 5258SOL    HW116673   5.548   1.816   5.373
 5258SOL    HW216674   5.510   1.675   5.445
 5259SOL     OW16675   4.874   5.948   4.394
 5259SOL    HW116676   4.951   5.967   4.333
 5259SOL    HW216677   4.792   5.994   4.358
 5260SOL     OW16678   1.740   6.338   1.515
 5260SOL    HW116679   1.795   6.256   1.498
 5260SOL    HW216680   1.697   6.330   1.605
 5261SOL     OW16681   5.987   4.966   0.173
 5261SOL    HW116682   5.969   4.878   0.129
 5261SOL    HW216683   5.995   4.952   0.272
 5262SOL     OW16684   2.344   2.174   1.298
 5262SOL    HW116685   2.344   2.263   1.343
 5262SOL    HW216686   2.408   2.113   1.345
 5263SOL     OW16687   0.731   6.209   2.994
 5263SOL    HW116688   0.736   6.236   2.898
 5263SOL    HW216689   0.820   6.224   3.038
 5264SOL     OW16690   6.649   2.333   2.371
 5264SOL    HW116691   6.578   2.404   2.364
 5264SOL    HW216692   6.674   2.320   2.467
 5265SOL     OW16693   0.592   5.514   5.966
 5265SOL    HW116694   0.553   5.465   6.044
 5265SOL    HW216695   0.688   5.537   5.984
 5266SOL     OW16696   1.502   0.186   6.244
 5266SOL    HW116697   1.498   0.108   6.182
 5266SOL    HW216698   1.597   0.219   6.251
 5267SOL     OW16699   6.501   0.819   4.910
 5267SOL    HW116700   6.481   0.828   5.007
 5267SOL    HW216701   6.548   0.901   4.878
 5268SOL     OW16702   6.237   0.146   6.037
 5268SOL    HW116703   6.285   0.069   6.079
 5268SOL    HW216704   6.139   0.132   6.042
 5269SOL     OW16705   1.011   0.628   4.344
 5269SOL    HW116706   1.086   0.565   4.363
 5269SOL    HW216707   1.039   0.721   4.365
 5270SOL     OW16708   1.213   1.431   0.135
 5270SOL    HW116709   1.222   1.395   0.228
 5270SOL    HW216710   1.304   1.445   0.095
 5271SOL     OW16711   1.371   5.717   6.192
 5271SOL    HW116712   1.347   5.620   6.200
 5271SOL    HW216713   1.331   5.768   6.268
 5272SOL     OW16714   4.329   0.147   6.256
 5272SOL    HW116715   4.343   0.055   6.293
 5272SOL    HW216716   4.231   0.169   6.254
 5273SOL     OW16717   2.187   1.296   3.176
 5273SOL    HW116718   2.229   1.301   3.266
 5273SOL    HW216719   2.193   1.203   3.141
 5274SOL     OW16720   5.687   4.234   1.133
 5274SOL    HW116721   5.741   4.166   1.183
 5274SOL    HW216722   5.745   4.311   1.106
 5275SOL     OW16723   5.995   0.844   6.240
 5275SOL    HW116724   6.073   0.800   6.195
 5275SOL    HW216725   5.951   0.777   6.300
 5276SOL     OW16726   3.667   6.518   1.384
 5276SOL    HW116727   3.767   6.521   1.396
 5276SOL    HW216728   3.639   6.426   1.357
 5277SOL     OW16729   1.708   3.777   1.784
 5277SOL    HW116730   1.776   3.850   1.773
 5277SOL    HW216731   1.695   3.729   1.697
 5278SOL     OW16732   4.011   3.729   3.151
 5278SOL    HW116733   4.035   3.744   3.055
 5278SOL    HW216734   3.927   3.778   3.172
 5279SOL     OW16735   1.313   6.520   3.013
 5279SOL    HW116736   1.319   6.435   2.962
 5279SOL    HW216737   1.266   6.589   2.958
 5280SOL     OW16738   3.786   0.337   3.921
 5280SOL    HW116739   3.813   0.341   4.018
 5280SOL    HW216740   3.865   0.308   3.867
 5281SOL     OW16741   6.429   2.714   3.749
 5281SOL    HW116742   6.366   2.744   3.677
 5281SOL    HW216743   6.400   2.752   3.837
 5282SOL     OW16744   5.158   2.639   1.262
 5282SOL    HW116745   5.217   2.710   1.300
 5282SOL    HW216746   5.210   2.583   1.197
 5283SOL     OW16747   4.660   4.913   5.270
 5283SOL    HW116748   4.666   4.909   5.370
 5283SOL    HW216749   4.569   4.947   5.243
 5284SOL     OW16750   4.998   2.779   4.342
 5284SOL    HW116751   4.990   2.869   4.300
 5284SOL    HW216752   4.915   2.758   4.393
 5285SOL     OW16753   4.486   6.000   2.521
 5285SOL    HW116754   4.402   6.051   2.538
 5285SOL    HW216755   4.554   6.060   2.479
 5286SOL     OW16756   1.879   4.921   2.480
 5286SOL    HW116757   1.916   4.828   2.480
 5286SOL    HW216758   1.949   4.984   2.514
 5287SOL     OW16759   1.070   0.667   2.349
 5287SOL    HW116760   1.000   0.620   2.403
 5287SOL    HW216761   1.147   0.691   2.408
 5288SOL     OW16762   3.968   0.529   1.302
 5288SOL    HW116763   3.946   0.552   1.207
 5288SOL    HW216764   4.026   0.448   1.304
 5289SOL     OW16765   2.092   6.591   1.452
 5289SOL    HW116766   2.168   6.650   1.479
 5289SOL    HW216767   2.090   6.511   1.512
 5290SOL     OW16768   6.036   6.411   6.505
 5290SOL    HW116769   5.991   6.324   6.485
 5290SOL    HW216770   5.975   6.486   6.481
 5291SOL     OW16771   0.736   5.615   0.237
 5291SOL    HW116772   0.783   5.545   0.290
 5291SOL    HW216773   0.722   5.583   0.143
 5292SOL     OW16774   5.695   1.759   1.580
 5292SOL    HW116775   5.670   1.809   1.663
 5292SOL    HW216776   5.764   1.690   1.603
 5293SOL     OW16777   1.855   1.174   3.884
 5293SOL    HW116778   1.904   1.261   3.884
 5293SOL    HW216779   1.811   1.160   3.973
 5294SOL     OW16780   3.430   1.898   6.665
 5294SOL    HW116781   3.440   1.983   6.614
 5294SOL    HW216782   3.344   1.899   6.715
 5295SOL     OW16783   6.951   1.970   3.204
 5295SOL    HW116784   0.001   2.026   3.245
 5295SOL    HW216785   6.863   2.015   3.219
 5296SOL     OW16786   0.554   2.850   6.759
 5296SOL    HW116787   0.583   2.933   6.808
 5296SOL    HW216788   0.634   2.793   6.740
 5297SOL     OW16789   0.984   1.966   1.854
 5297SOL    HW116790   0.892   1.989   1.883
 5297SOL    HW216791   1.050   2.025   1.900
 5298SOL     OW16792   1.284   4.229   1.891
 5298SOL    HW116793   1.306   4.173   1.971
 5298SOL    HW216794   1.348   4.306   1.885
 5299SOL     OW16795   3.973   0.138   6.942
 5299SOL    HW116796   4.005   0.230   6.916
 5299SOL    HW216797   3.890   0.117   6.892
 5300SOL     OW16798   6.670   4.931   4.148
 5300SOL    HW116799   6.731   5.009   4.139
 5300SOL    HW216800   6.628   4.931   4.239
 5301SOL     OW16801   5.604   0.111   6.780
 5301SOL    HW116802   5.672   0.183   6.794
 5301SOL    HW216803   5.606   0.048   6.857
 5302SOL     OW16804   6.838   4.122   3.023
 5302SOL    HW116805   6.805   4.029   3.039
 5302SOL    HW216806   6.763   4.178   2.986
 5303SOL     OW16807   2.366   4.763   2.775
 5303SOL    HW116808   2.330   4.856   2.783
 5303SOL    HW216809   2.384   4.726   2.866
 5304SOL     OW16810   4.560   1.770   5.917
 5304SOL    HW116811   4.619   1.693   5.893
 5304SOL    HW216812   4.576   1.845   5.853
 5305SOL     OW16813   3.734   2.055   5.062
 5305SOL    HW116814   3.705   1.971   5.108
 5305SOL    HW216815   3.741   2.129   5.129
 5306SOL     OW16816   2.326   6.820   2.718
 5306SOL    HW116817   2.415   6.774   2.709
 5306SOL    HW216818   2.283   6.828   2.629
 5307SOL     OW16819   5.048   6.396   6.604
 5307SOL    HW116820   5.029   6.383   6.507
 5307SOL    HW216821   5.015   6.486   6.632
 5308SOL     OW16822   0.049   1.436   1.661
 5308SOL    HW116823   0.138   1.455   1.618
 5308SOL    HW216824   0.058   1.443   1.760
 5309SOL     OW16825   3.856   3.624   5.551
 5309SOL    HW116826   3.835   3.610   5.648
 5309SOL    HW216827   3.778   3.593   5.496
 5310SOL     OW16828   4.908   2.808   0.709
 5310SOL    HW116829   4.862   2.883   0.755
 5310SOL    HW216830   4.899   2.724   0.763
 5311SOL     OW16831   0.178   5.990   0.315
 5311SOL    HW116832   0.141   5.992   0.408
 5311SOL    HW216833   0.107   5.960   0.251
 5312SOL     OW16834   0.096   4.040   1.869
 5312SOL    HW116835   0.143   3.955   1.846
 5312SOL    HW216836   0.000   4.034   1.839
 5313SOL     OW16837   0.186   6.393   6.723
 5313SOL    HW116838   0.135   6.479   6.718
 5313SOL    HW216839   0.231   6.376   6.635
 5314SOL     OW16840   3.879   4.822   0.692
 5314SOL    HW116841   3.821   4.851   0.768
 5314SOL    HW216842   3.846   4.736   0.655
 5315SOL     OW16843   5.536   1.470   2.184
 5315SOL    HW116844   5.439   1.495   2.188
 5315SOL    HW216845   5.574   1.497   2.095
 5316SOL     OW16846   5.311   5.141   4.870
 5316SOL    HW116847   5.302   5.058   4.925
 5316SOL    HW216848   5.334   5.218   4.929
 5317SOL     OW16849   6.687   5.016   1.724
 5317SOL    HW116850   6.719   4.921   1.732
 5317SOL    HW216851   6.592   5.021   1.753
 5318SOL     OW16852   6.678   2.636   3.780
 5318SOL    HW116853   6.710   2.621   3.687
 5318SOL    HW216854   6.580   2.657   3.779
 5319SOL     OW16855   3.181   6.549   2.760
 5319SOL    HW116856   3.141   6.516   2.675
 5319SOL    HW216857   3.269   6.593   2.741
 5320SOL     OW16858   6.327   1.979   0.172
 5320SOL    HW116859   6.423   1.999   0.192
 5320SOL    HW216860   6.275   1.979   0.257
 5321SOL     OW16861   3.035   4.407   0.281
 5321SOL    HW116862   3.125   4.445   0.261
 5321SOL    HW216863   2.980   4.476   0.329
 5322SOL     OW16864   2.522   6.707   0.235
 5322SOL    HW116865   2.564   6.684   0.323
 5322SOL    HW216866   2.547   6.637   0.168
 5323SOL     OW16867   6.478   3.273   0.414
 5323SOL    HW116868   6.391   3.246   0.372
 5323SOL    HW216869   6.477   3.248   0.511
 5324SOL     OW16870   4.162   3.434   1.834
 5324SOL    HW116871   4.123   3.496   1.902
 5324SOL    HW216872   4.126   3.342   1.849
 5325SOL     OW16873   3.059   6.684   5.774
 5325SOL    HW116874   3.083   6.630   5.855
 5325SOL    HW216875   3.142   6.727   5.738
 5326SOL     OW16876   5.910   0.994   3.322
 5326SOL    HW116877   5.942   0.900   3.311
 5326SOL    HW216878   5.898   1.013   3.420
 5327SOL     OW16879   6.163   6.940   4.058
 5327SOL    HW116880   6.227   6.868   4.082
 5327SOL    HW216881   6.175   6.964   3.962
 5328SOL     OW16882   2.450   4.541   6.139
 5328SOL    HW116883   2.373   4.593   6.177
 5328SOL    HW216884   2.430   4.443   6.146
 5329SOL     OW16885   0.313   0.085   6.424
 5329SOL    HW116886   0.341   0.029   6.502
 5329SOL    HW216887   0.251   0.032   6.365
 5330SOL     OW16888   4.611   4.578   1.182
 5330SOL    HW116889   4.618   4.490   1.228
 5330SOL    HW216890   4.596   4.650   1.250
 5331SOL     OW16891   5.704   1.344   6.772
 5331SOL    HW116892   5.617   1.383   6.802
 5331SOL    HW216893   5.780   1.395   6.815
 5332SOL     OW16894   6.752   2.857   6.858
 5332SOL    HW116895   6.810   2.851   6.939
 5332SOL    HW216896   6.796   2.810   6.781
 5333SOL     OW16897   0.527   6.682   4.130
 5333SOL    HW116898   0.538   6.636   4.042
 5333SOL    HW216899   0.496   6.776   4.115
 5334SOL     OW16900   3.549   5.979   1.365
 5334SOL    HW116901   3.498   5.937   1.440
 5334SOL    HW216902   3.642   5.942   1.364
 5335SOL     OW16903   0.481   5.244   1.641
 5335SOL    HW116904   0.408   5.310   1.623
 5335SOL    HW216905   0.566   5.293   1.660
 5336SOL     OW16906   1.255   3.215   5.567
 5336SOL    HW116907   1.170   3.262   5.589
 5336SOL    HW216908   1.238   3.117   5.559
 5337SOL     OW16909   6.227   1.776   0.943
 5337SOL    HW116910   6.294   1.792   1.016
 5337SOL    HW216911   6.207   1.678   0.938
 5338SOL     OW16912   6.981   3.273   1.777
 5338SOL    HW116913   6.979   3.308   1.683
 5338SOL    HW216914   6.908   3.317   1.830
 5339SOL     OW16915   5.032   3.728   3.203
 5339SOL    HW116916   5.047   3.636   3.240
 5339SOL    HW216917   5.074   3.795   3.264
 5340SOL     OW16918   4.942   3.456   1.487
 5340SOL    HW116919   4.906   3.387   1.425
 5340SOL    HW216920   5.040   3.466   1.472
 5341SOL     OW16921   4.785   5.413   3.397
 5341SOL    HW116922   4.762   5.341   3.331
 5341SOL    HW216923   4.829   5.488   3.348
 5342SOL     OW16924   6.467   5.142   5.005
 5342SOL    HW116925   6.391   5.206   5.019
 5342SOL    HW216926   6.431   5.050   4.991
 5343SOL     OW16927   3.365   3.686   6.933
 5343SOL    HW116928   3.273   3.679   6.893
 5343SOL    HW216929   3.420   3.609   6.901
 5344SOL     OW16930   5.951   1.552   0.110
 5344SOL    HW116931   5.857   1.562   0.077
 5344SOL    HW216932   5.990   1.643   0.127
 5345SOL     OW16933   3.683   1.414   0.083
 5345SOL    HW116934   3.602   1.419   0.024
 5345SOL    HW216935   3.689   1.497   0.138
 5346SOL     OW16936   2.162   5.969   2.819
 5346SOL    HW116937   2.164   5.869   2.816
 5346SOL    HW216938   2.227   6.001   2.887
 5347SOL     OW16939   5.902   2.187   5.164
 5347SOL    HW116940   5.882   2.276   5.207
 5347SOL    HW216941   5.952   2.202   5.079
 5348SOL     OW16942   4.892   2.467   5.214
 5348SOL    HW116943   4.817   2.483   5.277
 5348SOL    HW216944   4.895   2.371   5.188
 5349SOL     OW16945   0.966   4.243   0.378
 5349SOL    HW116946   0.965   4.334   0.337
 5349SOL    HW216947   1.056   4.225   0.418
 5350SOL     OW16948   1.381   6.980   6.395
 5350SOL    HW116949   1.394   0.031   6.330
 5350SOL    HW216950   1.292   6.990   6.440
 5351SOL     OW16951   0.719   5.582   4.047
 5351SOL    HW116952   0.751   5.676   4.059
 5351SOL    HW216953   0.694   5.567   3.952
 5352SOL     OW16954   0.586   2.527   5.959
 5352SOL    HW116955   0.488   2.548   5.965
 5352SOL    HW216956   0.624   2.523   6.051
 5353SOL     OW16957   2.323   7.007   2.929
 5353SOL    HW116958   2.345   6.929   2.870
 5353SOL    HW216959   2.300   6.973   3.020
 5354SOL     OW16960   3.422   6.115   2.075
 5354SOL    HW116961   3.489   6.064   2.129
 5354SOL    HW216962   3.337   6.062   2.067
 5355SOL     OW16963   5.411   4.518   5.263
 5355SOL    HW116964   5.509   4.502   5.273
 5355SOL    HW216965   5.367   4.511   5.353
 5356SOL     OW16966   0.029   6.929   1.388
 5356SOL    HW116967   0.062   6.983   1.465
 5356SOL    HW216968   0.106   6.887   1.340
 5357SOL     OW16969   6.320   3.339   2.512
 5357SOL    HW116970   6.226   3.373   2.514
 5357SOL    HW216971   6.334   3.282   2.432
 5358SOL     OW16972   5.841   0.288   6.885
 5358SOL    HW116973   5.917   0.227   6.907
 5358SOL    HW216974   5.837   0.362   6.952
 5359SOL     OW16975   3.399   2.169   0.178
 5359SOL    HW116976   3.304   2.142   0.194
 5359SOL    HW216977   3.405   2.269   0.175
 5360SOL     OW16978   5.286   5.742   3.036
 5360SOL    HW116979   5.308   5.715   2.943
 5360SOL    HW216980   5.187   5.741   3.049
 5361SOL     OW16981   1.309   3.947   2.839
 5361SOL    HW116982   1.270   4.034   2.808
 5361SOL    HW216983   1.394   3.928   2.790
 5362SOL     OW16984   5.821   1.366   3.834
 5362SOL    HW116985   5.862   1.311   3.907
 5362SOL    HW216986   5.894   1.410   3.780
 5363SOL     OW16987   6.596   4.762   5.592
 5363SOL    HW116988   6.675   4.735   5.538
 5363SOL    HW216989   6.618   4.755   5.689
 5364SOL     OW16990   4.977   2.552   1.465
 5364SOL    HW116991   5.035   2.574   1.387
 5364SOL    HW216992   4.986   2.454   1.487
 5365SOL     OW16993   3.505   2.874   6.022
 5365SOL    HW116994   3.459   2.835   5.943
 5365SOL    HW216995   3.567   2.947   5.993
 5366SOL     OW16996   0.199   4.171   3.699
 5366SOL    HW116997   0.191   4.115   3.781
 5366SOL    HW216998   0.226   4.264   3.725
 5367SOL     OW16999   6.271   6.123   1.154
 5367SOL    HW117000   6.326   6.039   1.150
 5367SOL    HW217001   6.175   6.100   1.137
 5368SOL     OW17002   0.150   5.752   5.310
 5368SOL    HW117003   0.125   5.721   5.402
 5368SOL    HW217004   0.097   5.701   5.242
 5369SOL     OW17005   3.562   6.809   2.284
 5369SOL    HW117006   3.466   6.801   2.311
 5369SOL    HW217007   3.606   6.719   2.287
 5370SOL     OW17008   2.654   2.053   0.532
 5370SOL    HW117009   2.563   2.022   0.560
 5370SOL    HW217010   2.710   2.067   0.614
 5371SOL     OW17011   6.481   5.402   3.781
 5371SOL    HW117012   6.471   5.303   3.770
 5371SOL    HW217013   6.411   5.436   3.844
 5372SOL     OW17014   0.392   0.261   4.310
 5372SOL    HW117015   0.391   0.214   4.398
 5372SOL    HW217016   0.475   0.236   4.260
 5373SOL     OW17017   4.237   6.912   0.411
 5373SOL    HW117018   4.288   6.883   0.492
 5373SOL    HW217019   4.147   6.946   0.439
 5374SOL     OW17020   1.411   3.791   1.422
 5374SOL    HW117021   1.463   3.770   1.339
 5374SOL    HW217022   1.452   3.870   1.468
 5375SOL     OW17023   2.816   5.424   4.865
 5375SOL    HW117024   2.762   5.355   4.913
 5375SOL    HW217025   2.895   5.381   4.821
 5376SOL     OW17026   0.264   6.798   2.295
 5376SOL    HW117027   0.257   6.862   2.218
 5376SOL    HW217028   0.351   6.749   2.289
 5377SOL     OW17029   1.023   2.634   2.420
 5377SOL    HW117030   1.007   2.642   2.322
 5377SOL    HW217031   0.940   2.599   2.465
 5378SOL     OW17032   4.835   0.160   3.534
 5378SOL    HW117033   4.773   0.128   3.462
 5378SOL    HW217034   4.900   0.226   3.495
 5379SOL     OW17035   3.032   2.216   4.272
 5379SOL    HW117036   3.086   2.186   4.193
 5379SOL    HW217037   3.086   2.282   4.325
 5380SOL     OW17038   4.962   6.555   1.668
 5380SOL    HW117039   5.020   6.517   1.596
 5380SOL    HW217040   4.989   6.516   1.756
 5381SOL     OW17041   2.806   1.957   2.517
 5381SOL    HW117042   2.843   1.864   2.513
 5381SOL    HW217043   2.860   2.016   2.456
 5382SOL     OW17044   4.698   0.795   2.232
 5382SOL    HW117045   4.776   0.852   2.208
 5382SOL    HW217046   4.678   0.806   2.330
 5383SOL     OW17047   2.451   4.190   5.413
 5383SOL    HW117048   2.456   4.112   5.351
 5383SOL    HW217049   2.542   4.230   5.423
 5384SOL     OW17050   5.093   6.402   5.911
 5384SOL    HW117051   5.128   6.313   5.880
 5384SOL    HW217052   5.055   6.452   5.834
 5385SOL     OW17053   3.454   3.969   0.436
 5385SOL    HW117054   3.498   4.047   0.481
 5385SOL    HW217055   3.523   3.898   0.419
 5386SOL     OW17056   4.430   4.903   3.450
 5386SOL    HW117057   4.342   4.916   3.404
 5386SOL    HW217058   4.444   4.805   3.467
 5387SOL     OW17059   1.045   2.605   5.317
 5387SOL    HW117060   0.970   2.582   5.379
 5387SOL    HW217061   1.130   2.564   5.350
 5388SOL     OW17062   5.979   6.742   2.946
 5388SOL    HW117063   5.997   6.659   2.892
 5388SOL    HW217064   5.926   6.717   3.027
 5389SOL     OW17065   6.213   1.508   5.044
 5389SOL    HW117066   6.134   1.477   5.096
 5389SOL    HW217067   6.248   1.593   5.084
 5390SOL     OW17068   5.604   3.465   3.345
 5390SOL    HW117069   5.569   3.375   3.318
 5390SOL    HW217070   5.555   3.497   3.427
 5391SOL     OW17071   4.559   3.296   0.691
 5391SOL    HW117072   4.644   3.327   0.734
 5391SOL    HW217073   4.580   3.227   0.622
 5392SOL     OW17074   5.503   1.086   4.138
 5392SOL    HW117075   5.459   0.998   4.156
 5392SOL    HW217076   5.489   1.148   4.215
 5393SOL     OW17077   4.863   3.179   2.881
 5393SOL    HW117078   4.923   3.258   2.867
 5393SOL    HW217079   4.791   3.179   2.812
 5394SOL     OW17080   0.220   2.985   2.982
 5394SOL    HW117081   0.135   2.946   2.945
 5394SOL    HW217082   0.295   2.967   2.919
 5395SOL     OW17083   0.209   0.832   1.715
 5395SOL    HW117084   0.285   0.819   1.778
 5395SOL    HW217085   0.241   0.883   1.634
 5396SOL     OW17086   3.732   2.515   0.399
 5396SOL    HW117087   3.790   2.578   0.452
 5396SOL    HW217088   3.648   2.497   0.450
 5397SOL     OW17089   0.721   6.910   2.802
 5397SOL    HW117090   0.723   6.880   2.897
 5397SOL    HW217091   0.769   6.843   2.745
 5398SOL     OW17092   5.639   2.555   3.228
 5398SOL    HW117093   5.690   2.522   3.307
 5398SOL    HW217094   5.541   2.540   3.243
 5399SOL     OW17095   2.727   2.802   0.528
 5399SOL    HW117096   2.649   2.865   0.531
 5399SOL    HW217097   2.695   2.710   0.506
 5400SOL     OW17098   5.227   2.983   0.785
 5400SOL    HW117099   5.146   2.938   0.823
 5400SOL    HW217100   5.204   3.025   0.697
 5401SOL     OW17101   5.177   4.266   0.943
 5401SOL    HW117102   5.091   4.304   0.977
 5401SOL    HW217103   5.228   4.227   1.019
 5402SOL     OW17104   2.243   5.868   1.698
 5402SOL    HW117105   2.322   5.906   1.746
 5402SOL    HW217106   2.242   5.903   1.604
 5403SOL     OW17107   6.021   2.663   5.410
 5403SOL    HW117108   6.012   2.762   5.417
 5403SOL    HW217109   6.115   2.639   5.385
 5404SOL     OW17110   5.029   6.372   0.496
 5404SOL    HW117111   4.991   6.463   0.515
 5404SOL    HW217112   5.004   6.343   0.404
 5405SOL     OW17113   6.594   5.040   5.901
 5405SOL    HW117114   6.512   4.982   5.901
 5405SOL    HW217115   6.578   5.119   5.960
 5406SOL     OW17116   1.977   1.059   5.349
 5406SOL    HW117117   1.932   1.045   5.437
 5406SOL    HW217118   2.076   1.059   5.362
 5407SOL     OW17119   1.902   1.460   2.660
 5407SOL    HW117120   1.886   1.473   2.563
 5407SOL    HW217121   1.814   1.458   2.708
 5408SOL     OW17122   2.024   2.469   4.621
 5408SOL    HW117123   1.979   2.556   4.602
 5408SOL    HW217124   2.020   2.410   4.540
 5409SOL     OW17125   6.791   4.821   3.317
 5409SOL    HW117126   6.812   4.909   3.360
 5409SOL    HW217127   6.736   4.765   3.380
 5410SOL     OW17128   6.128   1.921   0.416
 5410SOL    HW117129   6.200   1.923   0.485
 5410SOL    HW217130   6.082   1.833   0.419
 5411SOL     OW17131   3.236   6.010   1.747
 5411SOL    HW117132   3.157   6.069   1.728
 5411SOL    HW217133   3.312   6.066   1.779
 5412SOL     OW17134   2.206   1.817   6.178
 5412SOL    HW117135   2.275   1.750   6.203
 5412SOL    HW217136   2.126   1.806   6.238
 5413SOL     OW17137   0.179   5.497   5.603
 5413SOL    HW117138   0.123   5.428   5.649
 5413SOL    HW217139   0.251   5.452   5.551
 5414SOL     OW17140   5.960   5.658   6.138
 5414SOL    HW117141   6.048   5.681   6.178
 5414SOL    HW217142   5.889   5.662   6.208
 5415SOL     OW17143   1.794   0.970   0.262
 5415SOL    HW117144   1.773   0.875   0.238
 5415SOL    HW217145   1.767   0.988   0.356
 5416SOL     OW17146   3.694   5.275   6.159
 5416SOL    HW117147   3.687   5.223   6.074
 5416SOL    HW217148   3.602   5.297   6.192
 5417SOL     OW17149   5.679   0.064   2.079
 5417SOL    HW117150   5.752   0.014   2.031
 5417SOL    HW217151   5.667   0.154   2.037
 5418SOL     OW17152   0.491   2.750   5.561
 5418SOL    HW117153   0.549   2.794   5.629
 5418SOL    HW217154   0.395   2.765   5.583
 5419SOL     OW17155   3.427   2.047   6.444
 5419SOL    HW117156   3.414   1.978   6.372
 5419SOL    HW217157   3.502   2.108   6.417
 5420SOL     OW17158   2.181   1.318   1.093
 5420SOL    HW117159   2.240   1.340   1.171
 5420SOL    HW217160   2.172   1.219   1.085
 5421SOL     OW17161   3.777   5.494   1.035
 5421SOL    HW117162   3.726   5.465   0.954
 5421SOL    HW217163   3.736   5.454   1.117
 5422SOL     OW17164   2.518   6.548   3.106
 5422SOL    HW117165   2.571   6.630   3.128
 5422SOL    HW217166   2.461   6.565   3.026
 5423SOL     OW17167   4.334   6.538   2.510
 5423SOL    HW117168   4.432   6.548   2.523
 5423SOL    HW217169   4.317   6.482   2.428
 5424SOL     OW17170   3.628   3.496   5.502
 5424SOL    HW117171   3.622   3.396   5.498
 5424SOL    HW217172   3.543   3.532   5.541
 5425SOL     OW17173   1.439   5.472   5.214
 5425SOL    HW117174   1.443   5.373   5.219
 5425SOL    HW217175   1.430   5.510   5.306
 5426SOL     OW17176   1.791   4.242   0.068
 5426SOL    HW117177   1.709   4.185   0.077
 5426SOL    HW217178   1.871   4.183   0.056
 5427SOL     OW17179   5.088   2.050   0.933
 5427SOL    HW117180   5.019   2.034   1.003
 5427SOL    HW217181   5.179   2.049   0.975
 5428SOL     OW17182   4.429   5.890   2.811
 5428SOL    HW117183   4.421   5.798   2.850
 5428SOL    HW217184   4.511   5.934   2.845
 5429SOL     OW17185   2.767   6.664   3.549
 5429SOL    HW117186   2.687   6.647   3.607
 5429SOL    HW217187   2.840   6.601   3.574
 5430SOL     OW17188   1.175   4.466   5.322
 5430SOL    HW117189   1.128   4.513   5.248
 5430SOL    HW217190   1.113   4.399   5.364
 5431SOL     OW17191   5.414   4.183   1.125
 5431SOL    HW117192   5.367   4.250   1.182
 5431SOL    HW217193   5.510   4.211   1.114
 5432SOL     OW17194   1.373   5.084   5.594
 5432SOL    HW117195   1.405   4.992   5.616
 5432SOL    HW217196   1.348   5.089   5.497
 5433SOL     OW17197   2.266   6.749   1.195
 5433SOL    HW117198   2.172   6.716   1.203
 5433SOL    HW217199   2.278   6.796   1.107
 5434SOL     OW17200   5.144   5.569   4.438
 5434SOL    HW117201   5.125   5.624   4.357
 5434SOL    HW217202   5.213   5.614   4.494
 5435SOL     OW17203   0.115   3.508   0.334
 5435SOL    HW117204   0.117   3.510   0.234
 5435SOL    HW217205   0.030   3.467   0.365
 5436SOL     OW17206   1.260   4.480   1.285
 5436SOL    HW117207   1.240   4.563   1.336
 5436SOL    HW217208   1.215   4.483   1.196
 5437SOL     OW17209   3.037   6.517   6.413
 5437SOL    HW117210   3.089   6.602   6.408
 5437SOL    HW217211   3.098   6.441   6.434
 5438SOL     OW17212   5.055   6.630   2.667
 5438SOL    HW117213   5.103   6.657   2.750
 5438SOL    HW217214   5.008   6.710   2.629
 5439SOL     OW17215   1.060   3.722   1.895
 5439SOL    HW117216   1.121   3.767   1.829
 5439SOL    HW217217   1.080   3.756   1.987
 5440SOL     OW17218   6.079   6.214   3.228
 5440SOL    HW117219   6.096   6.198   3.325
 5440SOL    HW217220   6.064   6.312   3.212
 5441SOL     OW17221   5.116   0.388   4.858
 5441SOL    HW117222   5.138   0.319   4.790
 5441SOL    HW217223   5.074   0.345   4.938
 5442SOL     OW17224   2.707   0.153   6.988
 5442SOL    HW117225   2.628   0.214   6.991
 5442SOL    HW217226   2.701   0.096   6.906
 5443SOL     OW17227   5.763   1.351   3.058
 5443SOL    HW117228   5.672   1.327   3.025
 5443SOL    HW217229   5.810   1.269   3.090
 5444SOL     OW17230   1.717   1.622   6.647
 5444SOL    HW117231   1.678   1.672   6.569
 5444SOL    HW217232   1.733   1.527   6.621
 5445SOL     OW17233   5.868   6.375   5.078
 5445SOL    HW117234   5.786   6.405   5.127
 5445SOL    HW217235   5.903   6.451   5.023
 5446SOL     OW17236   2.390   4.067   0.180
 5446SOL    HW117237   2.291   4.077   0.190
 5446SOL    HW217238   2.424   4.005   0.251
 5447SOL     OW17239   6.046   2.313   1.790
 5447SOL    HW117240   6.116   2.374   1.826
 5447SOL    HW217241   6.073   2.218   1.805
 5448SOL     OW17242   6.054   5.116   1.709
 5448SOL    HW117243   6.037   5.179   1.784
 5448SOL    HW217244   5.967   5.089   1.667
 5449SOL     OW17245   2.227   0.173   2.309
 5449SOL    HW117246   2.222   0.085   2.263
 5449SOL    HW217247   2.323   0.199   2.320
 5450SOL     OW17248   4.228   4.686   1.664
 5450SOL    HW117249   4.251   4.593   1.691
 5450SOL    HW217250   4.276   4.751   1.723
 5451SOL     OW17251   0.603   5.372   3.543
 5451SOL    HW117252   0.544   5.406   3.470
 5451SOL    HW217253   0.661   5.299   3.507
 5452SOL     OW17254   2.173   3.938   2.914
 5452SOL    HW117255   2.241   3.946   2.841
 5452SOL    HW217256   2.093   3.993   2.892
 5453SOL     OW17257   5.446   5.347   4.137
 5453SOL    HW117258   5.455   5.386   4.045
 5453SOL    HW217259   5.369   5.282   4.138
 5454SOL     OW17260   6.407   3.374   2.134
 5454SOL    HW117261   6.325   3.425   2.159
 5454SOL    HW217262   6.422   3.299   2.199
 5455SOL     OW17263   2.236   2.981   2.901
 5455SOL    HW117264   2.221   3.004   2.805
 5455SOL    HW217265   2.285   2.894   2.907
 5456SOL     OW17266   5.180   2.947   0.308
 5456SOL    HW117267   5.131   2.956   0.221
 5456SOL    HW217268   5.212   2.853   0.319
 5457SOL     OW17269   6.251   1.274   0.218
 5457SOL    HW117270   6.341   1.313   0.200
 5457SOL    HW217271   6.191   1.345   0.257
 5458SOL     OW17272   6.496   4.563   5.918
 5458SOL    HW117273   6.411   4.544   5.870
 5458SOL    HW217274   6.479   4.566   6.017
 5459SOL     OW17275   2.589   3.585   5.449
 5459SOL    HW117276   2.554   3.653   5.384
 5459SOL    HW217277   2.543   3.497   5.434
 5460SOL     OW17278   0.118   1.159   1.603
 5460SOL    HW117279   0.140   1.145   1.507
 5460SOL    HW217280   0.072   1.247   1.614
 5461SOL     OW17281   5.680   0.685   6.031
 5461SOL    HW117282   5.627   0.753   6.081
 5461SOL    HW217283   5.672   0.596   6.076
 5462SOL     OW17284   5.091   5.208   6.526
 5462SOL    HW117285   5.003   5.219   6.572
 5462SOL    HW217286   5.162   5.256   6.577
 5463SOL     OW17287   2.554   4.666   6.977
 5463SOL    HW117288   2.575   4.762   6.999
 5463SOL    HW217289   2.519   4.660   6.884
 5464SOL     OW17290   2.162   5.804   4.068
 5464SOL    HW117291   2.129   5.740   4.137
 5464SOL    HW217292   2.237   5.858   4.106
 5465SOL     OW17293   0.727   0.939   4.686
 5465SOL    HW117294   0.723   0.987   4.774
 5465SOL    HW217295   0.816   0.953   4.644
 5466SOL     OW17296   5.346   2.291   4.897
 5466SOL    HW117297   5.347   2.293   4.997
 5466SOL    HW217298   5.295   2.370   4.863
 5467SOL     OW17299   5.403   3.970   4.003
 5467SOL    HW117300   5.319   3.936   4.045
 5467SOL    HW217301   5.381   4.021   3.920
 5468SOL     OW17302   0.320   2.835   1.355
 5468SOL    HW117303   0.368   2.854   1.441
 5468SOL    HW217304   0.384   2.841   1.279
 5469SOL     OW17305   4.379   1.209   3.127
 5469SOL    HW117306   4.337   1.141   3.187
 5469SOL    HW217307   4.475   1.222   3.154
 5470SOL     OW17308   2.974   4.786   3.986
 5470SOL    HW117309   2.886   4.766   4.028
 5470SOL    HW217310   2.969   4.769   3.887
 5471SOL     OW17311   5.172   0.330   3.899
 5471SOL    HW117312   5.163   0.235   3.869
 5471SOL    HW217313   5.218   0.333   3.988
 5472SOL     OW17314   3.012   4.015   6.502
 5472SOL    HW117315   2.944   4.071   6.455
 5472SOL    HW217316   3.103   4.056   6.492
 5473SOL     OW17317   2.639   4.691   2.161
 5473SOL    HW117318   2.705   4.652   2.096
 5473SOL    HW217319   2.562   4.629   2.171
 5474SOL     OW17320   1.049   4.897   1.957
 5474SOL    HW117321   1.078   4.961   2.028
 5474SOL    HW217322   0.995   4.946   1.889
 5475SOL     OW17323   0.574   1.282   5.336
 5475SOL    HW117324   0.647   1.325   5.391
 5475SOL    HW217325   0.606   1.194   5.302
 5476SOL     OW17326   2.644   0.979   5.176
 5476SOL    HW117327   2.740   0.996   5.153
 5476SOL    HW217328   2.623   1.024   5.263
 5477SOL     OW17329   2.113   3.786   3.151
 5477SOL    HW117330   2.042   3.852   3.176
 5477SOL    HW217331   2.159   3.817   3.067
 5478SOL     OW17332   6.724   3.454   5.608
 5478SOL    HW117333   6.716   3.444   5.707
 5478SOL    HW217334   6.690   3.371   5.564
 5479SOL     OW17335   5.481   3.811   4.422
 5479SOL    HW117336   5.436   3.894   4.389
 5479SOL    HW217337   5.532   3.832   4.506
 5480SOL     OW17338   1.491   3.179   6.074
 5480SOL    HW117339   1.560   3.123   6.029
 5480SOL    HW217340   1.517   3.275   6.067
 5481SOL     OW17341   4.494   1.493   0.290
 5481SOL    HW117342   4.572   1.475   0.349
 5481SOL    HW217343   4.513   1.460   0.198
 5482SOL     OW17344   5.215   4.413   2.407
 5482SOL    HW117345   5.197   4.426   2.309
 5482SOL    HW217346   5.166   4.482   2.459
 5483SOL     OW17347   5.614   2.446   0.219
 5483SOL    HW117348   5.690   2.501   0.255
 5483SOL    HW217349   5.628   2.350   0.244
 5484SOL     OW17350   6.173   0.820   5.984
 5484SOL    HW117351   6.235   0.869   6.045
 5484SOL    HW217352   6.214   0.816   5.893
 5485SOL     OW17353   2.763   0.782   4.395
 5485SOL    HW117354   2.664   0.766   4.392
 5485SOL    HW217355   2.798   0.791   4.301
 5486SOL     OW17356   0.194   0.425   3.700
 5486SOL    HW117357   0.176   0.512   3.654
 5486SOL    HW217358   0.158   0.429   3.793
 5487SOL     OW17359   4.430   5.268   1.209
 5487SOL    HW117360   4.438   5.334   1.284
 5487SOL    HW217361   4.365   5.302   1.141
 5488SOL     OW17362   5.296   0.619   6.129
 5488SOL    HW117363   5.307   0.562   6.047
 5488SOL    HW217364   5.202   0.613   6.162
 5489SOL     OW17365   6.648   3.841   2.531
 5489SOL    HW117366   6.659   3.907   2.605
 5489SOL    HW217367   6.589   3.880   2.460
 5490SOL     OW17368   3.067   1.278   6.471
 5490SOL    HW117369   3.001   1.204   6.465
 5490SOL    HW217370   3.036   1.345   6.539
 5491SOL     OW17371   6.696   6.504   1.943
 5491SOL    HW117372   6.653   6.414   1.933
 5491SOL    HW217373   6.648   6.570   1.885
 5492SOL     OW17374   0.769   1.377   4.592
 5492SOL    HW117375   0.861   1.413   4.605
 5492SOL    HW217376   0.701   1.449   4.608
 5493SOL     OW17377   4.609   1.591   6.915
 5493SOL    HW117378   4.532   1.573   6.977
 5493SOL    HW217379   4.615   1.689   6.897
 5494SOL     OW17380   5.234   3.403   2.528
 5494SOL    HW117381   5.269   3.421   2.620
 5494SOL    HW217382   5.308   3.366   2.472
 5495SOL     OW17383   3.075   3.101   4.289
 5495SOL    HW117384   3.101   3.197   4.295
 5495SOL    HW217385   2.980   3.094   4.260
 5496SOL     OW17386   4.575   5.051   2.119
 5496SOL    HW117387   4.496   5.077   2.063
 5496SOL    HW217388   4.598   5.125   2.182
 5497SOL     OW17389   5.326   0.320   0.095
 5497SOL    HW117390   5.416   0.363   0.084
 5497SOL    HW217391   5.289   0.297   0.004
 5498SOL     OW17392   4.297   1.752   4.269
 5498SOL    HW117393   4.210   1.704   4.267
 5498SOL    HW217394   4.369   1.690   4.301
 5499SOL     OW17395   0.123   0.750   5.090
 5499SOL    HW117396   0.130   0.682   5.017
 5499SOL    HW217397   0.202   0.743   5.150
 5500SOL     OW17398   1.877   6.108   0.851
 5500SOL    HW117399   1.899   6.196   0.808
 5500SOL    HW217400   1.909   6.033   0.793
 5501SOL     OW17401   2.463   0.668   1.948
 5501SOL    HW117402   2.369   0.700   1.957
 5501SOL    HW217403   2.464   0.585   1.892
 5502SOL     OW17404   4.874   3.920   0.574
 5502SOL    HW117405   4.972   3.920   0.596
 5502SOL    HW217406   4.858   3.974   0.492
 5503SOL     OW17407   6.631   0.190   3.736
 5503SOL    HW117408   6.700   0.232   3.795
 5503SOL    HW217409   6.667   0.105   3.696
 5504SOL     OW17410   2.747   2.121   4.607
 5504SOL    HW117411   2.803   2.062   4.665
 5504SOL    HW217412   2.676   2.164   4.663
 5505SOL     OW17413   3.320   4.937   0.724
 5505SOL    HW117414   3.313   5.010   0.656
 5505SOL    HW217415   3.285   4.851   0.685
 5506SOL     OW17416   0.524   6.944   5.398
 5506SOL    HW117417   0.608   6.983   5.436
 5506SOL    HW217418   0.445   6.986   5.443
 5507SOL     OW17419   2.658   5.619   5.134
 5507SOL    HW117420   2.559   5.628   5.118
 5507SOL    HW217421   2.708   5.670   5.065
 5508SOL     OW17422   1.521   1.015   4.947
 5508SOL    HW117423   1.574   1.019   4.862
 5508SOL    HW217424   1.584   1.002   5.024
 5509SOL     OW17425   6.824   0.418   6.076
 5509SOL    HW117426   6.821   0.456   5.983
 5509SOL    HW217427   6.807   0.320   6.073
 5510SOL     OW17428   0.293   0.060   5.463
 5510SOL    HW117429   0.231   7.017   5.507
 5510SOL    HW217430   0.312   0.135   5.526
 5511SOL     OW17431   0.432   2.454   1.183
 5511SOL    HW117432   0.475   2.484   1.269
 5511SOL    HW217433   0.334   2.473   1.186
 5512SOL     OW17434   6.149   0.625   0.041
 5512SOL    HW117435   6.243   0.620   0.074
 5512SOL    HW217436   6.126   0.720   0.019
 5513SOL     OW17437   2.950   5.981   4.316
 5513SOL    HW117438   2.946   5.883   4.336
 5513SOL    HW217439   3.038   6.018   4.346
 5514SOL     OW17440   6.148   6.217   3.479
 5514SOL    HW117441   6.228   6.237   3.535
 5514SOL    HW217442   6.067   6.211   3.537
 5515SOL     OW17443   0.159   3.518   2.905
 5515SOL    HW117444   0.100   3.598   2.913
 5515SOL    HW217445   0.255   3.546   2.914
 5516SOL     OW17446   1.774   2.760   0.416
 5516SOL    HW117447   1.783   2.685   0.482
 5516SOL    HW217448   1.712   2.733   0.342
 5517SOL     OW17449   3.029   0.939   1.630
 5517SOL    HW117450   3.001   1.018   1.684
 5517SOL    HW217451   2.998   0.855   1.674
 5518SOL     OW17452   5.553   3.702   5.510
 5518SOL    HW117453   5.493   3.782   5.506
 5518SOL    HW217454   5.545   3.650   5.425
 5519SOL     OW17455   5.822   4.831   2.442
 5519SOL    HW117456   5.780   4.880   2.518
 5519SOL    HW217457   5.898   4.775   2.477
 5520SOL     OW17458   1.452   2.700   1.071
 5520SOL    HW117459   1.456   2.600   1.062
 5520SOL    HW217460   1.385   2.725   1.140
 5521SOL     OW17461   5.496   4.437   6.010
 5521SOL    HW117462   5.411   4.454   5.960
 5521SOL    HW217463   5.482   4.365   6.077
 5522SOL     OW17464   1.443   1.994   1.994
 5522SOL    HW117465   1.373   1.998   2.066
 5522SOL    HW217466   1.502   2.075   2.000
 5523SOL     OW17467   3.345   6.591   1.252
 5523SOL    HW117468   3.253   6.578   1.288
 5523SOL    HW217469   3.412   6.554   1.317
 5524SOL     OW17470   6.293   6.909   5.815
 5524SOL    HW117471   6.270   7.007   5.811
 5524SOL    HW217472   6.266   6.865   5.729
 5525SOL     OW17473   6.480   6.339   3.275
 5525SOL    HW117474   6.573   6.377   3.266
 5525SOL    HW217475   6.480   6.270   3.347
 5526SOL     OW17476   5.646   3.136   4.587
 5526SOL    HW117477   5.604   3.104   4.671
 5526SOL    HW217478   5.737   3.174   4.606
 5527SOL     OW17479   2.218   3.211   6.823
 5527SOL    HW117480   2.164   3.222   6.740
 5527SOL    HW217481   2.170   3.254   6.899
 5528SOL     OW17482   6.485   2.545   2.467
 5528SOL    HW117483   6.385   2.544   2.470
 5528SOL    HW217484   6.515   2.591   2.383
 5529SOL     OW17485   1.060   0.773   3.772
 5529SOL    HW117486   1.092   0.769   3.866
 5529SOL    HW217487   1.138   0.766   3.710
 5530SOL     OW17488   6.895   3.063   6.703
 5530SOL    HW117489   6.962   2.990   6.711
 5530SOL    HW217490   6.822   3.048   6.770
 5531SOL     OW17491   2.526   2.989   0.543
 5531SOL    HW117492   2.489   3.009   0.634
 5531SOL    HW217493   2.451   2.981   0.477
 5532SOL     OW17494   2.873   2.774   1.313
 5532SOL    HW117495   2.801   2.775   1.243
 5532SOL    HW217496   2.878   2.682   1.353
 5533SOL     OW17497   3.519   0.417   1.369
 5533SOL    HW117498   3.442   0.461   1.321
 5533SOL    HW217499   3.597   0.410   1.307
 5534SOL     OW17500   0.726   3.321   4.984
 5534SOL    HW117501   0.661   3.250   4.959
 5534SOL    HW217502   0.711   3.347   5.080
 5535SOL     OW17503   4.842   4.508   3.788
 5535SOL    HW117504   4.881   4.582   3.732
 5535SOL    HW217505   4.911   4.476   3.852
 5536SOL     OW17506   2.311   0.978   4.178
 5536SOL    HW117507   2.364   0.900   4.145
 5536SOL    HW217508   2.213   0.959   4.165
 5537SOL     OW17509   3.585   0.835   3.752
 5537SOL    HW117510   3.642   0.755   3.732
 5537SOL    HW217511   3.547   0.870   3.666
 5538SOL     OW17512   5.255   2.420   2.244
 5538SOL    HW117513   5.336   2.452   2.196
 5538SOL    HW217514   5.185   2.394   2.178
 5539SOL     OW17515   2.076   0.439   6.729
 5539SOL    HW117516   2.065   0.386   6.646
 5539SOL    HW217517   2.131   0.387   6.795
 5540SOL     OW17518   5.089   6.972   5.406
 5540SOL    HW117519   5.130   0.003   5.331
 5540SOL    HW217520   5.064   6.882   5.371
 5541SOL     OW17521   4.520   2.518   6.268
 5541SOL    HW117522   4.437   2.465   6.285
 5541SOL    HW217523   4.501   2.615   6.284
 5542SOL     OW17524   4.769   4.398   6.574
 5542SOL    HW117525   4.674   4.375   6.557
 5542SOL    HW217526   4.827   4.318   6.558
 5543SOL     OW17527   0.692   0.196   6.158
 5543SOL    HW117528   0.721   0.291   6.168
 5543SOL    HW217529   0.604   0.193   6.111
 5544SOL     OW17530   3.435   5.208   0.280
 5544SOL    HW117531   3.473   5.121   0.247
 5544SOL    HW217532   3.487   5.284   0.242
 5545SOL     OW17533   5.789   1.923   2.548
 5545SOL    HW117534   5.877   1.965   2.571
 5545SOL    HW217535   5.804   1.847   2.484
 5546SOL     OW17536   0.373   5.802   4.258
 5546SOL    HW117537   0.349   5.747   4.178
 5546SOL    HW217538   0.467   5.782   4.285
 5547SOL     OW17539   5.571   1.557   5.149
 5547SOL    HW117540   5.558   1.615   5.229
 5547SOL    HW217541   5.482   1.534   5.109
 5548SOL     OW17542   0.582   3.359   5.243
 5548SOL    HW117543   0.549   3.447   5.278
 5548SOL    HW217544   0.511   3.290   5.255
 5549SOL     OW17545   3.848   2.660   0.791
 5549SOL    HW117546   3.922   2.707   0.840
 5549SOL    HW217547   3.867   2.664   0.692
 5550SOL     OW17548   2.453   3.922   1.442
 5550SOL    HW117549   2.420   4.016   1.435
 5550SOL    HW217550   2.550   3.919   1.420
 5551SOL     OW17551   1.745   4.558   2.555
 5551SOL    HW117552   1.835   4.594   2.531
 5551SOL    HW217553   1.681   4.576   2.481
 5552SOL     OW17554   0.863   0.382   0.272
 5552SOL    HW117555   0.870   0.289   0.307
 5552SOL    HW217556   0.793   0.386   0.200
 5553SOL     OW17557   5.333   0.040   0.001
 5553SOL    HW117558   5.292   0.130   0.019
 5553SOL    HW217559   5.312   7.002   0.077
 5554SOL     OW17560   6.698   2.519   1.471
 5554SOL    HW117561   6.619   2.544   1.414
 5554SOL    HW217562   6.672   2.446   1.534
 5555SOL     OW17563   1.869   5.256   2.416
 5555SOL    HW117564   1.836   5.166   2.445
 5555SOL    HW217565   1.965   5.267   2.443
 5556SOL     OW17566   0.050   1.301   4.889
 5556SOL    HW117567   0.120   1.370   4.868
 5556SOL    HW217568   0.074   1.214   4.845
 5557SOL     OW17569   3.639   6.399   2.941
 5557SOL    HW117570   3.593   6.395   2.852
 5557SOL    HW217571   3.598   6.332   3.003
 5558SOL     OW17572   4.453   3.312   6.271
 5558SOL    HW117573   4.395   3.282   6.196
 5558SOL    HW217574   4.421   3.273   6.357
 5559SOL     OW17575   3.743   0.461   2.753
 5559SOL    HW117576   3.744   0.392   2.681
 5559SOL    HW217577   3.678   0.435   2.824
 5560SOL     OW17578   0.054   5.972   3.575
 5560SOL    HW117579   0.011   5.916   3.504
 5560SOL    HW217580   0.079   5.914   3.653
 5561SOL     OW17581   3.327   0.525   3.583
 5561SOL    HW117582   3.366   0.486   3.500
 5561SOL    HW217583   3.388   0.510   3.660
 5562SOL     OW17584   4.089   3.285   0.479
 5562SOL    HW117585   4.126   3.362   0.532
 5562SOL    HW217586   3.989   3.289   0.480
 5563SOL     OW17587   2.314   5.091   2.328
 5563SOL    HW117588   2.271   5.107   2.238
 5563SOL    HW217589   2.405   5.052   2.315
 5564SOL     OW17590   4.756   0.349   6.128
 5564SOL    HW117591   4.755   0.262   6.079
 5564SOL    HW217592   4.839   0.354   6.184
 5565SOL     OW17593   3.853   1.054   6.077
 5565SOL    HW117594   3.897   1.022   6.161
 5565SOL    HW217595   3.787   1.126   6.100
 5566SOL     OW17596   1.277   5.458   5.484
 5566SOL    HW117597   1.267   5.555   5.464
 5566SOL    HW217598   1.223   5.404   5.419
 5567SOL     OW17599   0.591   4.982   6.775
 5567SOL    HW117600   0.640   5.047   6.717
 5567SOL    HW217601   0.649   4.903   6.793
 5568SOL     OW17602   4.692   5.252   1.691
 5568SOL    HW117603   4.668   5.349   1.691
 5568SOL    HW217604   4.701   5.220   1.597
 5569SOL     OW17605   2.172   2.119   2.524
 5569SOL    HW117606   2.262   2.076   2.527
 5569SOL    HW217607   2.162   2.170   2.438
 5570SOL     OW17608   6.551   3.925   1.274
 5570SOL    HW117609   6.465   3.874   1.261
 5570SOL    HW217610   6.587   3.906   1.365
 5571SOL     OW17611   6.660   4.510   0.858
 5571SOL    HW117612   6.760   4.510   0.865
 5571SOL    HW217613   6.624   4.597   0.891
 5572SOL     OW17614   1.316   4.364   4.998
 5572SOL    HW117615   1.294   4.311   5.079
 5572SOL    HW217616   1.278   4.456   5.006
 5573SOL     OW17617   3.549   5.250   3.825
 5573SOL    HW117618   3.508   5.181   3.884
 5573SOL    HW217619   3.627   5.293   3.873
 5574SOL     OW17620   1.030   1.766   6.021
 5574SOL    HW117621   1.037   1.720   6.109
 5574SOL    HW217622   0.934   1.787   6.002
 5575SOL     OW17623   6.774   0.737   1.920
 5575SOL    HW117624   6.873   0.732   1.929
 5575SOL    HW217625   6.734   0.647   1.935
 5576SOL     OW17626   1.628   4.935   3.585
 5576SOL    HW117627   1.581   4.856   3.625
 5576SOL    HW217628   1.688   4.903   3.512
 5577SOL     OW17629   2.302   2.713   5.990
 5577SOL    HW117630   2.332   2.701   6.085
 5577SOL    HW217631   2.323   2.806   5.960
 5578SOL     OW17632   4.072   3.870   4.238
 5578SOL    HW117633   4.102   3.813   4.161
 5578SOL    HW217634   4.141   3.939   4.257
 5579SOL     OW17635   5.902   3.140   1.669
 5579SOL    HW117636   5.816   3.177   1.705
 5579SOL    HW217637   5.954   3.214   1.626
 5580SOL     OW17638   5.317   1.920   5.540
 5580SOL    HW117639   5.416   1.907   5.543
 5580SOL    HW217640   5.271   1.835   5.567
 5581SOL     OW17641   1.417   1.469   6.804
 5581SOL    HW117642   1.463   1.522   6.732
 5581SOL    HW217643   1.437   1.510   6.893
 5582SOL     OW17644   3.171   2.238   6.154
 5582SOL    HW117645   3.225   2.229   6.070
 5582SOL    HW217646   3.113   2.157   6.166
 5583SOL     OW17647   6.216   0.050   0.508
 5583SOL    HW117648   6.221   6.975   0.527
 5583SOL    HW217649   6.306   0.082   0.477
 5584SOL     OW17650   1.869   3.174   4.612
 5584SOL    HW117651   1.837   3.200   4.521
 5584SOL    HW217652   1.953   3.223   4.634
 5585SOL     OW17653   5.728   4.959   1.283
 5585SOL    HW117654   5.660   5.025   1.315
 5585SOL    HW217655   5.812   4.969   1.337
 5586SOL     OW17656   1.021   5.369   1.229
 5586SOL    HW117657   1.110   5.345   1.191
 5586SOL    HW217658   0.955   5.297   1.206
 5587SOL     OW17659   6.269   0.672   5.485
 5587SOL    HW117660   6.171   0.670   5.505
 5587SOL    HW217661   6.308   0.582   5.502
 5588SOL     OW17662   3.646   6.966   0.564
 5588SOL    HW117663   3.600   6.948   0.651
 5588SOL    HW217664   3.694   0.031   0.570
 5589SOL     OW17665   6.867   4.390   6.056
 5589SOL    HW117666   6.951   4.354   6.096
 5589SOL    HW217667   6.862   4.489   6.072
 5590SOL     OW17668   6.201   5.400   3.480
 5590SOL    HW117669   6.248   5.404   3.392
 5590SOL    HW217670   6.225   5.316   3.528
 5591SOL     OW17671   5.028   1.532   2.001
 5591SOL    HW117672   5.039   1.465   2.074
 5591SOL    HW217673   5.074   1.499   1.919
 5592SOL     OW17674   0.143   5.133   3.710
 5592SOL    HW117675   0.101   5.042   3.722
 5592SOL    HW217676   0.071   5.201   3.699
 5593SOL     OW17677   0.850   4.221   0.993
 5593SOL    HW117678   0.761   4.221   0.949
 5593SOL    HW217679   0.915   4.169   0.937
 5594SOL     OW17680   5.987   1.463   5.886
 5594SOL    HW117681   5.950   1.394   5.822
 5594SOL    HW217682   5.911   1.512   5.928
 5595SOL     OW17683   0.589   2.228   0.723
 5595SOL    HW117684   0.499   2.188   0.739
 5595SOL    HW217685   0.633   2.180   0.647
 5596SOL     OW17686   3.511   6.158   3.345
 5596SOL    HW117687   3.481   6.189   3.254
 5596SOL    HW217688   3.518   6.237   3.406
 5597SOL     OW17689   5.127   3.150   1.506
 5597SOL    HW117690   5.040   3.162   1.459
 5597SOL    HW217691   5.111   3.108   1.595
 5598SOL     OW17692   4.419   0.880   4.665
 5598SOL    HW117693   4.417   0.782   4.686
 5598SOL    HW217694   4.410   0.892   4.566
 5599SOL     OW17695   0.654   1.264   3.459
 5599SOL    HW117696   0.609   1.294   3.543
 5599SOL    HW217697   0.733   1.322   3.440
 5600SOL     OW17698   2.570   2.685   5.333
 5600SOL    HW117699   2.495   2.660   5.272
 5600SOL    HW217700   2.629   2.751   5.287
 5601SOL     OW17701   2.529   0.719   6.226
 5601SOL    HW117702   2.506   0.791   6.292
 5601SOL    HW217703   2.577   0.645   6.273
 5602SOL     OW17704   1.852   0.841   6.800
 5602SOL    HW117705   1.842   0.742   6.810
 5602SOL    HW217706   1.801   0.887   6.873
 5603SOL     OW17707   6.434   4.151   5.312
 5603SOL    HW117708   6.350   4.170   5.262
 5603SOL    HW217709   6.437   4.207   5.395
 5604SOL     OW17710   5.266   0.891   6.018
 5604SOL    HW117711   5.289   0.810   6.072
 5604SOL    HW217712   5.313   0.971   6.057
 5605SOL     OW17713   0.533   2.032   6.743
 5605SOL    HW117714   0.600   2.027   6.668
 5605SOL    HW217715   0.521   1.942   6.783
 5606SOL     OW17716   5.387   0.291   3.041
 5606SOL    HW117717   5.455   0.243   2.985
 5606SOL    HW217718   5.417   0.385   3.056
 5607SOL     OW17719   5.584   0.403   1.044
 5607SOL    HW117720   5.524   0.325   1.030
 5607SOL    HW217721   5.617   0.437   0.956
 5608SOL     OW17722   3.756   6.422   4.986
 5608SOL    HW117723   3.776   6.443   4.890
 5608SOL    HW217724   3.811   6.482   5.045
 5609SOL     OW17725   1.075   5.581   5.867
 5609SOL    HW117726   1.019   5.517   5.814
 5609SOL    HW217727   1.169   5.580   5.831
 5610SOL     OW17728   4.596   0.004   6.596
 5610SOL    HW117729   4.518   6.980   6.554
 5610SOL    HW217730   4.590   0.102   6.575
 5611SOL     OW17731   1.962   4.269   4.346
 5611SOL    HW117732   1.918   4.283   4.434
 5611SOL    HW217733   2.052   4.313   4.346
 5612SOL     OW17734   3.460   6.536   4.749
 5612SOL    HW117735   3.409   6.450   4.760
 5612SOL    HW217736   3.496   6.565   4.837
 5613SOL     OW17737   3.263   5.606   1.664
 5613SOL    HW117738   3.321   5.538   1.619
 5613SOL    HW217739   3.191   5.560   1.716
 5614SOL     OW17740   5.123   1.634   4.482
 5614SOL    HW117741   5.030   1.667   4.503
 5614SOL    HW217742   5.182   1.713   4.462
 5615SOL     OW17743   1.055   1.467   1.736
 5615SOL    HW117744   1.078   1.461   1.639
 5615SOL    HW217745   1.139   1.474   1.790
 5616SOL     OW17746   1.908   6.395   4.911
 5616SOL    HW117747   2.001   6.359   4.902
 5616SOL    HW217748   1.907   6.492   4.884
 5617SOL     OW17749   0.536   0.948   5.815
 5617SOL    HW117750   0.592   0.869   5.791
 5617SOL    HW217751   0.542   1.017   5.742
 5618SOL     OW17752   6.189   5.327   2.637
 5618SOL    HW117753   6.101   5.296   2.601
 5618SOL    HW217754   6.191   5.427   2.640
 5619SOL     OW17755   2.376   3.764   5.317
 5619SOL    HW117756   2.411   3.848   5.275
 5619SOL    HW217757   2.292   3.784   5.367
 5620SOL     OW17758   5.124   2.207   7.014
 5620SOL    HW117759   5.165   2.160   6.935
 5620SOL    HW217760   5.166   2.173   0.075
 5621SOL     OW17761   2.344   1.979   6.477
 5621SOL    HW117762   2.379   1.964   6.384
 5621SOL    HW217763   2.279   1.906   6.500
 5622SOL     OW17764   5.495   0.152   5.214
 5622SOL    HW117765   5.495   0.055   5.238
 5622SOL    HW217766   5.455   0.205   5.289
 5623SOL     OW17767   6.987   6.043   6.805
 5623SOL    HW117768   6.990   6.100   6.888
 5623SOL    HW217769   6.946   6.095   6.731
 5624SOL     OW17770   0.560   4.287   2.014
 5624SOL    HW117771   0.562   4.341   1.930
 5624SOL    HW217772   0.608   4.200   1.999
 5625SOL     OW17773   6.274   1.982   5.759
 5625SOL    HW117774   6.250   1.979   5.856
 5625SOL    HW217775   6.190   1.984   5.705
 5626SOL     OW17776   5.136   6.420   5.088
 5626SOL    HW117777   5.188   6.502   5.064
 5626SOL    HW217778   5.079   6.393   5.010
 5627SOL     OW17779   0.881   0.414   1.113
 5627SOL    HW117780   0.925   0.462   1.038
 5627SOL    HW217781   0.813   0.350   1.077
 5628SOL     OW17782   1.657   1.538   4.285
 5628SOL    HW117783   1.586   1.546   4.356
 5628SOL    HW217784   1.705   1.625   4.275
 5629SOL     OW17785   3.466   2.895   3.556
 5629SOL    HW117786   3.518   2.952   3.493
 5629SOL    HW217787   3.526   2.862   3.629
 5630SOL     OW17788   6.504   4.059   0.904
 5630SOL    HW117789   6.417   4.107   0.897
 5630SOL    HW217790   6.575   4.123   0.933
 5631SOL     OW17791   5.683   0.916   6.229
 5631SOL    HW117792   5.638   0.895   6.315
 5631SOL    HW217793   5.767   0.861   6.221
 5632SOL     OW17794   3.061   2.175   0.512
 5632SOL    HW117795   3.138   2.229   0.546
 5632SOL    HW217796   2.989   2.173   0.582
 5633SOL     OW17797   6.452   2.746   5.551
 5633SOL    HW117798   6.526   2.810   5.531
 5633SOL    HW217799   6.483   2.678   5.617
 5634SOL     OW17800   4.913   6.628   4.681
 5634SOL    HW117801   4.994   6.646   4.625
 5634SOL    HW217802   4.867   6.545   4.648
 5635SOL     OW17803   3.609   1.422   5.975
 5635SOL    HW117804   3.588   1.425   5.877
 5635SOL    HW217805   3.551   1.486   6.024
 5636SOL     OW17806   4.595   6.627   4.426
 5636SOL    HW117807   4.578   6.725   4.432
 5636SOL    HW217808   4.510   6.577   4.444
 5637SOL     OW17809   5.763   0.188   3.482
 5637SOL    HW117810   5.679   0.204   3.430
 5637SOL    HW217811   5.842   0.193   3.420
 5638SOL     OW17812   0.090   3.764   0.374
 5638SOL    HW117813   0.106   3.667   0.356
 5638SOL    HW217814   0.037   3.775   0.458
 5639SOL     OW17815   4.359   6.900   0.082
 5639SOL    HW117816   4.438   6.942   0.126
 5639SOL    HW217817   4.276   6.949   0.109
 5640SOL     OW17818   1.244   0.293   3.183
 5640SOL    HW117819   1.181   0.301   3.260
 5640SOL    HW217820   1.246   0.379   3.132
 5641SOL     OW17821   6.776   5.158   4.653
 5641SOL    HW117822   6.862   5.208   4.662
 5641SOL    HW217823   6.792   5.062   4.672
 5642SOL     OW17824   1.725   1.226   0.215
 5642SOL    HW117825   1.633   1.190   0.198
 5642SOL    HW217826   1.788   1.149   0.227
 5643SOL     OW17827   5.320   2.050   5.980
 5643SOL    HW117828   5.290   2.131   6.031
 5643SOL    HW217829   5.400   2.011   6.025
 5644SOL     OW17830   2.726   0.574   6.003
 5644SOL    HW117831   2.689   0.482   6.014
 5644SOL    HW217832   2.741   0.614   6.093
 5645SOL     OW17833   6.034   3.553   4.306
 5645SOL    HW117834   6.101   3.593   4.368
 5645SOL    HW217835   5.943   3.561   4.345
 5646SOL     OW17836   0.410   4.191   2.729
 5646SOL    HW117837   0.503   4.217   2.704
 5646SOL    HW217838   0.347   4.213   2.654
 5647SOL     OW17839   5.394   5.814   2.752
 5647SOL    HW117840   5.399   5.898   2.805
 5647SOL    HW217841   5.450   5.823   2.669
 5648SOL     OW17842   5.292   6.045   3.337
 5648SOL    HW117843   5.236   6.121   3.370
 5648SOL    HW217844   5.308   6.055   3.239
 5649SOL     OW17845   0.567   0.189   4.672
 5649SOL    HW117846   0.583   0.183   4.573
 5649SOL    HW217847   0.653   0.169   4.720
 5650SOL     OW17848   0.354   3.666   6.049
 5650SOL    HW117849   0.408   3.723   5.986
 5650SOL    HW217850   0.293   3.607   5.996
 5651SOL     OW17851   2.871   1.010   0.622
 5651SOL    HW117852   2.778   1.021   0.658
 5651SOL    HW217853   2.890   1.081   0.555
 5652SOL     OW17854   0.657   5.527   2.919
 5652SOL    HW117855   0.653   5.626   2.933
 5652SOL    HW217856   0.640   5.505   2.823
 5653SOL     OW17857   6.766   0.313   2.923
 5653SOL    HW117858   6.691   0.253   2.895
 5653SOL    HW217859   6.802   0.283   3.011
 5654SOL     OW17860   3.333   5.951   5.585
 5654SOL    HW117861   3.264   5.956   5.512
 5654SOL    HW217862   3.370   6.042   5.602
 5655SOL     OW17863   5.481   3.231   4.118
 5655SOL    HW117864   5.476   3.146   4.171
 5655SOL    HW217865   5.462   3.212   4.022
 5656SOL     OW17866   0.367   3.940   0.614
 5656SOL    HW117867   0.270   3.966   0.607
 5656SOL    HW217868   0.375   3.861   0.676
 5657SOL     OW17869   5.625   6.055   4.935
 5657SOL    HW117870   5.599   5.959   4.938
 5657SOL    HW217871   5.694   6.069   4.864
 5658SOL     OW17872   2.635   2.587   6.237
 5658SOL    HW117873   2.657   2.685   6.235
 5658SOL    HW217874   2.603   2.558   6.147
 5659SOL     OW17875   2.521   4.416   6.848
 5659SOL    HW117876   2.548   4.499   6.897
 5659SOL    HW217877   2.572   4.338   6.885
 5660SOL     OW17878   3.729   0.094   4.787
 5660SOL    HW117879   3.730   0.080   4.688
 5660SOL    HW217880   3.809   0.147   4.815
 5661SOL     OW17881   0.936   5.949   6.424
 5661SOL    HW117882   0.840   5.925   6.440
 5661SOL    HW217883   0.941   6.043   6.390
 5662SOL     OW17884   2.630   6.576   0.681
 5662SOL    HW117885   2.607   6.647   0.615
 5662SOL    HW217886   2.607   6.486   0.643
 5663SOL     OW17887   2.376   2.705   6.246
 5663SOL    HW117888   2.377   2.788   6.301
 5663SOL    HW217889   2.447   2.643   6.279
 5664SOL     OW17890   4.874   4.793   4.364
 5664SOL    HW117891   4.894   4.696   4.370
 5664SOL    HW217892   4.844   4.826   4.454
 5665SOL     OW17893   1.608   1.333   0.765
 5665SOL    HW117894   1.588   1.428   0.739
 5665SOL    HW217895   1.558   1.310   0.848
 5666SOL     OW17896   5.667   2.929   5.025
 5666SOL    HW117897   5.638   2.853   4.967
 5666SOL    HW217898   5.729   2.894   5.096
 5667SOL     OW17899   3.198   4.894   4.170
 5667SOL    HW117900   3.128   4.840   4.124
 5667SOL    HW217901   3.174   4.907   4.266
 5668SOL     OW17902   4.318   4.739   3.954
 5668SOL    HW117903   4.342   4.643   3.965
 5668SOL    HW217904   4.288   4.755   3.860
 5669SOL     OW17905   5.624   4.235   5.820
 5669SOL    HW117906   5.675   4.211   5.903
 5669SOL    HW217907   5.616   4.335   5.814
 5670SOL     OW17908   1.269   2.808   4.364
 5670SOL    HW117909   1.342   2.852   4.313
 5670SOL    HW217910   1.235   2.870   4.435
 5671SOL     OW17911   6.681   5.815   3.010
 5671SOL    HW117912   6.611   5.745   3.021
 5671SOL    HW217913   6.751   5.784   2.946
 5672SOL     OW17914   5.294   3.329   4.426
 5672SOL    HW117915   5.227   3.304   4.356
 5672SOL    HW217916   5.384   3.293   4.401
 5673SOL     OW17917   0.591   2.484   0.412
 5673SOL    HW117918   0.608   2.559   0.349
 5673SOL    HW217919   0.678   2.444   0.442
 5674SOL     OW17920   2.809   5.384   5.205
 5674SOL    HW117921   2.866   5.429   5.274
 5674SOL    HW217922   2.747   5.450   5.163
 5675SOL     OW17923   3.268   2.032   1.011
 5675SOL    HW117924   3.181   2.026   1.059
 5675SOL    HW217925   3.275   1.956   0.945
 5676SOL     OW17926   3.938   1.560   1.737
 5676SOL    HW117927   3.895   1.470   1.736
 5676SOL    HW217928   3.877   1.627   1.697
 5677SOL     OW17929   0.746   1.732   5.955
 5677SOL    HW117930   0.668   1.778   5.999
 5677SOL    HW217931   0.728   1.723   5.857
 5678SOL     OW17932   3.991   1.900   2.209
 5678SOL    HW117933   3.929   1.915   2.132
 5678SOL    HW217934   3.968   1.963   2.283
 5679SOL     OW17935   0.000   3.549   5.468
 5679SOL    HW117936   0.030   3.479   5.402
 5679SOL    HW217937   6.970   3.618   5.420
 5680SOL     OW17938   0.533   5.568   4.856
 5680SOL    HW117939   0.475   5.639   4.817
 5680SOL    HW217940   0.539   5.491   4.793
 5681SOL     OW17941   1.224   3.494   3.157
 5681SOL    HW117942   1.294   3.488   3.228
 5681SOL    HW217943   1.256   3.555   3.084
 5682SOL     OW17944   1.781   4.658   1.045
 5682SOL    HW117945   1.692   4.617   1.024
 5682SOL    HW217946   1.853   4.593   1.023
 5683SOL     OW17947   0.034   0.190   5.688
 5683SOL    HW117948   0.088   0.115   5.725
 5683SOL    HW217949   7.021   0.165   5.598
 5684SOL     OW17950   2.025   2.702   4.963
 5684SOL    HW117951   1.968   2.624   4.937
 5684SOL    HW217952   1.967   2.778   4.993
 5685SOL     OW17953   2.243   1.744   1.851
 5685SOL    HW117954   2.268   1.773   1.759
 5685SOL    HW217955   2.305   1.671   1.881
 5686SOL     OW17956   5.501   6.257   5.655
 5686SOL    HW117957   5.491   6.356   5.646
 5686SOL    HW217958   5.557   6.236   5.735
 5687SOL     OW17959   1.789   6.782   6.327
 5687SOL    HW117960   1.773   6.797   6.230
 5687SOL    HW217961   1.862   6.714   6.339
 5688SOL     OW17962   1.610   1.990   3.277
 5688SOL    HW117963   1.616   2.083   3.241
 5688SOL    HW217964   1.701   1.948   3.275
 5689SOL     OW17965   0.151   2.495   1.103
 5689SOL    HW117966   0.078   2.564   1.108
 5689SOL    HW217967   0.111   2.404   1.108
 5690SOL     OW17968   2.998   5.361   0.038
 5690SOL    HW117969   3.081   5.385   0.088
 5690SOL    HW217970   2.926   5.428   0.058
 5691SOL     OW17971   4.494   2.483   3.440
 5691SOL    HW117972   4.555   2.461   3.516
 5691SOL    HW217973   4.422   2.415   3.434
 5692SOL     OW17974   6.259   5.202   1.556
 5692SOL    HW117975   6.254   5.224   1.459
 5692SOL    HW217976   6.169   5.173   1.589
 5693SOL     OW17977   3.423   0.560   2.500
 5693SOL    HW117978   3.492   0.495   2.467
 5693SOL    HW217979   3.367   0.516   2.570
 5694SOL     OW17980   0.444   0.267   1.178
 5694SOL    HW117981   0.366   0.205   1.185
 5694SOL    HW217982   0.527   0.215   1.160
 5695SOL     OW17983   2.118   1.226   2.035
 5695SOL    HW117984   2.143   1.161   2.106
 5695SOL    HW217985   2.046   1.286   2.069
 5696SOL     OW17986   0.292   6.789   3.653
 5696SOL    HW117987   0.237   6.760   3.575
 5696SOL    HW217988   0.239   6.778   3.737
 5697SOL     OW17989   6.201   1.519   0.400
 5697SOL    HW117990   6.291   1.530   0.358
 5697SOL    HW217991   6.212   1.509   0.499
 5698SOL     OW17992   3.093   2.083   3.677
 5698SOL    HW117993   3.192   2.099   3.680
 5698SOL    HW217994   3.072   1.997   3.723
 5699SOL     OW17995   2.396   2.740   2.403
 5699SOL    HW117996   2.331   2.816   2.394
 5699SOL    HW217997   2.474   2.756   2.342
 5700SOL     OW17998   5.555   0.188   2.843
 5700SOL    HW117999   5.643   0.142   2.853
 5700SOL    HW218000   5.561   0.257   2.772
 5701SOL     OW18001   1.608   0.451   0.836
 5701SOL    HW118002   1.573   0.531   0.886
 5701SOL    HW218003   1.683   0.410   0.888
 5702SOL     OW18004   1.311   6.229   4.982
 5702SOL    HW118005   1.345   6.205   4.891
 5702SOL    HW218006   1.211   6.239   4.978
 5703SOL     OW18007   0.684   2.808   6.282
 5703SOL    HW118008   0.605   2.869   6.277
 5703SOL    HW218009   0.743   2.836   6.358
 5704SOL     OW18010   4.267   5.624   4.141
 5704SOL    HW118011   4.259   5.648   4.237
 5704SOL    HW218012   4.307   5.533   4.132
 5705SOL     OW18013   5.873   0.816   5.242
 5705SOL    HW118014   5.892   0.718   5.251
 5705SOL    HW218015   5.901   0.847   5.151
 5706SOL     OW18016   5.509   1.904   1.125
 5706SOL    HW118017   5.435   1.855   1.078
 5706SOL    HW218018   5.542   1.849   1.201
 5707SOL     OW18019   5.906   5.244   1.042
 5707SOL    HW118020   5.915   5.159   0.990
 5707SOL    HW218021   5.945   5.231   1.134
 5708SOL     OW18022   5.499   6.486   1.881
 5708SOL    HW118023   5.492   6.403   1.935
 5708SOL    HW218024   5.497   6.566   1.941
 5709SOL     OW18025   0.276   2.987   2.403
 5709SOL    HW118026   0.362   2.944   2.378
 5709SOL    HW218027   0.248   2.957   2.494
 5710SOL     OW18028   5.001   1.620   1.120
 5710SOL    HW118029   5.007   1.720   1.112
 5710SOL    HW218030   5.015   1.594   1.216
 5711SOL     OW18031   4.542   1.799   2.054
 5711SOL    HW118032   4.482   1.872   2.086
 5711SOL    HW218033   4.539   1.795   1.954
 5712SOL     OW18034   6.395   6.207   6.802
 5712SOL    HW118035   6.416   6.300   6.834
 5712SOL    HW218036   6.390   6.207   6.702
 5713SOL     OW18037   1.292   1.444   0.822
 5713SOL    HW118038   1.366   1.433   0.755
 5713SOL    HW218039   1.317   1.397   0.907
 5714SOL     OW18040   5.973   0.604   0.960
 5714SOL    HW118041   5.988   0.511   0.924
 5714SOL    HW218042   5.916   0.655   0.896
 5715SOL     OW18043   0.054   6.732   1.028
 5715SOL    HW118044   0.123   6.689   1.087
 5715SOL    HW218045   0.067   6.831   1.028
 5716SOL     OW18046   0.955   4.683   5.222
 5716SOL    HW118047   0.888   4.752   5.248
 5716SOL    HW218048   0.912   4.616   5.161
 5717SOL     OW18049   0.304   5.437   3.467
 5717SOL    HW118050   0.326   5.344   3.440
 5717SOL    HW218051   0.267   5.437   3.560
 5718SOL     OW18052   1.191   4.188   0.188
 5718SOL    HW118053   1.225   4.218   0.099
 5718SOL    HW218054   1.162   4.093   0.182
 5719SOL     OW18055   2.930   3.105   0.488
 5719SOL    HW118056   2.970   3.189   0.450
 5719SOL    HW218057   2.832   3.105   0.473
 5720SOL     OW18058   2.930   5.137   6.476
 5720SOL    HW118059   2.858   5.148   6.545
 5720SOL    HW218060   2.925   5.214   6.412
 5721SOL     OW18061   1.512   2.841   0.847
 5721SOL    HW118062   1.468   2.805   0.929
 5721SOL    HW218063   1.508   2.773   0.775
 5722SOL     OW18064   1.444   0.397   5.774
 5722SOL    HW118065   1.391   0.410   5.689
 5722SOL    HW218066   1.515   0.467   5.780
 5723SOL     OW18067   4.080   3.401   0.230
 5723SOL    HW118068   3.982   3.421   0.232
 5723SOL    HW218069   4.108   3.359   0.317
 5724SOL     OW18070   5.840   1.881   5.837
 5724SOL    HW118071   5.914   1.930   5.884
 5724SOL    HW218072   5.820   1.796   5.886
 5725SOL     OW18073   6.849   4.333   4.796
 5725SOL    HW118074   6.878   4.241   4.821
 5725SOL    HW218075   6.878   4.398   4.867
 5726SOL     OW18076   4.495   4.457   2.228
 5726SOL    HW118077   4.490   4.399   2.147
 5726SOL    HW218078   4.567   4.525   2.217
 5727SOL     OW18079   1.237   3.071   6.012
 5727SOL    HW118080   1.162   3.132   6.036
 5727SOL    HW218081   1.322   3.105   6.053
 5728SOL     OW18082   2.857   6.870   4.854
 5728SOL    HW118083   2.838   6.902   4.761
 5728SOL    HW218084   2.807   6.784   4.871
 5729SOL     OW18085   2.561   1.878   4.768
 5729SOL    HW118086   2.509   1.914   4.691
 5729SOL    HW218087   2.658   1.896   4.755
 5730SOL     OW18088   6.315   4.410   4.987
 5730SOL    HW118089   6.280   4.485   5.042
 5730SOL    HW218090   6.414   4.404   4.999
 5731SOL     OW18091   0.917   6.642   2.288
 5731SOL    HW118092   0.922   6.729   2.239
 5731SOL    HW218093   0.904   6.568   2.223
 5732SOL     OW18094   5.405   0.189   3.686
 5732SOL    HW118095   5.323   0.143   3.653
 5732SOL    HW218096   5.417   0.276   3.638
 5733SOL     OW18097   2.840   1.088   5.004
 5733SOL    HW118098   2.916   1.135   5.048
 5733SOL    HW218099   2.873   1.035   4.926
 5734SOL     OW18100   1.585   6.773   3.801
 5734SOL    HW118101   1.590   6.846   3.869
 5734SOL    HW218102   1.539   6.807   3.719
 5735SOL     OW18103   3.015   1.013   1.183
 5735SOL    HW118104   3.089   0.963   1.228
 5735SOL    HW218105   2.939   0.951   1.164
 5736SOL     OW18106   1.916   4.937   0.661
 5736SOL    HW118107   1.971   4.891   0.591
 5736SOL    HW218108   1.880   4.869   0.725
 5737SOL     OW18109   5.969   4.048   0.073
 5737SOL    HW118110   6.020   4.043   0.158
 5737SOL    HW218111   6.031   4.034   7.019
 5738SOL     OW18112   0.348   5.202   4.156
 5738SOL    HW118113   0.417   5.129   4.160
 5738SOL    HW218114   0.392   5.290   4.176
 5739SOL     OW18115   0.766   3.001   1.186
 5739SOL    HW118116   0.689   3.055   1.153
 5739SOL    HW218117   0.796   2.938   1.114
 5740SOL     OW18118   4.374   4.950   6.975
 5740SOL    HW118119   4.355   4.965   0.049
 5740SOL    HW218120   4.471   4.968   6.957
 5741SOL     OW18121   0.513   2.935   2.192
 5741SOL    HW118122   0.472   2.988   2.119
 5741SOL    HW218123   0.499   2.837   2.175
 5742SOL     OW18124   0.558   5.296   3.823
 5742SOL    HW118125   0.480   5.348   3.857
 5742SOL    HW218126   0.582   5.328   3.731
 5743SOL     OW18127   1.017   6.518   5.586
 5743SOL    HW118128   0.987   6.489   5.677
 5743SOL    HW218129   1.019   6.439   5.525
 5744SOL     OW18130   6.369   0.438   1.987
 5744SOL    HW118131   6.325   0.454   1.899
 5744SOL    HW218132   6.325   0.494   2.057
 5745SOL     OW18133   6.970   3.334   2.931
 5745SOL    HW118134   0.020   3.396   2.958
 5745SOL    HW218135   6.920   3.373   2.855
 5746SOL     OW18136   6.711   4.438   6.403
 5746SOL    HW118137   6.789   4.381   6.428
 5746SOL    HW218138   6.675   4.409   6.315
 5747SOL     OW18139   0.097   6.283   3.692
 5747SOL    HW118140   0.058   6.192   3.678
 5747SOL    HW218141   0.026   6.344   3.727
 5748SOL     OW18142   1.693   0.519   4.010
 5748SOL    HW118143   1.663   0.446   3.949
 5748SOL    HW218144   1.635   0.521   4.091
 5749SOL     OW18145   0.801   1.066   3.046
 5749SOL    HW118146   0.881   1.125   3.040
 5749SOL    HW218147   0.818   0.981   2.995
 5750SOL     OW18148   5.914   6.786   2.178
 5750SOL    HW118149   5.950   6.695   2.199
 5750SOL    HW218150   5.939   6.849   2.251
 5751SOL     OW18151   0.886   2.578   6.490
 5751SOL    HW118152   0.908   2.675   6.487
 5751SOL    HW218153   0.970   2.525   6.498
 5752SOL     OW18154   1.444   1.198   6.823
 5752SOL    HW118155   1.387   1.151   6.890
 5752SOL    HW218156   1.429   1.297   6.831
 5753SOL     OW18157   4.855   1.179   0.122
 5753SOL    HW118158   4.816   1.271   0.129
 5753SOL    HW218159   4.947   1.185   0.082
 5754SOL     OW18160   6.209   5.735   0.823
 5754SOL    HW118161   6.175   5.642   0.835
 5754SOL    HW218162   6.208   5.759   0.725
 5755SOL     OW18163   3.327   3.819   1.549
 5755SOL    HW118164   3.368   3.732   1.523
 5755SOL    HW218165   3.383   3.863   1.618
 5756SOL     OW18166   6.453   7.005   4.117
 5756SOL    HW118167   6.381   0.044   4.087
 5756SOL    HW218168   6.446   6.989   4.215
 5757SOL     OW18169   6.415   6.080   1.802
 5757SOL    HW118170   6.468   6.145   1.747
 5757SOL    HW218171   6.403   6.115   1.894
 5758SOL     OW18172   2.712   0.878   5.686
 5758SOL    HW118173   2.701   0.977   5.686
 5758SOL    HW218174   2.790   0.853   5.630
 5759SOL     OW18175   0.728   0.927   6.044
 5759SOL    HW118176   0.677   0.892   6.123
 5759SOL    HW218177   0.665   0.942   5.968
 5760SOL     OW18178   0.005   5.664   1.249
 5760SOL    HW118179   0.075   5.720   1.292
 5760SOL    HW218180   6.950   5.722   1.225
 5761SOL     OW18181   4.035   0.790   4.222
 5761SOL    HW118182   3.938   0.810   4.208
 5761SOL    HW218183   4.058   0.704   4.175
 5762SOL     OW18184   4.836   6.439   1.309
 5762SOL    HW118185   4.928   6.431   1.271
 5762SOL    HW218186   4.837   6.502   1.387
 5763SOL     OW18187   3.520   0.847   0.409
 5763SOL    HW118188   3.423   0.846   0.383
 5763SOL    HW218189   3.576   0.820   0.331
 5764SOL     OW18190   3.731   2.995   6.416
 5764SOL    HW118191   3.744   2.990   6.515
 5764SOL    HW218192   3.820   2.995   6.371
 5765SOL     OW18193   6.445   5.515   6.494
 5765SOL    HW118194   6.509   5.458   6.443
 5765SOL    HW218195   6.482   5.607   6.504
 5766SOL     OW18196   2.299   1.437   2.926
 5766SOL    HW118197   2.223   1.479   2.976
 5766SOL    HW218198   2.310   1.342   2.956
 5767SOL     OW18199   5.240   6.234   6.888
 5767SOL    HW118200   5.247   6.136   6.903
 5767SOL    HW218201   5.273   6.256   6.796
 5768SOL     OW18202   6.531   6.598   2.205
 5768SOL    HW118203   6.548   6.526   2.137
 5768SOL    HW218204   6.467   6.665   2.167
 5769SOL     OW18205   0.394   4.018   3.172
 5769SOL    HW118206   0.319   4.005   3.108
 5769SOL    HW218207   0.392   4.112   3.207
 5770SOL     OW18208   5.145   2.207   1.839
 5770SOL    HW118209   5.059   2.192   1.888
 5770SOL    HW218210   5.197   2.122   1.834
 5771SOL     OW18211   0.956   0.901   1.885
 5771SOL    HW118212   0.928   0.920   1.792
 5771SOL    HW218213   0.880   0.860   1.935
 5772SOL     OW18214   6.451   5.551   5.605
 5772SOL    HW118215   6.456   5.521   5.701
 5772SOL    HW218216   6.359   5.534   5.570
 5773SOL     OW18217   5.154   5.949   4.566
 5773SOL    HW118218   5.187   6.036   4.530
 5773SOL    HW218219   5.099   5.965   4.648
 5774SOL     OW18220   1.745   5.339   2.198
 5774SOL    HW118221   1.668   5.277   2.179
 5774SOL    HW218222   1.784   5.316   2.288
 5775SOL     OW18223   0.970   0.834   0.742
 5775SOL    HW118224   1.034   0.888   0.796
 5775SOL    HW218225   0.971   0.866   0.648
 5776SOL     OW18226   5.020   0.959   5.950
 5776SOL    HW118227   5.107   0.930   5.992
 5776SOL    HW218228   4.954   0.981   6.022
 5777SOL     OW18229   5.892   6.420   4.480
 5777SOL    HW118230   5.911   6.355   4.554
 5777SOL    HW218231   5.972   6.478   4.466
 5778SOL     OW18232   2.868   0.076   4.076
 5778SOL    HW118233   2.886   0.093   3.979
 5778SOL    HW218234   2.896   0.156   4.130
 5779SOL     OW18235   4.154   0.361   2.010
 5779SOL    HW118236   4.226   0.430   1.996
 5779SOL    HW218237   4.092   0.392   2.082
 5780SOL     OW18238   6.511   4.740   0.676
 5780SOL    HW118239   6.610   4.732   0.664
 5780SOL    HW218240   6.466   4.735   0.587
 5781SOL     OW18241   3.889   4.055   5.466
 5781SOL    HW118242   3.869   4.137   5.412
 5781SOL    HW218243   3.982   4.062   5.503
 5782SOL     OW18244   4.898   2.095   2.969
 5782SOL    HW118245   4.810   2.141   2.956
 5782SOL    HW218246   4.888   1.997   2.954
 5783SOL     OW18247   3.539   6.170   3.055
 5783SOL    HW118248   3.589   6.122   2.983
 5783SOL    HW218249   3.446   6.134   3.061
 5784SOL     OW18250   1.228   6.290   1.192
 5784SOL    HW118251   1.233   6.250   1.100
 5784SOL    HW218252   1.321   6.299   1.229
 5785SOL     OW18253   2.268   1.564   6.502
 5785SOL    HW118254   2.328   1.514   6.565
 5785SOL    HW218255   2.250   1.655   6.539
 5786SOL     OW18256   2.191   1.485   7.008
 5786SOL    HW118257   2.152   1.577   7.013
 5786SOL    HW218258   2.160   1.441   6.924
 5787SOL     OW18259   0.808   2.076   5.521
 5787SOL    HW118260   0.824   2.054   5.618
 5787SOL    HW218261   0.838   2.000   5.464
 5788SOL     OW18262   0.565   2.425   2.139
 5788SOL    HW118263   0.631   2.496   2.114
 5788SOL    HW218264   0.502   2.462   2.207
 5789SOL     OW18265   2.720   0.198   0.334
 5789SOL    HW118266   2.734   0.115   0.281
 5789SOL    HW218267   2.753   0.184   0.428
 5790SOL     OW18268   6.833   6.273   2.302
 5790SOL    HW118269   6.806   6.181   2.275
 5790SOL    HW218270   6.759   6.337   2.280
 5791SOL     OW18271   4.228   0.837   1.200
 5791SOL    HW118272   4.274   0.882   1.276
 5791SOL    HW218273   4.151   0.783   1.235
 5792SOL     OW18274   4.578   2.458   2.563
 5792SOL    HW118275   4.584   2.515   2.645
 5792SOL    HW218276   4.483   2.457   2.530
 5793SOL     OW18277   4.067   2.174   0.238
 5793SOL    HW118278   4.164   2.199   0.229
 5793SOL    HW218279   4.011   2.251   0.207
 5794SOL     OW18280   3.050   6.589   6.877
 5794SOL    HW118281   2.979   6.574   6.808
 5794SOL    HW218282   3.077   6.502   6.918
 5795SOL     OW18283   1.314   1.090   1.359
 5795SOL    HW118284   1.222   1.083   1.396
 5795SOL    HW218285   1.353   1.179   1.383
 5796SOL     OW18286   4.638   0.597   5.706
 5796SOL    HW118287   4.621   0.499   5.715
 5796SOL    HW218288   4.736   0.615   5.716
 5797SOL     OW18289   6.096   1.810   0.103
 5797SOL    HW118290   6.185   1.764   0.098
 5797SOL    HW218291   6.110   1.907   0.123
 5798SOL     OW18292   1.865   2.448   4.846
 5798SOL    HW118293   1.798   2.374   4.855
 5798SOL    HW218294   1.929   2.427   4.773
 5799SOL     OW18295   3.082   0.464   4.285
 5799SOL    HW118296   3.015   0.422   4.224
 5799SOL    HW218297   3.151   0.396   4.309
 5800SOL     OW18298   1.453   6.277   1.451
 5800SOL    HW118299   1.407   6.363   1.429
 5800SOL    HW218300   1.533   6.266   1.392
 5801SOL     OW18301   1.694   2.285   3.058
 5801SOL    HW118302   1.744   2.200   3.074
 5801SOL    HW218303   1.751   2.348   3.006
 5802SOL     OW18304   0.137   0.165   3.075
 5802SOL    HW118305   0.108   0.113   2.994
 5802SOL    HW218306   0.213   0.118   3.120
 5803SOL     OW18307   0.608   6.502   4.331
 5803SOL    HW118308   0.536   6.463   4.390
 5803SOL    HW218309   0.568   6.573   4.273
 5804SOL     OW18310   6.181   2.077   3.384
 5804SOL    HW118311   6.155   2.172   3.405
 5804SOL    HW218312   6.099   2.019   3.388
 5805SOL     OW18313   0.860   2.617   1.437
 5805SOL    HW118314   0.850   2.517   1.445
 5805SOL    HW218315   0.771   2.658   1.419
 5806SOL     OW18316   6.669   4.389   1.459
 5806SOL    HW118317   6.748   4.359   1.511
 5806SOL    HW218318   6.627   4.310   1.413
 5807SOL     OW18319   0.829   0.952   2.412
 5807SOL    HW118320   0.883   1.006   2.477
 5807SOL    HW218321   0.780   0.881   2.461
 5808SOL     OW18322   6.521   6.181   5.893
 5808SOL    HW118323   6.518   6.271   5.935
 5808SOL    HW218324   6.535   6.191   5.794
 5809SOL     OW18325   6.931   3.607   4.749
 5809SOL    HW118326   6.976   3.528   4.709
 5809SOL    HW218327   6.982   3.638   4.829
 5810SOL     OW18328   0.790   6.695   5.259
 5810SOL    HW118329   0.707   6.714   5.206
 5810SOL    HW218330   0.870   6.729   5.208
 5811SOL     OW18331   3.560   4.978   0.188
 5811SOL    HW118332   3.544   4.880   0.185
 5811SOL    HW218333   3.529   5.020   0.102
 5812SOL     OW18334   6.626   2.367   6.217
 5812SOL    HW118335   6.601   2.291   6.278
 5812SOL    HW218336   6.694   2.425   6.262
 5813SOL     OW18337   6.152   5.469   0.935
 5813SOL    HW118338   6.159   5.385   0.881
 5813SOL    HW218339   6.177   5.450   1.030
 5814SOL     OW18340   5.205   1.823   2.521
 5814SOL    HW118341   5.239   1.775   2.602
 5814SOL    HW218342   5.107   1.841   2.533
 5815SOL     OW18343   6.472   3.922   4.856
 5815SOL    HW118344   6.395   3.867   4.821
 5815SOL    HW218345   6.482   4.004   4.800
 5816SOL     OW18346   0.180   4.607   1.108
 5816SOL    HW118347   0.100   4.649   1.066
 5816SOL    HW218348   0.170   4.507   1.105
 5817SOL     OW18349   5.887   2.693   4.433
 5817SOL    HW118350   5.856   2.741   4.352
 5817SOL    HW218351   5.947   2.752   4.486
 5818SOL     OW18352   2.633   0.466   4.209
 5818SOL    HW118353   2.560   0.398   4.209
 5818SOL    HW218354   2.607   0.543   4.268
 5819SOL     OW18355   4.149   4.086   1.217
 5819SOL    HW118356   4.202   4.023   1.161
 5819SOL    HW218357   4.178   4.180   1.199
 5820SOL     OW18358   0.753   6.223   2.174
 5820SOL    HW118359   0.844   6.254   2.203
 5820SOL    HW218360   0.709   6.295   2.121
 5821SOL     OW18361   5.675   6.249   2.195
 5821SOL    HW118362   5.753   6.310   2.179
 5821SOL    HW218363   5.632   6.226   2.108
 5822SOL     OW18364   0.760   4.267   3.068
 5822SOL    HW118365   0.750   4.189   3.006
 5822SOL    HW218366   0.836   4.324   3.038
 5823SOL     OW18367   2.612   6.742   5.360
 5823SOL    HW118368   2.648   6.649   5.350
 5823SOL    HW218369   2.608   6.766   5.457
 5824SOL     OW18370   2.791   5.560   2.671
 5824SOL    HW118371   2.848   5.641   2.656
 5824SOL    HW218372   2.703   5.572   2.625
 5825SOL     OW18373   3.739   2.119   4.367
 5825SOL    HW118374   3.653   2.109   4.418
 5825SOL    HW218375   3.808   2.058   4.405
 5826SOL     OW18376   1.037   6.199   5.007
 5826SOL    HW118377   0.979   6.278   5.029
 5826SOL    HW218378   0.990   6.115   5.035
 5827SOL     OW18379   2.170   4.161   3.857
 5827SOL    HW118380   2.073   4.169   3.835
 5827SOL    HW218381   2.181   4.159   3.957
 5828SOL     OW18382   4.542   0.397   4.957
 5828SOL    HW118383   4.489   0.478   4.932
 5828SOL    HW218384   4.480   0.322   4.980
 5829SOL     OW18385   1.722   1.187   2.880
 5829SOL    HW118386   1.763   1.278   2.879
 5829SOL    HW218387   1.794   1.118   2.877
 5830SOL     OW18388   4.919   4.997   4.569
 5830SOL    HW118389   5.016   4.982   4.588
 5830SOL    HW218390   4.906   5.092   4.538
 5831SOL     OW18391   2.321   1.873   4.861
 5831SOL    HW118392   2.278   1.920   4.784
 5831SOL    HW218393   2.419   1.864   4.845
 5832SOL     OW18394   2.414   4.961   3.432
 5832SOL    HW118395   2.441   5.056   3.418
 5832SOL    HW218396   2.428   4.909   3.348
 5833SOL     OW18397   2.434   4.633   1.205
 5833SOL    HW118398   2.357   4.569   1.210
 5833SOL    HW218399   2.455   4.668   1.296
 5834SOL     OW18400   5.767   1.616   5.964
 5834SOL    HW118401   5.680   1.634   5.918
 5834SOL    HW218402   5.752   1.605   6.062
 5835SOL     OW18403   3.535   0.998   3.985
 5835SOL    HW118404   3.541   0.943   3.902
 5835SOL    HW218405   3.464   1.067   3.974
 5836SOL     OW18406   5.241   4.832   1.119
 5836SOL    HW118407   5.201   4.924   1.121
 5836SOL    HW218408   5.246   4.796   1.212
 5837SOL     OW18409   2.116   4.129   0.201
 5837SOL    HW118410   2.104   4.132   0.300
 5837SOL    HW218411   2.113   4.221   0.164
 5838SOL     OW18412   2.951   3.409   0.482
 5838SOL    HW118413   2.892   3.397   0.402
 5838SOL    HW218414   3.047   3.403   0.454
 5839SOL     OW18415   2.642   1.111   1.082
 5839SOL    HW118416   2.678   1.018   1.096
 5839SOL    HW218417   2.717   1.172   1.059
 5840SOL     OW18418   6.307   3.618   2.291
 5840SOL    HW118419   6.359   3.552   2.344
 5840SOL    HW218420   6.255   3.677   2.353
 5841SOL     OW18421   5.303   2.594   0.961
 5841SOL    HW118422   5.385   2.647   0.940
 5841SOL    HW218423   5.268   2.551   0.877
 5842SOL     OW18424   3.987   2.203   2.507
 5842SOL    HW118425   4.060   2.199   2.440
 5842SOL    HW218426   4.008   2.272   2.576
 5843SOL     OW18427   3.232   2.314   0.923
 5843SOL    HW118428   3.282   2.228   0.935
 5843SOL    HW218429   3.231   2.338   0.826
 5844SOL     OW18430   6.726   5.500   5.649
 5844SOL    HW118431   6.762   5.592   5.660
 5844SOL    HW218432   6.639   5.504   5.601
 5845SOL     OW18433   2.193   6.269   2.962
 5845SOL    HW118434   2.220   6.294   3.055
 5845SOL    HW218435   2.094   6.253   2.959
 5846SOL     OW18436   0.474   4.364   4.590
 5846SOL    HW118437   0.506   4.450   4.630
 5846SOL    HW218438   0.404   4.324   4.650
 5847SOL     OW18439   1.982   4.060   5.995
 5847SOL    HW118440   2.073   4.039   5.961
 5847SOL    HW218441   1.985   4.073   6.094
 5848SOL     OW18442   3.057   6.525   1.308
 5848SOL    HW118443   2.972   6.533   1.360
 5848SOL    HW218444   3.052   6.448   1.245
 5849SOL     OW18445   3.157   5.902   6.982
 5849SOL    HW118446   3.137   5.812   6.944
 5849SOL    HW218447   3.120   5.908   0.052
 5850SOL     OW18448   5.133   2.216   1.345
 5850SOL    HW118449   5.106   2.132   1.392
 5850SOL    HW218450   5.184   2.274   1.407
 5851SOL     OW18451   1.242   2.964   5.424
 5851SOL    HW118452   1.332   2.923   5.408
 5851SOL    HW218453   1.232   3.046   5.369
 5852SOL     OW18454   4.400   4.917   3.101
 5852SOL    HW118455   4.431   4.823   3.097
 5852SOL    HW218456   4.358   4.936   3.190
 5853SOL     OW18457   4.624   4.609   0.256
 5853SOL    HW118458   4.612   4.512   0.277
 5853SOL    HW218459   4.706   4.644   0.302
 5854SOL     OW18460   2.654   4.562   5.332
 5854SOL    HW118461   2.700   4.586   5.418
 5854SOL    HW218462   2.722   4.540   5.263
 5855SOL     OW18463   1.598   1.696   4.732
 5855SOL    HW118464   1.645   1.736   4.654
 5855SOL    HW218465   1.534   1.762   4.770
 5856SOL     OW18466   0.610   0.412   2.369
 5856SOL    HW118467   0.671   0.432   2.445
 5856SOL    HW218468   0.515   0.419   2.400
 5857SOL     OW18469   6.359   5.300   6.654
 5857SOL    HW118470   6.388   5.381   6.604
 5857SOL    HW218471   6.259   5.299   6.659
 5858SOL     OW18472   2.961   1.645   2.159
 5858SOL    HW118473   2.900   1.584   2.108
 5858SOL    HW218474   3.053   1.641   2.120
 5859SOL     OW18475   5.966   4.914   1.425
 5859SOL    HW118476   5.936   4.877   1.512
 5859SOL    HW218477   6.052   4.870   1.398
 5860SOL     OW18478   1.679   3.207   1.984
 5860SOL    HW118479   1.690   3.214   1.885
 5860SOL    HW218480   1.583   3.184   2.005
 5861SOL     OW18481   5.378   0.053   4.925
 5861SOL    HW118482   5.423   0.141   4.942
 5861SOL    HW218483   5.446   7.009   4.894
 5862SOL     OW18484   6.898   4.675   2.017
 5862SOL    HW118485   6.948   4.739   2.075
 5862SOL    HW218486   6.876   4.720   1.930
 5863SOL     OW18487   4.158   6.548   6.157
 5863SOL    HW118488   4.187   6.588   6.244
 5863SOL    HW218489   4.138   6.621   6.092
 5864SOL     OW18490   3.540   2.888   3.856
 5864SOL    HW118491   3.537   2.849   3.948
 5864SOL    HW218492   3.463   2.951   3.844
 5865SOL     OW18493   6.874   6.445   1.370
 5865SOL    HW118494   6.826   6.457   1.283
 5865SOL    HW218495   6.927   6.527   1.390
 5866SOL     OW18496   3.158   3.301   3.973
 5866SOL    HW118497   3.253   3.295   3.943
 5866SOL    HW218498   3.155   3.317   4.072
 5867SOL     OW18499   4.998   1.119   1.095
 5867SOL    HW118500   4.932   1.097   1.023
 5867SOL    HW218501   4.983   1.060   1.174
 5868SOL     OW18502   1.537   1.006   1.052
 5868SOL    HW118503   1.489   1.046   0.974
 5868SOL    HW218504   1.473   0.948   1.103
 5869SOL     OW18505   1.694   5.264   3.703
 5869SOL    HW118506   1.680   5.197   3.630
 5869SOL    HW218507   1.766   5.328   3.676
 5870SOL     OW18508   3.914   6.378   3.615
 5870SOL    HW118509   3.938   6.476   3.617
 5870SOL    HW218510   3.883   6.353   3.524
 5871SOL     OW18511   3.781   2.941   3.670
 5871SOL    HW118512   3.699   2.916   3.720
 5871SOL    HW218513   3.757   2.967   3.576
 5872SOL     OW18514   3.369   5.690   1.087
 5872SOL    HW118515   3.402   5.779   1.056
 5872SOL    HW218516   3.414   5.618   1.035
 5873SOL     OW18517   4.307   6.802   1.911
 5873SOL    HW118518   4.244   6.850   1.973
 5873SOL    HW218519   4.396   6.847   1.913
 5874SOL     OW18520   0.104   4.038   4.879
 5874SOL    HW118521   0.178   3.972   4.892
 5874SOL    HW218522   0.059   4.022   4.791
 5875SOL     OW18523   4.209   2.567   0.735
 5875SOL    HW118524   4.264   2.635   0.687
 5875SOL    HW218525   4.148   2.522   0.670
 5876SOL     OW18526   3.205   3.214   3.121
 5876SOL    HW118527   3.160   3.236   3.208
 5876SOL    HW218528   3.187   3.119   3.096
 5877SOL     OW18529   4.984   4.019   1.729
 5877SOL    HW118530   4.983   4.118   1.741
 5877SOL    HW218531   5.077   3.989   1.709
 5878SOL     OW18532   0.491   3.631   1.655
 5878SOL    HW118533   0.517   3.716   1.611
 5878SOL    HW218534   0.510   3.637   1.753
 5879SOL     OW18535   1.865   4.523   4.887
 5879SOL    HW118536   1.793   4.590   4.904
 5879SOL    HW218537   1.844   4.438   4.934
 5880SOL     OW18538   2.592   4.952   6.931
 5880SOL    HW118539   2.580   5.005   7.015
 5880SOL    HW218540   2.506   4.953   6.879
 5881SOL     OW18541   1.734   6.586   3.692
 5881SOL    HW118542   1.742   6.505   3.751
 5881SOL    HW218543   1.705   6.664   3.747
 5882SOL     OW18544   4.697   0.545   2.866
 5882SOL    HW118545   4.797   0.549   2.872
 5882SOL    HW218546   4.662   0.636   2.844
 5883SOL     OW18547   1.625   3.046   5.858
 5883SOL    HW118548   1.722   3.043   5.880
 5883SOL    HW218549   1.608   2.991   5.776
 5884SOL     OW18550   0.066   0.485   3.004
 5884SOL    HW118551   0.005   0.555   3.041
 5884SOL    HW218552   0.039   0.395   3.040
 5885SOL     OW18553   5.735   6.337   0.420
 5885SOL    HW118554   5.648   6.302   0.385
 5885SOL    HW218555   5.782   6.388   0.348
 5886SOL     OW18556   5.848   1.271   5.744
 5886SOL    HW118557   5.773   1.298   5.683
 5886SOL    HW218558   5.830   1.180   5.780
 5887SOL     OW18559   3.294   6.703   2.239
 5887SOL    HW118560   3.285   6.604   2.253
 5887SOL    HW218561   3.222   6.750   2.289
 5888SOL     OW18562   6.656   5.946   1.524
 5888SOL    HW118563   6.620   6.022   1.579
 5888SOL    HW218564   6.756   5.955   1.517
 5889SOL     OW18565   3.173   6.920   0.563
 5889SOL    HW118566   3.089   6.965   0.591
 5889SOL    HW218567   3.241   6.927   0.636
 5890SOL     OW18568   4.054   5.167   6.074
 5890SOL    HW118569   3.994   5.197   6.000
 5890SOL    HW218570   4.146   5.152   6.037
 5891SOL     OW18571   1.801   3.101   6.406
 5891SOL    HW118572   1.892   3.063   6.388
 5891SOL    HW218573   1.758   3.050   6.481
 5892SOL     OW18574   2.972   5.768   2.036
 5892SOL    HW118575   2.882   5.726   2.034
 5892SOL    HW218576   3.006   5.780   1.942
 5893SOL     OW18577   1.218   3.093   2.663
 5893SOL    HW118578   1.316   3.080   2.653
 5893SOL    HW218579   1.199   3.187   2.691
 5894SOL     OW18580   1.104   3.793   3.719
 5894SOL    HW118581   1.149   3.725   3.661
 5894SOL    HW218582   1.042   3.747   3.782
 5895SOL     OW18583   5.184   5.062   2.990
 5895SOL    HW118584   5.192   4.978   3.043
 5895SOL    HW218585   5.250   5.129   3.023
 5896SOL     OW18586   4.917   1.561   5.660
 5896SOL    HW118587   5.012   1.564   5.628
 5896SOL    HW218588   4.856   1.550   5.582
 5897SOL     OW18589   4.575   4.288   0.866
 5897SOL    HW118590   4.482   4.311   0.896
 5897SOL    HW218591   4.603   4.352   0.794
 5898SOL     OW18592   1.802   6.378   3.080
 5898SOL    HW118593   1.712   6.360   3.119
 5898SOL    HW218594   1.871   6.375   3.152
 5899SOL     OW18595   5.037   0.322   3.428
 5899SOL    HW118596   5.109   0.370   3.478
 5899SOL    HW218597   5.077   0.269   3.354
 5900SOL     OW18598   3.927   4.751   1.772
 5900SOL    HW118599   4.004   4.727   1.831
 5900SOL    HW218600   3.957   4.750   1.677
 5901SOL     OW18601   3.132   6.196   4.008
 5901SOL    HW118602   3.186   6.120   3.973
 5901SOL    HW218603   3.124   6.188   4.108
 5902SOL     OW18604   5.915   3.022   0.268
 5902SOL    HW118605   5.984   2.951   0.270
 5902SOL    HW218606   5.858   3.011   0.187
 5903SOL     OW18607   0.803   2.168   6.534
 5903SOL    HW118608   0.792   2.073   6.506
 5903SOL    HW218609   0.838   2.172   6.627
 5904SOL     OW18610   1.399   3.306   2.280
 5904SOL    HW118611   1.474   3.372   2.282
 5904SOL    HW218612   1.405   3.251   2.196
 5905SOL     OW18613   6.873   3.543   1.994
 5905SOL    HW118614   6.838   3.599   1.919
 5905SOL    HW218615   6.817   3.461   2.003
 5906SOL     OW18616   6.599   0.977   3.529
 5906SOL    HW118617   6.638   1.062   3.562
 5906SOL    HW218618   6.553   0.930   3.604
 5907SOL     OW18619   1.545   1.044   2.724
 5907SOL    HW118620   1.508   1.087   2.641
 5907SOL    HW218621   1.617   1.103   2.762
 5908SOL     OW18622   0.934   2.995   5.559
 5908SOL    HW118623   0.955   2.935   5.636
 5908SOL    HW218624   0.987   2.965   5.479
 5909SOL     OW18625   6.732   4.602   6.829
 5909SOL    HW118626   6.688   4.541   6.764
 5909SOL    HW218627   6.823   4.626   6.796
 5910SOL     OW18628   1.424   1.529   3.265
 5910SOL    HW118629   1.467   1.617   3.287
 5910SOL    HW218630   1.457   1.459   3.328
 5911SOL     OW18631   6.584   5.657   6.780
 5911SOL    HW118632   6.498   5.633   6.824
 5911SOL    HW218633   6.579   5.752   6.747
 5912SOL     OW18634   0.567   1.217   2.996
 5912SOL    HW118635   0.495   1.166   3.043
 5912SOL    HW218636   0.656   1.178   3.020
 5913SOL     OW18637   6.471   2.900   1.573
 5913SOL    HW118638   6.443   2.843   1.495
 5913SOL    HW218639   6.538   2.967   1.542
 5914SOL     OW18640   1.703   0.071   0.753
 5914SOL    HW118641   1.655   0.082   0.840
 5914SOL    HW218642   1.688   0.152   0.696
 5915SOL     OW18643   3.717   0.208   5.419
 5915SOL    HW118644   3.694   0.160   5.335
 5915SOL    HW218645   3.707   0.306   5.405
 5916SOL     OW18646   1.284   0.334   2.363
 5916SOL    HW118647   1.221   0.258   2.343
 5916SOL    HW218648   1.337   0.313   2.445
 5917SOL     OW18649   3.235   3.582   0.595
 5917SOL    HW118650   3.217   3.487   0.571
 5917SOL    HW218651   3.186   3.605   0.679
 5918SOL     OW18652   3.708   0.035   4.520
 5918SOL    HW118653   3.647   0.073   4.450
 5918SOL    HW218654   3.676   6.968   4.547
 5919SOL     OW18655   3.312   4.108   5.047
 5919SOL    HW118656   3.338   4.124   4.952
 5919SOL    HW218657   3.395   4.094   5.102
 5920SOL     OW18658   1.196   0.545   5.633
 5920SOL    HW118659   1.137   0.527   5.712
 5920SOL    HW218660   1.265   0.613   5.658
 5921SOL     OW18661   2.547   5.104   0.527
 5921SOL    HW118662   2.541   5.152   0.614
 5921SOL    HW218663   2.501   5.016   0.534
 5922SOL     OW18664   4.867   2.507   2.662
 5922SOL    HW118665   4.804   2.577   2.694
 5922SOL    HW218666   4.850   2.488   2.565
 5923SOL     OW18667   5.757   1.027   2.929
 5923SOL    HW118668   5.835   1.048   2.987
 5923SOL    HW218669   5.679   1.084   2.956
 5924SOL     OW18670   0.115   6.720   3.128
 5924SOL    HW118671   0.019   6.747   3.119
 5924SOL    HW218672   0.127   6.626   3.097
 5925SOL     OW18673   5.215   0.914   1.247
 5925SOL    HW118674   5.275   0.871   1.181
 5925SOL    HW218675   5.120   0.902   1.218
 5926SOL     OW18676   5.340   3.207   3.427
 5926SOL    HW118677   5.272   3.275   3.455
 5926SOL    HW218678   5.316   3.172   3.336
 5927SOL     OW18679   0.662   6.824   1.510
 5927SOL    HW118680   0.680   6.919   1.539
 5927SOL    HW218681   0.576   6.821   1.459
 5928SOL     OW18682   2.799   6.992   0.152
 5928SOL    HW118683   2.892   6.960   0.137
 5928SOL    HW218684   2.779   0.045   0.090
 5929SOL     OW18685   1.003   0.925   1.610
 5929SOL    HW118686   0.996   0.988   1.533
 5929SOL    HW218687   1.099   0.913   1.635
 5930SOL     OW18688   0.895   4.454   1.933
 5930SOL    HW118689   0.904   4.358   1.909
 5930SOL    HW218690   0.884   4.463   2.032
 5931SOL     OW18691   4.971   6.145   4.210
 5931SOL    HW118692   4.966   6.149   4.110
 5931SOL    HW218693   4.881   6.164   4.249
 5932SOL     OW18694   3.567   5.722   0.245
 5932SOL    HW118695   3.492   5.782   0.273
 5932SOL    HW218696   3.593   5.743   0.151
 5933SOL     OW18697   6.694   5.677   4.333
 5933SOL    HW118698   6.657   5.621   4.407
 5933SOL    HW218699   6.791   5.692   4.347
 5934SOL     OW18700   3.242   4.303   6.937
 5934SOL    HW118701   3.317   4.241   6.912
 5934SOL    HW218702   3.191   4.264   7.014
 5935SOL     OW18703   1.352   0.306   5.241
 5935SOL    HW118704   1.331   0.398   5.209
 5935SOL    HW218705   1.357   0.244   5.162
 5936SOL     OW18706   3.667   2.831   2.248
 5936SOL    HW118707   3.729   2.755   2.270
 5936SOL    HW218708   3.695   2.873   2.162
 5937SOL     OW18709   0.857   2.937   0.338
 5937SOL    HW118710   0.857   2.844   0.374
 5937SOL    HW218711   0.936   2.950   0.278
 5938SOL     OW18712   1.500   3.236   4.528
 5938SOL    HW118713   1.537   3.294   4.601
 5938SOL    HW218714   1.435   3.288   4.473
 5939SOL     OW18715   4.828   0.620   6.048
 5939SOL    HW118716   4.780   0.708   6.038
 5939SOL    HW218717   4.766   0.554   6.091
 5940SOL     OW18718   5.203   5.016   0.783
 5940SOL    HW118719   5.185   4.928   0.827
 5940SOL    HW218720   5.203   5.004   0.684
 5941SOL     OW18721   0.856   1.437   3.394
 5941SOL    HW118722   0.877   1.511   3.331
 5941SOL    HW218723   0.853   1.471   3.488
 5942SOL     OW18724   5.203   2.277   6.110
 5942SOL    HW118725   5.188   2.213   6.185
 5942SOL    HW218726   5.160   2.365   6.132
 5943SOL     OW18727   2.150   4.309   2.257
 5943SOL    HW118728   2.201   4.227   2.281
 5943SOL    HW218729   2.100   4.342   2.337
 5944SOL     OW18730   6.830   3.978   6.069
 5944SOL    HW118731   6.828   4.078   6.065
 5944SOL    HW218732   6.907   3.948   6.125
 5945SOL     OW18733   6.881   6.669   3.804
 5945SOL    HW118734   6.882   6.702   3.709
 5945SOL    HW218735   6.871   6.747   3.866
 5946SOL     OW18736   3.175   2.911   6.392
 5946SOL    HW118737   3.270   2.942   6.392
 5946SOL    HW218738   3.155   2.863   6.307
 5947SOL     OW18739   3.425   3.501   5.036
 5947SOL    HW118740   3.394   3.413   4.998
 5947SOL    HW218741   3.379   3.576   4.987
 5948SOL     OW18742   4.718   4.203   1.648
 5948SOL    HW118743   4.781   4.128   1.667
 5948SOL    HW218744   4.624   4.173   1.663
 5949SOL     OW18745   0.882   4.306   4.071
 5949SOL    HW118746   0.961   4.357   4.040
 5949SOL    HW218747   0.912   4.221   4.114
 5950SOL     OW18748   2.379   7.012   4.765
 5950SOL    HW118749   2.442   0.031   4.830
 5950SOL    HW218750   2.428   6.987   4.682
 5951SOL     OW18751   0.291   2.717   6.413
 5951SOL    HW118752   0.317   2.621   6.420
 5951SOL    HW218753   0.359   2.773   6.459
 5952SOL     OW18754   3.685   4.148   1.730
 5952SOL    HW118755   3.755   4.087   1.766
 5952SOL    HW218756   3.661   4.215   1.800
 5953SOL     OW18757   6.990   2.580   0.056
 5953SOL    HW118758   7.003   2.679   0.058
 5953SOL    HW218759   0.043   2.537   0.008
 5954SOL     OW18760   2.085   4.878   3.622
 5954SOL    HW118761   2.018   4.871   3.696
 5954SOL    HW218762   2.108   4.787   3.589
 5955SOL     OW18763   3.987   2.961   0.444
 5955SOL    HW118764   3.935   3.047   0.442
 5955SOL    HW218765   4.069   2.971   0.388
 5956SOL     OW18766   4.274   2.438   6.794
 5956SOL    HW118767   4.367   2.470   6.814
 5956SOL    HW218768   4.272   2.338   6.797
 5957SOL     OW18769   6.720   2.165   3.651
 5957SOL    HW118770   6.778   2.172   3.732
 5957SOL    HW218771   6.719   2.252   3.602
 5958SOL     OW18772   2.767   6.129   2.646
 5958SOL    HW118773   2.718   6.052   2.604
 5958SOL    HW218774   2.814   6.097   2.728
 5959SOL     OW18775   4.968   4.321   2.771
 5959SOL    HW118776   4.884   4.278   2.736
 5959SOL    HW218777   5.047   4.269   2.739
 5960SOL     OW18778   5.883   0.389   6.437
 5960SOL    HW118779   5.932   0.421   6.355
 5960SOL    HW218780   5.819   0.317   6.412
 5961SOL     OW18781   2.498   2.195   4.079
 5961SOL    HW118782   2.503   2.178   3.980
 5961SOL    HW218783   2.556   2.274   4.102
 5962SOL     OW18784   5.377   4.730   6.900
 5962SOL    HW118785   5.443   4.757   6.971
 5962SOL    HW218786   5.352   4.634   6.913
 5963SOL     OW18787   1.726   3.975   0.461
 5963SOL    HW118788   1.655   3.918   0.502
 5963SOL    HW218789   1.790   3.918   0.411
 5964SOL     OW18790   1.714   6.966   3.100
 5964SOL    HW118791   1.671   6.876   3.110
 5964SOL    HW218792   1.689   7.004   3.011
 5965SOL     OW18793   2.532   0.553   1.113
 5965SOL    HW118794   2.531   0.652   1.124
 5965SOL    HW218795   2.461   0.526   1.047
 5966SOL     OW18796   3.179   1.815   4.956
 5966SOL    HW118797   3.261   1.859   4.994
 5966SOL    HW218798   3.206   1.747   4.888
 5967SOL     OW18799   4.664   2.490   5.390
 5967SOL    HW118800   4.576   2.457   5.355
 5967SOL    HW218801   4.654   2.514   5.486
 5968SOL     OW18802   6.190   2.023   3.090
 5968SOL    HW118803   6.142   2.078   3.158
 5968SOL    HW218804   6.160   1.928   3.097
 5969SOL     OW18805   5.338   6.667   1.109
 5969SOL    HW118806   5.429   6.707   1.099
 5969SOL    HW218807   5.345   6.579   1.156
 5970SOL     OW18808   6.186   2.358   0.329
 5970SOL    HW118809   6.108   2.318   0.378
 5970SOL    HW218810   6.244   2.407   0.394
 5971SOL     OW18811   6.711   5.264   3.925
 5971SOL    HW118812   6.644   5.334   3.902
 5971SOL    HW218813   6.761   5.291   4.007
 5972SOL     OW18814   5.840   5.209   0.614
 5972SOL    HW118815   5.913   5.171   0.670
 5972SOL    HW218816   5.754   5.162   0.636
 5973SOL     OW18817   3.379   0.839   2.431
 5973SOL    HW118818   3.315   0.884   2.368
 5973SOL    HW218819   3.371   0.739   2.421
 5974SOL     OW18820   5.630   1.224   4.474
 5974SOL    HW118821   5.657   1.246   4.568
 5974SOL    HW218822   5.644   1.126   4.457
 5975SOL     OW18823   3.782   5.019   0.479
 5975SOL    HW118824   3.860   5.022   0.542
 5975SOL    HW218825   3.795   4.944   0.414
 5976SOL     OW18826   1.588   2.941   6.287
 5976SOL    HW118827   1.513   3.006   6.278
 5976SOL    HW218828   1.671   2.989   6.318
 5977SOL     OW18829   0.760   5.674   1.575
 5977SOL    HW118830   0.678   5.731   1.568
 5977SOL    HW218831   0.836   5.729   1.612
 5978SOL     OW18832   3.209   3.737   6.136
 5978SOL    HW118833   3.152   3.655   6.135
 5978SOL    HW218834   3.155   3.815   6.105
 5979SOL     OW18835   5.960   0.270   1.172
 5979SOL    HW118836   6.030   0.200   1.160
 5979SOL    HW218837   5.960   0.300   1.268
 5980SOL     OW18838   3.518   2.448   0.953
 5980SOL    HW118839   3.477   2.518   1.012
 5980SOL    HW218840   3.574   2.387   1.008
 5981SOL     OW18841   3.218   2.366   0.646
 5981SOL    HW118842   3.154   2.438   0.672
 5981SOL    HW218843   3.311   2.403   0.642
 5982SOL     OW18844   5.724   2.876   1.240
 5982SOL    HW118845   5.684   2.829   1.319
 5982SOL    HW218846   5.791   2.816   1.197
 5983SOL     OW18847   6.612   1.344   3.803
 5983SOL    HW118848   6.636   1.310   3.713
 5983SOL    HW218849   6.559   1.429   3.794
 5984SOL     OW18850   6.055   6.301   2.101
 5984SOL    HW118851   5.966   6.340   2.075
 5984SOL    HW218852   6.045   6.202   2.113
 5985SOL     OW18853   6.308   5.099   2.765
 5985SOL    HW118854   6.226   5.058   2.804
 5985SOL    HW218855   6.282   5.162   2.692
 5986SOL     OW18856   3.974   3.044   3.231
 5986SOL    HW118857   4.047   2.976   3.231
 5986SOL    HW218858   3.987   3.108   3.307
 5987SOL     OW18859   6.864   6.240   4.323
 5987SOL    HW118860   6.949   6.189   4.311
 5987SOL    HW218861   6.884   6.338   4.329
 5988SOL     OW18862   1.654   1.993   0.161
 5988SOL    HW118863   1.749   2.021   0.172
 5988SOL    HW218864   1.645   1.938   0.078
 5989SOL     OW18865   2.143   6.313   5.600
 5989SOL    HW118866   2.106   6.397   5.561
 5989SOL    HW218867   2.243   6.317   5.598
 5990SOL     OW18868   2.414   3.933   1.740
 5990SOL    HW118869   2.323   3.926   1.781
 5990SOL    HW218870   2.407   3.921   1.641
 5991SOL     OW18871   5.489   1.528   0.950
 5991SOL    HW118872   5.442   1.463   1.010
 5991SOL    HW218873   5.582   1.542   0.981
 5992SOL     OW18874   2.717   4.693   3.526
 5992SOL    HW118875   2.651   4.626   3.560
 5992SOL    HW218876   2.675   4.783   3.525
 5993SOL     OW18877   5.714   2.188   0.271
 5993SOL    HW118878   5.761   2.158   0.188
 5993SOL    HW218879   5.780   2.208   0.342
 5994SOL     OW18880   0.091   4.329   0.686
 5994SOL    HW118881   0.182   4.312   0.723
 5994SOL    HW218882   0.084   4.290   0.594
 5995SOL     OW18883   5.231   3.621   0.637
 5995SOL    HW118884   5.144   3.593   0.595
 5995SOL    HW218885   5.243   3.720   0.625
 5996SOL     OW18886   1.873   0.333   1.995
 5996SOL    HW118887   1.773   0.333   1.995
 5996SOL    HW218888   1.907   0.408   1.937
 5997SOL     OW18889   6.390   0.339   4.617
 5997SOL    HW118890   6.399   0.323   4.519
 5997SOL    HW218891   6.432   0.426   4.642
 5998SOL     OW18892   5.860   6.191   6.266
 5998SOL    HW118893   5.946   6.152   6.233
 5998SOL    HW218894   5.867   6.207   6.364
 5999SOL     OW18895   5.375   3.663   0.867
 5999SOL    HW118896   5.356   3.754   0.903
 5999SOL    HW218897   5.314   3.644   0.790
 6000SOL     OW18898   1.223   4.773   1.735
 6000SOL    HW118899   1.191   4.808   1.823
 6000SOL    HW218900   1.160   4.802   1.663
 6001SOL     OW18901   6.978   6.026   5.674
 6001SOL    HW118902   6.999   5.995   5.767
 6001SOL    HW218903   0.040   6.049   5.627
 6002SOL     OW18904   5.738   4.367   5.092
 6002SOL    HW118905   5.651   4.342   5.050
 6002SOL    HW218906   5.811   4.361   5.023
 6003SOL     OW18907   2.668   1.484   5.482
 6003SOL    HW118908   2.579   1.521   5.510
 6003SOL    HW218909   2.710   1.544   5.415
 6004SOL     OW18910   5.537   3.122   5.180
 6004SOL    HW118911   5.579   3.056   5.117
 6004SOL    HW218912   5.517   3.077   5.267
 6005SOL     OW18913   3.861   4.238   0.305
 6005SOL    HW118914   3.871   4.164   0.239
 6005SOL    HW218915   3.941   4.240   0.365
 6006SOL     OW18916   2.966   6.114   6.319
 6006SOL    HW118917   2.939   6.029   6.273
 6006SOL    HW218918   3.063   6.132   6.302
 6007SOL     OW18919   2.620   6.654   4.667
 6007SOL    HW118920   2.718   6.649   4.650
 6007SOL    HW218921   2.602   6.632   4.763
 6008SOL     OW18922   2.474   4.011   6.885
 6008SOL    HW118923   2.391   3.975   6.844
 6008SOL    HW218924   2.455   4.041   6.979
 6009SOL     OW18925   2.849   5.338   2.905
 6009SOL    HW118926   2.932   5.283   2.898
 6009SOL    HW218927   2.814   5.357   2.813
 6010SOL     OW18928   0.248   5.092   5.738
 6010SOL    HW118929   0.230   5.076   5.835
 6010SOL    HW218930   0.198   5.174   5.709
 6011SOL     OW18931   5.878   1.764   2.769
 6011SOL    HW118932   5.856   1.827   2.694
 6011SOL    HW218933   5.974   1.774   2.794
 6012SOL     OW18934   6.735   0.922   6.224
 6012SOL    HW118935   6.717   1.020   6.233
 6012SOL    HW218936   6.834   0.906   6.220
 6013SOL     OW18937   5.881   1.476   2.428
 6013SOL    HW118938   5.817   1.481   2.504
 6013SOL    HW218939   5.970   1.513   2.457
 6014SOL     OW18940   3.771   2.951   4.127
 6014SOL    HW118941   3.810   3.017   4.192
 6014SOL    HW218942   3.671   2.951   4.135
 6015SOL     OW18943   6.224   0.147   3.510
 6015SOL    HW118944   6.134   0.188   3.499
 6015SOL    HW218945   6.259   0.167   3.602
 6016SOL     OW18946   4.375   2.094   4.642
 6016SOL    HW118947   4.446   2.151   4.684
 6016SOL    HW218948   4.321   2.049   4.714
 6017SOL     OW18949   1.763   1.582   5.444
 6017SOL    HW118950   1.749   1.655   5.377
 6017SOL    HW218951   1.799   1.620   5.528
 6018SOL     OW18952   2.507   0.965   3.675
 6018SOL    HW118953   2.501   0.918   3.587
 6018SOL    HW218954   2.427   0.943   3.731
 6019SOL     OW18955   6.955   3.711   6.356
 6019SOL    HW118956   6.946   3.802   6.316
 6019SOL    HW218957   0.010   3.709   6.418
 6020SOL     OW18958   0.777   5.592   4.985
 6020SOL    HW118959   0.768   5.668   5.050
 6020SOL    HW218960   0.696   5.589   4.927
 6021SOL     OW18961   4.488   0.215   3.539
 6021SOL    HW118962   4.423   0.255   3.474
 6021SOL    HW218963   4.552   0.156   3.490
 6022SOL     OW18964   6.630   3.253   1.409
 6022SOL    HW118965   6.560   3.202   1.359
 6022SOL    HW218966   6.600   3.348   1.419
 6023SOL     OW18967   4.595   6.672   2.798
 6023SOL    HW118968   4.685   6.664   2.842
 6023SOL    HW218969   4.529   6.615   2.847
 6024SOL     OW18970   0.702   6.526   0.238
 6024SOL    HW118971   0.739   6.460   0.304
 6024SOL    HW218972   0.628   6.578   0.280
 6025SOL     OW18973   3.546   0.421   5.791
 6025SOL    HW118974   3.473   0.415   5.723
 6025SOL    HW218975   3.630   0.384   5.752
 6026SOL     OW18976   5.940   6.128   3.717
 6026SOL    HW118977   5.927   6.069   3.797
 6026SOL    HW218978   5.882   6.209   3.725
 6027SOL     OW18979   6.189   4.404   5.615
 6027SOL    HW118980   6.115   4.339   5.628
 6027SOL    HW218981   6.199   4.461   5.697
 6028SOL     OW18982   6.044   5.598   6.627
 6028SOL    HW118983   5.952   5.634   6.643
 6028SOL    HW218984   6.096   5.664   6.571
 6029SOL     OW18985   2.587   1.969   2.717
 6029SOL    HW118986   2.648   1.974   2.638
 6029SOL    HW218987   2.637   1.931   2.795
 6030SOL     OW18988   5.971   3.303   4.417
 6030SOL    HW118989   5.977   3.219   4.364
 6030SOL    HW218990   5.989   3.381   4.358
 6031SOL     OW18991   0.096   0.218   3.550
 6031SOL    HW118992   0.122   0.294   3.609
 6031SOL    HW218993   0.101   0.246   3.455
 6032SOL     OW18994   2.925   0.191   3.549
 6032SOL    HW118995   2.954   0.144   3.466
 6032SOL    HW218996   2.856   0.259   3.526
 6033SOL     OW18997   0.606   1.424   2.811
 6033SOL    HW118998   0.702   1.452   2.816
 6033SOL    HW218999   0.595   1.334   2.853
 6034SOL     OW19000   0.713   1.202   0.986
 6034SOL    HW119001   0.692   1.291   0.945
 6034SOL    HW219002   0.729   1.136   0.913
 6035SOL     OW19003   1.613   0.955   2.281
 6035SOL    HW119004   1.612   0.879   2.346
 6035SOL    HW219005   1.520   0.973   2.249
 6036SOL     OW19006   0.032   3.219   0.459
 6036SOL    HW119007   0.014   3.250   0.552
 6036SOL    HW219008   6.968   3.206   0.412
 6037SOL     OW19009   4.707   0.271   6.492
 6037SOL    HW119010   4.799   0.309   6.506
 6037SOL    HW219011   4.669   0.306   6.407
 6038SOL     OW19012   1.888   1.210   6.793
 6038SOL    HW119013   1.967   1.156   6.821
 6038SOL    HW219014   1.818   1.151   6.754
 6039SOL     OW19015   3.287   2.974   4.460
 6039SOL    HW119016   3.339   3.059   4.454
 6039SOL    HW219017   3.211   2.978   4.395
 6040SOL     OW19018   0.174   1.696   0.277
 6040SOL    HW119019   0.146   1.679   0.371
 6040SOL    HW219020   0.108   1.756   0.232
 6041SOL     OW19021   0.874   3.038   4.855
 6041SOL    HW119022   0.801   3.089   4.902
 6041SOL    HW219023   0.961   3.054   4.902
 6042SOL     OW19024   2.463   6.211   3.971
 6042SOL    HW119025   2.380   6.211   3.916
 6042SOL    HW219026   2.503   6.120   3.972
 6043SOL     OW19027   2.436   5.865   2.204
 6043SOL    HW119028   2.525   5.902   2.230
 6043SOL    HW219029   2.367   5.938   2.207
 6044SOL     OW19030   0.048   3.331   0.722
 6044SOL    HW119031   0.092   3.421   0.721
 6044SOL    HW219032   0.092   3.273   0.791
 6045SOL     OW19033   4.988   1.354   4.465
 6045SOL    HW119034   5.013   1.450   4.454
 6045SOL    HW219035   4.904   1.347   4.520
 6046SOL     OW19036   3.575   4.167   2.804
 6046SOL    HW119037   3.609   4.251   2.845
 6046SOL    HW219038   3.477   4.157   2.823
 6047SOL     OW19039   0.033   1.219   6.826
 6047SOL    HW119040   0.121   1.243   6.865
 6047SOL    HW219041   0.005   1.129   6.860
 6048SOL     OW19042   6.270   5.522   3.216
 6048SOL    HW119043   6.326   5.602   3.238
 6048SOL    HW219044   6.174   5.548   3.212
 6049SOL     OW19045   4.934   4.885   6.061
 6049SOL    HW119046   4.849   4.869   6.010
 6049SOL    HW219047   4.949   4.983   6.069
 6050SOL     OW19048   2.642   5.278   3.063
 6050SOL    HW119049   2.734   5.286   3.026
 6050SOL    HW219050   2.641   5.307   3.158
 6051SOL     OW19051   0.782   1.200   2.317
 6051SOL    HW119052   0.813   1.112   2.353
 6051SOL    HW219053   0.692   1.221   2.355
 6052SOL     OW19054   5.758   5.920   6.485
 6052SOL    HW119055   5.671   5.932   6.437
 6052SOL    HW219056   5.745   5.939   6.582
 6053SOL     OW19057   3.919   2.127   5.571
 6053SOL    HW119058   4.006   2.164   5.604
 6053SOL    HW219059   3.935   2.075   5.487
 6054SOL     OW19060   4.332   3.746   6.892
 6054SOL    HW119061   4.371   3.694   6.968
 6054SOL    HW219062   4.270   3.687   6.841
 6055SOL     OW19063   3.027   4.687   1.698
 6055SOL    HW119064   3.038   4.635   1.614
 6055SOL    HW219065   2.989   4.628   1.769
 6056SOL     OW19066   5.130   6.323   2.887
 6056SOL    HW119067   5.048   6.272   2.914
 6056SOL    HW219068   5.119   6.419   2.909
 6057SOL     OW19069   5.956   1.197   4.014
 6057SOL    HW119070   5.867   1.164   4.045
 6057SOL    HW219071   6.017   1.205   4.093
 6058SOL     OW19072   0.338   2.607   5.936
 6058SOL    HW119073   0.294   2.600   6.026
 6058SOL    HW219074   0.284   2.557   5.869
 6059SOL     OW19075   3.989   2.261   6.803
 6059SOL    HW119076   4.072   2.207   6.788
 6059SOL    HW219077   4.012   2.347   6.848
 6060SOL     OW19078   1.662   2.396   1.170
 6060SOL    HW119079   1.751   2.409   1.125
 6060SOL    HW219080   1.649   2.299   1.190
 6061SOL     OW19081   2.332   4.440   6.627
 6061SOL    HW119082   2.421   4.457   6.669
 6061SOL    HW219083   2.274   4.391   6.692
 6062SOL     OW19084   1.984   1.816   6.020
 6062SOL    HW119085   2.067   1.840   6.070
 6062SOL    HW219086   1.995   1.726   5.978
 6063SOL     OW19087   4.455   4.113   6.264
 6063SOL    HW119088   4.404   4.193   6.293
 6063SOL    HW219089   4.453   4.105   6.164
 6064SOL     OW19090   5.897   6.122   0.405
 6064SOL    HW119091   5.828   6.194   0.419
 6064SOL    HW219092   5.960   6.150   0.333
 6065SOL     OW19093   2.220   5.712   1.365
 6065SOL    HW119094   2.201   5.790   1.425
 6065SOL    HW219095   2.268   5.641   1.417
 6066SOL     OW19096   5.974   5.749   1.762
 6066SOL    HW119097   6.022   5.743   1.674
 6066SOL    HW219098   6.037   5.729   1.836
 6067SOL     OW19099   0.185   4.688   5.412
 6067SOL    HW119100   0.279   4.671   5.443
 6067SOL    HW219101   0.121   4.662   5.484
 6068SOL     OW19102   4.142   1.677   3.748
 6068SOL    HW119103   4.153   1.712   3.841
 6068SOL    HW219104   4.045   1.661   3.730
 6069SOL     OW19105   0.538   4.778   5.221
 6069SOL    HW119106   0.602   4.855   5.223
 6069SOL    HW219107   0.514   4.758   5.126
 6070SOL     OW19108   2.731   0.704   0.895
 6070SOL    HW119109   2.760   0.722   0.802
 6070SOL    HW219110   2.677   0.619   0.897
 6071SOL     OW19111   5.718   0.450   6.204
 6071SOL    HW119112   5.684   0.450   6.298
 6071SOL    HW219113   5.814   0.478   6.203
 6072SOL     OW19114   0.009   2.858   0.429
 6072SOL    HW119115   0.037   2.897   0.341
 6072SOL    HW219116   6.940   2.888   0.451
 6073SOL     OW19117   4.851   4.307   0.451
 6073SOL    HW119118   4.884   4.221   0.414
 6073SOL    HW219119   4.919   4.345   0.513
 6074SOL     OW19120   1.144   6.177   2.759
 6074SOL    HW119121   1.078   6.243   2.794
 6074SOL    HW219122   1.128   6.162   2.662
 6075SOL     OW19123   6.346   6.748   6.659
 6075SOL    HW119124   6.361   6.809   6.737
 6075SOL    HW219125   6.428   6.692   6.644
 6076SOL     OW19126   0.351   6.810   3.240
 6076SOL    HW119127   0.278   6.764   3.188
 6076SOL    HW219128   0.429   6.749   3.247
 6077SOL     OW19129   4.912   6.154   2.415
 6077SOL    HW119130   4.954   6.240   2.386
 6077SOL    HW219131   4.970   6.077   2.389
 6078SOL     OW19132   5.399   4.458   6.947
 6078SOL    HW119133   5.444   4.421   0.005
 6078SOL    HW219134   5.469   4.485   6.880
 6079SOL     OW19135   3.735   1.870   0.428
 6079SOL    HW119136   3.768   1.895   0.519
 6079SOL    HW219137   3.755   1.945   0.364
 6080SOL     OW19138   6.942   3.151   5.371
 6080SOL    HW119139   6.999   3.078   5.334
 6080SOL    HW219140   6.930   3.223   5.303
 6081SOL     OW19141   2.272   4.156   4.350
 6081SOL    HW119142   2.330   4.237   4.348
 6081SOL    HW219143   2.255   4.124   4.257
 6082SOL     OW19144   4.933   1.111   1.715
 6082SOL    HW119145   4.970   1.102   1.623
 6082SOL    HW219146   4.837   1.140   1.709
 6083SOL     OW19147   5.143   6.977   6.408
 6083SOL    HW119148   5.071   6.962   6.340
 6083SOL    HW219149   5.105   6.972   6.500
 6084SOL     OW19150   6.385   5.186   3.410
 6084SOL    HW119151   6.437   5.109   3.447
 6084SOL    HW219152   6.449   5.260   3.386
 6085SOL     OW19153   0.622   6.717   1.100
 6085SOL    HW119154   0.721   6.729   1.089
 6085SOL    HW219155   0.581   6.692   1.013
 6086SOL     OW19156   3.879   3.481   0.669
 6086SOL    HW119157   3.872   3.578   0.692
 6086SOL    HW219158   3.792   3.448   0.634
 6087SOL     OW19159   3.933   0.384   0.984
 6087SOL    HW119160   3.924   0.399   0.885
 6087SOL    HW219161   3.982   0.299   1.001
 6088SOL     OW19162   3.804   5.897   1.982
 6088SOL    HW119163   3.787   5.953   2.064
 6088SOL    HW219164   3.894   5.917   1.946
 6089SOL     OW19165   6.149   5.074   3.427
 6089SOL    HW119166   6.232   5.127   3.446
 6089SOL    HW219167   6.147   5.049   3.331
 6090SOL     OW19168   3.659   5.953   4.979
 6090SOL    HW119169   3.647   6.051   4.966
 6090SOL    HW219170   3.631   5.904   4.897
 6091SOL     OW19171   1.084   2.786   2.974
 6091SOL    HW119172   1.111   2.781   3.070
 6091SOL    HW219173   1.162   2.767   2.915
 6092SOL     OW19174   2.034   6.633   1.202
 6092SOL    HW119175   2.072   6.624   1.294
 6092SOL    HW219176   1.994   6.546   1.173
 6093SOL     OW19177   2.993   3.014   1.681
 6093SOL    HW119178   2.921   3.041   1.745
 6093SOL    HW219179   3.015   2.918   1.695
 6094SOL     OW19180   1.106   0.387   5.390
 6094SOL    HW119181   1.135   0.404   5.484
 6094SOL    HW219182   1.176   0.331   5.344
 6095SOL     OW19183   5.065   5.189   2.102
 6095SOL    HW119184   5.036   5.109   2.049
 6095SOL    HW219185   5.075   5.163   2.198
 6096SOL     OW19186   4.643   5.782   2.581
 6096SOL    HW119187   4.739   5.810   2.574
 6096SOL    HW219188   4.584   5.862   2.578
 6097SOL     OW19189   2.406   5.103   1.800
 6097SOL    HW119190   2.378   5.124   1.707
 6097SOL    HW219191   2.405   5.187   1.855
 6098SOL     OW19192   6.018   1.368   5.232
 6098SOL    HW119193   5.921   1.351   5.249
 6098SOL    HW219194   6.053   1.432   5.300
 6099SOL     OW19195   3.607   6.625   5.293
 6099SOL    HW119196   3.539   6.662   5.357
 6099SOL    HW219197   3.683   6.585   5.344
 6100SOL     OW19198   0.434   5.629   5.671
 6100SOL    HW119199   0.416   5.663   5.579
 6100SOL    HW219200   0.400   5.536   5.681
 6101SOL     OW19201   0.466   2.829   1.580
 6101SOL    HW119202   0.518   2.894   1.636
 6101SOL    HW219203   0.433   2.754   1.638
 6102SOL     OW19204   3.143   0.099   2.876
 6102SOL    HW119205   3.086   0.180   2.865
 6102SOL    HW219206   3.154   0.079   2.974
 6103SOL     OW19207   5.486   1.011   2.177
 6103SOL    HW119208   5.465   1.070   2.099
 6103SOL    HW219209   5.401   0.992   2.228
 6104SOL     OW19210   6.440   0.846   5.180
 6104SOL    HW119211   6.353   0.873   5.222
 6104SOL    HW219212   6.494   0.794   5.246
 6105SOL     OW19213   3.894   4.690   5.783
 6105SOL    HW119214   3.934   4.777   5.809
 6105SOL    HW219215   3.966   4.623   5.766
 6106SOL     OW19216   6.399   3.843   5.135
 6106SOL    HW119217   6.411   3.865   5.038
 6106SOL    HW219218   6.355   3.920   5.181
 6107SOL     OW19219   5.953   4.682   5.373
 6107SOL    HW119220   6.050   4.660   5.387
 6107SOL    HW219221   5.944   4.744   5.296
 6108SOL     OW19222   3.390   1.122   6.220
 6108SOL    HW119223   3.309   1.109   6.277
 6108SOL    HW219224   3.395   1.050   6.151
 6109SOL     OW19225   6.943   6.760   3.560
 6109SOL    HW119226   7.021   6.716   3.515
 6109SOL    HW219227   6.971   6.847   3.599
 6110SOL     OW19228   1.224   2.290   3.815
 6110SOL    HW119229   1.189   2.266   3.906
 6110SOL    HW219230   1.323   2.306   3.821
 6111SOL     OW19231   2.671   2.585   0.767
 6111SOL    HW119232   2.662   2.684   0.779
 6111SOL    HW219233   2.685   2.542   0.856
 6112SOL     OW19234   4.974   6.660   3.517
 6112SOL    HW119235   4.942   6.699   3.431
 6112SOL    HW219236   4.903   6.670   3.587
 6113SOL     OW19237   2.850   5.368   1.456
 6113SOL    HW119238   2.798   5.322   1.529
 6113SOL    HW219239   2.840   5.317   1.371
 6114SOL     OW19240   4.731   3.376   1.762
 6114SOL    HW119241   4.733   3.287   1.718
 6114SOL    HW219242   4.654   3.429   1.728
 6115SOL     OW19243   6.603   0.941   5.505
 6115SOL    HW119244   6.690   0.969   5.466
 6115SOL    HW219245   6.539   1.019   5.502
 6116SOL     OW19246   6.786   3.210   0.342
 6116SOL    HW119247   6.706   3.269   0.351
 6116SOL    HW219248   6.810   3.202   0.245
 6117SOL     OW19249   2.101   2.486   1.307
 6117SOL    HW119250   2.114   2.431   1.224
 6117SOL    HW219251   2.179   2.472   1.368
 6118SOL     OW19252   5.758   0.958   1.580
 6118SOL    HW119253   5.828   0.917   1.521
 6118SOL    HW219254   5.774   0.929   1.675
 6119SOL     OW19255   0.433   1.168   6.483
 6119SOL    HW119256   0.515   1.224   6.492
 6119SOL    HW219257   0.450   1.093   6.419
 6120SOL     OW19258   2.777   1.093   4.157
 6120SOL    HW119259   2.765   1.000   4.122
 6120SOL    HW219260   2.872   1.106   4.185
 6121SOL     OW19261   3.136   1.429   5.286
 6121SOL    HW119262   3.085   1.486   5.222
 6121SOL    HW219263   3.093   1.339   5.292
 6122SOL     OW19264   4.815   4.588   4.877
 6122SOL    HW119265   4.869   4.646   4.937
 6122SOL    HW219266   4.734   4.555   4.927
 6123SOL     OW19267   6.673   1.671   5.128
 6123SOL    HW119268   6.753   1.701   5.180
 6123SOL    HW219269   6.650   1.739   5.059
 6124SOL     OW19270   2.606   6.588   4.203
 6124SOL    HW119271   2.548   6.534   4.264
 6124SOL    HW219272   2.549   6.647   4.146
 6125SOL     OW19273   3.891   1.612   5.343
 6125SOL    HW119274   3.816   1.552   5.316
 6125SOL    HW219275   3.891   1.624   5.442
 6126SOL     OW19276   5.888   2.675   6.510
 6126SOL    HW119277   5.879   2.622   6.595
 6126SOL    HW219278   5.888   2.773   6.532
 6127SOL     OW19279   5.769   2.419   2.847
 6127SOL    HW119280   5.690   2.425   2.908
 6127SOL    HW219281   5.765   2.333   2.796
 6128SOL     OW19282   5.713   5.842   5.677
 6128SOL    HW119283   5.717   5.847   5.577
 6128SOL    HW219284   5.687   5.749   5.704
 6129SOL     OW19285   2.629   5.644   2.921
 6129SOL    HW119286   2.713   5.691   2.947
 6129SOL    HW219287   2.652   5.564   2.865
 6130SOL     OW19288   6.053   3.294   0.174
 6130SOL    HW119289   5.955   3.311   0.165
 6130SOL    HW219290   6.073   3.259   0.265
 6131SOL     OW19291   6.545   2.783   3.166
 6131SOL    HW119292   6.606   2.846   3.118
 6131SOL    HW219293   6.452   2.795   3.132
 6132SOL     OW19294   4.361   6.384   6.231
 6132SOL    HW119295   4.278   6.421   6.190
 6132SOL    HW219296   4.338   6.332   6.313
 6133SOL     OW19297   0.690   2.113   3.694
 6133SOL    HW119298   0.759   2.162   3.641
 6133SOL    HW219299   0.604   2.110   3.642
 6134SOL     OW19300   0.167   6.415   5.788
 6134SOL    HW119301   0.219   6.389   5.706
 6134SOL    HW219302   0.201   6.502   5.822
 6135SOL     OW19303   6.203   6.573   0.367
 6135SOL    HW119304   6.169   6.619   0.449
 6135SOL    HW219305   6.273   6.506   0.393
 6136SOL     OW19306   1.130   2.256   3.569
 6136SOL    HW119307   1.195   2.294   3.504
 6136SOL    HW219308   1.166   2.268   3.662
 6137SOL     OW19309   6.790   5.107   1.135
 6137SOL    HW119310   6.702   5.082   1.093
 6137SOL    HW219311   6.804   5.051   1.217
 6138SOL     OW19312   5.403   0.769   1.831
 6138SOL    HW119313   5.359   0.695   1.781
 6138SOL    HW219314   5.496   0.742   1.856
 6139SOL     OW19315   1.693   1.825   5.323
 6139SOL    HW119316   1.784   1.866   5.321
 6139SOL    HW219317   1.634   1.875   5.385
 6140SOL     OW19318   2.356   0.237   3.326
 6140SOL    HW119319   2.258   0.231   3.306
 6140SOL    HW219320   2.383   0.160   3.382
 6141SOL     OW19321   1.128   0.787   0.263
 6141SOL    HW119322   1.032   0.816   0.260
 6141SOL    HW219323   1.181   0.855   0.314
 6142SOL     OW19324   0.313   0.400   1.360
 6142SOL    HW119325   0.222   0.372   1.327
 6142SOL    HW219326   0.383   0.358   1.302
 6143SOL     OW19327   0.760   3.142   5.409
 6143SOL    HW119328   0.812   3.096   5.482
 6143SOL    HW219329   0.770   3.241   5.419
 6144SOL     OW19330   3.407   5.801   2.785
 6144SOL    HW119331   3.398   5.895   2.754
 6144SOL    HW219332   3.477   5.797   2.857
 6145SOL     OW19333   5.111   3.066   4.014
 6145SOL    HW119334   5.095   2.980   3.967
 6145SOL    HW219335   5.197   3.107   3.982
 6146SOL     OW19336   5.972   0.565   5.275
 6146SOL    HW119337   5.968   0.468   5.301
 6146SOL    HW219338   6.055   0.582   5.222
 6147SOL     OW19339   1.291   1.886   6.035
 6147SOL    HW119340   1.362   1.836   5.986
 6147SOL    HW219341   1.202   1.862   5.997
 6148SOL     OW19342   3.898   4.974   6.923
 6148SOL    HW119343   3.939   4.883   6.917
 6148SOL    HW219344   3.966   5.043   6.899
 6149SOL     OW19345   3.939   1.914   1.418
 6149SOL    HW119346   4.032   1.950   1.416
 6149SOL    HW219347   3.897   1.924   1.327
 6150SOL     OW19348   0.498   5.063   4.426
 6150SOL    HW119349   0.523   5.076   4.330
 6150SOL    HW219350   0.577   5.081   4.484
 6151SOL     OW19351   3.949   5.029   3.001
 6151SOL    HW119352   4.011   5.104   3.024
 6151SOL    HW219353   3.924   5.034   2.904
 6152SOL     OW19354   0.556   3.804   3.029
 6152SOL    HW119355   0.500   3.844   3.101
 6152SOL    HW219356   0.534   3.848   2.942
 6153SOL     OW19357   5.218   6.266   0.660
 6153SOL    HW119358   5.309   6.281   0.620
 6153SOL    HW219359   5.150   6.319   0.610
 6154SOL     OW19360   4.580   4.363   2.784
 6154SOL    HW119361   4.532   4.365   2.696
 6154SOL    HW219362   4.625   4.451   2.799
 6155SOL     OW19363   2.108   1.290   3.647
 6155SOL    HW119364   2.023   1.332   3.613
 6155SOL    HW219365   2.150   1.351   3.714
 6156SOL     OW19366   4.758   4.172   2.091
 6156SOL    HW119367   4.817   4.222   2.154
 6156SOL    HW219368   4.674   4.224   2.076
 6157SOL     OW19369   0.565   3.134   1.079
 6157SOL    HW119370   0.469   3.113   1.098
 6157SOL    HW219371   0.582   3.231   1.098
 6158SOL     OW19372   2.921   0.900   5.894
 6158SOL    HW119373   2.897   0.806   5.868
 6158SOL    HW219374   2.843   0.960   5.877
 6159SOL     OW19375   6.066   2.460   0.089
 6159SOL    HW119376   6.053   2.398   0.166
 6159SOL    HW219377   6.155   2.505   0.096
 6160SOL     OW19378   0.885   7.007   1.302
 6160SOL    HW119379   0.971   6.958   1.318
 6160SOL    HW219380   0.851   0.022   1.388
 6161SOL     OW19381   5.251   4.195   6.409
 6161SOL    HW119382   5.317   4.260   6.447
 6161SOL    HW219383   5.288   4.102   6.416
 6162SOL     OW19384   5.874   5.530   1.021
 6162SOL    HW119385   5.916   5.440   1.034
 6162SOL    HW219386   5.929   5.582   0.956
 6163SOL     OW19387   6.320   6.168   3.143
 6163SOL    HW119388   6.374   6.241   3.184
 6163SOL    HW219389   6.224   6.180   3.167
 6164SOL     OW19390   3.449   3.596   4.419
 6164SOL    HW119391   3.414   3.687   4.441
 6164SOL    HW219392   3.409   3.529   4.482
 6165SOL     OW19393   3.971   0.849   7.012
 6165SOL    HW119394   3.876   0.860   6.985
 6165SOL    HW219395   4.031   0.872   6.936
 6166SOL     OW19396   3.507   1.077   5.791
 6166SOL    HW119397   3.455   1.016   5.731
 6166SOL    HW219398   3.577   1.125   5.738
 6167SOL     OW19399   1.771   3.266   2.957
 6167SOL    HW119400   1.785   3.279   2.858
 6167SOL    HW219401   1.677   3.290   2.980
 6168SOL     OW19402   0.492   3.514   4.275
 6168SOL    HW119403   0.588   3.495   4.254
 6168SOL    HW219404   0.453   3.572   4.204
 6169SOL     OW19405   2.921   0.716   0.328
 6169SOL    HW119406   2.954   0.628   0.295
 6169SOL    HW219407   2.886   0.770   0.251
 6170SOL     OW19408   2.930   4.867   1.459
 6170SOL    HW119409   2.944   4.814   1.542
 6170SOL    HW219410   2.833   4.882   1.444
 6171SOL     OW19411   2.372   4.392   1.488
 6171SOL    HW119412   2.300   4.390   1.556
 6171SOL    HW219413   2.458   4.360   1.529
 6172SOL     OW19414   2.899   5.222   1.771
 6172SOL    HW119415   2.991   5.187   1.753
 6172SOL    HW219416   2.849   5.155   1.826
 6173SOL     OW19417   1.390   5.514   2.286
 6173SOL    HW119418   1.460   5.519   2.356
 6173SOL    HW219419   1.340   5.601   2.283
 6174SOL     OW19420   5.519   4.179   1.778
 6174SOL    HW119421   5.568   4.106   1.825
 6174SOL    HW219422   5.440   4.207   1.833
 6175SOL     OW19423   4.664   0.297   3.952
 6175SOL    HW119424   4.715   0.219   3.988
 6175SOL    HW219425   4.586   0.315   4.012
 6176SOL     OW19426   5.290   3.241   6.944
 6176SOL    HW119427   5.385   3.262   6.969
 6176SOL    HW219428   5.236   3.325   6.949
 6177SOL     OW19429   6.458   2.899   2.537
 6177SOL    HW119430   6.381   2.846   2.503
 6177SOL    HW219431   6.424   2.974   2.594
 6178SOL     OW19432   6.057   3.487   0.987
 6178SOL    HW119433   6.035   3.500   1.083
 6178SOL    HW219434   5.990   3.426   0.945
 6179SOL     OW19435   0.190   2.067   5.201
 6179SOL    HW119436   0.188   2.078   5.101
 6179SOL    HW219437   0.284   2.060   5.232
 6180SOL     OW19438   3.592   0.107   5.882
 6180SOL    HW119439   3.652   0.088   5.805
 6180SOL    HW219440   3.631   0.180   5.938
 6181SOL     OW19441   4.263   5.861   6.927
 6181SOL    HW119442   4.211   5.880   7.011
 6181SOL    HW219443   4.224   5.782   6.880
 6182SOL     OW19444   4.901   0.023   5.871
 6182SOL    HW119445   4.909   0.031   5.771
 6182SOL    HW219446   4.890   6.951   5.896
 6183SOL     OW19447   3.434   0.384   2.710
 6183SOL    HW119448   3.443   0.403   2.808
 6183SOL    HW219449   3.493   0.306   2.687
 6184SOL     OW19450   6.507   0.319   6.264
 6184SOL    HW119451   6.594   0.273   6.249
 6184SOL    HW219452   6.479   0.367   6.181
 6185SOL     OW19453   2.032   2.662   6.686
 6185SOL    HW119454   2.025   2.635   6.782
 6185SOL    HW219455   2.127   2.652   6.656
 6186SOL     OW19456   4.839   0.765   4.319
 6186SOL    HW119457   4.889   0.851   4.310
 6186SOL    HW219458   4.902   0.691   4.344
 6187SOL     OW19459   3.221   5.176   4.389
 6187SOL    HW119460   3.229   5.221   4.478
 6187SOL    HW219461   3.180   5.085   4.401
 6188SOL     OW19462   3.114   0.000   1.640
 6188SOL    HW119463   3.123   6.980   1.730
 6188SOL    HW219464   3.137   6.956   1.569
 6189SOL     OW19465   5.099   4.788   3.078
 6189SOL    HW119466   5.037   4.722   3.120
 6189SOL    HW219467   5.058   4.823   2.993
 6190SOL     OW19468   5.082   2.813   6.034
 6190SOL    HW119469   5.009   2.819   6.102
 6190SOL    HW219470   5.157   2.758   6.070
 6191SOL     OW19471   6.764   1.807   6.351
 6191SOL    HW119472   6.675   1.852   6.362
 6191SOL    HW219473   6.806   1.794   6.440
 6192SOL     OW19474   3.502   2.443   0.679
 6192SOL    HW119475   3.489   2.394   0.766
 6192SOL    HW219476   3.548   2.382   0.614
 6193SOL     OW19477   6.579   0.223   1.520
 6193SOL    HW119478   6.575   0.252   1.616
 6193SOL    HW219479   6.489   0.187   1.493
 6194SOL     OW19480   2.127   0.236   0.637
 6194SOL    HW119481   2.156   0.297   0.563
 6194SOL    HW219482   2.047   0.276   0.682
 6195SOL     OW19483   2.120   6.582   5.496
 6195SOL    HW119484   2.024   6.579   5.524
 6195SOL    HW219485   2.171   6.642   5.558
 6196SOL     OW19486   0.579   2.041   5.858
 6196SOL    HW119487   0.536   1.987   5.786
 6196SOL    HW219488   0.516   2.113   5.888
 6197SOL     OW19489   2.267   2.827   1.012
 6197SOL    HW119490   2.357   2.862   1.037
 6197SOL    HW219491   2.220   2.794   1.094
 6198SOL     OW19492   3.648   5.444   2.627
 6198SOL    HW119493   3.558   5.465   2.666
 6198SOL    HW219494   3.650   5.349   2.596
 6199SOL     OW19495   0.491   0.605   6.555
 6199SOL    HW119496   0.484   0.563   6.464
 6199SOL    HW219497   0.401   0.601   6.600
 6200SOL     OW19498   4.024   0.246   5.980
 6200SOL    HW119499   3.925   0.250   5.989
 6200SOL    HW219500   4.066   0.311   6.043
 6201SOL     OW19501   2.003   4.838   4.147
 6201SOL    HW119502   1.984   4.929   4.186
 6201SOL    HW219503   2.043   4.780   4.218
 6202SOL     OW19504   2.641   2.458   1.245
 6202SOL    HW119505   2.587   2.404   1.181
 6202SOL    HW219506   2.636   2.554   1.220
 6203SOL     OW19507   5.729   2.121   4.515
 6203SOL    HW119508   5.792   2.197   4.528
 6203SOL    HW219509   5.757   2.043   4.572
 6204SOL     OW19510   1.343   6.407   6.144
 6204SOL    HW119511   1.276   6.332   6.141
 6204SOL    HW219512   1.298   6.491   6.171
 6205SOL     OW19513   5.291   6.282   6.610
 6205SOL    HW119514   5.196   6.310   6.599
 6205SOL    HW219515   5.344   6.359   6.645
 6206SOL     OW19516   5.150   0.125   3.635
 6206SOL    HW119517   5.123   0.219   3.613
 6206SOL    HW219518   5.073   0.064   3.617
 6207SOL     OW19519   2.424   4.401   4.318
 6207SOL    HW119520   2.482   4.480   4.339
 6207SOL    HW219521   2.431   4.380   4.220
 6208SOL     OW19522   5.634   5.551   5.273
 6208SOL    HW119523   5.601   5.476   5.331
 6208SOL    HW219524   5.559   5.614   5.253
 6209SOL     OW19525   2.672   4.712   1.113
 6209SOL    HW119526   2.666   4.735   1.016
 6209SOL    HW219527   2.585   4.672   1.144
 6210SOL     OW19528   6.708   5.211   2.963
 6210SOL    HW119529   6.635   5.262   2.917
 6210SOL    HW219530   6.698   5.114   2.945
 6211SOL     OW19531   2.453   0.815   5.110
 6211SOL    HW119532   2.517   0.887   5.136
 6211SOL    HW219533   2.434   0.820   5.012
 6212SOL     OW19534   6.416   0.629   3.564
 6212SOL    HW119535   6.515   0.618   3.564
 6212SOL    HW219536   6.381   0.624   3.470
 6213SOL     OW19537   6.805   0.166   0.300
 6213SOL    HW119538   6.884   0.180   0.240
 6213SOL    HW219539   6.796   0.246   0.360
 6214SOL     OW19540   5.168   4.785   2.173
 6214SOL    HW119541   5.078   4.796   2.216
 6214SOL    HW219542   5.239   4.811   2.238
 6215SOL     OW19543   2.648   4.851   1.444
 6215SOL    HW119544   2.605   4.935   1.413
 6215SOL    HW219545   2.578   4.783   1.468
 6216SOL     OW19546   6.491   2.444   2.710
 6216SOL    HW119547   6.393   2.428   2.721
 6216SOL    HW219548   6.509   2.481   2.619
 6217SOL     OW19549   4.697   1.744   1.284
 6217SOL    HW119550   4.624   1.808   1.307
 6217SOL    HW219551   4.751   1.780   1.208
 6218SOL     OW19552   4.575   5.151   4.009
 6218SOL    HW119553   4.538   5.072   3.960
 6218SOL    HW219554   4.662   5.179   3.967
 6219SOL     OW19555   0.165   1.095   4.368
 6219SOL    HW119556   0.172   1.153   4.449
 6219SOL    HW219557   0.086   1.123   4.313
 6220SOL     OW19558   1.560   3.366   5.505
 6220SOL    HW119559   1.507   3.420   5.571
 6220SOL    HW219560   1.514   3.279   5.489
 6221SOL     OW19561   4.416   4.766   4.584
 6221SOL    HW119562   4.382   4.761   4.678
 6221SOL    HW219563   4.511   4.797   4.584
 6222SOL     OW19564   0.192   1.560   1.371
 6222SOL    HW119565   0.218   1.590   1.279
 6222SOL    HW219566   0.246   1.610   1.439
 6223SOL     OW19567   5.163   4.159   4.170
 6223SOL    HW119568   5.093   4.200   4.230
 6223SOL    HW219569   5.198   4.229   4.107
 6224SOL     OW19570   2.577   0.388   4.799
 6224SOL    HW119571   2.479   0.389   4.779
 6224SOL    HW219572   2.620   0.469   4.760
 6225SOL     OW19573   3.719   2.253   6.834
 6225SOL    HW119574   3.681   2.207   6.915
 6225SOL    HW219575   3.815   2.229   6.823
 6226SOL     OW19576   6.768   6.891   4.248
 6226SOL    HW119577   6.866   6.901   4.234
 6226SOL    HW219578   6.726   6.857   4.164
 6227SOL     OW19579   2.942   4.432   6.547
 6227SOL    HW119580   2.896   4.379   6.476
 6227SOL    HW219581   2.986   4.370   6.611
 6228SOL     OW19582   7.001   2.230   2.948
 6228SOL    HW119583   6.990   2.132   2.933
 6228SOL    HW219584   0.039   2.268   2.878
 6229SOL     OW19585   1.790   2.058   1.748
 6229SOL    HW119586   1.768   1.961   1.742
 6229SOL    HW219587   1.716   2.107   1.794
 6230SOL     OW19588   2.271   2.079   4.195
 6230SOL    HW119589   2.363   2.118   4.185
 6230SOL    HW219590   2.203   2.148   4.170
 6231SOL     OW19591   6.864   5.229   1.493
 6231SOL    HW119592   6.838   5.146   1.444
 6231SOL    HW219593   6.802   5.303   1.468
 6232SOL     OW19594   0.832   1.080   0.019
 6232SOL    HW119595   0.817   1.099   0.116
 6232SOL    HW219596   0.830   1.165   6.990
 6233SOL     OW19597   4.502   0.886   6.590
 6233SOL    HW119598   4.550   0.806   6.627
 6233SOL    HW219599   4.414   0.895   6.636
 6234SOL     OW19600   2.060   2.540   3.977
 6234SOL    HW119601   2.093   2.587   4.058
 6234SOL    HW219602   2.109   2.573   3.896
 6235SOL     OW19603   2.365   6.114   2.295
 6235SOL    HW119604   2.360   6.064   2.381
 6235SOL    HW219605   2.346   6.211   2.311
 6236SOL     OW19606   6.965   3.937   6.804
 6236SOL    HW119607   0.029   3.901   6.837
 6236SOL    HW219608   6.970   4.037   6.801
 6237SOL     OW19609   4.060   6.148   6.122
 6237SOL    HW119610   3.984   6.101   6.077
 6237SOL    HW219611   4.025   6.221   6.181
 6238SOL     OW19612   5.338   3.776   0.256
 6238SOL    HW119613   5.392   3.823   0.326
 6238SOL    HW219614   5.395   3.708   0.209
 6239SOL     OW19615   2.980   6.798   3.459
 6239SOL    HW119616   3.053   6.732   3.478
 6239SOL    HW219617   2.892   6.760   3.488
 6240SOL     OW19618   2.532   3.385   0.371
 6240SOL    HW119619   2.540   3.484   0.371
 6240SOL    HW219620   2.439   3.358   0.397
 6241SOL     OW19621   4.822   0.034   1.462
 6241SOL    HW119622   4.916   0.022   1.496
 6241SOL    HW219623   4.824   0.053   1.364
 6242SOL     OW19624   3.924   2.069   3.097
 6242SOL    HW119625   3.879   2.096   3.011
 6242SOL    HW219626   3.863   2.087   3.174
 6243SOL     OW19627   6.300   5.919   2.988
 6243SOL    HW119628   6.390   5.891   2.954
 6243SOL    HW219629   6.307   6.009   3.030
 6244SOL     OW19630   1.733   1.980   2.191
 6244SOL    HW119631   1.815   1.936   2.228
 6244SOL    HW219632   1.689   1.920   2.125
 6245SOL     OW19633   1.877   3.942   0.756
 6245SOL    HW119634   1.867   3.857   0.704
 6245SOL    HW219635   1.973   3.968   0.761
 6246SOL     OW19636   4.394   0.081   0.301
 6246SOL    HW119637   4.489   0.050   0.295
 6246SOL    HW219638   4.339   0.011   0.348
 6247SOL     OW19639   6.964   6.750   2.801
 6247SOL    HW119640   6.942   6.799   2.885
 6247SOL    HW219641   0.012   6.799   2.751
 6248SOL     OW19642   0.878   5.584   0.650
 6248SOL    HW119643   0.896   5.487   0.668
 6248SOL    HW219644   0.797   5.592   0.593
 6249SOL     OW19645   6.494   3.535   6.531
 6249SOL    HW119646   6.547   3.538   6.446
 6249SOL    HW219647   6.401   3.567   6.513
 6250SOL     OW19648   0.001   4.663   5.642
 6250SOL    HW119649   6.925   4.673   5.630
 6250SOL    HW219650   0.032   4.728   5.712
 6251SOL     OW19651   4.630   1.629   0.999
 6251SOL    HW119652   4.694   1.706   0.995
 6251SOL    HW219653   4.609   1.609   1.095
 6252SOL     OW19654   2.091   6.401   5.164
 6252SOL    HW119655   2.173   6.434   5.211
 6252SOL    HW219656   2.070   6.308   5.195
 6253SOL     OW19657   2.732   3.935   1.414
 6253SOL    HW119658   2.798   4.009   1.415
 6253SOL    HW219659   2.746   3.876   1.493
 6254SOL     OW19660   5.589   6.999   0.287
 6254SOL    HW119661   5.631   0.009   0.372
 6254SOL    HW219662   5.653   7.012   0.211
 6255SOL     OW19663   6.945   2.954   3.412
 6255SOL    HW119664   6.939   2.872   3.469
 6255SOL    HW219665   0.001   2.946   3.351
 6256SOL     OW19666   4.079   5.288   4.220
 6256SOL    HW119667   4.159   5.228   4.229
 6256SOL    HW219668   4.053   5.294   4.124
 6257SOL     OW19669   4.164   2.685   6.838
 6257SOL    HW119670   4.219   2.616   6.790
 6257SOL    HW219671   4.116   2.742   6.771
 6258SOL     OW19672   4.406   2.345   2.994
 6258SOL    HW119673   4.341   2.294   3.051
 6258SOL    HW219674   4.454   2.412   3.051
 6259SOL     OW19675   3.129   2.060   1.716
 6259SOL    HW119676   3.154   2.124   1.642
 6259SOL    HW219677   3.049   2.095   1.764
 6260SOL     OW19678   3.251   4.538   1.208
 6260SOL    HW119679   3.188   4.536   1.130
 6260SOL    HW219680   3.333   4.590   1.184
 6261SOL     OW19681   4.761   6.652   6.248
 6261SOL    HW119682   4.745   6.697   6.160
 6261SOL    HW219683   4.859   6.649   6.266
 6262SOL     OW19684   0.847   5.944   5.094
 6262SOL    HW119685   0.776   5.936   5.164
 6262SOL    HW219686   0.810   5.995   5.016
 6263SOL     OW19687   6.020   1.217   1.231
 6263SOL    HW119688   6.070   1.210   1.317
 6263SOL    HW219689   6.076   1.178   1.157
 6264SOL     OW19690   2.621   1.689   0.172
 6264SOL    HW119691   2.649   1.705   0.267
 6264SOL    HW219692   2.698   1.651   0.121
 6265SOL     OW19693   5.814   3.337   0.437
 6265SOL    HW119694   5.872   3.285   0.498
 6265SOL    HW219695   5.773   3.414   0.486
 6266SOL     OW19696   2.478   0.363   2.343
 6266SOL    HW119697   2.559   0.320   2.381
 6266SOL    HW219698   2.489   0.374   2.244
 6267SOL     OW19699   2.522   6.950   0.111
 6267SOL    HW119700   2.616   6.984   0.105
 6267SOL    HW219701   2.523   6.862   0.160
 6268SOL     OW19702   2.168   5.706   2.774
 6268SOL    HW119703   2.235   5.656   2.829
 6268SOL    HW219704   2.091   5.645   2.751
 6269SOL     OW19705   6.178   4.695   6.998
 6269SOL    HW119706   6.188   4.660   0.068
 6269SOL    HW219707   6.234   4.639   6.936
 6270SOL     OW19708   0.518   1.075   3.796
 6270SOL    HW119709   0.491   1.005   3.730
 6270SOL    HW219710   0.596   1.042   3.849
 6271SOL     OW19711   6.456   1.826   1.096
 6271SOL    HW119712   6.499   1.889   1.161
 6271SOL    HW219713   6.478   1.732   1.121
 6272SOL     OW19714   2.192   2.559   3.748
 6272SOL    HW119715   2.201   2.658   3.757
 6272SOL    HW219716   2.211   2.532   3.654
 6273SOL     OW19717   4.367   0.745   2.440
 6273SOL    HW119718   4.318   0.662   2.467
 6273SOL    HW219719   4.461   0.741   2.476
 6274SOL     OW19720   2.665   6.112   6.922
 6274SOL    HW119721   2.648   6.027   6.972
 6274SOL    HW219722   2.759   6.141   6.937
 6275SOL     OW19723   3.276   1.033   4.831
 6275SOL    HW119724   3.329   1.073   4.906
 6275SOL    HW219725   3.211   1.101   4.796
 6276SOL     OW19726   1.257   5.503   3.676
 6276SOL    HW119727   1.343   5.469   3.715
 6276SOL    HW219728   1.274   5.590   3.630
 6277SOL     OW19729   5.805   3.201   3.970
 6277SOL    HW119730   5.867   3.230   4.042
 6277SOL    HW219731   5.783   3.105   3.982
 6278SOL     OW19732   4.361   0.767   3.707
 6278SOL    HW119733   4.340   0.779   3.804
 6278SOL    HW219734   4.457   0.741   3.697
 6279SOL     OW19735   4.888   1.980   6.454
 6279SOL    HW119736   4.881   2.036   6.537
 6279SOL    HW219737   4.880   1.883   6.479
 6280SOL     OW19738   0.897   5.404   6.047
 6280SOL    HW119739   0.897   5.504   6.048
 6280SOL    HW219740   0.985   5.371   6.013
 6281SOL     OW19741   3.215   6.486   4.412
 6281SOL    HW119742   3.293   6.548   4.412
 6281SOL    HW219743   3.150   6.515   4.482
 6282SOL     OW19744   0.893   7.001   4.126
 6282SOL    HW119745   0.885   6.905   4.154
 6282SOL    HW219746   0.873   7.009   4.029
 6283SOL     OW19747   1.099   3.113   5.066
 6283SOL    HW119748   1.082   3.019   5.094
 6283SOL    HW219749   1.130   3.166   5.145
 6284SOL     OW19750   2.458   4.691   6.715
 6284SOL    HW119751   2.498   4.739   6.637
 6284SOL    HW219752   2.373   4.647   6.687
 6285SOL     OW19753   1.979   4.139   2.900
 6285SOL    HW119754   2.022   4.227   2.877
 6285SOL    HW219755   1.880   4.148   2.893
 6286SOL     OW19756   6.380   6.262   4.624
 6286SOL    HW119757   6.412   6.217   4.541
 6286SOL    HW219758   6.436   6.233   4.702
 6287SOL     OW19759   3.872   4.997   2.740
 6287SOL    HW119760   3.782   4.957   2.757
 6287SOL    HW219761   3.862   5.096   2.727
 6288SOL     OW19762   5.914   3.224   1.144
 6288SOL    HW119763   5.917   3.190   1.050
 6288SOL    HW219764   5.835   3.283   1.156
 6289SOL     OW19765   1.030   6.543   2.565
 6289SOL    HW119766   0.988   6.576   2.481
 6289SOL    HW219767   1.125   6.517   2.546
 6290SOL     OW19768   6.077   4.326   3.551
 6290SOL    HW119769   5.989   4.298   3.512
 6290SOL    HW219770   6.065   4.347   3.648
 6291SOL     OW19771   3.615   4.133   3.328
 6291SOL    HW119772   3.602   4.046   3.279
 6291SOL    HW219773   3.567   4.206   3.279
 6292SOL     OW19774   6.876   1.286   1.901
 6292SOL    HW119775   6.885   1.190   1.876
 6292SOL    HW219776   6.921   1.302   1.989
 6293SOL     OW19777   5.738   5.434   6.537
 6293SOL    HW119778   5.693   5.521   6.557
 6293SOL    HW219779   5.830   5.434   6.574
 6294SOL     OW19780   3.484   6.116   1.812
 6294SOL    HW119781   3.478   6.120   1.912
 6294SOL    HW219782   3.549   6.046   1.785
 6295SOL     OW19783   0.045   5.722   5.549
 6295SOL    HW119784   0.098   5.646   5.586
 6295SOL    HW219785   6.976   5.721   5.589
 6296SOL     OW19786   6.378   1.499   3.323
 6296SOL    HW119787   6.326   1.515   3.239
 6296SOL    HW219788   6.372   1.402   3.347
 6297SOL     OW19789   5.495   0.804   5.579
 6297SOL    HW119790   5.499   0.741   5.656
 6297SOL    HW219791   5.551   0.769   5.504
 6298SOL     OW19792   6.604   1.886   4.408
 6298SOL    HW119793   6.558   1.878   4.319
 6298SOL    HW219794   6.536   1.900   4.480
 6299SOL     OW19795   6.771   3.259   0.822
 6299SOL    HW119796   6.780   3.267   0.921
 6299SOL    HW219797   6.816   3.175   0.791
 6300SOL     OW19798   5.453   1.375   3.298
 6300SOL    HW119799   5.546   1.384   3.335
 6300SOL    HW219800   5.426   1.278   3.299
 6301SOL     OW19801   3.834   0.711   0.914
 6301SOL    HW119802   3.772   0.652   0.862
 6301SOL    HW219803   3.900   0.654   0.963
 6302SOL     OW19804   6.243   0.711   2.871
 6302SOL    HW119805   6.282   0.778   2.808
 6302SOL    HW219806   6.152   0.684   2.840
 6303SOL     OW19807   2.614   5.715   4.667
 6303SOL    HW119808   2.574   5.771   4.594
 6303SOL    HW219809   2.555   5.636   4.684
 6304SOL     OW19810   3.925   1.141   4.765
 6304SOL    HW119811   4.004   1.080   4.775
 6304SOL    HW219812   3.878   1.122   4.679
 6305SOL     OW19813   5.549   0.867   2.532
 6305SOL    HW119814   5.649   0.858   2.524
 6305SOL    HW219815   5.506   0.835   2.448
 6306SOL     OW19816   6.010   2.598   3.974
 6306SOL    HW119817   6.029   2.608   3.876
 6306SOL    HW219818   6.078   2.537   4.015
 6307SOL     OW19819   1.886   4.579   0.464
 6307SOL    HW119820   1.829   4.624   0.533
 6307SOL    HW219821   1.960   4.530   0.509
 6308SOL     OW19822   4.098   1.981   6.506
 6308SOL    HW119823   4.014   1.951   6.461
 6308SOL    HW219824   4.174   1.978   6.442
 6309SOL     OW19825   5.636   2.005   5.170
 6309SOL    HW119826   5.618   2.093   5.126
 6309SOL    HW219827   5.718   2.012   5.227
 6310SOL     OW19828   6.918   5.542   4.656
 6310SOL    HW119829   6.842   5.565   4.717
 6310SOL    HW219830   6.976   5.473   4.699
 6311SOL     OW19831   5.822   0.025   4.374
 6311SOL    HW119832   5.790   0.037   4.280
 6311SOL    HW219833   5.744   0.031   4.436
 6312SOL     OW19834   5.376   4.123   5.823
 6312SOL    HW119835   5.363   4.118   5.922
 6312SOL    HW219836   5.469   4.154   5.804
 6313SOL     OW19837   2.208   5.084   3.835
 6313SOL    HW119838   2.142   5.017   3.799
 6313SOL    HW219839   2.174   5.177   3.819
 6314SOL     OW19840   1.314   0.505   3.545
 6314SOL    HW119841   1.289   0.452   3.626
 6314SOL    HW219842   1.238   0.502   3.479
 6315SOL     OW19843   2.011   3.865   0.406
 6315SOL    HW119844   2.085   3.903   0.461
 6315SOL    HW219845   2.049   3.804   0.336
 6316SOL     OW19846   4.161   1.116   5.044
 6316SOL    HW119847   4.119   1.201   5.012
 6316SOL    HW219848   4.259   1.118   5.023
 6317SOL     OW19849   6.485   5.190   4.638
 6317SOL    HW119850   6.580   5.211   4.662
 6317SOL    HW219851   6.478   5.095   4.609
 6318SOL     OW19852   1.590   1.841   4.458
 6318SOL    HW119853   1.633   1.931   4.461
 6318SOL    HW219854   1.492   1.850   4.478
 6319SOL     OW19855   0.971   1.951   2.810
 6319SOL    HW119856   0.966   1.862   2.854
 6319SOL    HW219857   1.041   1.950   2.738
 6320SOL     OW19858   0.462   2.233   2.475
 6320SOL    HW119859   0.415   2.321   2.475
 6320SOL    HW219860   0.543   2.238   2.534
 6321SOL     OW19861   2.602   3.911   5.970
 6321SOL    HW119862   2.619   3.972   5.893
 6321SOL    HW219863   2.535   3.841   5.943
 6322SOL     OW19864   2.553   0.369   0.052
 6322SOL    HW119865   2.648   0.376   0.083
 6322SOL    HW219866   2.504   0.453   0.075
 6323SOL     OW19867   4.298   1.671   1.558
 6323SOL    HW119868   4.369   1.663   1.629
 6323SOL    HW219869   4.326   1.619   1.477
 6324SOL     OW19870   3.445   1.671   0.165
 6324SOL    HW119871   3.375   1.742   0.169
 6324SOL    HW219872   3.521   1.696   0.225
 6325SOL     OW19873   1.501   3.026   2.640
 6325SOL    HW119874   1.514   2.958   2.569
 6325SOL    HW219875   1.492   3.117   2.599
 6326SOL     OW19876   4.770   6.960   1.091
 6326SOL    HW119877   4.710   6.975   1.013
 6326SOL    HW219878   4.714   6.941   1.172
 6327SOL     OW19879   3.809   5.302   5.558
 6327SOL    HW119880   3.789   5.400   5.557
 6327SOL    HW219881   3.733   5.252   5.600
 6328SOL     OW19882   2.478   4.329   0.160
 6328SOL    HW119883   2.559   4.331   0.100
 6328SOL    HW219884   2.460   4.235   0.187
 6329SOL     OW19885   0.361   1.541   2.701
 6329SOL    HW119886   0.443   1.520   2.754
 6329SOL    HW219887   0.311   1.457   2.682
 6330SOL     OW19888   3.597   0.590   0.490
 6330SOL    HW119889   3.670   0.545   0.437
 6330SOL    HW219890   3.587   0.684   0.459
 6331SOL     OW19891   4.898   3.242   1.934
 6331SOL    HW119892   4.826   3.278   1.874
 6331SOL    HW219893   4.864   3.163   1.983
 6332SOL     OW19894   4.789   6.422   2.099
 6332SOL    HW119895   4.780   6.445   2.002
 6332SOL    HW219896   4.746   6.333   2.116
 6333SOL     OW19897   2.308   5.244   3.112
 6333SOL    HW119898   2.250   5.279   3.039
 6333SOL    HW219899   2.258   5.174   3.164
 6334SOL     OW19900   2.412   1.388   2.628
 6334SOL    HW119901   2.396   1.435   2.541
 6334SOL    HW219902   2.446   1.453   2.695
 6335SOL     OW19903   6.863   1.429   6.839
 6335SOL    HW119904   6.891   1.515   6.796
 6335SOL    HW219905   6.931   1.358   6.818
 6336SOL     OW19906   1.366   2.885   4.814
 6336SOL    HW119907   1.286   2.826   4.800
 6336SOL    HW219908   1.399   2.918   4.726
 6337SOL     OW19909   0.447   4.693   4.956
 6337SOL    HW119910   0.354   4.657   4.964
 6337SOL    HW219911   0.448   4.767   4.889
 6338SOL     OW19912   3.680   1.571   4.343
 6338SOL    HW119913   3.596   1.622   4.326
 6338SOL    HW219914   3.754   1.635   4.364
 6339SOL     OW19915   0.292   2.815   4.364
 6339SOL    HW119916   0.227   2.891   4.369
 6339SOL    HW219917   0.260   2.741   4.424
 6340SOL     OW19918   2.874   6.103   4.067
 6340SOL    HW119919   2.943   6.136   4.003
 6340SOL    HW219920   2.918   6.069   4.150
 6341SOL     OW19921   6.281   5.468   2.348
 6341SOL    HW119922   6.245   5.497   2.437
 6341SOL    HW219923   6.352   5.531   2.318
 6342SOL     OW19924   1.290   3.724   0.821
 6342SOL    HW119925   1.263   3.682   0.735
 6342SOL    HW219926   1.315   3.819   0.806
 6343SOL     OW19927   4.660   1.075   0.647
 6343SOL    HW119928   4.703   1.085   0.737
 6343SOL    HW219929   4.561   1.063   0.659
 6344SOL     OW19930   6.060   4.766   4.463
 6344SOL    HW119931   6.021   4.858   4.459
 6344SOL    HW219932   6.002   4.707   4.519
 6345SOL     OW19933   1.835   2.310   1.378
 6345SOL    HW119934   1.863   2.251   1.303
 6345SOL    HW219935   1.906   2.378   1.396
 6346SOL     OW19936   0.756   5.196   3.985
 6346SOL    HW119937   0.809   5.130   3.932
 6346SOL    HW219938   0.699   5.250   3.923
 6347SOL     OW19939   3.070   0.140   0.289
 6347SOL    HW119940   2.984   0.152   0.339
 6347SOL    HW219941   3.069   0.052   0.241
 6348SOL     OW19942   0.441   2.322   3.781
 6348SOL    HW119943   0.450   2.405   3.836
 6348SOL    HW219944   0.494   2.248   3.824
 6349SOL     OW19945   1.108   0.638   0.578
 6349SOL    HW119946   1.041   0.635   0.504
 6349SOL    HW219947   1.071   0.691   0.654
 6350SOL     OW19948   6.934   6.067   3.193
 6350SOL    HW119949   7.011   6.004   3.187
 6350SOL    HW219950   6.919   6.111   3.105
 6351SOL     OW19951   0.092   2.360   3.169
 6351SOL    HW119952   0.134   2.438   3.122
 6351SOL    HW219953   0.062   2.293   3.101
 6352SOL     OW19954   0.021   4.995   2.608
 6352SOL    HW119955   0.064   4.914   2.647
 6352SOL    HW219956   6.982   5.036   2.674
 6353SOL     OW19957   0.149   6.639   1.771
 6353SOL    HW119958   0.164   6.620   1.868
 6353SOL    HW219959   0.054   6.620   1.747
 6354SOL     OW19960   0.027   6.719   4.431
 6354SOL    HW119961   0.119   6.685   4.411
 6354SOL    HW219962   0.003   6.696   4.525
 6355SOL     OW19963   1.363   2.255   1.791
 6355SOL    HW119964   1.280   2.312   1.792
 6355SOL    HW219965   1.342   2.168   1.747
 6356SOL     OW19966   3.650   3.808   1.235
 6356SOL    HW119967   3.702   3.746   1.293
 6356SOL    HW219968   3.661   3.781   1.139
 6357SOL     OW19969   5.546   2.196   1.226
 6357SOL    HW119970   5.526   2.282   1.178
 6357SOL    HW219971   5.580   2.129   1.161
 6358SOL     OW19972   1.234   3.221   5.280
 6358SOL    HW119973   1.330   3.228   5.308
 6358SOL    HW219974   1.185   3.302   5.311
 6359SOL     OW19975   6.775   1.199   6.267
 6359SOL    HW119976   6.691   1.248   6.245
 6359SOL    HW219977   6.849   1.265   6.282
 6360SOL     OW19978   2.422   5.351   4.220
 6360SOL    HW119979   2.512   5.308   4.225
 6360SOL    HW219980   2.354   5.283   4.195
 6361SOL     OW19981   2.756   6.494   5.421
 6361SOL    HW119982   2.752   6.518   5.519
 6361SOL    HW219983   2.851   6.495   5.390
 6362SOL     OW19984   6.452   5.267   6.086
 6362SOL    HW119985   6.448   5.257   6.185
 6362SOL    HW219986   6.366   5.305   6.053
 6363SOL     OW19987   1.130   5.216   3.998
 6363SOL    HW119988   1.147   5.212   3.899
 6363SOL    HW219989   1.069   5.293   4.018
 6364SOL     OW19990   2.393   2.398   6.304
 6364SOL    HW119991   2.455   2.408   6.226
 6364SOL    HW219992   2.415   2.314   6.354
 6365SOL     OW19993   4.173   5.249   2.261
 6365SOL    HW119994   4.085   5.295   2.260
 6365SOL    HW219995   4.246   5.316   2.273
 6366SOL     OW19996   0.822   4.331   5.614
 6366SOL    HW119997   0.769   4.414   5.599
 6366SOL    HW219998   0.881   4.314   5.535
 6367SOL     OW19999   5.515   6.103   2.441
 6367SOL    HW120000   5.420   6.104   2.410
 6367SOL    HW220001   5.576   6.119   2.364
 6368SOL     OW20002   2.702   1.348   2.909
 6368SOL    HW120003   2.639   1.414   2.868
 6368SOL    HW220004   2.654   1.294   2.978
 6369SOL     OW20005   2.319   6.056   5.305
 6369SOL    HW120006   2.373   5.985   5.348
 6369SOL    HW220007   2.338   6.060   5.207
 6370SOL     OW20008   5.278   3.163   2.081
 6370SOL    HW120009   5.212   3.147   2.154
 6370SOL    HW220010   5.240   3.227   2.014
 6371SOL     OW20011   4.315   0.967   4.115
 6371SOL    HW120012   4.296   0.986   4.212
 6371SOL    HW220013   4.391   1.024   4.085
 6372SOL     OW20014   2.696   0.254   2.445
 6372SOL    HW120015   2.781   0.306   2.456
 6372SOL    HW220016   2.717   0.167   2.400
 6373SOL     OW20017   3.589   4.769   0.513
 6373SOL    HW120018   3.627   4.827   0.585
 6373SOL    HW220019   3.659   4.755   0.443
 6374SOL     OW20020   2.978   3.480   3.459
 6374SOL    HW120021   2.940   3.464   3.551
 6374SOL    HW220022   2.924   3.430   3.392
 6375SOL     OW20023   2.348   5.612   2.144
 6375SOL    HW120024   2.322   5.608   2.048
 6375SOL    HW220025   2.386   5.703   2.165
 6376SOL     OW20026   1.127   1.791   5.312
 6376SOL    HW120027   1.225   1.812   5.315
 6376SOL    HW220028   1.092   1.782   5.405
 6377SOL     OW20029   1.020   1.847   4.054
 6377SOL    HW120030   1.116   1.872   4.050
 6377SOL    HW220031   0.963   1.926   4.033
 6378SOL     OW20032   4.204   5.304   3.732
 6378SOL    HW120033   4.254   5.219   3.750
 6378SOL    HW220034   4.144   5.324   3.809
 6379SOL     OW20035   2.692   4.927   2.292
 6379SOL    HW120036   2.632   4.855   2.256
 6379SOL    HW220037   2.701   5.000   2.224
 6380SOL     OW20038   1.353   0.834   6.082
 6380SOL    HW120039   1.422   0.897   6.045
 6380SOL    HW220040   1.399   0.753   6.120
 6381SOL     OW20041   3.498   3.337   2.213
 6381SOL    HW120042   3.426   3.376   2.271
 6381SOL    HW220043   3.503   3.238   2.228
 6382SOL     OW20044   1.566   4.546   4.605
 6382SOL    HW120045   1.551   4.459   4.652
 6382SOL    HW220046   1.657   4.546   4.564
 6383SOL     OW20047   3.571   1.500   3.944
 6383SOL    HW120048   3.605   1.447   4.022
 6383SOL    HW220049   3.594   1.596   3.956
 6384SOL     OW20050   6.512   4.125   1.932
 6384SOL    HW120051   6.412   4.114   1.941
 6384SOL    HW220052   6.536   4.132   1.836
 6385SOL     OW20053   1.427   5.845   5.655
 6385SOL    HW120054   1.438   5.874   5.750
 6385SOL    HW220055   1.407   5.925   5.598
 6386SOL     OW20056   2.492   5.370   2.822
 6386SOL    HW120057   2.430   5.432   2.870
 6386SOL    HW220058   2.547   5.321   2.890
 6387SOL     OW20059   6.177   0.518   5.076
 6387SOL    HW120060   6.198   0.535   4.980
 6387SOL    HW220061   6.141   0.425   5.086
 6388SOL     OW20062   1.641   4.778   3.069
 6388SOL    HW120063   1.587   4.862   3.067
 6388SOL    HW220064   1.583   4.702   3.096
 6389SOL     OW20065   1.462   4.141   1.066
 6389SOL    HW120066   1.528   4.136   0.991
 6389SOL    HW220067   1.420   4.051   1.080
 6390SOL     OW20068   0.789   2.797   4.430
 6390SOL    HW120069   0.825   2.710   4.464
 6390SOL    HW220070   0.834   2.873   4.476
 6391SOL     OW20071   4.005   0.626   0.149
 6391SOL    HW120072   3.983   0.704   0.091
 6391SOL    HW220073   3.925   0.567   0.156
 6392SOL     OW20074   1.400   5.930   4.431
 6392SOL    HW120075   1.496   5.915   4.410
 6392SOL    HW220076   1.391   5.966   4.524
 6393SOL     OW20077   5.107   1.164   7.014
 6393SOL    HW120078   5.153   1.092   0.043
 6393SOL    HW220079   5.170   1.240   6.998
 6394SOL     OW20080   3.190   5.211   1.894
 6394SOL    HW120081   3.201   5.267   1.811
 6394SOL    HW220082   3.202   5.115   1.871
 6395SOL     OW20083   5.883   2.159   0.061
 6395SOL    HW120084   5.860   2.199   6.995
 6395SOL    HW220085   5.982   2.145   0.066
 6396SOL     OW20086   6.362   3.207   6.417
 6396SOL    HW120087   6.427   3.238   6.487
 6396SOL    HW220088   6.271   3.199   6.457
 6397SOL     OW20089   6.141   1.089   0.902
 6397SOL    HW120090   6.196   1.017   0.860
 6397SOL    HW220091   6.150   1.174   0.850
 6398SOL     OW20092   3.900   0.979   1.738
 6398SOL    HW120093   3.992   0.958   1.707
 6398SOL    HW220094   3.874   1.070   1.705
 6399SOL     OW20095   1.430   6.451   6.594
 6399SOL    HW120096   1.511   6.502   6.623
 6399SOL    HW220097   1.371   6.510   6.539
 6400SOL     OW20098   3.009   5.057   4.900
 6400SOL    HW120099   3.066   5.120   4.847
 6400SOL    HW220100   2.974   4.985   4.841
 6401SOL     OW20101   0.788   4.877   4.860
 6401SOL    HW120102   0.803   4.778   4.859
 6401SOL    HW220103   0.859   4.922   4.807
 6402SOL     OW20104   1.763   3.051   3.392
 6402SOL    HW120105   1.852   3.053   3.346
 6402SOL    HW220106   1.711   2.971   3.360
 6403SOL     OW20107   0.941   6.126   1.733
 6403SOL    HW120108   0.861   6.132   1.672
 6403SOL    HW220109   1.024   6.142   1.680
 6404SOL     OW20110   5.163   0.988   2.348
 6404SOL    HW120111   5.123   0.968   2.258
 6404SOL    HW220112   5.091   1.013   2.412
 6405SOL     OW20113   3.637   0.403   1.841
 6405SOL    HW120114   3.733   0.405   1.810
 6405SOL    HW220115   3.599   0.495   1.833
 6406SOL     OW20116   2.659   1.866   3.503
 6406SOL    HW120117   2.728   1.910   3.446
 6406SOL    HW220118   2.701   1.791   3.554
 6407SOL     OW20119   4.602   5.946   6.649
 6407SOL    HW120120   4.640   6.038   6.664
 6407SOL    HW220121   4.663   5.894   6.590
 6408SOL     OW20122   5.706   2.473   0.541
 6408SOL    HW120123   5.731   2.562   0.503
 6408SOL    HW220124   5.608   2.472   0.563
 6409SOL     OW20125   0.877   5.195   1.933
 6409SOL    HW120126   0.929   5.200   2.018
 6409SOL    HW220127   0.783   5.225   1.950
 6410SOL     OW20128   0.422   0.548   1.830
 6410SOL    HW120129   0.362   0.546   1.750
 6410SOL    HW220130   0.415   0.638   1.874
 6411SOL     OW20131   1.301   1.750   3.791
 6411SOL    HW120132   1.213   1.745   3.743
 6411SOL    HW220133   1.337   1.843   3.784
 6412SOL     OW20134   5.461   2.505   4.188
 6412SOL    HW120135   5.375   2.482   4.234
 6412SOL    HW220136   5.524   2.546   4.254
 6413SOL     OW20137   0.686   4.948   0.889
 6413SOL    HW120138   0.762   5.003   0.855
 6413SOL    HW220139   0.609   5.009   0.910
 6414SOL     OW20140   6.044   0.410   3.302
 6414SOL    HW120141   6.139   0.386   3.282
 6414SOL    HW220142   6.039   0.457   3.390
 6415SOL     OW20143   1.519   1.759   1.900
 6415SOL    HW120144   1.562   1.771   1.810
 6415SOL    HW220145   1.477   1.845   1.929
 6416SOL     OW20146   2.669   6.188   6.658
 6416SOL    HW120147   2.658   6.144   6.748
 6416SOL    HW220148   2.661   6.119   6.586
 6417SOL     OW20149   0.194   6.031   4.272
 6417SOL    HW120150   0.280   5.980   4.275
 6417SOL    HW220151   0.132   5.990   4.206
 6418SOL     OW20152   6.987   5.138   2.110
 6418SOL    HW120153   6.902   5.168   2.152
 6418SOL    HW220154   0.026   5.104   2.181
 6419SOL     OW20155   2.688   3.140   0.403
 6419SOL    HW120156   2.627   3.081   0.456
 6419SOL    HW220157   2.634   3.214   0.362
 6420SOL     OW20158   0.822   2.961   6.991
 6420SOL    HW120159   0.859   2.951   6.898
 6420SOL    HW220160   0.897   2.955   0.034
 6421SOL     OW20161   5.440   2.153   0.350
 6421SOL    HW120162   5.526   2.189   0.311
 6421SOL    HW220163   5.451   2.141   0.448
 6422SOL     OW20164   5.821   2.950   2.843
 6422SOL    HW120165   5.874   2.985   2.766
 6422SOL    HW220166   5.783   2.861   2.820
 6423SOL     OW20167   5.507   4.109   0.166
 6423SOL    HW120168   5.434   4.128   0.102
 6423SOL    HW220169   5.480   4.034   0.227
 6424SOL     OW20170   6.239   4.074   5.136
 6424SOL    HW120171   6.153   4.025   5.148
 6424SOL    HW220172   6.246   4.107   5.042
 6425SOL     OW20173   0.595   5.198   1.213
 6425SOL    HW120174   0.563   5.207   1.119
 6425SOL    HW220175   0.617   5.288   1.250
 6426SOL     OW20176   6.255   2.830   3.136
 6426SOL    HW120177   6.237   2.850   3.233
 6426SOL    HW220178   6.240   2.913   3.082
 6427SOL     OW20179   0.634   2.918   5.757
 6427SOL    HW120180   0.553   2.923   5.814
 6427SOL    HW220181   0.696   2.994   5.780
 6428SOL     OW20182   6.266   3.708   4.385
 6428SOL    HW120183   6.302   3.629   4.435
 6428SOL    HW220184   6.326   3.728   4.308
 6429SOL     OW20185   0.965   1.414   5.339
 6429SOL    HW120186   0.887   1.458   5.294
 6429SOL    HW220187   1.049   1.438   5.290
 6430SOL     OW20188   6.367   2.940   0.168
 6430SOL    HW120189   6.350   2.919   0.071
 6430SOL    HW220190   6.346   2.859   0.223
 6431SOL     OW20191   6.122   1.551   2.519
 6431SOL    HW120192   6.087   1.527   2.609
 6431SOL    HW220193   6.217   1.583   2.527
 6432SOL     OW20194   6.136   3.868   0.518
 6432SOL    HW120195   6.223   3.882   0.471
 6432SOL    HW220196   6.145   3.892   0.614
 6433SOL     OW20197   2.102   3.599   1.617
 6433SOL    HW120198   2.085   3.689   1.576
 6433SOL    HW220199   2.019   3.543   1.610
 6434SOL     OW20200   1.294   5.683   0.594
 6434SOL    HW120201   1.286   5.591   0.633
 6434SOL    HW220202   1.360   5.736   0.646
 6435SOL     OW20203   4.978   3.498   0.600
 6435SOL    HW120204   4.890   3.542   0.617
 6435SOL    HW220205   4.963   3.410   0.554
 6436SOL     OW20206   1.771   2.420   1.628
 6436SOL    HW120207   1.805   2.375   1.546
 6436SOL    HW220208   1.711   2.358   1.678
 6437SOL     OW20209   0.128   0.806   0.832
 6437SOL    HW120210   0.183   0.734   0.874
 6437SOL    HW220211   0.051   0.765   0.783
 6438SOL     OW20212   1.020   3.200   4.465
 6438SOL    HW120213   1.008   3.286   4.513
 6438SOL    HW220214   1.098   3.208   4.402
 6439SOL     OW20215   0.086   6.116   2.376
 6439SOL    HW120216   0.097   6.198   2.321
 6439SOL    HW220217   0.175   6.073   2.391
 6440SOL     OW20218   0.635   0.696   2.285
 6440SOL    HW120219   0.724   0.707   2.241
 6440SOL    HW220220   0.625   0.602   2.317
 6441SOL     OW20221   4.687   1.658   2.939
 6441SOL    HW120222   4.772   1.710   2.928
 6441SOL    HW220223   4.629   1.703   3.006
 6442SOL     OW20224   2.427   1.096   3.306
 6442SOL    HW120225   2.387   1.176   3.350
 6442SOL    HW220226   2.393   1.013   3.349
 6443SOL     OW20227   2.305   0.567   0.892
 6443SOL    HW120228   2.260   0.638   0.839
 6443SOL    HW220229   2.310   0.483   0.837
 6444SOL     OW20230   1.099   1.604   2.952
 6444SOL    HW120231   1.119   1.697   2.983
 6444SOL    HW220232   1.014   1.605   2.899
 6445SOL     OW20233   3.297   4.162   5.677
 6445SOL    HW120234   3.234   4.225   5.721
 6445SOL    HW220235   3.391   4.183   5.704
 6446SOL     OW20236   6.988   1.284   0.325
 6446SOL    HW120237   6.901   1.311   0.284
 6446SOL    HW220238   6.975   1.269   0.423
 6447SOL     OW20239   1.283   0.773   3.600
 6447SOL    HW120240   1.365   0.830   3.599
 6447SOL    HW220241   1.309   0.677   3.589
 6448SOL     OW20242   6.752   2.381   2.863
 6448SOL    HW120243   6.823   2.350   2.926
 6448SOL    HW220244   6.672   2.322   2.872
 6449SOL     OW20245   3.928   2.684   0.504
 6449SOL    HW120246   3.963   2.778   0.502
 6449SOL    HW220247   3.994   2.623   0.460
 6450SOL     OW20248   6.700   2.822   0.743
 6450SOL    HW120249   6.756   2.779   0.673
 6450SOL    HW220250   6.725   2.787   0.833
 6451SOL     OW20251   2.426   6.750   4.056
 6451SOL    HW120252   2.486   6.811   4.004
 6451SOL    HW220253   2.333   6.786   4.056
 6452SOL     OW20254   3.821   6.223   4.189
 6452SOL    HW120255   3.782   6.246   4.100
 6452SOL    HW220256   3.852   6.307   4.235
 6453SOL     OW20257   1.985   5.254   6.728
 6453SOL    HW120258   2.006   5.248   6.630
 6453SOL    HW220259   2.040   5.188   6.778
 6454SOL     OW20260   3.638   0.769   4.904
 6454SOL    HW120261   3.722   0.756   4.851
 6454SOL    HW220262   3.576   0.830   4.855
 6455SOL     OW20263   6.847   3.141   0.089
 6455SOL    HW120264   6.849   3.223   0.033
 6455SOL    HW220265   6.849   3.060   0.030
 6456SOL     OW20266   6.807   1.820   4.789
 6456SOL    HW120267   6.722   1.835   4.838
 6456SOL    HW220268   6.787   1.787   4.696
 6457SOL     OW20269   5.625   3.092   2.327
 6457SOL    HW120270   5.695   3.145   2.375
 6457SOL    HW220271   5.576   3.035   2.393
 6458SOL     OW20272   0.725   5.820   3.652
 6458SOL    HW120273   0.811   5.871   3.644
 6458SOL    HW220274   0.654   5.866   3.599
 6459SOL     OW20275   5.719   4.557   0.321
 6459SOL    HW120276   5.703   4.527   0.415
 6459SOL    HW220277   5.766   4.645   0.321
 6460SOL     OW20278   3.490   4.901   1.667
 6460SOL    HW120279   3.413   4.841   1.645
 6460SOL    HW220280   3.487   4.982   1.608
 6461SOL     OW20281   3.135   6.007   5.400
 6461SOL    HW120282   3.125   5.966   5.310
 6461SOL    HW220283   3.052   6.057   5.424
 6462SOL     OW20284   1.728   3.738   2.778
 6462SOL    HW120285   1.732   3.742   2.878
 6462SOL    HW220286   1.820   3.719   2.742
 6463SOL     OW20287   1.459   3.595   5.632
 6463SOL    HW120288   1.366   3.594   5.671
 6463SOL    HW220289   1.472   3.678   5.578
 6464SOL     OW20290   1.576   5.097   2.200
 6464SOL    HW120291   1.638   5.018   2.205
 6464SOL    HW220292   1.501   5.076   2.138
 6465SOL     OW20293   5.972   0.633   2.808
 6465SOL    HW120294   5.968   0.549   2.755
 6465SOL    HW220295   5.907   0.699   2.771
 6466SOL     OW20296   6.811   2.071   4.364
 6466SOL    HW120297   6.738   2.004   4.381
 6466SOL    HW220298   6.811   2.139   4.438
 6467SOL     OW20299   3.517   0.057   6.392
 6467SOL    HW120300   3.596   0.094   6.343
 6467SOL    HW220301   3.461   0.132   6.426
 6468SOL     OW20302   5.993   4.252   2.024
 6468SOL    HW120303   6.056   4.189   2.070
 6468SOL    HW220304   5.899   4.232   2.052
 6469SOL     OW20305   6.222   1.590   5.880
 6469SOL    HW120306   6.151   1.521   5.885
 6469SOL    HW220307   6.192   1.665   5.820
 6470SOL     OW20308   6.582   5.883   4.554
 6470SOL    HW120309   6.490   5.845   4.560
 6470SOL    HW220310   6.647   5.810   4.536
 6471SOL     OW20311   6.459   6.091   5.078
 6471SOL    HW120312   6.487   6.029   5.150
 6471SOL    HW220313   6.415   6.171   5.118
 6472SOL     OW20314   2.020   6.350   1.589
 6472SOL    HW120315   2.044   6.342   1.685
 6472SOL    HW220316   1.926   6.382   1.580
 6473SOL     OW20317   2.082   0.574   5.160
 6473SOL    HW120318   2.059   0.511   5.234
 6473SOL    HW220319   2.035   0.661   5.174
 6474SOL     OW20320   1.782   3.564   6.586
 6474SOL    HW120321   1.827   3.653   6.590
 6474SOL    HW220322   1.809   3.517   6.502
 6475SOL     OW20323   4.408   5.500   3.797
 6475SOL    HW120324   4.474   5.482   3.724
 6475SOL    HW220325   4.324   5.450   3.780
 6476SOL     OW20326   4.895   5.863   2.604
 6476SOL    HW120327   4.900   5.851   2.704
 6476SOL    HW220328   4.986   5.853   2.565
 6477SOL     OW20329   6.649   6.418   0.151
 6477SOL    HW120330   6.571   6.416   0.089
 6477SOL    HW220331   6.723   6.472   0.110
 6478SOL     OW20332   4.452   5.617   1.417
 6478SOL    HW120333   4.394   5.561   1.358
 6478SOL    HW220334   4.465   5.707   1.376
 6479SOL     OW20335   3.151   6.132   2.847
 6479SOL    HW120336   3.171   6.213   2.902
 6479SOL    HW220337   3.236   6.087   2.821
 6480SOL     OW20338   2.795   0.836   1.145
 6480SOL    HW120339   2.795   0.783   1.230
 6480SOL    HW220340   2.775   0.775   1.068
 6481SOL     OW20341   4.851   0.504   0.861
 6481SOL    HW120342   4.779   0.561   0.901
 6481SOL    HW220343   4.832   0.491   0.764
 6482SOL     OW20344   0.086   0.150   6.019
 6482SOL    HW120345   0.122   0.106   5.937
 6482SOL    HW220346   0.126   0.241   6.029
 6483SOL     OW20347   2.037   5.010   1.633
 6483SOL    HW120348   1.944   5.004   1.597
 6483SOL    HW220349   2.097   5.048   1.562
 6484SOL     OW20350   4.916   6.940   2.917
 6484SOL    HW120351   4.914   0.005   2.964
 6484SOL    HW220352   4.962   6.951   2.828
 6485SOL     OW20353   0.539   2.851   3.174
 6485SOL    HW120354   0.552   2.866   3.076
 6485SOL    HW220355   0.566   2.933   3.224
 6486SOL     OW20356   1.379   2.638   3.132
 6486SOL    HW120357   1.330   2.552   3.120
 6486SOL    HW220358   1.477   2.621   3.131
 6487SOL     OW20359   6.014   5.590   3.254
 6487SOL    HW120360   5.975   5.680   3.233
 6487SOL    HW220361   5.941   5.523   3.263
 6488SOL     OW20362   3.287   5.280   4.655
 6488SOL    HW120363   3.373   5.231   4.646
 6488SOL    HW220364   3.305   5.375   4.681
 6489SOL     OW20365   2.458   1.432   6.662
 6489SOL    HW120366   2.489   1.522   6.632
 6489SOL    HW220367   2.466   1.425   6.762
 6490SOL     OW20368   5.201   2.012   0.673
 6490SOL    HW120369   5.296   1.989   0.692
 6490SOL    HW220370   5.159   2.049   0.756
 6491SOL     OW20371   5.249   0.798   5.471
 6491SOL    HW120372   5.244   0.705   5.434
 6491SOL    HW220373   5.345   0.820   5.492
 6492SOL     OW20374   6.186   5.838   5.640
 6492SOL    HW120375   6.128   5.888   5.705
 6492SOL    HW220376   6.128   5.791   5.574
 6493SOL     OW20377   0.825   0.137   5.164
 6493SOL    HW120378   0.898   0.106   5.225
 6493SOL    HW220379   0.768   0.059   5.138
 6494SOL     OW20380   0.540   1.740   3.205
 6494SOL    HW120381   0.501   1.654   3.171
 6494SOL    HW220382   0.568   1.729   3.300
 6495SOL     OW20383   5.792   4.571   1.712
 6495SOL    HW120384   5.815   4.477   1.740
 6495SOL    HW220385   5.714   4.604   1.764
 6496SOL     OW20386   0.419   6.291   3.276
 6496SOL    HW120387   0.416   6.194   3.251
 6496SOL    HW220388   0.400   6.346   3.195
 6497SOL     OW20389   0.917   6.835   1.039
 6497SOL    HW120390   0.971   6.777   1.099
 6497SOL    HW220391   0.898   6.922   1.084
 6498SOL     OW20392   1.279   3.839   4.009
 6498SOL    HW120393   1.195   3.883   3.976
 6498SOL    HW220394   1.321   3.895   4.079
 6499SOL     OW20395   6.083   1.626   3.341
 6499SOL    HW120396   6.182   1.640   3.339
 6499SOL    HW220397   6.043   1.680   3.415
 6500SOL     OW20398   5.748   4.686   2.193
 6500SOL    HW120399   5.834   4.650   2.156
 6500SOL    HW220400   5.767   4.735   2.279
 6501SOL     OW20401   6.782   3.940   0.513
 6501SOL    HW120402   6.700   3.997   0.520
 6501SOL    HW220403   6.795   3.913   0.418
 6502SOL     OW20404   1.061   4.987   1.220
 6502SOL    HW120405   1.134   4.981   1.152
 6502SOL    HW220406   1.102   5.001   1.311
 6503SOL     OW20407   4.293   0.331   4.133
 6503SOL    HW120408   4.371   0.300   4.186
 6503SOL    HW220409   4.324   0.396   4.063
 6504SOL     OW20410   2.158   1.436   0.830
 6504SOL    HW120411   2.098   1.456   0.907
 6504SOL    HW220412   2.253   1.429   0.862
 6505SOL     OW20413   5.588   5.361   0.351
 6505SOL    HW120414   5.597   5.262   0.340
 6505SOL    HW220415   5.657   5.394   0.415
 6506SOL     OW20416   2.239   1.043   1.072
 6506SOL    HW120417   2.318   0.988   1.103
 6506SOL    HW220418   2.165   0.981   1.046
 6507SOL     OW20419   2.827   0.736   1.763
 6507SOL    HW120420   2.808   0.783   1.849
 6507SOL    HW220421   2.804   0.639   1.772
 6508SOL     OW20422   1.811   2.333   1.994
 6508SOL    HW120423   1.892   2.283   1.961
 6508SOL    HW220424   1.731   2.273   1.991
 6509SOL     OW20425   1.482   2.804   3.894
 6509SOL    HW120426   1.491   2.883   3.956
 6509SOL    HW220427   1.555   2.738   3.914
 6510SOL     OW20428   6.088   4.440   6.685
 6510SOL    HW120429   6.061   4.530   6.721
 6510SOL    HW220430   6.100   4.377   6.762
 6511SOL     OW20431   0.124   6.981   6.209
 6511SOL    HW120432   0.195   6.922   6.170
 6511SOL    HW220433   0.115   0.040   6.153
 6512SOL     OW20434   5.398   5.877   3.664
 6512SOL    HW120435   5.480   5.837   3.624
 6512SOL    HW220436   5.319   5.821   3.638
 6513SOL     OW20437   1.015   6.667   3.491
 6513SOL    HW120438   0.969   6.727   3.426
 6513SOL    HW220439   1.070   6.721   3.554
 6514SOL     OW20440   2.923   0.529   3.364
 6514SOL    HW120441   2.901   0.616   3.409
 6514SOL    HW220442   3.013   0.536   3.320
 6515SOL     OW20443   0.532   0.557   3.285
 6515SOL    HW120444   0.440   0.531   3.312
 6515SOL    HW220445   0.598   0.490   3.319
 6516SOL     OW20446   1.302   0.978   5.613
 6516SOL    HW120447   1.342   0.930   5.535
 6516SOL    HW220448   1.284   1.073   5.588
 6517SOL     OW20449   2.495   2.032   0.995
 6517SOL    HW120450   2.582   1.986   1.009
 6517SOL    HW220451   2.425   1.990   1.054
 6518SOL     OW20452   5.813   6.417   1.018
 6518SOL    HW120453   5.866   6.354   0.962
 6518SOL    HW220454   5.734   6.369   1.057
 6519SOL     OW20455   1.107   1.883   4.351
 6519SOL    HW120456   1.067   1.975   4.352
 6519SOL    HW220457   1.179   1.879   4.282
 6520SOL     OW20458   5.667   5.476   1.435
 6520SOL    HW120459   5.690   5.515   1.346
 6520SOL    HW220460   5.608   5.396   1.423
 6521SOL     OW20461   1.325   2.023   5.687
 6521SOL    HW120462   1.305   1.926   5.694
 6521SOL    HW220463   1.419   2.040   5.718
 6522SOL     OW20464   2.413   4.997   4.280
 6522SOL    HW120465   2.383   4.906   4.304
 6522SOL    HW220466   2.338   5.048   4.238
 6523SOL     OW20467   1.624   2.289   0.299
 6523SOL    HW120468   1.636   2.206   0.353
 6523SOL    HW220469   1.528   2.298   0.272
 6524SOL     OW20470   4.093   2.593   5.571
 6524SOL    HW120471   4.018   2.653   5.545
 6524SOL    HW220472   4.092   2.580   5.670
 6525SOL     OW20473   0.430   2.571   4.223
 6525SOL    HW120474   0.382   2.651   4.259
 6525SOL    HW220475   0.508   2.549   4.281
 6526SOL     OW20476   1.811   5.790   3.826
 6526SOL    HW120477   1.716   5.810   3.803
 6526SOL    HW220478   1.814   5.711   3.887
 6527SOL     OW20479   2.257   1.317   3.999
 6527SOL    HW120480   2.230   1.222   4.017
 6527SOL    HW220481   2.305   1.353   4.079
 6528SOL     OW20482   0.578   0.079   2.965
 6528SOL    HW120483   0.614   7.018   2.924
 6528SOL    HW220484   0.499   0.057   3.021
 6529SOL     OW20485   6.608   2.784   2.332
 6529SOL    HW120486   6.544   2.833   2.392
 6529SOL    HW220487   6.688   2.841   2.316
 6530SOL     OW20488   0.436   1.808   0.308
 6530SOL    HW120489   0.337   1.798   0.300
 6530SOL    HW220490   0.476   1.720   0.336
 6531SOL     OW20491   4.937   2.289   5.549
 6531SOL    HW120492   4.861   2.297   5.484
 6531SOL    HW220493   4.940   2.370   5.607
 6532SOL     OW20494   1.330   2.158   0.201
 6532SOL    HW120495   1.309   2.135   0.106
 6532SOL    HW220496   1.383   2.084   0.243
 6533SOL     OW20497   4.781   0.255   0.921
 6533SOL    HW120498   4.836   0.235   1.001
 6533SOL    HW220499   4.806   0.344   0.884
 6534SOL     OW20500   2.759   2.792   6.776
 6534SOL    HW120501   2.855   2.763   6.778
 6534SOL    HW220502   2.728   2.808   6.870
 6535SOL     OW20503   1.980   3.203   5.213
 6535SOL    HW120504   2.040   3.133   5.174
 6535SOL    HW220505   2.028   3.249   5.288
 6536SOL     OW20506   7.016   1.923   6.859
 6536SOL    HW120507   0.018   1.996   6.923
 6536SOL    HW220508   7.006   1.962   6.767
 6537SOL     OW20509   0.925   0.754   6.432
 6537SOL    HW120510   0.935   0.705   6.519
 6537SOL    HW220511   0.994   0.721   6.368
 6538SOL     OW20512   2.493   2.689   5.732
 6538SOL    HW120513   2.579   2.658   5.690
 6538SOL    HW220514   2.491   2.662   5.828
 6539SOL     OW20515   3.505   1.429   6.660
 6539SOL    HW120516   3.519   1.505   6.723
 6539SOL    HW220517   3.508   1.462   6.566
 6540SOL     OW20518   3.893   2.171   3.671
 6540SOL    HW120519   3.844   2.258   3.662
 6540SOL    HW220520   3.850   2.102   3.612
 6541SOL     OW20521   2.606   2.435   5.457
 6541SOL    HW120522   2.682   2.386   5.414
 6541SOL    HW220523   2.602   2.528   5.422
 6542SOL     OW20524   5.513   4.454   2.740
 6542SOL    HW120525   5.596   4.505   2.717
 6542SOL    HW220526   5.493   4.387   2.668
 6543SOL     OW20527   1.187   6.203   6.043
 6543SOL    HW120528   1.127   6.124   6.055
 6543SOL    HW220529   1.237   6.194   5.956
 6544SOL     OW20530   0.255   6.041   2.783
 6544SOL    HW120531   0.353   6.023   2.776
 6544SOL    HW220532   0.224   6.090   2.701
 6545SOL     OW20533   5.936   2.956   6.510
 6545SOL    HW120534   5.854   2.969   6.566
 6545SOL    HW220535   5.921   2.994   6.418
 6546SOL     OW20536   3.245   4.691   6.075
 6546SOL    HW120537   3.167   4.635   6.102
 6546SOL    HW220538   3.305   4.638   6.014
 6547SOL     OW20539   5.050   0.845   6.345
 6547SOL    HW120540   5.116   0.912   6.380
 6547SOL    HW220541   4.974   0.893   6.301
 6548SOL     OW20542   4.985   4.015   5.606
 6548SOL    HW120543   4.962   4.094   5.548
 6548SOL    HW220544   5.083   4.017   5.628
 6549SOL     OW20545   2.723   2.364   2.656
 6549SOL    HW120546   2.741   2.356   2.558
 6549SOL    HW220547   2.791   2.312   2.707
 6550SOL     OW20548   1.019   5.855   2.538
 6550SOL    HW120549   1.020   5.797   2.619
 6550SOL    HW220550   0.997   5.799   2.458
 6551SOL     OW20551   3.553   5.342   2.256
 6551SOL    HW120552   3.502   5.353   2.170
 6551SOL    HW220553   3.641   5.297   2.237
 6552SOL     OW20554   4.336   4.619   5.872
 6552SOL    HW120555   4.365   4.704   5.917
 6552SOL    HW220556   4.304   4.554   5.940
 6553SOL     OW20557   6.946   3.223   3.199
 6553SOL    HW120558   6.907   3.132   3.188
 6553SOL    HW220559   6.983   3.255   3.112
 6554SOL     OW20560   0.022   3.985   4.641
 6554SOL    HW120561   6.962   3.934   4.619
 6554SOL    HW220562   0.102   3.931   4.615
 6555SOL     OW20563   0.502   1.597   1.188
 6555SOL    HW120564   0.548   1.515   1.220
 6555SOL    HW220565   0.543   1.677   1.232
 6556SOL     OW20566   3.539   0.273   3.372
 6556SOL    HW120567   3.514   0.224   3.456
 6556SOL    HW220568   3.587   0.358   3.396
 6557SOL     OW20569   5.521   5.673   0.548
 6557SOL    HW120570   5.560   5.686   0.457
 6557SOL    HW220571   5.421   5.684   0.544
 6558SOL     OW20572   6.934   6.321   5.758
 6558SOL    HW120573   0.008   6.343   5.749
 6558SOL    HW220574   6.908   6.254   5.689
 6559SOL     OW20575   3.191   3.617   1.240
 6559SOL    HW120576   3.147   3.627   1.150
 6559SOL    HW220577   3.251   3.537   1.239
 6560SOL     OW20578   4.439   2.131   1.518
 6560SOL    HW120579   4.341   2.115   1.522
 6560SOL    HW220580   4.459   2.224   1.550
 6561SOL     OW20581   3.992   3.935   4.532
 6561SOL    HW120582   3.984   3.846   4.577
 6561SOL    HW220583   4.028   3.923   4.440
 6562SOL     OW20584   0.194   4.622   4.958
 6562SOL    HW120585   0.149   4.711   4.954
 6562SOL    HW220586   0.173   4.578   5.045
 6563SOL     OW20587   0.482   5.280   2.444
 6563SOL    HW120588   0.432   5.341   2.382
 6563SOL    HW220589   0.580   5.284   2.423
 6564SOL     OW20590   1.571   5.016   3.145
 6564SOL    HW120591   1.505   5.004   3.219
 6564SOL    HW220592   1.530   5.074   3.074
 6565SOL     OW20593   6.612   3.489   4.857
 6565SOL    HW120594   6.688   3.516   4.917
 6565SOL    HW220595   6.615   3.543   4.773
 6566SOL     OW20596   4.293   1.064   0.647
 6566SOL    HW120597   4.354   1.108   0.580
 6566SOL    HW220598   4.315   1.098   0.738
 6567SOL     OW20599   6.506   2.540   0.848
 6567SOL    HW120600   6.541   2.607   0.913
 6567SOL    HW220601   6.582   2.493   0.804
 6568SOL     OW20602   4.747   3.604   1.179
 6568SOL    HW120603   4.842   3.633   1.176
 6568SOL    HW220604   4.737   3.516   1.133
 6569SOL     OW20605   1.455   4.144   5.573
 6569SOL    HW120606   1.389   4.178   5.506
 6569SOL    HW220607   1.534   4.205   5.575
 6570SOL     OW20608   6.626   3.842   1.820
 6570SOL    HW120609   6.551   3.859   1.758
 6570SOL    HW220610   6.606   3.883   1.909
 6571SOL     OW20611   1.925   6.202   3.961
 6571SOL    HW120612   1.984   6.135   3.916
 6571SOL    HW220613   1.950   6.210   4.057
 6572SOL     OW20614   2.077   3.681   5.805
 6572SOL    HW120615   1.992   3.694   5.855
 6572SOL    HW220616   2.114   3.590   5.824
 6573SOL     OW20617   1.678   1.781   1.391
 6573SOL    HW120618   1.664   1.748   1.298
 6573SOL    HW220619   1.682   1.881   1.391
 6574SOL     OW20620   2.285   4.275   4.599
 6574SOL    HW120621   2.294   4.195   4.540
 6574SOL    HW220622   2.282   4.246   4.695
 6575SOL     OW20623   1.734   1.849   2.800
 6575SOL    HW120624   1.827   1.823   2.827
 6575SOL    HW220625   1.671   1.774   2.819
 6576SOL     OW20626   0.190   6.657   3.909
 6576SOL    HW120627   0.093   6.639   3.924
 6576SOL    HW220628   0.237   6.571   3.887
 6577SOL     OW20629   0.361   3.604   5.223
 6577SOL    HW120630   0.335   3.680   5.282
 6577SOL    HW220631   0.434   3.633   5.161
 6578SOL     OW20632   6.609   5.733   3.875
 6578SOL    HW120633   6.634   5.812   3.930
 6578SOL    HW220634   6.686   5.708   3.816
 6579SOL     OW20635   6.944   4.201   3.600
 6579SOL    HW120636   6.922   4.165   3.509
 6579SOL    HW220637   0.004   4.156   3.634
 6580SOL     OW20638   5.467   2.798   0.437
 6580SOL    HW120639   5.527   2.878   0.445
 6580SOL    HW220640   5.418   2.783   0.523
 6581SOL     OW20641   2.454   2.323   5.634
 6581SOL    HW120642   2.527   2.362   5.578
 6581SOL    HW220643   2.368   2.328   5.585
 6582SOL     OW20644   6.519   0.558   2.667
 6582SOL    HW120645   6.536   0.627   2.596
 6582SOL    HW220646   6.434   0.510   2.645
 6583SOL     OW20647   6.573   1.310   6.091
 6583SOL    HW120648   6.575   1.214   6.064
 6583SOL    HW220649   6.479   1.345   6.081
 6584SOL     OW20650   5.734   2.780   0.605
 6584SOL    HW120651   5.744   2.751   0.701
 6584SOL    HW220652   5.714   2.877   0.602
 6585SOL     OW20653   2.536   0.939   1.952
 6585SOL    HW120654   2.634   0.954   1.968
 6585SOL    HW220655   2.522   0.848   1.914
 6586SOL     OW20656   6.169   2.104   7.017
 6586SOL    HW120657   6.241   2.066   0.052
 6586SOL    HW220658   6.171   2.060   6.927
 6587SOL     OW20659   1.965   6.014   1.729
 6587SOL    HW120660   2.064   5.996   1.723
 6587SOL    HW220661   1.916   5.927   1.734
 6588SOL     OW20662   3.060   2.479   0.197
 6588SOL    HW120663   3.062   2.382   0.219
 6588SOL    HW220664   3.127   2.498   0.124
 6589SOL     OW20665   4.741   1.858   6.106
 6589SOL    HW120666   4.831   1.874   6.066
 6589SOL    HW220667   4.676   1.835   6.034
 6590SOL     OW20668   6.225   1.732   5.616
 6590SOL    HW120669   6.272   1.804   5.666
 6590SOL    HW220670   6.290   1.659   5.594
 6591SOL     OW20671   5.241   0.356   2.570
 6591SOL    HW120672   5.235   0.456   2.581
 6591SOL    HW220673   5.169   0.326   2.507
 6592SOL     OW20674   6.403   5.431   5.043
 6592SOL    HW120675   6.320   5.464   5.089
 6592SOL    HW220676   6.466   5.508   5.031
 6593SOL     OW20677   4.989   1.047   2.565
 6593SOL    HW120678   4.905   1.087   2.603
 6593SOL    HW220679   5.061   1.051   2.634
 6594SOL     OW20680   5.383   1.273   0.084
 6594SOL    HW120681   5.429   1.260   0.172
 6594SOL    HW220682   5.408   1.199   0.022
 6595SOL     OW20683   3.378   2.344   6.287
 6595SOL    HW120684   3.290   2.299   6.272
 6595SOL    HW220685   3.408   2.389   6.202
 6596SOL     OW20686   2.831   6.593   4.921
 6596SOL    HW120687   2.872   6.534   4.851
 6596SOL    HW220688   2.849   6.555   5.011
 6597SOL     OW20689   0.158   4.155   6.573
 6597SOL    HW120690   0.140   4.213   6.493
 6597SOL    HW220691   0.072   4.138   6.621
 6598SOL     OW20692   2.459   6.001   4.559
 6598SOL    HW120693   2.442   5.922   4.501
 6598SOL    HW220694   2.549   6.039   4.538
 6599SOL     OW20695   4.483   3.572   6.286
 6599SOL    HW120696   4.481   3.474   6.304
 6599SOL    HW220697   4.459   3.590   6.190
 6600SOL     OW20698   4.092   4.892   4.758
 6600SOL    HW120699   4.130   4.983   4.775
 6600SOL    HW220700   4.011   4.901   4.701
 6601SOL     OW20701   0.394   0.818   1.950
 6601SOL    HW120702   0.338   0.828   2.032
 6601SOL    HW220703   0.490   0.836   1.973
 6602SOL     OW20704   6.592   1.313   1.097
 6602SOL    HW120705   6.498   1.346   1.107
 6602SOL    HW220706   6.623   1.275   1.184
 6603SOL     OW20707   2.842   1.479   1.899
 6603SOL    HW120708   2.912   1.550   1.895
 6603SOL    HW220709   2.842   1.427   1.813
 6604SOL     OW20710   4.040   6.095   4.363
 6604SOL    HW120711   3.991   6.130   4.283
 6604SOL    HW220712   3.992   6.013   4.397
 6605SOL     OW20713   5.281   6.249   0.132
 6605SOL    HW120714   5.214   6.187   0.172
 6605SOL    HW220715   5.252   6.274   0.040
 6606SOL     OW20716   0.728   2.277   3.114
 6606SOL    HW120717   0.779   2.339   3.054
 6606SOL    HW220718   0.630   2.289   3.099
 6607SOL     OW20719   1.253   3.356   2.756
 6607SOL    HW120720   1.167   3.394   2.724
 6607SOL    HW220721   1.314   3.429   2.785
 6608SOL     OW20722   4.984   4.380   4.795
 6608SOL    HW120723   4.929   4.337   4.724
 6608SOL    HW220724   4.958   4.476   4.804
 6609SOL     OW20725   5.230   2.067   0.197
 6609SOL    HW120726   5.264   2.008   0.124
 6609SOL    HW220727   5.306   2.091   0.258
 6610SOL     OW20728   3.823   1.424   0.763
 6610SOL    HW120729   3.734   1.401   0.801
 6610SOL    HW220730   3.816   1.433   0.664
 6611SOL     OW20731   5.501   3.873   2.886
 6611SOL    HW120732   5.597   3.849   2.893
 6611SOL    HW220733   5.453   3.843   2.968
 6612SOL     OW20734   1.184   6.193   6.676
 6612SOL    HW120735   1.194   6.096   6.699
 6612SOL    HW220736   1.252   6.218   6.607
 6613SOL     OW20737   5.662   4.857   0.840
 6613SOL    HW120738   5.704   4.779   0.792
 6613SOL    HW220739   5.577   4.827   0.884
 6614SOL     OW20740   5.911   4.652   6.193
 6614SOL    HW120741   5.936   4.634   6.288
 6614SOL    HW220742   5.870   4.570   6.153
 6615SOL     OW20743   0.106   3.422   5.256
 6615SOL    HW120744   0.133   3.336   5.300
 6615SOL    HW220745   0.186   3.483   5.251
 6616SOL     OW20746   4.666   1.162   4.240
 6616SOL    HW120747   4.708   1.121   4.321
 6616SOL    HW220748   4.635   1.089   4.179
 6617SOL     OW20749   4.423   0.163   5.008
 6617SOL    HW120750   4.375   0.189   5.091
 6617SOL    HW220751   4.428   0.063   5.001
 6618SOL     OW20752   6.907   4.637   1.138
 6618SOL    HW120753   6.912   4.698   1.216
 6618SOL    HW220754   6.904   4.542   1.170
 6619SOL     OW20755   6.917   5.965   1.564
 6619SOL    HW120756   6.957   6.054   1.540
 6619SOL    HW220757   6.901   5.961   1.662
 6620SOL     OW20758   4.549   3.130   5.366
 6620SOL    HW120759   4.544   3.230   5.363
 6620SOL    HW220760   4.635   3.099   5.325
 6621SOL     OW20761   2.714   3.109   0.123
 6621SOL    HW120762   2.797   3.073   0.080
 6621SOL    HW220763   2.718   3.091   0.222
 6622SOL     OW20764   6.184   5.467   0.401
 6622SOL    HW120765   6.143   5.412   0.474
 6622SOL    HW220766   6.191   5.412   0.317
 6623SOL     OW20767   3.859   3.985   2.531
 6623SOL    HW120768   3.911   4.018   2.609
 6623SOL    HW220769   3.898   3.898   2.499
 6624SOL     OW20770   4.573   5.108   4.498
 6624SOL    HW120771   4.511   5.186   4.495
 6624SOL    HW220772   4.559   5.051   4.417
 6625SOL     OW20773   5.959   6.640   7.012
 6625SOL    HW120774   5.964   6.584   6.930
 6625SOL    HW220775   6.051   6.651   0.028
 6626SOL     OW20776   2.910   4.808   3.725
 6626SOL    HW120777   2.894   4.903   3.699
 6626SOL    HW220778   2.863   4.748   3.660
 6627SOL     OW20779   1.835   6.574   1.742
 6627SOL    HW120780   1.742   6.584   1.779
 6627SOL    HW220781   1.846   6.635   1.664
 6628SOL     OW20782   3.836   6.166   3.777
 6628SOL    HW120783   3.852   6.080   3.729
 6628SOL    HW220784   3.866   6.242   3.721
 6629SOL     OW20785   3.148   3.933   0.502
 6629SOL    HW120786   3.242   3.909   0.526
 6629SOL    HW220787   3.139   3.937   0.402
 6630SOL     OW20788   3.793   1.028   6.549
 6630SOL    HW120789   3.869   1.082   6.584
 6630SOL    HW220790   3.718   1.089   6.524
 6631SOL     OW20791   3.991   0.122   1.347
 6631SOL    HW120792   4.068   0.175   1.312
 6631SOL    HW220793   3.929   0.182   1.397
 6632SOL     OW20794   6.017   3.181   2.414
 6632SOL    HW120795   5.951   3.253   2.433
 6632SOL    HW220796   6.055   3.194   2.322
 6633SOL     OW20797   0.408   6.117   2.208
 6633SOL    HW120798   0.338   6.080   2.147
 6633SOL    HW220799   0.491   6.062   2.202
 6634SOL     OW20800   6.658   2.442   5.946
 6634SOL    HW120801   6.641   2.411   6.040
 6634SOL    HW220802   6.687   2.364   5.891
 6635SOL     OW20803   4.208   5.003   3.317
 6635SOL    HW120804   4.191   5.088   3.267
 6635SOL    HW220805   4.142   4.994   3.392
 6636SOL     OW20806   1.758   3.456   3.608
 6636SOL    HW120807   1.732   3.361   3.588
 6636SOL    HW220808   1.857   3.463   3.612
 6637SOL     OW20809   6.442   2.769   1.297
 6637SOL    HW120810   6.465   2.671   1.301
 6637SOL    HW220811   6.344   2.780   1.311
 6638SOL     OW20812   1.688   0.627   6.634
 6638SOL    HW120813   1.740   0.578   6.704
 6638SOL    HW220814   1.646   0.708   6.675
 6639SOL     OW20815   4.206   5.608   6.177
 6639SOL    HW120816   4.145   5.529   6.186
 6639SOL    HW220817   4.206   5.639   6.082
 6640SOL     OW20818   5.666   3.404   2.967
 6640SOL    HW120819   5.625   3.422   2.878
 6640SOL    HW220820   5.601   3.356   3.025
 6641SOL     OW20821   2.356   5.311   6.645
 6641SOL    HW120822   2.367   5.215   6.672
 6641SOL    HW220823   2.302   5.358   6.714
 6642SOL     OW20824   6.656   5.915   5.874
 6642SOL    HW120825   6.586   5.888   5.808
 6642SOL    HW220826   6.635   6.005   5.910
 6643SOL     OW20827   4.113   5.150   6.890
 6643SOL    HW120828   4.103   5.173   6.987
 6643SOL    HW220829   4.194   5.196   6.853
 6644SOL     OW20830   0.791   3.983   2.013
 6644SOL    HW120831   0.856   4.048   1.975
 6644SOL    HW220832   0.793   3.988   2.113
 6645SOL     OW20833   6.816   4.691   5.430
 6645SOL    HW120834   6.847   4.598   5.412
 6645SOL    HW220835   6.842   4.750   5.354
 6646SOL     OW20836   1.383   5.661   3.493
 6646SOL    HW120837   1.394   5.723   3.415
 6646SOL    HW220838   1.459   5.596   3.494
 6647SOL     OW20839   4.253   1.928   2.123
 6647SOL    HW120840   4.331   1.948   2.183
 6647SOL    HW220841   4.175   1.899   2.179
 6648SOL     OW20842   4.281   5.383   2.007
 6648SOL    HW120843   4.280   5.437   2.091
 6648SOL    HW220844   4.201   5.406   1.952
 6649SOL     OW20845   4.436   1.203   6.486
 6649SOL    HW120846   4.451   1.301   6.472
 6649SOL    HW220847   4.456   1.179   6.580
 6650SOL     OW20848   3.291   1.531   4.039
 6650SOL    HW120849   3.282   1.629   4.021
 6650SOL    HW220850   3.371   1.495   3.992
 6651SOL     OW20851   0.515   1.727   0.636
 6651SOL    HW120852   0.454   1.651   0.618
 6651SOL    HW220853   0.604   1.710   0.592
 6652SOL     OW20854   0.810   5.147   3.028
 6652SOL    HW120855   0.798   5.168   2.931
 6652SOL    HW220856   0.722   5.127   3.070
 6653SOL     OW20857   3.433   3.807   3.571
 6653SOL    HW120858   3.348   3.795   3.622
 6653SOL    HW220859   3.426   3.889   3.514
 6654SOL     OW20860   1.742   3.914   1.392
 6654SOL    HW120861   1.792   3.941   1.310
 6654SOL    HW220862   1.671   3.983   1.411
 6655SOL     OW20863   1.582   0.677   7.002
 6655SOL    HW120864   1.490   0.666   0.014
 6655SOL    HW220865   1.578   0.720   6.911
 6656SOL     OW20866   6.781   2.560   2.073
 6656SOL    HW120867   6.860   2.593   2.020
 6656SOL    HW220868   6.699   2.611   2.046
 6657SOL     OW20869   3.131   5.227   5.318
 6657SOL    HW120870   3.071   5.162   5.272
 6657SOL    HW220871   3.169   5.290   5.251
 6658SOL     OW20872   6.559   7.011   6.170
 6658SOL    HW120873   6.596   7.013   6.263
 6658SOL    HW220874   6.512   6.924   6.154
 6659SOL     OW20875   1.644   2.946   6.608
 6659SOL    HW120876   1.578   2.882   6.571
 6659SOL    HW220877   1.602   2.999   6.682
 6660SOL     OW20878   0.739   6.205   2.683
 6660SOL    HW120879   0.685   6.266   2.625
 6660SOL    HW220880   0.835   6.209   2.656
 6661SOL     OW20881   6.849   6.881   3.973
 6661SOL    HW120882   6.759   6.899   3.933
 6661SOL    HW220883   6.912   6.953   3.947
 6662SOL     OW20884   1.183   3.623   5.748
 6662SOL    HW120885   1.191   3.552   5.819
 6662SOL    HW220886   1.182   3.713   5.791
 6663SOL     OW20887   0.671   4.940   2.276
 6663SOL    HW120888   0.714   4.890   2.201
 6663SOL    HW220889   0.614   5.013   2.238
 6664SOL     OW20890   6.998   2.466   2.270
 6664SOL    HW120891   6.958   2.436   2.357
 6664SOL    HW220892   6.925   2.500   2.211
 6665SOL     OW20893   2.019   0.064   2.469
 6665SOL    HW120894   2.051   0.042   2.561
 6665SOL    HW220895   2.096   0.097   2.414
 6666SOL     OW20896   5.146   1.090   0.383
 6666SOL    HW120897   5.216   1.111   0.451
 6666SOL    HW220898   5.074   1.160   0.386
 6667SOL     OW20899   5.982   4.858   5.078
 6667SOL    HW120900   5.933   4.838   4.993
 6667SOL    HW220901   6.032   4.944   5.067
 6668SOL     OW20902   6.736   6.398   1.069
 6668SOL    HW120903   6.794   6.366   0.994
 6668SOL    HW220904   6.716   6.495   1.057
 6669SOL     OW20905   0.801   4.786   2.750
 6669SOL    HW120906   0.852   4.801   2.834
 6669SOL    HW220907   0.743   4.866   2.732
 6670SOL     OW20908   4.535   4.586   6.960
 6670SOL    HW120909   4.546   4.518   0.009
 6670SOL    HW220910   4.576   4.673   6.989
 6671SOL     OW20911   0.785   2.693   5.433
 6671SOL    HW120912   0.778   2.736   5.343
 6671SOL    HW220913   0.694   2.692   5.476
 6672SOL     OW20914   6.910   0.765   5.268
 6672SOL    HW120915   7.010   0.768   5.259
 6672SOL    HW220916   6.873   0.858   5.262
 6673SOL     OW20917   4.541   5.824   1.264
 6673SOL    HW120918   4.626   5.845   1.313
 6673SOL    HW220919   4.525   5.894   1.193
 6674SOL     OW20920   0.785   6.662   5.531
 6674SOL    HW120921   0.785   6.682   5.433
 6674SOL    HW220922   0.869   6.614   5.556
 6675SOL     OW20923   6.706   5.876   6.978
 6675SOL    HW120924   6.781   5.941   6.963
 6675SOL    HW220925   6.741   5.783   6.978
 6676SOL     OW20926   0.292   1.869   0.682
 6676SOL    HW120927   0.255   1.796   0.740
 6676SOL    HW220928   0.375   1.836   0.636
 6677SOL     OW20929   0.295   4.694   0.574
 6677SOL    HW120930   0.341   4.605   0.581
 6677SOL    HW220931   0.363   4.766   0.565
 6678SOL     OW20932   1.062   2.946   4.133
 6678SOL    HW120933   0.967   2.919   4.148
 6678SOL    HW220934   1.118   2.864   4.121
 6679SOL     OW20935   1.862   1.084   4.817
 6679SOL    HW120936   1.940   1.114   4.762
 6679SOL    HW220937   1.873   1.117   4.911
 6680SOL     OW20938   3.201   0.652   6.276
 6680SOL    HW120939   3.129   0.721   6.276
 6680SOL    HW220940   3.229   0.633   6.182
 6681SOL     OW20941   5.553   5.647   6.513
 6681SOL    HW120942   5.482   5.662   6.444
 6681SOL    HW220943   5.514   5.662   6.604
 6682SOL     OW20944   6.605   5.416   2.021
 6682SOL    HW120945   6.574   5.368   2.103
 6682SOL    HW220946   6.606   5.352   1.944
 6683SOL     OW20947   4.551   2.359   4.469
 6683SOL    HW120948   4.500   2.287   4.423
 6683SOL    HW220949   4.545   2.345   4.568
 6684SOL     OW20950   1.455   1.411   2.372
 6684SOL    HW120951   1.444   1.505   2.340
 6684SOL    HW220952   1.401   1.397   2.455
 6685SOL     OW20953   5.850   2.880   0.005
 6685SOL    HW120954   5.832   2.785   0.029
 6685SOL    HW220955   5.769   2.920   6.985
 6686SOL     OW20956   5.932   4.087   3.985
 6686SOL    HW120957   5.958   4.124   3.896
 6686SOL    HW220958   5.916   3.989   3.977
 6687SOL     OW20959   0.511   0.558   0.280
 6687SOL    HW120960   0.502   0.511   0.192
 6687SOL    HW220961   0.533   0.654   0.265
 6688SOL     OW20962   0.629   4.974   2.646
 6688SOL    HW120963   0.548   4.953   2.700
 6688SOL    HW220964   0.662   5.065   2.669
 6689SOL     OW20965   4.890   4.158   6.993
 6689SOL    HW120966   4.847   4.234   6.946
 6689SOL    HW220967   4.824   4.083   7.004
 6690SOL     OW20968   0.369   1.490   0.567
 6690SOL    HW120969   0.437   1.451   0.504
 6690SOL    HW220970   0.281   1.498   0.521
 6691SOL     OW20971   1.272   5.406   0.711
 6691SOL    HW120972   1.285   5.317   0.668
 6691SOL    HW220973   1.221   5.395   0.796
 6692SOL     OW20974   4.697   3.865   6.574
 6692SOL    HW120975   4.775   3.919   6.605
 6692SOL    HW220976   4.617   3.924   6.564
 6693SOL     OW20977   4.342   4.003   6.023
 6693SOL    HW120978   4.424   3.946   6.026
 6693SOL    HW220979   4.267   3.956   6.070
 6694SOL     OW20980   2.924   6.179   6.872
 6694SOL    HW120981   2.930   6.204   6.775
 6694SOL    HW220982   3.009   6.205   6.918
 6695SOL     OW20983   1.492   1.510   0.050
 6695SOL    HW120984   1.499   1.521   0.149
 6695SOL    HW220985   1.579   1.477   0.014
 6696SOL     OW20986   1.797   2.720   1.488
 6696SOL    HW120987   1.750   2.632   1.495
 6696SOL    HW220988   1.840   2.742   1.575
 6697SOL     OW20989   5.136   3.290   4.213
 6697SOL    HW120990   5.118   3.208   4.158
 6697SOL    HW220991   5.067   3.359   4.194
 6698SOL     OW20992   2.584   4.235   6.465
 6698SOL    HW120993   2.505   4.198   6.513
 6698SOL    HW220994   2.562   4.247   6.368
 6699SOL     OW20995   1.796   3.265   6.731
 6699SOL    HW120996   1.707   3.236   6.765
 6699SOL    HW220997   1.788   3.354   6.687
 6700SOL     OW20998   0.458   6.634   6.389
 6700SOL    HW120999   0.446   6.663   6.484
 6700SOL    HW221000   0.467   6.535   6.386
 6701SOL     OW21001   0.984   2.337   0.944
 6701SOL    HW121002   1.072   2.300   0.915
 6701SOL    HW221003   0.991   2.373   1.037
 6702SOL     OW21004   2.257   3.350   0.410
 6702SOL    HW121005   2.216   3.361   0.500
 6702SOL    HW221006   2.188   3.320   0.345
 6703SOL     OW21007   0.342   2.672   6.710
 6703SOL    HW121008   0.299   2.660   6.799
 6703SOL    HW221009   0.386   2.762   6.705
 6704SOL     OW21010   4.988   3.469   3.272
 6704SOL    HW121011   4.907   3.464   3.215
 6704SOL    HW221012   4.961   3.485   3.367
 6705SOL     OW21013   5.635   1.203   1.090
 6705SOL    HW121014   5.648   1.126   1.153
 6705SOL    HW221015   5.722   1.225   1.045
 6706SOL     OW21016   1.126   6.008   6.999
 6706SOL    HW121017   1.034   5.984   6.970
 6706SOL    HW221018   1.124   6.042   0.070
 6707SOL     OW21019   1.398   5.191   2.968
 6707SOL    HW121020   1.315   5.171   2.917
 6707SOL    HW221021   1.376   5.243   3.050
 6708SOL     OW21022   2.039   6.259   1.321
 6708SOL    HW121023   1.966   6.196   1.293
 6708SOL    HW221024   2.022   6.289   1.415
 6709SOL     OW21025   5.466   1.423   3.627
 6709SOL    HW121026   5.398   1.369   3.577
 6709SOL    HW221027   5.538   1.453   3.564
 6710SOL     OW21028   1.836   1.721   0.728
 6710SOL    HW121029   1.908   1.728   0.659
 6710SOL    HW221030   1.877   1.720   0.819
 6711SOL     OW21031   5.175   3.456   6.590
 6711SOL    HW121032   5.209   3.380   6.534
 6711SOL    HW221033   5.122   3.518   6.532
 6712SOL     OW21034   3.471   6.493   0.999
 6712SOL    HW121035   3.427   6.525   1.082
 6712SOL    HW221036   3.570   6.506   1.006
 6713SOL     OW21037   1.519   2.123   3.516
 6713SOL    HW121038   1.521   2.047   3.451
 6713SOL    HW221039   1.463   2.197   3.479
 6714SOL     OW21040   6.713   0.140   5.201
 6714SOL    HW121041   6.766   0.209   5.250
 6714SOL    HW221042   6.618   0.143   5.232
 6715SOL     OW21043   5.720   2.704   0.876
 6715SOL    HW121044   5.706   2.606   0.888
 6715SOL    HW221045   5.638   2.754   0.905
 6716SOL     OW21046   3.705   6.220   0.825
 6716SOL    HW121047   3.694   6.122   0.806
 6716SOL    HW221048   3.619   6.268   0.803
 6717SOL     OW21049   4.370   1.441   6.704
 6717SOL    HW121050   4.438   1.429   6.777
 6717SOL    HW221051   4.294   1.378   6.720
 6718SOL     OW21052   4.005   0.428   6.878
 6718SOL    HW121053   3.980   0.480   6.796
 6718SOL    HW221054   4.096   0.455   6.908
 6719SOL     OW21055   0.470   2.050   5.468
 6719SOL    HW121056   0.442   2.124   5.529
 6719SOL    HW221057   0.567   2.030   5.482
 6720SOL     OW21058   1.341   4.721   0.919
 6720SOL    HW121059   1.393   4.788   0.972
 6720SOL    HW221060   1.246   4.720   0.950
 6721SOL     OW21061   6.591   6.436   2.920
 6721SOL    HW121062   6.639   6.390   2.845
 6721SOL    HW221063   6.494   6.414   2.916
 6722SOL     OW21064   4.376   4.736   6.794
 6722SOL    HW121065   4.405   4.666   6.860
 6722SOL    HW221066   4.373   4.825   6.839
 6723SOL     OW21067   4.030   1.368   2.610
 6723SOL    HW121068   3.965   1.348   2.537
 6723SOL    HW221069   4.074   1.456   2.593
 6724SOL     OW21070   3.545   4.423   5.385
 6724SOL    HW121071   3.530   4.336   5.338
 6724SOL    HW221072   3.621   4.413   5.450
 6725SOL     OW21073   0.701   5.462   1.377
 6725SOL    HW121074   0.726   5.516   1.458
 6725SOL    HW221075   0.605   5.478   1.355
 6726SOL     OW21076   2.431   2.923   1.742
 6726SOL    HW121077   2.460   2.841   1.693
 6726SOL    HW221078   2.424   2.999   1.677
 6727SOL     OW21079   3.189   4.394   0.714
 6727SOL    HW121080   3.152   4.355   0.798
 6727SOL    HW221081   3.137   4.361   0.636
 6728SOL     OW21082   4.514   1.382   4.438
 6728SOL    HW121083   4.477   1.474   4.451
 6728SOL    HW221084   4.445   1.326   4.392
 6729SOL     OW21085   5.038   6.205   3.434
 6729SOL    HW121086   4.944   6.220   3.402
 6729SOL    HW221087   5.035   6.159   3.523
 6730SOL     OW21088   1.374   6.973   2.416
 6730SOL    HW121089   1.374   6.982   2.316
 6730SOL    HW221090   1.292   6.925   2.445
 6731SOL     OW21091   1.864   4.004   1.728
 6731SOL    HW121092   1.864   4.062   1.810
 6731SOL    HW221093   1.832   4.057   1.650
 6732SOL     OW21094   2.970   5.687   0.597
 6732SOL    HW121095   3.037   5.648   0.660
 6732SOL    HW221096   2.929   5.768   0.639
 6733SOL     OW21097   6.362   5.772   4.511
 6733SOL    HW121098   6.318   5.840   4.452
 6733SOL    HW221099   6.345   5.680   4.474
 6734SOL     OW21100   2.307   3.616   6.379
 6734SOL    HW121101   2.223   3.594   6.330
 6734SOL    HW221102   2.350   3.696   6.339
 6735SOL     OW21103   0.724   6.542   6.281
 6735SOL    HW121104   0.666   6.619   6.258
 6735SOL    HW221105   0.686   6.458   6.243
 6736SOL     OW21106   2.377   4.395   1.829
 6736SOL    HW121107   2.348   4.461   1.899
 6736SOL    HW221108   2.345   4.304   1.854
 6737SOL     OW21109   1.518   6.661   0.942
 6737SOL    HW121110   1.533   6.703   1.031
 6737SOL    HW221111   1.588   6.592   0.925
 6738SOL     OW21112   4.803   1.688   1.547
 6738SOL    HW121113   4.770   1.723   1.459
 6738SOL    HW221114   4.809   1.762   1.613
 6739SOL     OW21115   3.960   6.655   5.401
 6739SOL    HW121116   4.020   6.684   5.326
 6739SOL    HW221117   4.014   6.634   5.482
 6740SOL     OW21118   5.499   2.290   5.857
 6740SOL    HW121119   5.458   2.378   5.879
 6740SOL    HW221120   5.441   2.241   5.791
 6741SOL     OW21121   0.007   0.627   5.580
 6741SOL    HW121122   7.018   0.719   5.616
 6741SOL    HW221123   6.956   0.606   5.517
 6742SOL     OW21124   6.161   5.604   4.767
 6742SOL    HW121125   6.202   5.682   4.815
 6742SOL    HW221126   6.204   5.519   4.798
 6743SOL     OW21127   6.047   2.319   1.469
 6743SOL    HW121128   6.022   2.329   1.566
 6743SOL    HW221129   6.012   2.397   1.418
 6744SOL     OW21130   4.544   0.272   4.261
 6744SOL    HW121131   4.601   0.286   4.342
 6744SOL    HW221132   4.577   0.192   4.210
 6745SOL     OW21133   0.399   3.495   3.246
 6745SOL    HW121134   0.398   3.480   3.147
 6745SOL    HW221135   0.326   3.442   3.288
 6746SOL     OW21136   6.105   1.066   0.532
 6746SOL    HW121137   6.082   1.107   0.620
 6746SOL    HW221138   6.024   1.067   0.473
 6747SOL     OW21139   4.825   5.315   6.922
 6747SOL    HW121140   4.789   5.407   6.931
 6747SOL    HW221141   4.750   5.249   6.926
 6748SOL     OW21142   7.014   6.435   2.455
 6748SOL    HW121143   6.964   6.367   2.400
 6748SOL    HW221144   6.976   6.526   2.437
 6749SOL     OW21145   2.686   5.347   1.179
 6749SOL    HW121146   2.762   5.368   1.118
 6749SOL    HW221147   2.699   5.254   1.216
 6750SOL     OW21148   2.318   2.985   5.393
 6750SOL    HW121149   2.248   2.943   5.336
 6750SOL    HW221150   2.383   3.035   5.336
 6751SOL     OW21151   4.200   2.230   5.755
 6751SOL    HW121152   4.259   2.161   5.714
 6751SOL    HW221153   4.153   2.191   5.834
 6752SOL     OW21154   0.088   1.668   6.869
 6752SOL    HW121155   0.029   1.607   6.921
 6752SOL    HW221156   0.062   1.763   6.887
 6753SOL     OW21157   6.315   1.204   6.649
 6753SOL    HW121158   6.377   1.274   6.614
 6753SOL    HW221159   6.343   1.114   6.616
 6754SOL     OW21160   4.486   0.800   6.946
 6754SOL    HW121161   4.583   0.776   6.955
 6754SOL    HW221162   4.463   0.807   6.849
 6755SOL     OW21163   5.235   1.373   3.506
 6755SOL    HW121164   5.171   1.445   3.534
 6755SOL    HW221165   5.267   1.393   3.414
 6756SOL     OW21166   4.706   4.824   3.723
 6756SOL    HW121167   4.738   4.915   3.699
 6756SOL    HW221168   4.784   4.761   3.727
 6757SOL     OW21169   6.136   4.461   1.276
 6757SOL    HW121170   6.094   4.518   1.205
 6757SOL    HW221171   6.208   4.513   1.323
 6758SOL     OW21172   6.651   2.232   2.620
 6758SOL    HW121173   6.608   2.285   2.693
 6758SOL    HW221174   6.602   2.146   2.608
 6759SOL     OW21175   0.851   5.241   3.659
 6759SOL    HW121176   0.861   5.165   3.723
 6759SOL    HW221177   0.880   5.211   3.568
 6760SOL     OW21178   0.155   3.598   4.959
 6760SOL    HW121179   0.071   3.621   5.006
 6760SOL    HW221180   0.233   3.638   5.007
 6761SOL     OW21181   6.231   2.689   6.205
 6761SOL    HW121182   6.267   2.618   6.267
 6761SOL    HW221183   6.287   2.772   6.213
 6762SOL     OW21184   0.241   3.536   3.965
 6762SOL    HW121185   0.277   3.612   4.018
 6762SOL    HW221186   0.312   3.501   3.904
 6763SOL     OW21187   6.315   6.497   5.524
 6763SOL    HW121188   6.219   6.517   5.540
 6763SOL    HW221189   6.323   6.432   5.448
 6764SOL     OW21190   1.539   3.725   0.138
 6764SOL    HW121191   1.488   3.716   0.224
 6764SOL    HW221192   1.635   3.702   0.154
 6765SOL     OW21193   4.867   4.833   2.273
 6765SOL    HW121194   4.891   4.904   2.208
 6765SOL    HW221195   4.805   4.870   2.342
 6766SOL     OW21196   2.928   2.460   5.950
 6766SOL    HW121197   2.906   2.541   5.896
 6766SOL    HW221198   2.885   2.380   5.909
 6767SOL     OW21199   0.778   2.699   5.835
 6767SOL    HW121200   0.703   2.764   5.820
 6767SOL    HW221201   0.740   2.607   5.846
 6768SOL     OW21202   6.844   0.812   5.767
 6768SOL    HW121203   6.909   0.863   5.823
 6768SOL    HW221204   6.760   0.866   5.757
 6769SOL     OW21205   1.176   2.362   6.228
 6769SOL    HW121206   1.138   2.400   6.312
 6769SOL    HW221207   1.127   2.279   6.203
 6770SOL     OW21208   0.164   1.581   3.458
 6770SOL    HW121209   0.235   1.554   3.393
 6770SOL    HW221210   0.156   1.681   3.459
 6771SOL     OW21211   5.872   2.398   2.558
 6771SOL    HW121212   5.906   2.472   2.499
 6771SOL    HW221213   5.880   2.426   2.654
 6772SOL     OW21214   0.958   0.540   2.012
 6772SOL    HW121215   1.034   0.601   1.989
 6772SOL    HW221216   0.884   0.554   1.947
 6773SOL     OW21217   1.446   0.867   2.889
 6773SOL    HW121218   1.400   0.917   2.962
 6773SOL    HW221219   1.475   0.931   2.818
 6774SOL     OW21220   4.116   1.449   5.277
 6774SOL    HW121221   4.137   1.447   5.179
 6774SOL    HW221222   4.047   1.519   5.294
 6775SOL     OW21223   1.683   2.251   4.881
 6775SOL    HW121224   1.602   2.305   4.904
 6775SOL    HW221225   1.722   2.212   4.965
 6776SOL     OW21226   3.655   3.819   3.722
 6776SOL    HW121227   3.662   3.898   3.782
 6776SOL    HW221228   3.572   3.825   3.667
 6777SOL     OW21229   0.058   0.447   5.814
 6777SOL    HW121230   0.058   0.359   5.765
 6777SOL    HW221231   0.070   0.521   5.749
 6778SOL     OW21232   6.602   5.732   1.956
 6778SOL    HW121233   6.586   5.650   2.011
 6778SOL    HW221234   6.604   5.707   1.859
 6779SOL     OW21235   4.987   4.274   6.452
 6779SOL    HW121236   4.939   4.222   6.381
 6779SOL    HW221237   5.086   4.263   6.439
 6780SOL     OW21238   4.820   1.082   2.356
 6780SOL    HW121239   4.886   1.079   2.430
 6780SOL    HW221240   4.729   1.057   2.390
 6781SOL     OW21241   5.848   4.067   2.949
 6781SOL    HW121242   5.942   4.057   2.917
 6781SOL    HW221243   5.846   4.133   3.024
 6782SOL     OW21244   0.202   1.765   2.606
 6782SOL    HW121245   0.119   1.770   2.661
 6782SOL    HW221246   0.255   1.685   2.634
 6783SOL     OW21247   0.522   6.038   6.676
 6783SOL    HW121248   0.592   6.088   6.726
 6783SOL    HW221249   0.434   6.085   6.685
 6784SOL     OW21250   1.310   4.790   6.552
 6784SOL    HW121251   1.348   4.743   6.472
 6784SOL    HW221252   1.363   4.766   6.633
 6785SOL     OW21253   5.294   4.163   2.034
 6785SOL    HW121254   5.363   4.169   2.106
 6785SOL    HW221255   5.250   4.073   2.038
 6786SOL     OW21256   6.451   1.544   5.631
 6786SOL    HW121257   6.461   1.546   5.730
 6786SOL    HW221258   6.541   1.545   5.588
 6787SOL     OW21259   4.067   2.369   1.241
 6787SOL    HW121260   4.076   2.461   1.279
 6787SOL    HW221261   4.155   2.322   1.244
 6788SOL     OW21262   1.264   4.406   0.819
 6788SOL    HW121263   1.169   4.385   0.796
 6788SOL    HW221264   1.283   4.378   0.913
 6789SOL     OW21265   6.274   2.959   2.266
 6789SOL    HW121266   6.207   2.928   2.334
 6789SOL    HW221267   6.266   2.903   2.184
 6790SOL     OW21268   0.626   5.531   0.562
 6790SOL    HW121269   0.587   5.622   0.547
 6790SOL    HW221270   0.599   5.471   0.487
 6791SOL     OW21271   1.974   6.344   3.336
 6791SOL    HW121272   1.903   6.355   3.406
 6791SOL    HW221273   2.032   6.266   3.361
 6792SOL     OW21274   3.581   5.845   6.938
 6792SOL    HW121275   3.513   5.829   6.867
 6792SOL    HW221276   3.666   5.799   6.913
 6793SOL     OW21277   1.881   3.805   6.642
 6793SOL    HW121278   1.850   3.837   6.731
 6793SOL    HW221279   1.975   3.774   6.649
 6794SOL     OW21280   4.548   2.588   4.346
 6794SOL    HW121281   4.454   2.623   4.351
 6794SOL    HW221282   4.555   2.504   4.401
 6795SOL     OW21283   0.882   0.725   2.193
 6795SOL    HW121284   0.957   0.733   2.259
 6795SOL    HW221285   0.898   0.647   2.133
 6796SOL     OW21286   6.852   2.961   2.068
 6796SOL    HW121287   6.899   2.971   2.156
 6796SOL    HW221288   6.920   2.953   1.995
 6797SOL     OW21289   1.770   3.581   0.455
 6797SOL    HW121290   1.721   3.495   0.445
 6797SOL    HW221291   1.744   3.624   0.542
 6798SOL     OW21292   5.178   2.003   1.578
 6798SOL    HW121293   5.172   1.973   1.673
 6798SOL    HW221294   5.274   2.000   1.548
 6799SOL     OW21295   5.061   0.023   2.682
 6799SOL    HW121296   5.096   0.107   2.724
 6799SOL    HW221297   5.135   6.981   2.669
 6800SOL     OW21298   6.548   2.689   2.072
 6800SOL    HW121299   6.478   2.755   2.046
 6800SOL    HW221300   6.598   2.723   2.152
 6801SOL     OW21301   2.238   5.299   5.325
 6801SOL    HW121302   2.297   5.218   5.319
 6801SOL    HW221303   2.263   5.352   5.405
 6802SOL     OW21304   2.750   4.539   1.651
 6802SOL    HW121305   2.809   4.544   1.570
 6802SOL    HW221306   2.806   4.526   1.733
 6803SOL     OW21307   6.258   5.273   6.325
 6803SOL    HW121308   6.326   5.220   6.376
 6803SOL    HW221309   6.190   5.211   6.286
 6804SOL     OW21310   3.248   4.862   1.866
 6804SOL    HW121311   3.339   4.890   1.836
 6804SOL    HW221312   3.241   4.868   1.965
 6805SOL     OW21313   0.385   3.768   4.090
 6805SOL    HW121314   0.384   3.831   4.013
 6805SOL    HW221315   0.455   3.797   4.156
 6806SOL     OW21316   6.269   3.553   1.921
 6806SOL    HW121317   6.361   3.580   1.950
 6806SOL    HW221318   6.212   3.537   2.001
 6807SOL     OW21319   4.100   3.236   2.442
 6807SOL    HW121320   4.056   3.225   2.353
 6807SOL    HW221321   4.192   3.198   2.439
 6808SOL     OW21322   3.183   6.451   3.873
 6808SOL    HW121323   3.186   6.503   3.958
 6808SOL    HW221324   3.158   6.356   3.893
 6809SOL     OW21325   5.949   2.986   0.736
 6809SOL    HW121326   6.033   2.939   0.763
 6809SOL    HW221327   5.883   2.983   0.811
 6810SOL     OW21328   3.175   0.150   4.674
 6810SOL    HW121329   3.109   0.087   4.715
 6810SOL    HW221330   3.158   0.158   4.576
 6811SOL     OW21331   6.607   1.601   1.208
 6811SOL    HW121332   6.603   1.501   1.214
 6811SOL    HW221333   6.639   1.639   1.294
 6812SOL     OW21334   3.291   4.473   5.487
 6812SOL    HW121335   3.211   4.440   5.437
 6812SOL    HW221336   3.374   4.440   5.442
 6813SOL     OW21337   6.977   4.042   2.277
 6813SOL    HW121338   6.904   4.084   2.223
 6813SOL    HW221339   6.953   3.947   2.297
 6814SOL     OW21340   4.524   2.441   1.499
 6814SOL    HW121341   4.471   2.491   1.567
 6814SOL    HW221342   4.573   2.505   1.440
 6815SOL     OW21343   1.503   5.834   0.758
 6815SOL    HW121344   1.424   5.855   0.816
 6815SOL    HW221345   1.579   5.803   0.815
 6816SOL     OW21346   5.652   6.782   3.582
 6816SOL    HW121347   5.704   6.868   3.590
 6816SOL    HW221348   5.554   6.802   3.585
 6817SOL     OW21349   5.960   0.570   1.483
 6817SOL    HW121350   5.928   0.573   1.388
 6817SOL    HW221351   6.044   0.517   1.488
 6818SOL     OW21352   6.902   0.136   5.474
 6818SOL    HW121353   6.897   0.211   5.409
 6818SOL    HW221354   6.843   0.155   5.552
 6819SOL     OW21355   5.860   3.873   0.503
 6819SOL    HW121356   5.948   3.831   0.525
 6819SOL    HW221357   5.795   3.801   0.478
 6820SOL     OW21358   2.061   4.564   0.781
 6820SOL    HW121359   2.070   4.485   0.841
 6820SOL    HW221360   2.110   4.548   0.696
 6821SOL     OW21361   2.773   3.236   6.033
 6821SOL    HW121362   2.728   3.300   5.970
 6821SOL    HW221363   2.704   3.176   6.073
 6822SOL     OW21364   6.992   4.196   5.234
 6822SOL    HW121365   6.963   4.178   5.140
 6822SOL    HW221366   6.949   4.129   5.295
 6823SOL     OW21367   6.553   3.149   5.695
 6823SOL    HW121368   6.513   3.210   5.627
 6823SOL    HW221369   6.652   3.144   5.681
 6824SOL     OW21370   0.741   0.102   3.913
 6824SOL    HW121371   0.703   0.050   3.836
 6824SOL    HW221372   0.796   0.178   3.879
 6825SOL     OW21373   5.069   4.602   1.838
 6825SOL    HW121374   5.110   4.582   1.749
 6825SOL    HW221375   5.112   4.684   1.876
 6826SOL     OW21376   5.707   1.021   3.976
 6826SOL    HW121377   5.651   1.068   4.044
 6826SOL    HW221378   5.648   0.978   3.907
 6827SOL     OW21379   5.062   4.737   5.296
 6827SOL    HW121380   5.093   4.785   5.377
 6827SOL    HW221381   5.130   4.747   5.223
 6828SOL     OW21382   2.425   2.209   2.405
 6828SOL    HW121383   2.511   2.235   2.362
 6828SOL    HW221384   2.442   2.172   2.496
 6829SOL     OW21385   5.509   7.019   4.185
 6829SOL    HW121386   5.489   0.059   4.260
 6829SOL    HW221387   5.429   7.012   4.126
 6830SOL     OW21388   3.543   6.396   2.105
 6830SOL    HW121389   3.476   6.322   2.100
 6830SOL    HW221390   3.627   6.369   2.059
 6831SOL     OW21391   2.335   0.621   0.311
 6831SOL    HW121392   2.278   0.610   0.229
 6831SOL    HW221393   2.408   0.687   0.292
 6832SOL     OW21394   3.220   3.307   0.434
 6832SOL    HW121395   3.274   3.300   0.350
 6832SOL    HW221396   3.231   3.223   0.488
 6833SOL     OW21397   4.603   5.229   0.228
 6833SOL    HW121398   4.660   5.152   0.200
 6833SOL    HW221399   4.659   5.296   0.277
 6834SOL     OW21400   6.582   5.427   5.358
 6834SOL    HW121401   6.656   5.368   5.324
 6834SOL    HW221402   6.501   5.416   5.300
 6835SOL     OW21403   4.070   0.320   2.746
 6835SOL    HW121404   3.999   0.336   2.815
 6835SOL    HW221405   4.157   0.356   2.779
 6836SOL     OW21406   0.802   4.812   6.829
 6836SOL    HW121407   0.787   4.727   6.779
 6836SOL    HW221408   0.820   4.887   6.765
 6837SOL     OW21409   6.651   2.693   1.768
 6837SOL    HW121410   6.677   2.608   1.812
 6837SOL    HW221411   6.553   2.693   1.749
 6838SOL     OW21412   2.001   3.948   0.029
 6838SOL    HW121413   2.042   3.997   0.106
 6838SOL    HW221414   2.073   3.920   6.988
 6839SOL     OW21415   5.960   2.012   5.621
 6839SOL    HW121416   5.911   1.979   5.540
 6839SOL    HW221417   5.921   1.970   5.703
 6840SOL     OW21418   3.254   0.260   4.360
 6840SOL    HW121419   3.341   0.252   4.311
 6840SOL    HW221420   3.224   0.169   4.388
 6841SOL     OW21421   4.647   5.704   0.684
 6841SOL    HW121422   4.652   5.764   0.764
 6841SOL    HW221423   4.681   5.614   0.709
 6842SOL     OW21424   0.919   3.559   3.435
 6842SOL    HW121425   0.832   3.519   3.403
 6842SOL    HW221426   0.902   3.649   3.474
 6843SOL     OW21427   4.765   3.129   1.684
 6843SOL    HW121428   4.721   3.065   1.747
 6843SOL    HW221429   4.859   3.099   1.666
 6844SOL     OW21430   3.656   6.798   4.536
 6844SOL    HW121431   3.561   6.765   4.534
 6844SOL    HW221432   3.700   6.767   4.620
 6845SOL     OW21433   3.483   3.912   6.987
 6845SOL    HW121434   3.416   3.837   6.990
 6845SOL    HW221435   3.495   3.949   0.056
 6846SOL     OW21436   3.519   2.885   4.152
 6846SOL    HW121437   3.503   2.844   4.242
 6846SOL    HW221438   3.446   2.950   4.131
 6847SOL     OW21439   5.164   3.589   2.088
 6847SOL    HW121440   5.139   3.654   2.016
 6847SOL    HW221441   5.102   3.600   2.166
 6848SOL     OW21442   0.684   5.796   4.614
 6848SOL    HW121443   0.738   5.741   4.677
 6848SOL    HW221444   0.588   5.792   4.640
 6849SOL     OW21445   3.296   0.298   4.921
 6849SOL    HW121446   3.394   0.279   4.929
 6849SOL    HW221447   3.262   0.259   4.835
 6850SOL     OW21448   6.534   3.534   1.984
 6850SOL    HW121449   6.585   3.607   2.028
 6850SOL    HW221450   6.499   3.471   2.053
 6851SOL     OW21451   1.894   5.635   0.500
 6851SOL    HW121452   1.891   5.542   0.537
 6851SOL    HW221453   1.801   5.669   0.489
 6852SOL     OW21454   5.604   4.677   1.901
 6852SOL    HW121455   5.568   4.702   1.991
 6852SOL    HW221456   5.536   4.697   1.831
 6853SOL     OW21457   6.464   4.230   4.354
 6853SOL    HW121458   6.445   4.328   4.351
 6853SOL    HW221459   6.540   4.209   4.293
 6854SOL     OW21460   5.941   1.047   6.672
 6854SOL    HW121461   6.020   1.032   6.613
 6854SOL    HW221462   5.872   1.100   6.622
 6855SOL     OW21463   3.217   6.880   1.903
 6855SOL    HW121464   3.146   6.933   1.950
 6855SOL    HW221465   3.304   6.892   1.950
 6856SOL     OW21466   0.448   5.006   5.442
 6856SOL    HW121467   0.352   5.027   5.422
 6856SOL    HW221468   0.460   4.907   5.450
 6857SOL     OW21469   4.908   0.482   0.089
 6857SOL    HW121470   4.909   0.479   7.012
 6857SOL    HW221471   5.002   0.479   0.124
 6858SOL     OW21472   3.492   2.559   6.471
 6858SOL    HW121473   3.423   2.629   6.456
 6858SOL    HW221474   3.477   2.483   6.408
 6859SOL     OW21475   4.667   0.700   0.846
 6859SOL    HW121476   4.752   0.741   0.814
 6859SOL    HW221477   4.599   0.704   0.774
 6860SOL     OW21478   4.827   3.277   6.925
 6860SOL    HW121479   4.865   3.278   7.018
 6860SOL    HW221480   4.772   3.194   6.912
 6861SOL     OW21481   6.244   3.782   6.946
 6861SOL    HW121482   6.234   3.800   0.021
 6861SOL    HW221483   6.254   3.684   6.930
 6862SOL     OW21484   2.542   4.716   4.597
 6862SOL    HW121485   2.526   4.641   4.661
 6862SOL    HW221486   2.474   4.788   4.611
 6863SOL     OW21487   0.826   3.558   3.756
 6863SOL    HW121488   0.826   3.458   3.764
 6863SOL    HW221489   0.753   3.585   3.693
 6864SOL     OW21490   3.178   5.451   6.058
 6864SOL    HW121491   3.143   5.408   6.141
 6864SOL    HW221492   3.142   5.403   5.978
 6865SOL     OW21493   1.283   2.510   5.138
 6865SOL    HW121494   1.188   2.494   5.112
 6865SOL    HW221495   1.304   2.607   5.130
 6866SOL     OW21496   0.841   3.892   2.625
 6866SOL    HW121497   0.940   3.885   2.623
 6866SOL    HW221498   0.809   3.952   2.551
 6867SOL     OW21499   2.081   5.324   3.393
 6867SOL    HW121500   2.048   5.328   3.298
 6867SOL    HW221501   2.181   5.337   3.394
 6868SOL     OW21502   2.132   5.735   4.945
 6868SOL    HW121503   2.053   5.736   5.007
 6868SOL    HW221504   2.148   5.827   4.910
 6869SOL     OW21505   0.501   2.699   4.930
 6869SOL    HW121506   0.478   2.788   4.969
 6869SOL    HW221507   0.524   2.636   5.004
 6870SOL     OW21508   5.560   4.097   3.010
 6870SOL    HW121509   5.513   4.034   2.947
 6870SOL    HW221510   5.657   4.075   3.011
 6871SOL     OW21511   4.259   5.757   1.856
 6871SOL    HW121512   4.266   5.760   1.756
 6871SOL    HW221513   4.347   5.782   1.896
 6872SOL     OW21514   3.487   4.451   0.830
 6872SOL    HW121515   3.397   4.493   0.816
 6872SOL    HW221516   3.483   4.354   0.803
 6873SOL     OW21517   5.670   4.782   5.186
 6873SOL    HW121518   5.739   4.838   5.139
 6873SOL    HW221519   5.685   4.686   5.164
 6874SOL     OW21520   1.069   1.982   6.365
 6874SOL    HW121521   1.077   1.994   6.464
 6874SOL    HW221522   1.076   1.885   6.342
 6875SOL     OW21523   3.865   0.242   5.115
 6875SOL    HW121524   3.778   0.197   5.096
 6875SOL    HW221525   3.849   0.327   5.165
 6876SOL     OW21526   3.245   6.042   4.377
 6876SOL    HW121527   3.295   5.983   4.314
 6876SOL    HW221528   3.268   6.019   4.471
 6877SOL     OW21529   2.422   3.728   0.028
 6877SOL    HW121530   2.508   3.737   0.078
 6877SOL    HW221531   2.421   3.641   7.001
 6878SOL     OW21532   1.459   1.360   4.944
 6878SOL    HW121533   1.500   1.272   4.922
 6878SOL    HW221534   1.399   1.350   5.023
 6879SOL     OW21535   6.309   1.353   5.488
 6879SOL    HW121536   6.343   1.417   5.558
 6879SOL    HW221537   6.232   1.396   5.440
 6880SOL     OW21538   1.177   4.551   4.693
 6880SOL    HW121539   1.241   4.568   4.767
 6880SOL    HW221540   1.218   4.487   4.627
 6881SOL     OW21541   5.194   5.880   1.188
 6881SOL    HW121542   5.231   5.836   1.270
 6881SOL    HW221543   5.169   5.974   1.209
 6882SOL     OW21544   2.385   5.834   5.702
 6882SOL    HW121545   2.294   5.808   5.671
 6882SOL    HW221546   2.392   5.934   5.704
 6883SOL     OW21547   3.044   6.324   2.089
 6883SOL    HW121548   3.035   6.289   1.995
 6883SOL    HW221549   3.039   6.248   2.153
 6884SOL     OW21550   2.051   4.693   2.773
 6884SOL    HW121551   2.140   4.719   2.734
 6884SOL    HW221552   2.012   4.771   2.822
 6885SOL     OW21553   4.311   4.737   4.815
 6885SOL    HW121554   4.228   4.793   4.808
 6885SOL    HW221555   4.302   4.674   4.892
 6886SOL     OW21556   5.501   0.272   1.383
 6886SOL    HW121557   5.554   0.356   1.373
 6886SOL    HW221558   5.540   0.217   1.457
 6887SOL     OW21559   6.073   1.135   4.812
 6887SOL    HW121560   6.090   1.163   4.906
 6887SOL    HW221561   6.122   1.051   4.793
 6888SOL     OW21562   6.363   0.195   3.751
 6888SOL    HW121563   6.348   0.238   3.839
 6888SOL    HW221564   6.461   0.188   3.733
 6889SOL     OW21565   2.200   3.944   6.414
 6889SOL    HW121566   2.166   3.873   6.475
 6889SOL    HW221567   2.298   3.930   6.397
 6890SOL     OW21568   1.119   0.446   1.313
 6890SOL    HW121569   1.189   0.461   1.243
 6890SOL    HW221570   1.053   0.379   1.279
 6891SOL     OW21571   4.232   5.016   5.895
 6891SOL    HW121572   4.278   4.957   5.962
 6891SOL    HW221573   4.291   5.030   5.816
 6892SOL     OW21574   3.382   1.933   4.238
 6892SOL    HW121575   3.322   1.985   4.299
 6892SOL    HW221576   3.448   1.994   4.195
 6893SOL     OW21577   5.154   6.976   1.438
 6893SOL    HW121578   5.233   0.013   1.445
 6893SOL    HW221579   5.166   6.914   1.361
 6894SOL     OW21580   6.051   4.710   5.729
 6894SOL    HW121581   6.077   4.806   5.720
 6894SOL    HW221582   5.968   4.693   5.676
 6895SOL     OW21583   4.356   5.152   5.583
 6895SOL    HW121584   4.375   5.247   5.608
 6895SOL    HW221585   4.424   5.120   5.517
 6896SOL     OW21586   5.224   1.969   2.290
 6896SOL    HW121587   5.202   1.912   2.369
 6896SOL    HW221588   5.314   2.009   2.301
 6897SOL     OW21589   3.981   0.927   1.390
 6897SOL    HW121590   3.901   0.931   1.450
 6897SOL    HW221591   3.954   0.954   1.298
 6898SOL     OW21592   3.548   1.287   2.085
 6898SOL    HW121593   3.541   1.188   2.074
 6898SOL    HW221594   3.507   1.333   2.006
 6899SOL     OW21595   5.750   4.818   5.792
 6899SOL    HW121596   5.735   4.719   5.797
 6899SOL    HW221597   5.729   4.850   5.699
 6900SOL     OW21598   4.366   6.912   6.347
 6900SOL    HW121599   4.279   6.890   6.302
 6900SOL    HW221600   4.359   6.891   6.444
 6901SOL     OW21601   1.924   0.463   0.444
 6901SOL    HW121602   2.011   0.450   0.396
 6901SOL    HW221603   1.848   0.446   0.381
 6902SOL     OW21604   6.871   5.763   2.488
 6902SOL    HW121605   6.921   5.746   2.573
 6902SOL    HW221606   6.934   5.801   2.420
 6903SOL     OW21607   5.905   4.440   0.163
 6903SOL    HW121608   5.952   4.381   0.228
 6903SOL    HW221609   5.821   4.475   0.204
 6904SOL     OW21610   0.361   0.901   3.015
 6904SOL    HW121611   0.333   0.806   3.010
 6904SOL    HW221612   0.304   0.950   3.080
 6905SOL     OW21613   3.850   5.470   0.635
 6905SOL    HW121614   3.832   5.415   0.553
 6905SOL    HW221615   3.891   5.413   0.706
 6906SOL     OW21616   6.100   6.213   2.502
 6906SOL    HW121617   6.184   6.256   2.537
 6906SOL    HW221618   6.023   6.275   2.516
 6907SOL     OW21619   3.416   0.585   1.631
 6907SOL    HW121620   3.424   0.538   1.543
 6907SOL    HW221621   3.324   0.572   1.667
 6908SOL     OW21622   5.269   6.545   6.887
 6908SOL    HW121623   5.236   6.636   6.862
 6908SOL    HW221624   5.192   6.492   6.924
 6909SOL     OW21625   2.393   1.960   0.240
 6909SOL    HW121626   2.418   1.869   0.206
 6909SOL    HW221627   2.384   1.956   0.340
 6910SOL     OW21628   5.100   1.333   1.231
 6910SOL    HW121629   5.055   1.255   1.187
 6910SOL    HW221630   5.031   1.389   1.277
 6911SOL     OW21631   4.089   0.126   4.665
 6911SOL    HW121632   4.047   0.035   4.668
 6911SOL    HW221633   4.040   0.187   4.726
 6912SOL     OW21634   3.924   5.035   1.849
 6912SOL    HW121635   3.847   5.099   1.847
 6912SOL    HW221636   3.902   4.955   1.792
 6913SOL     OW21637   4.782   5.556   5.446
 6913SOL    HW121638   4.734   5.616   5.383
 6913SOL    HW221639   4.852   5.504   5.397
 6914SOL     OW21640   6.773   4.781   0.574
 6914SOL    HW121641   6.791   4.810   0.480
 6914SOL    HW221642   6.760   4.861   0.632
 6915SOL     OW21643   0.549   6.959   0.578
 6915SOL    HW121644   0.518   6.954   0.673
 6915SOL    HW221645   0.502   6.889   0.524
 6916SOL     OW21646   5.814   0.857   5.636
 6916SOL    HW121647   5.784   0.923   5.567
 6916SOL    HW221648   5.805   0.897   5.727
 6917SOL     OW21649   4.588   6.522   5.588
 6917SOL    HW121650   4.539   6.608   5.592
 6917SOL    HW221651   4.542   6.460   5.525
 6918SOL     OW21652   2.215   2.482   3.478
 6918SOL    HW121653   2.284   2.432   3.425
 6918SOL    HW221654   2.124   2.458   3.444
 6919SOL     OW21655   1.385   5.869   3.287
 6919SOL    HW121656   1.408   5.960   3.321
 6919SOL    HW221657   1.292   5.870   3.249
 6920SOL     OW21658   5.112   5.699   4.146
 6920SOL    HW121659   5.167   5.779   4.171
 6920SOL    HW221660   5.136   5.669   4.054
 6921SOL     OW21661   1.589   5.509   3.517
 6921SOL    HW121662   1.660   5.473   3.456
 6921SOL    HW221663   1.602   5.471   3.609
 6922SOL     OW21664   2.156   6.325   1.065
 6922SOL    HW121665   2.097   6.302   1.142
 6922SOL    HW221666   2.167   6.245   1.006
 6923SOL     OW21667   4.813   5.658   3.618
 6923SOL    HW121668   4.769   5.644   3.530
 6923SOL    HW221669   4.822   5.570   3.665
 6924SOL     OW21670   5.781   5.720   1.957
 6924SOL    HW121671   5.860   5.717   1.896
 6924SOL    HW221672   5.711   5.657   1.923
 6925SOL     OW21673   4.955   5.435   2.580
 6925SOL    HW121674   4.991   5.493   2.654
 6925SOL    HW221675   4.872   5.389   2.611
 6926SOL     OW21676   2.766   3.964   5.575
 6926SOL    HW121677   2.866   3.956   5.574
 6926SOL    HW221678   2.734   3.993   5.485
 6927SOL     OW21679   3.823   3.989   0.571
 6927SOL    HW121680   3.916   4.027   0.573
 6927SOL    HW221681   3.758   4.061   0.545
 6928SOL     OW21682   6.939   0.498   6.914
 6928SOL    HW121683   6.940   0.580   6.857
 6928SOL    HW221684   6.852   0.449   6.901
 6929SOL     OW21685   3.371   5.342   2.052
 6929SOL    HW121686   3.318   5.304   1.977
 6929SOL    HW221687   3.421   5.423   2.020
 6930SOL     OW21688   0.202   0.298   2.580
 6930SOL    HW121689   0.131   0.228   2.570
 6930SOL    HW221690   0.282   0.259   2.626
 6931SOL     OW21691   2.854   0.153   0.560
 6931SOL    HW121692   2.952   0.174   0.557
 6931SOL    HW221693   2.822   0.159   0.654
 6932SOL     OW21694   2.978   1.848   0.405
 6932SOL    HW121695   2.880   1.826   0.402
 6932SOL    HW221696   2.996   1.907   0.484
 6933SOL     OW21697   2.691   6.438   5.167
 6933SOL    HW121698   2.720   6.457   5.261
 6933SOL    HW221699   2.623   6.506   5.139
 6934SOL     OW21700   5.427   4.933   6.359
 6934SOL    HW121701   5.444   4.849   6.306
 6934SOL    HW221702   5.510   4.988   6.363
 6935SOL     OW21703   4.181   5.600   3.227
 6935SOL    HW121704   4.164   5.596   3.129
 6935SOL    HW221705   4.258   5.661   3.246
 6936SOL     OW21706   0.446   4.561   1.042
 6936SOL    HW121707   0.503   4.641   1.022
 6936SOL    HW221708   0.349   4.587   1.039
 6937SOL     OW21709   4.220   5.996   5.976
 6937SOL    HW121710   4.165   6.026   6.055
 6937SOL    HW221711   4.234   5.898   5.981
 6938SOL     OW21712   6.210   2.597   5.662
 6938SOL    HW121713   6.309   2.600   5.656
 6938SOL    HW221714   6.178   2.670   5.723
 6939SOL     OW21715   6.731   4.994   1.389
 6939SOL    HW121716   6.809   4.930   1.393
 6939SOL    HW221717   6.646   4.944   1.407
 6940SOL     OW21718   4.347   0.588   4.692
 6940SOL    HW121719   4.332   0.607   4.789
 6940SOL    HW221720   4.320   0.493   4.673
 6941SOL     OW21721   3.387   2.965   5.000
 6941SOL    HW121722   3.359   2.967   4.905
 6941SOL    HW221723   3.307   2.967   5.059
 6942SOL     OW21724   5.976   1.502   6.726
 6942SOL    HW121725   6.010   1.458   6.809
 6942SOL    HW221726   5.992   1.442   6.647
 6943SOL     OW21727   6.437   5.110   6.479
 6943SOL    HW121728   6.519   5.146   6.434
 6943SOL    HW221729   6.401   5.179   6.541
 6944SOL     OW21730   1.156   6.830   0.457
 6944SOL    HW121731   1.201   6.917   0.436
 6944SOL    HW221732   1.065   6.829   0.416
 6945SOL     OW21733   4.353   1.649   6.529
 6945SOL    HW121734   4.369   1.573   6.591
 6945SOL    HW221735   4.319   1.728   6.580
 6946SOL     OW21736   6.334   4.049   2.707
 6946SOL    HW121737   6.367   4.079   2.796
 6946SOL    HW221738   6.402   4.070   2.637
 6947SOL     OW21739   4.098   6.664   0.977
 6947SOL    HW121740   4.145   6.703   0.897
 6947SOL    HW221741   4.011   6.712   0.991
 6948SOL     OW21742   3.402   2.099   5.646
 6948SOL    HW121743   3.441   2.180   5.603
 6948SOL    HW221744   3.327   2.065   5.590
 6949SOL     OW21745   5.123   0.690   2.118
 6949SOL    HW121746   5.163   0.776   2.086
 6949SOL    HW221747   5.044   0.667   2.061
 6950SOL     OW21748   3.744   1.631   3.014
 6950SOL    HW121749   3.782   1.538   3.020
 6950SOL    HW221750   3.816   1.697   3.035
 6951SOL     OW21751   4.988   4.337   5.667
 6951SOL    HW121752   4.974   4.310   5.572
 6951SOL    HW221753   5.083   4.320   5.693
 6952SOL     OW21754   0.158   3.710   6.540
 6952SOL    HW121755   0.188   3.762   6.460
 6952SOL    HW221756   0.192   3.754   6.623
 6953SOL     OW21757   5.236   2.529   4.769
 6953SOL    HW121758   5.189   2.462   4.712
 6953SOL    HW221759   5.247   2.614   4.718
 6954SOL     OW21760   6.825   4.638   2.437
 6954SOL    HW121761   6.812   4.623   2.535
 6954SOL    HW221762   6.822   4.550   2.390
 6955SOL     OW21763   6.808   0.475   3.516
 6955SOL    HW121764   6.788   0.554   3.575
 6955SOL    HW221765   6.818   0.393   3.572
 6956SOL     OW21766   2.696   4.255   1.343
 6956SOL    HW121767   2.770   4.204   1.386
 6956SOL    HW221768   2.707   4.353   1.362
 6957SOL     OW21769   0.766   4.848   0.067
 6957SOL    HW121770   0.805   4.933   0.103
 6957SOL    HW221771   0.779   4.844   6.991
 6958SOL     OW21772   2.643   4.144   5.737
 6958SOL    HW121773   2.706   4.114   5.666
 6958SOL    HW221774   2.550   4.113   5.715
 6959SOL     OW21775   3.849   0.942   5.257
 6959SOL    HW121776   3.820   0.977   5.168
 6959SOL    HW221777   3.947   0.959   5.269
 6960SOL     OW21778   0.669   6.132   6.924
 6960SOL    HW121779   0.743   6.199   6.914
 6960SOL    HW221780   0.588   6.177   6.963
 6961SOL     OW21781   6.279   1.441   3.691
 6961SOL    HW121782   6.300   1.349   3.661
 6961SOL    HW221783   6.360   1.499   3.681
 6962SOL     OW21784   3.133   3.897   1.224
 6962SOL    HW121785   3.206   3.962   1.204
 6962SOL    HW221786   3.171   3.814   1.263
 6963SOL     OW21787   6.117   5.938   1.494
 6963SOL    HW121788   6.019   5.944   1.511
 6963SOL    HW221789   6.157   6.030   1.496
 6964SOL     OW21790   3.489   5.970   5.878
 6964SOL    HW121791   3.418   5.903   5.898
 6964SOL    HW221792   3.450   6.062   5.882
 6965SOL     OW21793   6.209   1.874   6.021
 6965SOL    HW121794   6.206   1.775   6.030
 6965SOL    HW221795   6.121   1.914   6.047
 6966SOL     OW21796   4.920   1.601   3.785
 6966SOL    HW121797   4.877   1.571   3.700
 6966SOL    HW221798   4.938   1.522   3.843
 6967SOL     OW21799   3.081   2.760   6.165
 6967SOL    HW121800   3.029   2.814   6.099
 6967SOL    HW221801   3.018   2.706   6.221
 6968SOL     OW21802   4.134   0.106   4.070
 6968SOL    HW121803   4.207   0.174   4.072
 6968SOL    HW221804   4.078   0.120   3.988
 6969SOL     OW21805   3.176   3.203   0.763
 6969SOL    HW121806   3.224   3.168   0.682
 6969SOL    HW221807   3.172   3.131   0.833
 6970SOL     OW21808   5.198   4.642   0.430
 6970SOL    HW121809   5.280   4.644   0.373
 6970SOL    HW221810   5.121   4.608   0.376
 6971SOL     OW21811   6.239   1.902   2.515
 6971SOL    HW121812   6.203   1.868   2.429
 6971SOL    HW221813   6.290   1.829   2.561
 6972SOL     OW21814   5.048   4.985   4.252
 6972SOL    HW121815   5.053   5.065   4.313
 6972SOL    HW221816   4.993   4.914   4.296
 6973SOL     OW21817   1.117   4.709   4.313
 6973SOL    HW121818   1.170   4.627   4.288
 6973SOL    HW221819   1.179   4.778   4.350
 6974SOL     OW21820   3.824   4.336   5.249
 6974SOL    HW121821   3.810   4.344   5.347
 6974SOL    HW221822   3.889   4.405   5.218
 6975SOL     OW21823   2.419   0.060   6.165
 6975SOL    HW121824   2.411   0.147   6.214
 6975SOL    HW221825   2.356   0.059   6.087
 6976SOL     OW21826   1.000   5.814   0.904
 6976SOL    HW121827   0.925   5.880   0.916
 6976SOL    HW221828   0.997   5.776   0.812
 6977SOL     OW21829   4.751   2.811   2.119
 6977SOL    HW121830   4.749   2.901   2.077
 6977SOL    HW221831   4.701   2.813   2.206
 6978SOL     OW21832   4.288   2.004   3.606
 6978SOL    HW121833   4.306   2.026   3.702
 6978SOL    HW221834   4.286   2.088   3.552
 6979SOL     OW21835   0.208   3.565   4.445
 6979SOL    HW121836   0.163   3.486   4.403
 6979SOL    HW221837   0.190   3.647   4.391
 6980SOL     OW21838   4.846   1.510   4.715
 6980SOL    HW121839   4.791   1.555   4.785
 6980SOL    HW221840   4.943   1.517   4.739
 6981SOL     OW21841   2.936   3.800   6.847
 6981SOL    HW121842   3.009   3.760   6.792
 6981SOL    HW221843   2.856   3.739   6.845
 6982SOL     OW21844   0.222   6.960   4.979
 6982SOL    HW121845   0.307   7.001   4.946
 6982SOL    HW221846   0.232   6.937   5.076
 6983SOL     OW21847   5.939   1.158   3.102
 6983SOL    HW121848   5.941   1.083   3.168
 6983SOL    HW221849   6.031   1.175   3.067
 6984SOL     OW21850   1.562   1.407   6.224
 6984SOL    HW121851   1.533   1.422   6.130
 6984SOL    HW221852   1.551   1.310   6.248
 6985SOL     OW21853   5.044   6.465   3.869
 6985SOL    HW121854   4.965   6.526   3.867
 6985SOL    HW221855   5.061   6.429   3.778
 6986SOL     OW21856   1.559   6.195   5.083
 6986SOL    HW121857   1.459   6.189   5.072
 6986SOL    HW221858   1.590   6.122   5.144
 6987SOL     OW21859   6.843   3.526   6.656
 6987SOL    HW121860   6.765   3.489   6.708
 6987SOL    HW221861   6.880   3.455   6.596
 6988SOL     OW21862   5.783   1.091   6.007
 6988SOL    HW121863   5.745   1.028   6.074
 6988SOL    HW221864   5.847   1.153   6.053
 6989SOL     OW21865   1.886   3.449   4.333
 6989SOL    HW121866   1.949   3.448   4.411
 6989SOL    HW221867   1.936   3.479   4.251
 6990SOL     OW21868   4.103   3.488   1.375
 6990SOL    HW121869   4.137   3.561   1.434
 6990SOL    HW221870   4.176   3.457   1.314
 6991SOL     OW21871   4.088   4.864   5.075
 6991SOL    HW121872   4.020   4.842   5.005
 6991SOL    HW221873   4.064   4.950   5.119
 6992SOL     OW21874   6.215   6.089   4.855
 6992SOL    HW121875   6.263   6.108   4.769
 6992SOL    HW221876   6.239   6.157   4.923
 6993SOL     OW21877   0.698   0.115   2.631
 6993SOL    HW121878   0.725   0.074   2.544
 6993SOL    HW221879   0.720   0.052   2.706
 6994SOL     OW21880   1.393   2.604   0.203
 6994SOL    HW121881   1.305   2.577   0.241
 6994SOL    HW221882   1.414   2.546   0.124
 6995SOL     OW21883   1.116   5.558   4.319
 6995SOL    HW121884   1.138   5.499   4.241
 6995SOL    HW221885   1.025   5.535   4.353
 6996SOL     OW21886   1.856   0.087   5.893
 6996SOL    HW121887   1.807   0.107   5.808
 6996SOL    HW221888   1.917   0.162   5.916
 6997SOL     OW21889   4.555   5.459   4.609
 6997SOL    HW121890   4.473   5.416   4.569
 6997SOL    HW221891   4.580   5.539   4.554
 6998SOL     OW21892   2.529   1.937   2.250
 6998SOL    HW121893   2.490   1.980   2.168
 6998SOL    HW221894   2.488   1.978   2.331
 6999SOL     OW21895   5.255   2.085   6.796
 6999SOL    HW121896   5.338   2.046   6.757
 6999SOL    HW221897   5.207   2.138   6.727
 7000SOL     OW21898   0.094   0.393   1.735
 7000SOL    HW121899   0.158   0.461   1.699
 7000SOL    HW221900   0.002   0.431   1.739
 7001SOL     OW21901   2.929   1.608   6.398
 7001SOL    HW121902   2.893   1.671   6.467
 7001SOL    HW221903   2.950   1.520   6.441
 7002SOL     OW21904   2.300   4.816   2.423
 7002SOL    HW121905   2.245   4.896   2.397
 7002SOL    HW221906   2.373   4.844   2.485
 7003SOL     OW21907   2.179   6.502   5.815
 7003SOL    HW121908   2.133   6.477   5.901
 7003SOL    HW221909   2.175   6.425   5.752
 7004SOL     OW21910   1.602   4.000   0.102
 7004SOL    HW121911   1.542   4.032   0.176
 7004SOL    HW221912   1.570   3.911   0.069
 7005SOL     OW21913   6.708   6.837   5.605
 7005SOL    HW121914   6.614   6.808   5.586
 7005SOL    HW221915   6.757   6.762   5.649
 7006SOL     OW21916   4.531   5.013   4.228
 7006SOL    HW121917   4.577   4.926   4.210
 7006SOL    HW221918   4.552   5.077   4.154
 7007SOL     OW21919   4.846   4.957   2.035
 7007SOL    HW121920   4.749   4.976   2.045
 7007SOL    HW221921   4.870   4.952   1.938
 7008SOL     OW21922   0.813   5.861   4.116
 7008SOL    HW121923   0.763   5.936   4.072
 7008SOL    HW221924   0.896   5.841   4.064
 7009SOL     OW21925   6.858   4.307   1.643
 7009SOL    HW121926   6.940   4.269   1.602
 7009SOL    HW221927   6.883   4.364   1.721
 7010SOL     OW21928   5.542   4.274   6.215
 7010SOL    HW121929   5.586   4.251   6.302
 7010SOL    HW221930   5.501   4.193   6.175
 7011SOL     OW21931   0.723   0.688   5.565
 7011SOL    HW121932   0.819   0.670   5.546
 7011SOL    HW221933   0.684   0.742   5.490
 7012SOL     OW21934   1.051   1.127   1.415
 7012SOL    HW121935   0.993   1.114   1.335
 7012SOL    HW221936   1.043   1.221   1.447
 7013SOL     OW21937   6.407   2.190   1.752
 7013SOL    HW121938   6.481   2.123   1.751
 7013SOL    HW221939   6.319   2.143   1.760
 7014SOL     OW21940   2.342   5.249   1.146
 7014SOL    HW121941   2.423   5.304   1.168
 7014SOL    HW221942   2.318   5.263   1.050
 7015SOL     OW21943   4.461   2.014   2.271
 7015SOL    HW121944   4.410   1.996   2.355
 7015SOL    HW221945   4.525   2.089   2.286
 7016SOL     OW21946   4.234   4.421   1.514
 7016SOL    HW121947   4.182   4.346   1.553
 7016SOL    HW221948   4.181   4.506   1.521
 7017SOL     OW21949   5.065   1.706   5.102
 7017SOL    HW121950   5.162   1.720   5.122
 7017SOL    HW221951   5.027   1.638   5.165
 7018SOL     OW21952   0.378   3.112   3.435
 7018SOL    HW121953   0.371   3.015   3.457
 7018SOL    HW221954   0.459   3.151   3.478
 7019SOL     OW21955   0.139   6.283   1.866
 7019SOL    HW121956   0.109   6.304   1.959
 7019SOL    HW221957   0.231   6.319   1.852
 7020SOL     OW21958   0.509   5.674   6.536
 7020SOL    HW121959   0.436   5.676   6.605
 7020SOL    HW221960   0.561   5.589   6.544
 7021SOL     OW21961   3.469   6.668   5.887
 7021SOL    HW121962   3.479   6.592   5.823
 7021SOL    HW221963   3.410   6.641   5.963
 7022SOL     OW21964   4.086   5.219   5.563
 7022SOL    HW121965   4.041   5.130   5.575
 7022SOL    HW221966   4.185   5.205   5.562
 7023SOL     OW21967   4.689   4.874   2.470
 7023SOL    HW121968   4.759   4.937   2.504
 7023SOL    HW221969   4.635   4.840   2.546
 7024SOL     OW21970   6.193   6.460   1.509
 7024SOL    HW121971   6.115   6.522   1.506
 7024SOL    HW221972   6.160   6.366   1.516
 7025SOL     OW21973   2.689   0.126   0.878
 7025SOL    HW121974   2.680   0.161   0.972
 7025SOL    HW221975   2.776   0.078   0.869
 7026SOL     OW21976   4.426   2.108   0.995
 7026SOL    HW121977   4.407   2.203   0.971
 7026SOL    HW221978   4.345   2.052   0.978
 7027SOL     OW21979   5.524   5.870   4.281
 7027SOL    HW121980   5.589   5.934   4.321
 7027SOL    HW221981   5.525   5.784   4.332
 7028SOL     OW21982   2.956   0.961   4.803
 7028SOL    HW121983   3.039   0.905   4.804
 7028SOL    HW221984   2.938   0.992   4.710
 7029SOL     OW21985   4.027   1.144   4.443
 7029SOL    HW121986   3.930   1.145   4.466
 7029SOL    HW221987   4.075   1.211   4.499
 7030SOL     OW21988   1.615   3.484   3.850
 7030SOL    HW121989   1.626   3.389   3.878
 7030SOL    HW221990   1.665   3.500   3.764
 7031SOL     OW21991   0.990   0.983   4.729
 7031SOL    HW121992   1.032   1.069   4.703
 7031SOL    HW221993   0.995   0.972   4.829
 7032SOL     OW21994   5.935   2.526   3.511
 7032SOL    HW121995   5.891   2.520   3.600
 7032SOL    HW221996   6.023   2.573   3.520
 7033SOL     OW21997   0.587   0.687   5.193
 7033SOL    HW121998   0.570   0.773   5.146
 7033SOL    HW221999   0.636   0.625   5.132
 7034SOL     OW22000   0.347   4.859   3.577
 7034SOL    HW122001   0.383   4.797   3.646
 7034SOL    HW222002   0.392   4.841   3.489
 7035SOL     OW22003   6.637   4.634   2.068
 7035SOL    HW122004   6.639   4.534   2.070
 7035SOL    HW222005   6.731   4.668   2.059
 7036SOL     OW22006   6.050   4.569   0.600
 7036SOL    HW122007   5.985   4.522   0.660
 7036SOL    HW222008   6.124   4.507   0.576
 7037SOL     OW22009   1.479   0.482   6.566
 7037SOL    HW122010   1.561   0.537   6.580
 7037SOL    HW222011   1.505   0.389   6.541
 7038SOL     OW22012   2.133   3.348   4.434
 7038SOL    HW122013   2.147   3.293   4.516
 7038SOL    HW222014   2.175   3.302   4.355
 7039SOL     OW22015   3.655   2.101   0.036
 7039SOL    HW122016   3.722   2.079   0.107
 7039SOL    HW222017   3.564   2.109   0.079
 7040SOL     OW22018   5.559   2.449   6.974
 7040SOL    HW122019   5.554   2.413   0.044
 7040SOL    HW222020   5.469   2.446   6.931
 7041SOL     OW22021   2.317   1.294   3.456
 7041SOL    HW122022   2.382   1.364   3.486
 7041SOL    HW222023   2.234   1.300   3.512
 7042SOL     OW22024   1.635   1.111   6.644
 7042SOL    HW122025   1.597   1.068   6.561
 7042SOL    HW222026   1.561   1.145   6.701
 7043SOL     OW22027   1.293   2.621   2.061
 7043SOL    HW122028   1.325   2.575   1.979
 7043SOL    HW222029   1.194   2.608   2.071
 7044SOL     OW22030   6.458   6.257   1.375
 7044SOL    HW122031   6.480   6.354   1.370
 7044SOL    HW222032   6.517   6.206   1.312
 7045SOL     OW22033   0.277   4.727   0.254
 7045SOL    HW122034   0.189   4.753   0.294
 7045SOL    HW222035   0.308   4.641   0.293
 7046SOL     OW22036   3.163   1.845   3.797
 7046SOL    HW122037   3.238   1.883   3.743
 7046SOL    HW222038   3.191   1.839   3.893
 7047SOL     OW22039   1.413   0.117   3.033
 7047SOL    HW122040   1.401   0.021   3.058
 7047SOL    HW222041   1.369   0.175   3.102
 7048SOL     OW22042   6.756   5.458   6.898
 7048SOL    HW122043   6.692   5.502   6.836
 7048SOL    HW222044   6.733   5.480   6.992
 7049SOL     OW22045   2.353   1.087   6.237
 7049SOL    HW122046   2.400   1.158   6.287
 7049SOL    HW222047   2.261   1.117   6.214
 7050SOL     OW22048   4.298   3.390   5.295
 7050SOL    HW122049   4.398   3.393   5.289
 7050SOL    HW222050   4.270   3.403   5.390
 7051SOL     OW22051   5.934   6.495   2.797
 7051SOL    HW122052   5.913   6.530   2.706
 7051SOL    HW222053   6.033   6.478   2.804
 7052SOL     OW22054   6.836   6.779   5.332
 7052SOL    HW122055   6.787   6.806   5.415
 7052SOL    HW222056   6.774   6.731   5.270
 7053SOL     OW22057   6.661   3.543   6.307
 7053SOL    HW122058   6.699   3.452   6.291
 7053SOL    HW222059   6.735   3.611   6.306
 7054SOL     OW22060   6.258   2.262   2.237
 7054SOL    HW122061   6.214   2.255   2.326
 7054SOL    HW222062   6.284   2.171   2.205
 7055SOL     OW22063   4.508   1.539   4.178
 7055SOL    HW122064   4.483   1.475   4.105
 7055SOL    HW222065   4.572   1.494   4.241
 7056SOL     OW22066   4.639   5.464   4.284
 7056SOL    HW122067   4.666   5.548   4.330
 7056SOL    HW222068   4.613   5.395   4.351
 7057SOL     OW22069   6.027   5.801   2.606
 7057SOL    HW122070   6.062   5.829   2.696
 7057SOL    HW222071   5.931   5.775   2.614
 7058SOL     OW22072   0.206   4.181   4.378
 7058SOL    HW122073   0.244   4.203   4.288
 7058SOL    HW222074   0.218   4.084   4.396
 7059SOL     OW22075   1.688   1.281   2.338
 7059SOL    HW122076   1.599   1.326   2.341
 7059SOL    HW222077   1.676   1.183   2.323
 7060SOL     OW22078   2.977   6.709   0.987
 7060SOL    HW122079   2.909   6.656   1.039
 7060SOL    HW222080   3.051   6.649   0.957
 7061SOL     OW22081   0.310   0.616   3.074
 7061SOL    HW122082   0.225   0.569   3.051
 7061SOL    HW222083   0.384   0.549   3.084
 7062SOL     OW22084   6.589   1.251   5.711
 7062SOL    HW122085   6.653   1.328   5.709
 7062SOL    HW222086   6.505   1.280   5.757
 7063SOL     OW22087   1.906   6.371   2.477
 7063SOL    HW122088   1.951   6.297   2.528
 7063SOL    HW222089   1.971   6.445   2.460
 7064SOL     OW22090   3.643   2.517   0.055
 7064SOL    HW122091   3.721   2.546   0.110
 7064SOL    HW222092   3.657   2.544   6.983
 7065SOL     OW22093   3.710   3.681   2.485
 7065SOL    HW122094   3.742   3.628   2.406
 7065SOL    HW222095   3.614   3.707   2.470
 7066SOL     OW22096   2.162   4.754   1.668
 7066SOL    HW122097   2.112   4.840   1.655
 7066SOL    HW222098   2.249   4.772   1.714
 7067SOL     OW22099   0.825   4.381   4.642
 7067SOL    HW122100   0.837   4.429   4.555
 7067SOL    HW222101   0.782   4.292   4.625
 7068SOL     OW22102   0.118   0.536   2.730
 7068SOL    HW122103   0.152   0.451   2.690
 7068SOL    HW222104   0.102   0.522   2.828
 7069SOL     OW22105   2.098   4.900   5.106
 7069SOL    HW122106   2.063   4.807   5.099
 7069SOL    HW222107   2.127   4.931   5.015
 7070SOL     OW22108   5.371   5.244   3.452
 7070SOL    HW122109   5.295   5.285   3.502
 7070SOL    HW222110   5.443   5.218   3.515
 7071SOL     OW22111   1.668   6.449   5.059
 7071SOL    HW122112   1.753   6.444   5.007
 7071SOL    HW222113   1.630   6.357   5.069
 7072SOL     OW22114   0.693   0.116   6.430
 7072SOL    HW122115   0.705   0.133   6.332
 7072SOL    HW222116   0.782   0.101   6.473
 7073SOL     OW22117   2.058   2.226   6.655
 7073SOL    HW122118   2.140   2.282   6.654
 7073SOL    HW222119   1.994   2.259   6.586
 7074SOL     OW22120   3.710   1.181   0.263
 7074SOL    HW122121   3.754   1.092   0.250
 7074SOL    HW222122   3.732   1.241   0.186
 7075SOL     OW22123   0.565   6.006   2.986
 7075SOL    HW122124   0.633   6.079   3.001
 7075SOL    HW222125   0.488   6.019   3.048
 7076SOL     OW22126   3.864   1.408   5.884
 7076SOL    HW122127   3.909   1.335   5.935
 7076SOL    HW222128   3.771   1.420   5.918
 7077SOL     OW22129   1.255   5.451   6.292
 7077SOL    HW122130   1.175   5.493   6.333
 7077SOL    HW222131   1.242   5.352   6.287
 7078SOL     OW22132   0.050   1.076   2.062
 7078SOL    HW122133   0.143   1.044   2.044
 7078SOL    HW222134   7.016   1.058   1.981
 7079SOL     OW22135   5.665   6.076   4.436
 7079SOL    HW122136   5.673   6.172   4.410
 7079SOL    HW222137   5.595   6.066   4.507
 7080SOL     OW22138   5.672   0.350   4.260
 7080SOL    HW122139   5.667   0.302   4.172
 7080SOL    HW222140   5.765   0.345   4.296
 7081SOL     OW22141   5.046   0.659   5.053
 7081SOL    HW122142   5.004   0.645   4.963
 7081SOL    HW222143   5.095   0.746   5.054
 7082SOL     OW22144   5.879   1.414   0.333
 7082SOL    HW122145   5.921   1.433   0.421
 7082SOL    HW222146   5.913   1.478   0.264
 7083SOL     OW22147   4.007   0.238   5.452
 7083SOL    HW122148   4.067   0.159   5.442
 7083SOL    HW222149   3.913   0.212   5.430
 7084SOL     OW22150   6.215   5.775   0.547
 7084SOL    HW122151   6.181   5.760   0.454
 7084SOL    HW222152   6.287   5.844   0.546
 7085SOL     OW22153   4.365   1.362   1.379
 7085SOL    HW122154   4.270   1.331   1.367
 7085SOL    HW222155   4.404   1.318   1.459
 7086SOL     OW22156   1.157   0.946   6.276
 7086SOL    HW122157   1.244   0.920   6.234
 7086SOL    HW222158   1.109   1.010   6.217
 7087SOL     OW22159   2.373   2.697   5.127
 7087SOL    HW122160   2.380   2.794   5.103
 7087SOL    HW222161   2.429   2.643   5.063
 7088SOL     OW22162   0.003   2.370   4.888
 7088SOL    HW122163   7.004   2.461   4.853
 7088SOL    HW222164   0.009   2.373   4.988
 7089SOL     OW22165   3.198   1.774   1.675
 7089SOL    HW122166   3.297   1.783   1.672
 7089SOL    HW222167   3.156   1.858   1.640
 7090SOL     OW22168   2.379   1.926   5.234
 7090SOL    HW122169   2.283   1.950   5.248
 7090SOL    HW222170   2.437   1.998   5.272
 7091SOL     OW22171   6.851   6.397   0.652
 7091SOL    HW122172   6.770   6.340   0.661
 7091SOL    HW222173   6.910   6.385   0.731
 7092SOL     OW22174   3.338   1.851   0.791
 7092SOL    HW122175   3.363   1.762   0.751
 7092SOL    HW222176   3.412   1.882   0.851
 7093SOL     OW22177   4.030   3.051   6.294
 7093SOL    HW122178   4.079   2.990   6.356
 7093SOL    HW222179   4.047   3.146   6.322
 7094SOL     OW22180   6.277   1.160   6.365
 7094SOL    HW122181   6.218   1.095   6.413
 7094SOL    HW222182   6.354   1.186   6.424
 7095SOL     OW22183   0.658   3.827   0.828
 7095SOL    HW122184   0.569   3.787   0.806
 7095SOL    HW222185   0.687   3.796   0.919
 7096SOL     OW22186   4.392   0.084   2.941
 7096SOL    HW122187   4.320   0.083   2.871
 7096SOL    HW222188   4.469   0.029   2.910
 7097SOL     OW22189   2.238   1.497   1.540
 7097SOL    HW122190   2.260   1.475   1.635
 7097SOL    HW222191   2.228   1.596   1.531
 7098SOL     OW22192   1.147   0.631   6.254
 7098SOL    HW122193   1.109   0.556   6.200
 7098SOL    HW222194   1.194   0.696   6.194
 7099SOL     OW22195   6.927   1.421   5.367
 7099SOL    HW122196   6.935   1.422   5.267
 7099SOL    HW222197   6.844   1.372   5.393
 7100SOL     OW22198   5.584   1.466   1.486
 7100SOL    HW122199   5.658   1.519   1.527
 7100SOL    HW222200   5.566   1.385   1.542
 7101SOL     OW22201   1.395   0.516   4.098
 7101SOL    HW122202   1.329   0.443   4.079
 7101SOL    HW222203   1.349   0.605   4.088
 7102SOL     OW22204   4.668   3.123   0.520
 7102SOL    HW122205   4.599   3.095   0.454
 7102SOL    HW222206   4.722   3.043   0.547
 7103SOL     OW22207   2.465   6.923   5.690
 7103SOL    HW122208   2.449   6.829   5.718
 7103SOL    HW222209   2.553   6.955   5.727
 7104SOL     OW22210   1.014   2.681   2.157
 7104SOL    HW122211   0.979   2.670   2.064
 7104SOL    HW222212   1.030   2.777   2.176
 7105SOL     OW22213   1.891   2.988   5.407
 7105SOL    HW122214   1.800   2.954   5.381
 7105SOL    HW222215   1.938   3.023   5.326
 7106SOL     OW22216   2.812   2.783   5.546
 7106SOL    HW122217   2.742   2.831   5.493
 7106SOL    HW222218   2.897   2.778   5.493
 7107SOL     OW22219   1.331   1.285   0.521
 7107SOL    HW122220   1.319   1.254   0.615
 7107SOL    HW222221   1.429   1.295   0.501
 7108SOL     OW22222   4.679   6.478   1.838
 7108SOL    HW122223   4.610   6.545   1.811
 7108SOL    HW222224   4.767   6.502   1.797
 7109SOL     OW22225   4.363   5.977   6.511
 7109SOL    HW122226   4.314   5.890   6.501
 7109SOL    HW222227   4.453   5.960   6.551
 7110SOL     OW22228   3.821   4.949   4.532
 7110SOL    HW122229   3.888   4.929   4.461
 7110SOL    HW222230   3.730   4.958   4.491
 7111SOL     OW22231   1.459   2.522   3.594
 7111SOL    HW122232   1.529   2.581   3.635
 7111SOL    HW222233   1.368   2.554   3.621
 7112SOL     OW22234   1.556   6.337   3.227
 7112SOL    HW122235   1.490   6.412   3.229
 7112SOL    HW222236   1.628   6.355   3.295
 7113SOL     OW22237   3.735   3.561   5.784
 7113SOL    HW122238   3.694   3.645   5.817
 7113SOL    HW222239   3.663   3.496   5.758
 7114SOL     OW22240   3.905   6.727   0.683
 7114SOL    HW122241   3.970   6.652   0.695
 7114SOL    HW222242   3.811   6.690   0.687
 7115SOL     OW22243   3.824   2.361   1.373
 7115SOL    HW122244   3.838   2.395   1.466
 7115SOL    HW222245   3.913   2.354   1.327
 7116SOL     OW22246   6.089   4.291   3.062
 7116SOL    HW122247   6.011   4.263   3.118
 7116SOL    HW222248   6.146   4.355   3.113
 7117SOL     OW22249   5.945   6.504   2.507
 7117SOL    HW122250   5.972   6.506   2.410
 7117SOL    HW222251   5.890   6.421   2.524
 7118SOL     OW22252   6.608   3.195   3.249
 7118SOL    HW122253   6.635   3.264   3.183
 7118SOL    HW222254   6.509   3.195   3.260
 7119SOL     OW22255   1.336   2.346   3.155
 7119SOL    HW122256   1.383   2.318   3.071
 7119SOL    HW222257   1.245   2.303   3.158
 7120SOL     OW22258   4.446   6.412   3.267
 7120SOL    HW122259   4.416   6.442   3.357
 7120SOL    HW222260   4.378   6.351   3.228
 7121SOL     OW22261   2.317   6.511   0.959
 7121SOL    HW122262   2.308   6.603   0.998
 7121SOL    HW222263   2.266   6.446   1.014
 7122SOL     OW22264   6.885   6.288   0.384
 7122SOL    HW122265   6.882   6.267   0.482
 7122SOL    HW222266   6.966   6.342   0.364
 7123SOL     OW22267   2.716   5.501   0.764
 7123SOL    HW122268   2.752   5.530   0.675
 7123SOL    HW222269   2.641   5.561   0.792
 7124SOL     OW22270   0.158   6.292   6.435
 7124SOL    HW122271   0.167   6.197   6.407
 7124SOL    HW222272   0.092   6.339   6.376
 7125SOL     OW22273   0.585   5.993   3.498
 7125SOL    HW122274   0.486   5.990   3.484
 7125SOL    HW222275   0.611   6.082   3.536
 7126SOL     OW22276   1.547   4.070   1.495
 7126SOL    HW122277   1.596   4.157   1.495
 7126SOL    HW222278   1.449   4.087   1.509
 7127SOL     OW22279   2.315   0.403   4.751
 7127SOL    HW122280   2.265   0.317   4.736
 7127SOL    HW222281   2.261   0.463   4.811
 7128SOL     OW22282   3.043   3.779   2.191
 7128SOL    HW122283   3.060   3.877   2.178
 7128SOL    HW222284   3.032   3.735   2.101
 7129SOL     OW22285   2.697   1.802   0.987
 7129SOL    HW122286   2.721   1.843   0.899
 7129SOL    HW222287   2.728   1.707   0.988
 7130SOL     OW22288   2.015   0.386   3.038
 7130SOL    HW122289   2.005   0.483   3.017
 7130SOL    HW222290   2.112   0.361   3.038
 7131SOL     OW22291   2.736   1.416   3.569
 7131SOL    HW122292   2.678   1.411   3.487
 7131SOL    HW222293   2.777   1.327   3.586
 7132SOL     OW22294   3.078   4.016   2.041
 7132SOL    HW122295   3.076   3.984   1.946
 7132SOL    HW222296   2.989   4.056   2.064
 7133SOL     OW22297   6.295   4.225   1.745
 7133SOL    HW122298   6.207   4.257   1.711
 7133SOL    HW222299   6.345   4.180   1.671
 7134SOL     OW22300   5.334   4.875   2.370
 7134SOL    HW122301   5.323   4.810   2.446
 7134SOL    HW222302   5.340   4.968   2.407
 7135SOL     OW22303   0.296   2.186   6.454
 7135SOL    HW122304   0.328   2.271   6.497
 7135SOL    HW222305   0.324   2.186   6.358
 7136SOL     OW22306   1.734   1.865   6.939
 7136SOL    HW122307   1.771   1.943   6.890
 7136SOL    HW222308   1.750   1.781   6.886
 7137SOL     OW22309   4.908   2.198   5.082
 7137SOL    HW122310   4.924   2.218   4.985
 7137SOL    HW222311   4.978   2.134   5.115
 7138SOL     OW22312   2.616   2.179   6.881
 7138SOL    HW122313   2.625   2.180   6.980
 7138SOL    HW222314   2.637   2.270   6.845
 7139SOL     OW22315   3.115   1.638   0.439
 7139SOL    HW122316   3.209   1.654   0.468
 7139SOL    HW222317   3.070   1.726   0.423
 7140SOL     OW22318   6.602   4.398   4.631
 7140SOL    HW122319   6.650   4.410   4.544
 7140SOL    HW222320   6.667   4.370   4.702
 7141SOL     OW22321   0.630   6.905   1.885
 7141SOL    HW122322   0.551   6.884   1.944
 7141SOL    HW222323   0.668   6.820   1.848
 7142SOL     OW22324   3.352   6.770   3.911
 7142SOL    HW122325   3.350   6.691   3.972
 7142SOL    HW222326   3.435   6.766   3.854
 7143SOL     OW22327   2.187   2.241   3.739
 7143SOL    HW122328   2.286   2.231   3.747
 7143SOL    HW222329   2.158   2.325   3.784
 7144SOL     OW22330   1.065   3.700   3.248
 7144SOL    HW122331   0.994   3.655   3.302
 7144SOL    HW222332   1.132   3.633   3.218
 7145SOL     OW22333   4.218   5.708   5.914
 7145SOL    HW122334   4.129   5.662   5.918
 7145SOL    HW222335   4.270   5.673   5.836
 7146SOL     OW22336   3.609   5.213   1.847
 7146SOL    HW122337   3.577   5.222   1.753
 7146SOL    HW222338   3.626   5.304   1.885
 7147SOL     OW22339   6.942   0.926   3.662
 7147SOL    HW122340   6.917   0.932   3.758
 7147SOL    HW222341   0.018   0.930   3.653
 7148SOL     OW22342   6.776   1.886   0.782
 7148SOL    HW122343   6.698   1.945   0.762
 7148SOL    HW222344   6.764   1.845   0.873
 7149SOL     OW22345   0.468   0.592   4.598
 7149SOL    HW122346   0.461   0.685   4.635
 7149SOL    HW222347   0.563   0.575   4.572
 7150SOL     OW22348   5.713   3.544   5.952
 7150SOL    HW122349   5.672   3.509   6.036
 7150SOL    HW222350   5.793   3.489   5.929
 7151SOL     OW22351   2.034   6.913   0.371
 7151SOL    HW122352   1.963   6.983   0.380
 7151SOL    HW222353   2.122   6.958   0.356
 7152SOL     OW22354   1.058   2.427   4.781
 7152SOL    HW122355   1.005   2.344   4.765
 7152SOL    HW222356   1.007   2.490   4.840
 7153SOL     OW22357   4.037   1.832   2.973
 7153SOL    HW122358   4.023   1.898   3.046
 7153SOL    HW222359   3.995   1.866   2.888
 7154SOL     OW22360   3.427   0.022   4.762
 7154SOL    HW122361   3.518   0.061   4.774
 7154SOL    HW222362   3.373   0.083   4.704
 7155SOL     OW22363   2.535   1.672   3.307
 7155SOL    HW122364   2.620   1.719   3.332
 7155SOL    HW222365   2.487   1.644   3.390
 7156SOL     OW22366   1.510   5.505   5.898
 7156SOL    HW122367   1.481   5.495   5.994
 7156SOL    HW222368   1.435   5.544   5.845
 7157SOL     OW22369   5.377   4.319   0.445
 7157SOL    HW122370   5.278   4.310   0.446
 7157SOL    HW222371   5.418   4.246   0.500
 7158SOL     OW22372   4.020   0.087   3.547
 7158SOL    HW122373   4.021   0.122   3.453
 7158SOL    HW222374   4.104   0.036   3.564
 7159SOL     OW22375   0.881   5.916   6.918
 7159SOL    HW122376   0.835   5.849   6.860
 7159SOL    HW222377   0.821   5.996   6.930
 7160SOL     OW22378   6.473   0.645   1.697
 7160SOL    HW122379   6.494   0.709   1.771
 7160SOL    HW222380   6.446   0.696   1.616
 7161SOL     OW22381   3.904   4.071   4.963
 7161SOL    HW122382   3.972   4.009   5.003
 7161SOL    HW222383   3.933   4.166   4.978
 7162SOL     OW22384   3.796   4.906   4.201
 7162SOL    HW122385   3.850   4.847   4.140
 7162SOL    HW222386   3.699   4.881   4.193
 7163SOL     OW22387   1.371   6.524   3.570
 7163SOL    HW122388   1.449   6.574   3.534
 7163SOL    HW222389   1.319   6.484   3.494
 7164SOL     OW22390   2.253   2.094   5.025
 7164SOL    HW122391   2.154   2.087   5.013
 7164SOL    HW222392   2.298   2.019   4.976
 7165SOL     OW22393   4.576   5.402   1.964
 7165SOL    HW122394   4.560   5.478   1.902
 7165SOL    HW222395   4.675   5.388   1.974
 7166SOL     OW22396   3.906   6.116   2.158
 7166SOL    HW122397   3.906   6.195   2.219
 7166SOL    HW222398   3.950   6.139   2.072
 7167SOL     OW22399   5.096   3.409   6.872
 7167SOL    HW122400   5.018   3.349   6.883
 7167SOL    HW222401   5.105   3.434   6.775
 7168SOL     OW22402   0.340   1.599   3.992
 7168SOL    HW122403   0.313   1.692   4.019
 7168SOL    HW222404   0.409   1.564   4.055
 7169SOL     OW22405   2.276   2.634   6.583
 7169SOL    HW122406   2.310   2.629   6.490
 7169SOL    HW222407   2.342   2.684   6.640
 7170SOL     OW22408   5.290   4.370   4.058
 7170SOL    HW122409   5.308   4.441   4.125
 7170SOL    HW222410   5.377   4.335   4.022
 7171SOL     OW22411   4.071   3.705   5.417
 7171SOL    HW122412   3.988   3.691   5.471
 7171SOL    HW222413   4.150   3.668   5.466
 7172SOL     OW22414   0.637   6.207   1.207
 7172SOL    HW122415   0.659   6.288   1.262
 7172SOL    HW222416   0.616   6.236   1.113
 7173SOL     OW22417   6.347   6.539   4.693
 7173SOL    HW122418   6.391   6.449   4.688
 7173SOL    HW222419   6.252   6.527   4.720
 7174SOL     OW22420   1.101   5.946   6.047
 7174SOL    HW122421   1.106   5.898   6.134
 7174SOL    HW222422   1.052   5.890   5.980
 7175SOL     OW22423   5.980   3.618   5.699
 7175SOL    HW122424   6.020   3.536   5.656
 7175SOL    HW222425   5.972   3.602   5.798
 7176SOL     OW22426   0.662   3.051   1.781
 7176SOL    HW122427   0.688   3.034   1.876
 7176SOL    HW222428   0.604   3.132   1.776
 7177SOL     OW22429   0.802   4.770   2.087
 7177SOL    HW122430   0.881   4.810   2.041
 7177SOL    HW222431   0.833   4.701   2.153
 7178SOL     OW22432   6.254   1.139   6.953
 7178SOL    HW122433   6.336   1.126   7.008
 7178SOL    HW222434   6.279   1.159   6.858
 7179SOL     OW22435   0.873   3.969   5.734
 7179SOL    HW122436   0.889   3.923   5.646
 7179SOL    HW222437   0.896   3.906   5.808
 7180SOL     OW22438   6.801   6.934   2.589
 7180SOL    HW122439   6.873   6.868   2.612
 7180SOL    HW222440   6.743   6.950   2.669
 7181SOL     OW22441   5.554   5.849   2.550
 7181SOL    HW122442   5.615   5.791   2.496
 7181SOL    HW222443   5.565   5.944   2.522
 7182SOL     OW22444   4.454   3.652   6.029
 7182SOL    HW122445   4.389   3.663   5.954
 7182SOL    HW222446   4.496   3.740   6.049
 7183SOL     OW22447   1.923   3.349   3.168
 7183SOL    HW122448   1.951   3.319   3.077
 7183SOL    HW222449   1.824   3.336   3.178
 7184SOL     OW22450   2.334   5.848   3.799
 7184SOL    HW122451   2.307   5.846   3.895
 7184SOL    HW222452   2.312   5.761   3.755
 7185SOL     OW22453   4.801   1.956   0.058
 7185SOL    HW122454   4.780   2.033   7.020
 7185SOL    HW222455   4.715   1.915   0.089
 7186SOL     OW22456   0.835   6.531   4.909
 7186SOL    HW122457   0.832   6.452   4.848
 7186SOL    HW222458   0.911   6.590   4.882
 7187SOL     OW22459   1.616   5.461   1.187
 7187SOL    HW122460   1.696   5.462   1.127
 7187SOL    HW222461   1.536   5.494   1.137
 7188SOL     OW22462   5.620   6.880   1.828
 7188SOL    HW122463   5.578   6.852   1.914
 7188SOL    HW222464   5.561   6.947   1.783
 7189SOL     OW22465   6.212   0.944   5.369
 7189SOL    HW122466   6.145   0.955   5.295
 7189SOL    HW222467   6.222   0.847   5.391
 7190SOL     OW22468   4.102   5.401   2.664
 7190SOL    HW122469   4.091   5.316   2.613
 7190SOL    HW222470   4.153   5.467   2.609
 7191SOL     OW22471   0.746   3.054   2.069
 7191SOL    HW122472   0.739   3.154   2.074
 7191SOL    HW222473   0.708   3.014   2.153
 7192SOL     OW22474   3.273   4.147   6.383
 7192SOL    HW122475   3.339   4.126   6.455
 7192SOL    HW222476   3.321   4.172   6.299
 7193SOL     OW22477   5.749   1.954   4.721
 7193SOL    HW122478   5.687   2.027   4.752
 7193SOL    HW222479   5.777   1.899   4.800
 7194SOL     OW22480   2.913   1.145   1.741
 7194SOL    HW122481   2.885   1.234   1.705
 7194SOL    HW222482   2.913   1.147   1.841
 7195SOL     OW22483   0.412   6.875   2.033
 7195SOL    HW122484   0.340   6.909   1.972
 7195SOL    HW222485   0.409   6.924   2.120
 7196SOL     OW22486   3.704   3.342   1.567
 7196SOL    HW122487   3.707   3.353   1.468
 7196SOL    HW222488   3.620   3.296   1.593
 7197SOL     OW22489   1.191   1.030   4.519
 7197SOL    HW122490   1.229   0.953   4.570
 7197SOL    HW222491   1.153   1.097   4.584
 7198SOL     OW22492   0.367   6.894   6.086
 7198SOL    HW122493   0.335   6.805   6.116
 7198SOL    HW222494   0.450   6.918   6.137
 7199SOL     OW22495   5.907   5.645   2.190
 7199SOL    HW122496   5.881   5.709   2.262
 7199SOL    HW222497   5.850   5.658   2.110
 7200SOL     OW22498   1.474   2.063   2.410
 7200SOL    HW122499   1.522   2.048   2.496
 7200SOL    HW222500   1.536   2.107   2.344
 7201SOL     OW22501   2.055   4.555   3.806
 7201SOL    HW122502   2.115   4.599   3.873
 7201SOL    HW222503   1.964   4.545   3.846
 7202SOL     OW22504   2.698   7.004   5.788
 7202SOL    HW122505   2.791   6.966   5.782
 7202SOL    HW222506   2.703   0.080   5.790
 7203SOL     OW22507   6.005   0.122   0.027
 7203SOL    HW122508   6.027   0.032   7.013
 7203SOL    HW222509   6.086   0.181   0.022
 7204SOL     OW22510   6.584   2.272   3.167
 7204SOL    HW122511   6.514   2.242   3.232
 7204SOL    HW222512   6.559   2.360   3.128
 7205SOL     OW22513   1.641   4.339   1.508
 7205SOL    HW122514   1.610   4.416   1.453
 7205SOL    HW222515   1.681   4.373   1.593
 7206SOL     OW22516   6.154   1.429   1.696
 7206SOL    HW122517   6.197   1.381   1.773
 7206SOL    HW222518   6.101   1.506   1.732
 7207SOL     OW22519   4.221   0.059   1.817
 7207SOL    HW122520   4.199   7.014   1.887
 7207SOL    HW222521   4.147   0.126   1.811
 7208SOL     OW22522   2.544   0.733   5.418
 7208SOL    HW122523   2.635   0.723   5.457
 7208SOL    HW222524   2.494   0.804   5.467
 7209SOL     OW22525   3.116   3.766   4.673
 7209SOL    HW122526   3.184   3.793   4.605
 7209SOL    HW222527   3.107   3.838   4.742
 7210SOL     OW22528   4.143   6.936   4.266
 7210SOL    HW122529   4.132   7.006   4.196
 7210SOL    HW222530   4.116   6.847   4.228
 7211SOL     OW22531   0.960   4.976   2.346
 7211SOL    HW122532   0.869   4.947   2.316
 7211SOL    HW222533   0.998   4.907   2.408
 7212SOL     OW22534   5.141   6.715   2.928
 7212SOL    HW122535   5.238   6.735   2.915
 7212SOL    HW222536   5.104   6.773   3.001
 7213SOL     OW22537   5.266   6.203   5.160
 7213SOL    HW122538   5.206   6.133   5.198
 7213SOL    HW222539   5.211   6.276   5.119
 7214SOL     OW22540   1.149   4.727   5.642
 7214SOL    HW122541   1.128   4.630   5.634
 7214SOL    HW222542   1.212   4.742   5.719
 7215SOL     OW22543   1.085   3.002   1.649
 7215SOL    HW122544   0.990   2.974   1.665
 7215SOL    HW222545   1.088   3.101   1.636
 7216SOL     OW22546   2.960   2.179   2.414
 7216SOL    HW122547   2.878   2.225   2.379
 7216SOL    HW222548   3.014   2.145   2.337
 7217SOL     OW22549   0.555   3.601   1.905
 7217SOL    HW122550   0.593   3.680   1.953
 7217SOL    HW222551   0.522   3.534   1.972
 7218SOL     OW22552   6.738   2.582   4.307
 7218SOL    HW122553   6.793   2.510   4.265
 7218SOL    HW222554   6.650   2.589   4.259
 7219SOL     OW22555   3.311   1.034   0.927
 7219SOL    HW122556   3.211   1.031   0.926
 7219SOL    HW222557   3.342   1.100   0.996
 7220SOL     OW22558   6.675   1.938   2.942
 7220SOL    HW122559   6.696   1.957   3.038
 7220SOL    HW222560   6.612   2.008   2.907
 7221SOL     OW22561   6.531   3.904   5.441
 7221SOL    HW122562   6.487   3.945   5.521
 7221SOL    HW222563   6.505   3.954   5.359
 7222SOL     OW22564   6.901   0.236   3.171
 7222SOL    HW122565   6.984   0.188   3.144
 7222SOL    HW222566   6.827   0.170   3.184
 7223SOL     OW22567   4.775   0.763   4.830
 7223SOL    HW122568   4.865   0.730   4.804
 7223SOL    HW222569   4.728   0.798   4.749
 7224SOL     OW22570   5.569   1.734   3.272
 7224SOL    HW122571   5.610   1.756   3.183
 7224SOL    HW222572   5.479   1.778   3.279
 7225SOL     OW22573   2.625   0.290   1.506
 7225SOL    HW122574   2.699   0.228   1.480
 7225SOL    HW222575   2.543   0.237   1.526
 7226SOL     OW22576   6.286   6.370   4.999
 7226SOL    HW122577   6.201   6.410   4.965
 7226SOL    HW222578   6.362   6.432   4.980
 7227SOL     OW22579   0.093   2.558   6.098
 7227SOL    HW122580   7.020   2.582   6.094
 7227SOL    HW222581   0.110   2.500   6.178
 7228SOL     OW22582   2.127   0.654   2.891
 7228SOL    HW122583   2.205   0.683   2.947
 7228SOL    HW222584   2.062   0.729   2.881
 7229SOL     OW22585   0.371   0.073   3.166
 7229SOL    HW122586   0.397   0.146   3.228
 7229SOL    HW222587   0.373   7.008   3.214
 7230SOL     OW22588   6.382   5.358   1.099
 7230SOL    HW122589   6.465   5.413   1.110
 7230SOL    HW222590   6.387   5.307   1.014
 7231SOL     OW22591   5.963   0.857   0.294
 7231SOL    HW122592   5.980   0.865   0.196
 7231SOL    HW222593   5.932   0.945   0.329
 7232SOL     OW22594   3.322   4.047   0.936
 7232SOL    HW122595   3.299   4.111   1.009
 7232SOL    HW222596   3.391   4.088   0.876
 7233SOL     OW22597   1.297   1.924   5.074
 7233SOL    HW122598   1.347   1.913   5.159
 7233SOL    HW222599   1.261   2.017   5.067
 7234SOL     OW22600   4.975   2.025   3.617
 7234SOL    HW122601   5.015   1.949   3.566
 7234SOL    HW222602   4.901   1.991   3.675
 7235SOL     OW22603   6.086   2.493   4.837
 7235SOL    HW122604   6.159   2.561   4.843
 7235SOL    HW222605   6.055   2.485   4.743
 7236SOL     OW22606   1.132   1.851   3.128
 7236SOL    HW122607   1.172   1.854   3.220
 7236SOL    HW222608   1.061   1.920   3.121
 7237SOL     OW22609   5.647   5.469   4.990
 7237SOL    HW122610   5.686   5.491   5.079
 7237SOL    HW222611   5.718   5.434   4.929
 7238SOL     OW22612   1.587   7.003   1.822
 7238SOL    HW122613   1.597   6.991   1.921
 7238SOL    HW222614   1.676   7.000   1.778
 7239SOL     OW22615   4.493   1.791   1.794
 7239SOL    HW122616   4.423   1.863   1.802
 7239SOL    HW222617   4.581   1.833   1.773
 7240SOL     OW22618   3.023   3.841   2.662
 7240SOL    HW122619   2.960   3.797   2.598
 7240SOL    HW222620   3.092   3.892   2.611
 7241SOL     OW22621   4.921   6.804   4.215
 7241SOL    HW122622   4.858   6.878   4.193
 7241SOL    HW222623   4.870   6.720   4.232
 7242SOL     OW22624   6.854   5.805   0.821
 7242SOL    HW122625   6.768   5.778   0.863
 7242SOL    HW222626   6.900   5.873   0.879
 7243SOL     OW22627   0.692   5.727   0.853
 7243SOL    HW122628   0.780   5.766   0.882
 7243SOL    HW222629   0.708   5.644   0.800
 7244SOL     OW22630   5.880   2.019   1.570
 7244SOL    HW122631   5.847   2.112   1.582
 7244SOL    HW222632   5.889   1.975   1.659
 7245SOL     OW22633   5.562   1.477   3.864
 7245SOL    HW122634   5.649   1.429   3.853
 7245SOL    HW222635   5.498   1.448   3.792
 7246SOL     OW22636   0.967   5.393   5.709
 7246SOL    HW122637   1.021   5.310   5.692
 7246SOL    HW222638   0.876   5.381   5.671
 7247SOL     OW22639   4.144   5.889   3.781
 7247SOL    HW122640   4.212   5.841   3.835
 7247SOL    HW222641   4.127   5.838   3.696
 7248SOL     OW22642   3.151   1.289   4.973
 7248SOL    HW122643   3.234   1.328   5.015
 7248SOL    HW222644   3.120   1.212   5.028
 7249SOL     OW22645   4.430   3.206   5.810
 7249SOL    HW122646   4.483   3.156   5.741
 7249SOL    HW222647   4.480   3.288   5.837
 7250SOL     OW22648   2.800   3.366   6.883
 7250SOL    HW122649   2.736   3.416   6.825
 7250SOL    HW222650   2.767   3.273   6.897
 7251SOL     OW22651   5.742   1.032   5.317
 7251SOL    HW122652   5.649   1.033   5.279
 7251SOL    HW222653   5.782   0.941   5.304
 7252SOL     OW22654   4.565   3.396   5.342
 7252SOL    HW122655   4.618   3.433   5.265
 7252SOL    HW222656   4.555   3.465   5.413
 7253SOL     OW22657   4.865   4.908   6.739
 7253SOL    HW122658   4.803   4.883   6.664
 7253SOL    HW222659   4.938   4.967   6.704
 7254SOL     OW22660   4.991   6.421   5.376
 7254SOL    HW122661   5.066   6.486   5.385
 7254SOL    HW222662   5.020   6.332   5.411
 7255SOL     OW22663   3.725   2.957   3.144
 7255SOL    HW122664   3.816   2.989   3.174
 7255SOL    HW222665   3.736   2.895   3.066
 7256SOL     OW22666   2.794   5.588   3.840
 7256SOL    HW122667   2.728   5.598   3.914
 7256SOL    HW222668   2.873   5.536   3.873
 7257SOL     OW22669   5.992   5.112   2.567
 7257SOL    HW122670   5.997   5.036   2.502
 7257SOL    HW222671   6.001   5.078   2.660
 7258SOL     OW22672   2.411   0.083   5.489
 7258SOL    HW122673   2.411   0.007   5.554
 7258SOL    HW222674   2.369   0.163   5.532
 7259SOL     OW22675   3.411   3.999   6.178
 7259SOL    HW122676   3.324   3.954   6.200
 7259SOL    HW222677   3.484   3.931   6.176
 7260SOL     OW22678   4.696   2.664   2.791
 7260SOL    HW122679   4.696   2.763   2.806
 7260SOL    HW222680   4.732   2.618   2.872
 7261SOL     OW22681   2.494   4.969   1.156
 7261SOL    HW122682   2.524   4.884   1.201
 7261SOL    HW222683   2.394   4.972   1.156
 7262SOL     OW22684   6.480   0.608   4.721
 7262SOL    HW122685   6.571   0.617   4.679
 7262SOL    HW222686   6.469   0.677   4.791
 7263SOL     OW22687   5.425   5.070   1.278
 7263SOL    HW122688   5.419   5.081   1.179
 7263SOL    HW222689   5.363   4.998   1.307
 7264SOL     OW22690   6.926   6.521   4.297
 7264SOL    HW122691   6.974   6.534   4.210
 7264SOL    HW222692   6.961   6.587   4.364
 7265SOL     OW22693   4.590   3.445   6.900
 7265SOL    HW122694   4.673   3.390   6.909
 7265SOL    HW222695   4.611   3.529   6.850
 7266SOL     OW22696   4.562   1.577   2.716
 7266SOL    HW122697   4.463   1.569   2.728
 7266SOL    HW222698   4.604   1.597   2.805
 7267SOL     OW22699   5.275   1.640   3.655
 7267SOL    HW122700   5.351   1.577   3.641
 7267SOL    HW222701   5.288   1.722   3.599
 7268SOL     OW22702   4.030   6.943   0.180
 7268SOL    HW122703   3.954   7.004   0.155
 7268SOL    HW222704   4.065   6.969   0.270
 7269SOL     OW22705   1.658   0.015   2.229
 7269SOL    HW122706   1.692   6.975   2.160
 7269SOL    HW222707   1.574   0.058   2.196
 7270SOL     OW22708   3.509   2.223   1.692
 7270SOL    HW122709   3.582   2.203   1.627
 7270SOL    HW222710   3.545   2.278   1.767
 7271SOL     OW22711   5.991   5.435   3.763
 7271SOL    HW122712   5.897   5.428   3.729
 7271SOL    HW222713   6.016   5.532   3.769
 7272SOL     OW22714   5.968   1.753   1.499
 7272SOL    HW122715   5.890   1.814   1.485
 7272SOL    HW222716   5.959   1.674   1.439
 7273SOL     OW22717   5.922   5.322   5.006
 7273SOL    HW122718   5.911   5.235   4.956
 7273SOL    HW222719   5.953   5.392   4.942
 7274SOL     OW22720   5.233   4.825   3.626
 7274SOL    HW122721   5.246   4.757   3.698
 7274SOL    HW222722   5.244   4.916   3.663
 7275SOL     OW22723   6.103   6.729   1.823
 7275SOL    HW122724   6.050   6.771   1.898
 7275SOL    HW222725   6.091   6.630   1.826
 7276SOL     OW22726   3.813   1.287   3.341
 7276SOL    HW122727   3.797   1.260   3.247
 7276SOL    HW222728   3.839   1.384   3.344
 7277SOL     OW22729   6.112   2.151   4.148
 7277SOL    HW122730   6.013   2.146   4.151
 7277SOL    HW222731   6.151   2.063   4.174
 7278SOL     OW22732   3.590   1.187   3.520
 7278SOL    HW122733   3.648   1.135   3.583
 7278SOL    HW222734   3.648   1.236   3.455
 7279SOL     OW22735   3.502   3.714   1.906
 7279SOL    HW122736   3.558   3.659   1.844
 7279SOL    HW222737   3.427   3.658   1.943
 7280SOL     OW22738   6.693   1.602   5.462
 7280SOL    HW122739   6.675   1.700   5.455
 7280SOL    HW222740   6.735   1.582   5.551
 7281SOL     OW22741   3.382   6.772   3.242
 7281SOL    HW122742   3.376   6.842   3.171
 7281SOL    HW222743   3.420   6.813   3.325
 7282SOL     OW22744   0.170   3.775   1.018
 7282SOL    HW122745   0.149   3.799   1.113
 7282SOL    HW222746   0.171   3.676   1.008
 7283SOL     OW22747   3.239   6.378   2.974
 7283SOL    HW122748   3.222   6.423   2.886
 7283SOL    HW222749   3.153   6.371   3.025
 7284SOL     OW22750   0.412   0.209   3.392
 7284SOL    HW122751   0.443   0.271   3.464
 7284SOL    HW222752   0.415   0.115   3.425
 7285SOL     OW22753   5.082   3.081   1.753
 7285SOL    HW122754   5.039   3.155   1.804
 7285SOL    HW222755   5.083   2.997   1.808
 7286SOL     OW22756   6.554   1.028   4.581
 7286SOL    HW122757   6.505   1.083   4.512
 7286SOL    HW222758   6.522   1.053   4.672
 7287SOL     OW22759   2.730   1.815   4.369
 7287SOL    HW122760   2.692   1.844   4.281
 7287SOL    HW222761   2.823   1.850   4.379
 7288SOL     OW22762   3.031   1.683   1.874
 7288SOL    HW122763   3.106   1.705   1.811
 7288SOL    HW222764   2.957   1.748   1.862
 7289SOL     OW22765   6.752   2.333   1.229
 7289SOL    HW122766   6.666   2.329   1.179
 7289SOL    HW222767   6.746   2.401   1.302
 7290SOL     OW22768   3.259   2.095   4.746
 7290SOL    HW122769   3.341   2.146   4.771
 7290SOL    HW222770   3.281   1.998   4.736
 7291SOL     OW22771   0.931   1.207   0.467
 7291SOL    HW122772   0.868   1.215   0.544
 7291SOL    HW222773   0.924   1.288   0.409
 7292SOL     OW22774   4.131   1.271   2.242
 7292SOL    HW122775   4.127   1.185   2.293
 7292SOL    HW222776   4.064   1.335   2.280
 7293SOL     OW22777   6.425   1.191   4.403
 7293SOL    HW122778   6.432   1.247   4.486
 7293SOL    HW222779   6.493   1.223   4.337
 7294SOL     OW22780   3.479   0.744   3.035
 7294SOL    HW122781   3.423   0.821   3.065
 7294SOL    HW222782   3.446   0.711   2.947
 7295SOL     OW22783   5.634   3.999   1.511
 7295SOL    HW122784   5.553   3.977   1.456
 7295SOL    HW222785   5.610   3.998   1.608
 7296SOL     OW22786   3.066   0.011   2.275
 7296SOL    HW122787   3.076   6.942   2.314
 7296SOL    HW222788   3.155   0.056   2.275
 7297SOL     OW22789   3.978   0.316   0.277
 7297SOL    HW122790   4.055   0.339   0.217
 7297SOL    HW222791   4.008   0.318   0.373
 7298SOL     OW22792   3.787   4.530   1.265
 7298SOL    HW122793   3.858   4.564   1.205
 7298SOL    HW222794   3.799   4.569   1.357
 7299SOL     OW22795   0.251   3.302   0.019
 7299SOL    HW122796   0.247   3.269   0.113
 7299SOL    HW222797   0.269   3.225   6.981
 7300SOL     OW22798   0.951   4.082   1.452
 7300SOL    HW122799   0.907   4.078   1.363
 7300SOL    HW222800   1.021   4.153   1.451
 7301SOL     OW22801   4.689   1.458   0.473
 7301SOL    HW122802   4.712   1.555   0.479
 7301SOL    HW222803   4.686   1.419   0.565
 7302SOL     OW22804   5.590   2.104   6.296
 7302SOL    HW122805   5.500   2.138   6.324
 7302SOL    HW222806   5.611   2.135   6.204
 7303SOL     OW22807   3.239   2.224   1.536
 7303SOL    HW122808   3.267   2.261   1.448
 7303SOL    HW222809   3.319   2.198   1.588
 7304SOL     OW22810   2.272   0.015   0.340
 7304SOL    HW122811   2.325   0.087   0.294
 7304SOL    HW222812   2.334   6.978   0.391
 7305SOL     OW22813   6.887   6.878   6.123
 7305SOL    HW122814   6.961   6.934   6.161
 7305SOL    HW222815   6.802   6.899   6.171
 7306SOL     OW22816   1.800   3.689   0.204
 7306SOL    HW122817   1.783   3.666   0.300
 7306SOL    HW222818   1.897   3.711   0.191
 7307SOL     OW22819   3.788   6.378   2.012
 7307SOL    HW122820   3.866   6.401   2.070
 7307SOL    HW222821   3.819   6.364   1.918
 7308SOL     OW22822   3.496   1.715   2.908
 7308SOL    HW122823   3.579   1.679   2.951
 7308SOL    HW222824   3.522   1.779   2.836
 7309SOL     OW22825   2.744   4.738   4.117
 7309SOL    HW122826   2.697   4.688   4.190
 7309SOL    HW222827   2.678   4.791   4.064
 7310SOL     OW22828   3.439   3.240   0.240
 7310SOL    HW122829   3.421   3.142   0.255
 7310SOL    HW222830   3.400   3.268   0.153
 7311SOL     OW22831   1.218   6.779   5.522
 7311SOL    HW122832   1.272   6.743   5.598
 7311SOL    HW222833   1.183   6.703   5.467
 7312SOL     OW22834   6.208   2.316   4.396
 7312SOL    HW122835   6.284   2.319   4.331
 7312SOL    HW222836   6.127   2.278   4.351
 7313SOL     OW22837   3.361   0.987   3.138
 7313SOL    HW122838   3.376   0.995   3.237
 7313SOL    HW222839   3.435   1.033   3.090
 7314SOL     OW22840   2.494   5.478   4.673
 7314SOL    HW122841   2.424   5.467   4.744
 7314SOL    HW222842   2.577   5.428   4.700
 7315SOL     OW22843   2.427   5.180   2.657
 7315SOL    HW122844   2.472   5.186   2.568
 7315SOL    HW222845   2.461   5.252   2.717
 7316SOL     OW22846   3.832   1.005   2.039
 7316SOL    HW122847   3.913   1.037   1.990
 7316SOL    HW222848   3.857   0.931   2.101
 7317SOL     OW22849   6.363   1.755   1.555
 7317SOL    HW122850   6.324   1.806   1.478
 7317SOL    HW222851   6.456   1.725   1.531
 7318SOL     OW22852   4.906   6.106   1.541
 7318SOL    HW122853   4.973   6.097   1.468
 7318SOL    HW222854   4.944   6.071   1.626
 7319SOL     OW22855   4.486   5.292   6.013
 7319SOL    HW122856   4.395   5.332   6.010
 7319SOL    HW222857   4.545   5.336   5.945
 7320SOL     OW22858   1.470   2.686   0.632
 7320SOL    HW122859   1.389   2.736   0.603
 7320SOL    HW222860   1.509   2.638   0.553
 7321SOL     OW22861   1.693   2.235   5.502
 7321SOL    HW122862   1.724   2.283   5.420
 7321SOL    HW222863   1.705   2.294   5.581
 7322SOL     OW22864   2.123   1.964   4.638
 7322SOL    HW122865   2.084   2.045   4.682
 7322SOL    HW222866   2.092   1.959   4.543
 7323SOL     OW22867   2.663   1.446   0.992
 7323SOL    HW122868   2.584   1.436   0.932
 7323SOL    HW222869   2.729   1.373   0.973
 7324SOL     OW22870   5.205   3.730   4.516
 7324SOL    HW122871   5.190   3.736   4.417
 7324SOL    HW222872   5.301   3.745   4.536
 7325SOL     OW22873   3.489   0.816   6.352
 7325SOL    HW122874   3.393   0.789   6.348
 7325SOL    HW222875   3.499   0.898   6.408
 7326SOL     OW22876   3.768   6.271   0.367
 7326SOL    HW122877   3.784   6.370   0.364
 7326SOL    HW222878   3.815   6.227   0.291
 7327SOL     OW22879   1.064   4.207   3.377
 7327SOL    HW122880   1.052   4.164   3.467
 7327SOL    HW222881   0.982   4.190   3.322
 7328SOL     OW22882   4.527   5.090   6.641
 7328SOL    HW122883   4.570   5.138   6.718
 7328SOL    HW222884   4.437   5.128   6.624
 7329SOL     OW22885   2.702   3.683   6.697
 7329SOL    HW122886   2.667   3.777   6.694
 7329SOL    HW222887   2.764   3.669   6.619
 7330SOL     OW22888   2.055   3.730   0.932
 7330SOL    HW122889   2.046   3.641   0.887
 7330SOL    HW222890   2.052   3.802   0.864
 7331SOL     OW22891   5.096   1.429   2.475
 7331SOL    HW122892   4.996   1.436   2.479
 7331SOL    HW222893   5.134   1.449   2.566
 7332SOL     OW22894   2.521   6.925   5.175
 7332SOL    HW122895   2.546   6.863   5.250
 7332SOL    HW222896   2.603   6.971   5.142
 7333SOL     OW22897   6.534   0.838   1.891
 7333SOL    HW122898   6.550   0.936   1.879
 7333SOL    HW222899   6.617   0.795   1.927
 7334SOL     OW22900   1.218   4.861   4.731
 7334SOL    HW122901   1.131   4.813   4.720
 7334SOL    HW222902   1.290   4.813   4.681
 7335SOL     OW22903   0.385   3.237   2.448
 7335SOL    HW122904   0.359   3.244   2.544
 7335SOL    HW222905   0.344   3.154   2.409
 7336SOL     OW22906   2.396   0.148   1.127
 7336SOL    HW122907   2.417   0.065   1.074
 7336SOL    HW222908   2.474   0.210   1.122
 7337SOL     OW22909   3.345   1.803   2.333
 7337SOL    HW122910   3.314   1.877   2.273
 7337SOL    HW222911   3.324   1.715   2.291
 7338SOL     OW22912   5.371   3.127   0.407
 7338SOL    HW122913   5.303   3.095   0.341
 7338SOL    HW222914   5.331   3.197   0.466
 7339SOL     OW22915   6.836   0.288   3.927
 7339SOL    HW122916   6.764   0.250   3.984
 7339SOL    HW222917   6.819   0.386   3.912
 7340SOL     OW22918   2.892   6.571   0.672
 7340SOL    HW122919   2.798   6.577   0.706
 7340SOL    HW222920   2.944   6.507   0.727
 7341SOL     OW22921   6.416   5.626   3.469
 7341SOL    HW122922   6.334   5.570   3.479
 7341SOL    HW222923   6.390   5.723   3.468
 7342SOL     OW22924   0.347   5.497   0.102
 7342SOL    HW122925   0.269   5.435   0.103
 7342SOL    HW222926   0.401   5.482   0.019
 7343SOL     OW22927   0.383   2.379   2.840
 7343SOL    HW122928   0.404   2.431   2.757
 7343SOL    HW222929   0.366   2.284   2.816
 7344SOL     OW22930   2.049   1.071   5.913
 7344SOL    HW122931   2.067   0.990   5.969
 7344SOL    HW222932   2.073   1.053   5.818
 7345SOL     OW22933   1.663   6.616   6.665
 7345SOL    HW122934   1.631   6.702   6.625
 7345SOL    HW222935   1.660   6.623   6.765
 7346SOL     OW22936   3.659   5.256   3.583
 7346SOL    HW122937   3.609   5.283   3.665
 7346SOL    HW222938   3.624   5.169   3.549
 7347SOL     OW22939   5.843   3.434   3.595
 7347SOL    HW122940   5.745   3.433   3.615
 7347SOL    HW222941   5.859   3.398   3.503
 7348SOL     OW22942   5.733   0.405   6.662
 7348SOL    HW122943   5.796   0.387   6.585
 7348SOL    HW222944   5.773   0.369   6.746
 7349SOL     OW22945   3.724   2.139   1.520
 7349SOL    HW122946   3.762   2.054   1.481
 7349SOL    HW222947   3.749   2.216   1.462
 7350SOL     OW22948   1.775   1.462   2.935
 7350SOL    HW122949   1.694   1.516   2.961
 7350SOL    HW222950   1.835   1.452   3.015
 7351SOL     OW22951   5.840   4.754   0.068
 7351SOL    HW122952   5.820   4.657   0.053
 7351SOL    HW222953   5.771   4.810   0.020
 7352SOL     OW22954   6.654   1.480   3.373
 7352SOL    HW122955   6.556   1.499   3.379
 7352SOL    HW222956   6.705   1.566   3.370
 7353SOL     OW22957   5.342   1.826   5.167
 7353SOL    HW122958   5.386   1.781   5.245
 7353SOL    HW222959   5.401   1.899   5.133
 7354SOL     OW22960   5.324   4.200   5.352
 7354SOL    HW122961   5.383   4.130   5.312
 7354SOL    HW222962   5.229   4.173   5.342
 7355SOL     OW22963   6.863   5.548   0.529
 7355SOL    HW122964   6.767   5.561   0.555
 7355SOL    HW222965   6.903   5.477   0.587
 7356SOL     OW22966   0.094   1.987   5.950
 7356SOL    HW122967   0.107   1.931   6.032
 7356SOL    HW222968   0.062   2.078   5.977
 7357SOL     OW22969   0.123   1.599   0.535
 7357SOL    HW122970   0.156   1.588   0.629
 7357SOL    HW222971   0.030   1.563   0.529
 7358SOL     OW22972   3.241   0.937   3.446
 7358SOL    HW122973   3.170   0.883   3.401
 7358SOL    HW222974   3.234   1.032   3.417
 7359SOL     OW22975   3.187   3.822   4.209
 7359SOL    HW122976   3.247   3.871   4.271
 7359SOL    HW222977   3.214   3.841   4.114
 7360SOL     OW22978   1.317   4.402   6.182
 7360SOL    HW122979   1.266   4.415   6.098
 7360SOL    HW222980   1.387   4.332   6.168
 7361SOL     OW22981   5.097   6.801   1.674
 7361SOL    HW122982   5.158   6.790   1.596
 7361SOL    HW222983   5.028   6.729   1.673
 7362SOL     OW22984   1.248   5.643   6.852
 7362SOL    HW122985   1.304   5.726   6.856
 7362SOL    HW222986   1.274   5.590   6.771
 7363SOL     OW22987   4.480   2.096   6.471
 7363SOL    HW122988   4.518   2.018   6.522
 7363SOL    HW222989   4.549   2.131   6.407
 7364SOL     OW22990   5.395   6.944   0.935
 7364SOL    HW122991   5.316   6.888   0.909
 7364SOL    HW222992   5.466   6.936   0.864
 7365SOL     OW22993   4.890   6.673   1.412
 7365SOL    HW122994   4.941   6.753   1.381
 7365SOL    HW222995   4.920   6.648   1.504
 7366SOL     OW22996   2.330   6.981   0.617
 7366SOL    HW122997   2.236   6.964   0.647
 7366SOL    HW222998   2.370   0.031   0.673
 7367SOL     OW22999   4.690   2.816   6.528
 7367SOL    HW123000   4.712   2.892   6.590
 7367SOL    HW223001   4.654   2.739   6.581
 7368SOL     OW23002   2.985   3.394   4.823
 7368SOL    HW123003   3.059   3.405   4.889
 7368SOL    HW223004   2.900   3.427   4.863
 7369SOL     OW23005   6.644   0.229   6.593
 7369SOL    HW123006   6.597   0.312   6.562
 7369SOL    HW223007   6.679   0.179   6.514
 7370SOL     OW23008   0.591   5.968   0.749
 7370SOL    HW123009   0.526   5.903   0.708
 7370SOL    HW223010   0.662   5.917   0.798
 7371SOL     OW23011   1.686   4.973   3.867
 7371SOL    HW123012   1.604   4.944   3.916
 7371SOL    HW223013   1.663   4.994   3.772
 7372SOL     OW23014   2.669   0.419   5.195
 7372SOL    HW123015   2.747   0.374   5.149
 7372SOL    HW223016   2.649   0.371   5.280
 7373SOL     OW23017   3.633   1.385   1.189
 7373SOL    HW123018   3.634   1.471   1.138
 7373SOL    HW223019   3.705   1.324   1.154
 7374SOL     OW23020   2.327   3.654   0.588
 7374SOL    HW123021   2.239   3.635   0.546
 7374SOL    HW223022   2.324   3.744   0.633
 7375SOL     OW23023   2.432   5.869   3.286
 7375SOL    HW123024   2.485   5.895   3.367
 7375SOL    HW223025   2.482   5.895   3.204
 7376SOL     OW23026   3.225   3.960   6.707
 7376SOL    HW123027   3.140   4.012   6.705
 7376SOL    HW223028   3.298   4.013   6.664
 7377SOL     OW23029   5.832   6.012   1.507
 7377SOL    HW123030   5.745   6.007   1.459
 7377SOL    HW223031   5.878   6.097   1.484
 7378SOL     OW23032   0.908   2.023   5.785
 7378SOL    HW123033   0.831   2.012   5.848
 7378SOL    HW223034   0.972   2.090   5.821
 7379SOL     OW23035   4.538   0.387   0.440
 7379SOL    HW123036   4.449   0.372   0.483
 7379SOL    HW223037   4.530   0.456   0.368
 7380SOL     OW23038   0.032   2.840   6.531
 7380SOL    HW123039   6.986   2.854   6.460
 7380SOL    HW223040   0.100   2.774   6.499
 7381SOL     OW23041   5.176   2.471   0.734
 7381SOL    HW123042   5.135   2.434   0.651
 7381SOL    HW223043   5.132   2.430   0.814
 7382SOL     OW23044   1.269   5.444   4.117
 7382SOL    HW123045   1.252   5.360   4.066
 7382SOL    HW223046   1.366   5.447   4.143
 7383SOL     OW23047   1.596   4.730   2.701
 7383SOL    HW123048   1.640   4.672   2.632
 7383SOL    HW223049   1.666   4.778   2.754
 7384SOL     OW23050   6.269   1.841   1.307
 7384SOL    HW123051   6.216   1.925   1.296
 7384SOL    HW223052   6.351   1.846   1.248
 7385SOL     OW23053   5.715   0.362   2.141
 7385SOL    HW123054   5.752   0.402   2.057
 7385SOL    HW223055   5.681   0.434   2.201
 7386SOL     OW23056   6.725   1.507   5.737
 7386SOL    HW123057   6.802   1.559   5.776
 7386SOL    HW223058   6.648   1.511   5.800
 7387SOL     OW23059   4.526   6.495   3.585
 7387SOL    HW123060   4.598   6.430   3.612
 7387SOL    HW223061   4.437   6.455   3.604
 7388SOL     OW23062   4.951   3.700   4.613
 7388SOL    HW123063   4.924   3.750   4.695
 7388SOL    HW223064   5.038   3.736   4.580
 7389SOL     OW23065   1.503   2.879   5.381
 7389SOL    HW123066   1.495   2.869   5.480
 7389SOL    HW223067   1.586   2.833   5.350
 7390SOL     OW23068   4.303   6.647   0.250
 7390SOL    HW123069   4.355   6.603   0.177
 7390SOL    HW223070   4.271   6.737   0.219
 7391SOL     OW23071   0.491   4.915   0.331
 7391SOL    HW123072   0.442   4.895   0.247
 7391SOL    HW223073   0.445   4.990   0.379
 7392SOL     OW23074   1.669   4.309   2.375
 7392SOL    HW123075   1.621   4.264   2.451
 7392SOL    HW223076   1.737   4.372   2.413
 7393SOL     OW23077   1.162   4.148   0.565
 7393SOL    HW123078   1.131   4.055   0.584
 7393SOL    HW223079   1.259   4.155   0.585
 7394SOL     OW23080   2.512   3.217   6.765
 7394SOL    HW123081   2.534   3.127   6.729
 7394SOL    HW223082   2.413   3.229   6.767
 7395SOL     OW23083   2.636   0.642   0.204
 7395SOL    HW123084   2.694   0.564   0.225
 7395SOL    HW223085   2.625   0.650   0.105
 7396SOL     OW23086   6.525   6.804   2.481
 7396SOL    HW123087   6.608   6.768   2.439
 7396SOL    HW223088   6.475   6.729   2.524
 7397SOL     OW23089   6.542   4.526   4.136
 7397SOL    HW123090   6.500   4.526   4.227
 7397SOL    HW223091   6.564   4.432   4.110
 7398SOL     OW23092   4.493   6.306   2.704
 7398SOL    HW123093   4.474   6.375   2.634
 7398SOL    HW223094   4.583   6.266   2.688
 7399SOL     OW23095   5.355   6.148   4.013
 7399SOL    HW123096   5.396   6.095   3.939
 7399SOL    HW223097   5.410   6.230   4.030
 7400SOL     OW23098   2.227   4.239   6.789
 7400SOL    HW123099   2.298   4.198   6.845
 7400SOL    HW223100   2.144   4.251   6.844
 7401SOL     OW23101   6.247   2.846   3.923
 7401SOL    HW123102   6.186   2.884   3.854
 7401SOL    HW223103   6.201   2.772   3.973
 7402SOL     OW23104   1.723   6.217   4.392
 7402SOL    HW123105   1.789   6.286   4.362
 7402SOL    HW223106   1.660   6.197   4.317
 7403SOL     OW23107   2.224   3.315   1.684
 7403SOL    HW123108   2.255   3.387   1.746
 7403SOL    HW223109   2.200   3.233   1.738
 7404SOL     OW23110   1.175   3.032   3.158
 7404SOL    HW123111   1.079   3.005   3.152
 7404SOL    HW223112   1.196   3.098   3.086
 7405SOL     OW23113   3.621   4.509   6.114
 7405SOL    HW123114   3.525   4.486   6.105
 7405SOL    HW223115   3.642   4.589   6.057
 7406SOL     OW23116   0.012   6.001   2.910
 7406SOL    HW123117   0.089   6.040   2.861
 7406SOL    HW223118   6.949   6.032   2.869
 7407SOL     OW23119   3.563   1.510   5.691
 7407SOL    HW123120   3.494   1.548   5.629
 7407SOL    HW223121   3.651   1.556   5.676
 7408SOL     OW23122   1.402   3.774   5.357
 7408SOL    HW123123   1.491   3.807   5.388
 7408SOL    HW223124   1.389   3.801   5.262
 7409SOL     OW23125   2.574   0.091   4.371
 7409SOL    HW123126   2.568   0.011   4.431
 7409SOL    HW223127   2.589   0.061   4.277
 7410SOL     OW23128   4.873   5.721   5.641
 7410SOL    HW123129   4.973   5.716   5.634
 7410SOL    HW223130   4.832   5.666   5.568
 7411SOL     OW23131   5.828   3.985   5.843
 7411SOL    HW123132   5.802   3.929   5.764
 7411SOL    HW223133   5.802   4.080   5.827
 7412SOL     OW23134   1.166   1.092   0.418
 7412SOL    HW123135   1.083   1.130   0.459
 7412SOL    HW223136   1.244   1.150   0.441
 7413SOL     OW23137   6.694   3.730   3.963
 7413SOL    HW123138   6.721   3.697   4.054
 7413SOL    HW223139   6.755   3.690   3.894
 7414SOL     OW23140   0.617   5.683   1.822
 7414SOL    HW123141   0.665   5.626   1.755
 7414SOL    HW223142   0.679   5.754   1.855
 7415SOL     OW23143   3.281   1.745   3.091
 7415SOL    HW123144   3.364   1.727   3.039
 7415SOL    HW223145   3.201   1.730   3.032
 7416SOL     OW23146   6.251   0.022   2.777
 7416SOL    HW123147   6.297   0.004   2.690
 7416SOL    HW223148   6.294   0.101   2.821
 7417SOL     OW23149   0.364   5.110   1.409
 7417SOL    HW123150   0.408   5.166   1.479
 7417SOL    HW223151   0.434   5.071   1.349
 7418SOL     OW23152   1.533   3.831   0.619
 7418SOL    HW123153   1.470   3.886   0.674
 7418SOL    HW223154   1.601   3.789   0.678
 7419SOL     OW23155   6.349   2.253   5.947
 7419SOL    HW123156   6.368   2.308   6.029
 7419SOL    HW223157   6.415   2.178   5.942
 7420SOL     OW23158   0.231   5.512   1.890
 7420SOL    HW123159   0.298   5.511   1.965
 7420SOL    HW223160   0.201   5.419   1.871
 7421SOL     OW23161   4.171   2.021   1.537
 7421SOL    HW123162   4.143   1.959   1.610
 7421SOL    HW223163   4.144   2.114   1.560
 7422SOL     OW23164   0.977   2.042   1.038
 7422SOL    HW123165   0.908   2.100   0.995
 7422SOL    HW223166   1.061   2.044   0.985
 7423SOL     OW23167   2.906   3.885   0.631
 7423SOL    HW123168   2.995   3.874   0.587
 7423SOL    HW223169   2.917   3.931   0.719
 7424SOL     OW23170   5.121   0.744   3.823
 7424SOL    HW123171   5.134   0.693   3.908
 7424SOL    HW223172   5.081   0.833   3.844
 7425SOL     OW23173   3.435   0.449   4.472
 7425SOL    HW123174   3.411   0.386   4.398
 7425SOL    HW223175   3.385   0.534   4.459
 7426SOL     OW23176   0.247   0.813   6.359
 7426SOL    HW123177   0.323   0.870   6.328
 7426SOL    HW223178   0.273   0.767   6.444
 7427SOL     OW23179   5.464   4.962   5.080
 7427SOL    HW123180   5.538   4.898   5.104
 7427SOL    HW223181   5.502   5.053   5.065
 7428SOL     OW23182   5.051   1.344   5.409
 7428SOL    HW123183   4.983   1.288   5.456
 7428SOL    HW223184   5.143   1.308   5.425
 7429SOL     OW23185   6.281   6.211   3.980
 7429SOL    HW123186   6.215   6.259   3.922
 7429SOL    HW223187   6.374   6.239   3.956
 7430SOL     OW23188   0.200   3.787   4.277
 7430SOL    HW123189   0.265   3.767   4.203
 7430SOL    HW223190   0.238   3.857   4.337
 7431SOL     OW23191   6.847   3.688   2.791
 7431SOL    HW123192   6.904   3.707   2.871
 7431SOL    HW223193   6.828   3.774   2.743
 7432SOL     OW23194   1.714   5.851   6.105
 7432SOL    HW123195   1.702   5.758   6.069
 7432SOL    HW223196   1.679   5.917   6.040
 7433SOL     OW23197   0.451   7.010   0.814
 7433SOL    HW123198   0.436   6.985   0.910
 7433SOL    HW223199   0.375   0.045   0.783
 7434SOL     OW23200   4.809   6.426   0.296
 7434SOL    HW123201   4.860   6.512   0.299
 7434SOL    HW223202   4.732   6.431   0.359
 7435SOL     OW23203   1.004   5.220   6.913
 7435SOL    HW123204   1.039   5.136   6.873
 7435SOL    HW223205   1.013   5.217   7.013
 7436SOL     OW23206   4.850   3.506   6.657
 7436SOL    HW123207   4.882   3.559   6.578
 7436SOL    HW223208   4.854   3.563   6.739
 7437SOL     OW23209   0.187   6.087   5.538
 7437SOL    HW123210   0.281   6.057   5.521
 7437SOL    HW223211   0.170   6.171   5.487
 7438SOL     OW23212   5.514   3.884   0.440
 7438SOL    HW123213   5.602   3.922   0.410
 7438SOL    HW223214   5.513   3.876   0.539
 7439SOL     OW23215   0.959   6.395   2.789
 7439SOL    HW123216   0.988   6.466   2.725
 7439SOL    HW223217   0.880   6.426   2.841
 7440SOL     OW23218   0.377   1.013   4.209
 7440SOL    HW123219   0.317   1.045   4.281
 7440SOL    HW223220   0.330   0.945   4.153
 7441SOL     OW23221   6.620   0.385   4.291
 7441SOL    HW123222   6.539   0.344   4.333
 7441SOL    HW223223   6.661   0.319   4.227
 7442SOL     OW23224   1.699   1.002   6.955
 7442SOL    HW123225   1.649   0.957   0.007
 7442SOL    HW223226   1.678   1.099   6.955
 7443SOL     OW23227   6.802   1.810   2.049
 7443SOL    HW123228   6.724   1.798   1.987
 7443SOL    HW223229   6.834   1.904   2.045
 7444SOL     OW23230   1.503   2.404   5.272
 7444SOL    HW123231   1.465   2.422   5.182
 7444SOL    HW223232   1.434   2.422   5.342
 7445SOL     OW23233   5.788   2.891   1.909
 7445SOL    HW123234   5.767   2.869   1.814
 7445SOL    HW223235   5.857   2.963   1.912
 7446SOL     OW23236   4.752   4.138   2.763
 7446SOL    HW123237   4.719   4.096   2.678
 7446SOL    HW223238   4.700   4.221   2.781
 7447SOL     OW23239   1.066   3.945   6.473
 7447SOL    HW123240   1.006   3.979   6.401
 7447SOL    HW223241   1.160   3.941   6.439
 7448SOL     OW23242   0.476   1.290   5.834
 7448SOL    HW123243   0.413   1.256   5.765
 7448SOL    HW223244   0.465   1.237   5.918
 7449SOL     OW23245   3.724   0.288   2.505
 7449SOL    HW123246   3.797   0.220   2.494
 7449SOL    HW223247   3.650   0.268   2.441
 7450SOL     OW23248   3.695   1.770   1.696
 7450SOL    HW123249   3.701   1.869   1.702
 7450SOL    HW223250   3.620   1.744   1.636
 7451SOL     OW23251   1.227   0.678   1.985
 7451SOL    HW123252   1.259   0.648   2.076
 7451SOL    HW223253   1.297   0.735   1.943
 7452SOL     OW23254   1.680   5.999   2.854
 7452SOL    HW123255   1.764   5.958   2.889
 7452SOL    HW223256   1.652   6.075   2.913
 7453SOL     OW23257   6.385   4.560   4.668
 7453SOL    HW123258   6.463   4.504   4.638
 7453SOL    HW223259   6.356   4.531   4.759
 7454SOL     OW23260   2.388   2.657   0.118
 7454SOL    HW123261   2.304   2.676   0.068
 7454SOL    HW223262   2.409   2.560   0.114
 7455SOL     OW23263   4.929   6.844   0.632
 7455SOL    HW123264   4.905   6.753   0.599
 7455SOL    HW223265   4.848   6.903   0.627
 7456SOL     OW23266   1.247   3.854   5.871
 7456SOL    HW123267   1.210   3.883   5.959
 7456SOL    HW223268   1.337   3.894   5.857
 7457SOL     OW23269   0.264   5.924   5.944
 7457SOL    HW123270   0.310   6.013   5.946
 7457SOL    HW223271   0.330   5.854   5.917
 7458SOL     OW23272   3.009   0.345   1.422
 7458SOL    HW123273   2.988   0.249   1.402
 7458SOL    HW223274   3.064   0.351   1.505
 7459SOL     OW23275   3.416   6.117   3.701
 7459SOL    HW123276   3.402   6.103   3.602
 7459SOL    HW223277   3.417   6.214   3.721
 7460SOL     OW23278   0.763   5.495   6.610
 7460SOL    HW123279   0.772   5.559   6.534
 7460SOL    HW223280   0.845   5.498   6.667
 7461SOL     OW23281   4.258   1.021   3.279
 7461SOL    HW123282   4.296   0.953   3.342
 7461SOL    HW223283   4.175   1.060   3.319
 7462SOL     OW23284   2.206   1.496   3.807
 7462SOL    HW123285   2.138   1.561   3.840
 7462SOL    HW223286   2.229   1.431   3.880
 7463SOL     OW23287   4.005   3.777   2.432
 7463SOL    HW123288   3.991   3.687   2.472
 7463SOL    HW223289   4.059   3.769   2.349
 7464SOL     OW23290   4.362   5.681   0.669
 7464SOL    HW123291   4.324   5.616   0.604
 7464SOL    HW223292   4.461   5.672   0.673
 7465SOL     OW23293   3.885   1.401   3.002
 7465SOL    HW123294   3.975   1.357   3.013
 7465SOL    HW223295   3.854   1.389   2.908
 7466SOL     OW23296   6.450   0.182   0.412
 7466SOL    HW123297   6.433   0.147   0.321
 7466SOL    HW223298   6.457   0.282   0.408
 7467SOL     OW23299   4.346   2.266   0.675
 7467SOL    HW123300   4.424   2.267   0.736
 7467SOL    HW223301   4.365   2.324   0.595
 7468SOL     OW23302   5.638   4.280   4.635
 7468SOL    HW123303   5.717   4.315   4.584
 7468SOL    HW223304   5.644   4.311   4.730
 7469SOL     OW23305   5.495   2.133   1.703
 7469SOL    HW123306   5.570   2.078   1.740
 7469SOL    HW223307   5.474   2.102   1.610
 7470SOL     OW23308   0.207   3.295   3.344
 7470SOL    HW123309   0.131   3.259   3.289
 7470SOL    HW223310   0.265   3.219   3.374
 7471SOL     OW23311   6.510   4.592   5.362
 7471SOL    HW123312   6.519   4.678   5.413
 7471SOL    HW223313   6.601   4.554   5.346
 7472SOL     OW23314   4.124   5.547   2.930
 7472SOL    HW123315   4.044   5.520   2.984
 7472SOL    HW223316   4.135   5.482   2.854
 7473SOL     OW23317   1.521   2.732   6.431
 7473SOL    HW123318   1.521   2.816   6.377
 7473SOL    HW223319   1.574   2.662   6.384
 7474SOL     OW23320   2.648   1.480   2.114
 7474SOL    HW123321   2.620   1.573   2.136
 7474SOL    HW223322   2.726   1.482   2.052
 7475SOL     OW23323   5.315   0.523   5.870
 7475SOL    HW123324   5.235   0.565   5.826
 7475SOL    HW223325   5.299   0.425   5.880
 7476SOL     OW23326   1.932   6.641   4.828
 7476SOL    HW123327   1.986   6.677   4.904
 7476SOL    HW223328   1.932   6.708   4.753
 7477SOL     OW23329   4.962   4.305   4.298
 7477SOL    HW123330   4.871   4.345   4.285
 7477SOL    HW223331   5.009   4.352   4.373
 7478SOL     OW23332   0.455   4.790   1.520
 7478SOL    HW123333   0.392   4.788   1.442
 7478SOL    HW223334   0.404   4.812   1.603
 7479SOL     OW23335   3.543   0.562   5.079
 7479SOL    HW123336   3.584   0.636   5.025
 7479SOL    HW223337   3.444   0.576   5.084
 7480SOL     OW23338   5.884   5.213   0.102
 7480SOL    HW123339   5.845   5.215   0.010
 7480SOL    HW223340   5.897   5.117   0.130
 7481SOL     OW23341   6.392   6.355   0.425
 7481SOL    HW123342   6.383   6.322   0.331
 7481SOL    HW223343   6.489   6.358   0.450
 7482SOL     OW23344   4.713   0.045   4.754
 7482SOL    HW123345   4.632   0.078   4.705
 7482SOL    HW223346   4.747   6.985   4.709
 7483SOL     OW23347   3.565   0.047   6.806
 7483SOL    HW123348   3.608   6.985   6.777
 7483SOL    HW223349   3.581   0.118   6.737
 7484SOL     OW23350   3.689   6.824   1.102
 7484SOL    HW123351   3.702   6.885   1.180
 7484SOL    HW223352   3.638   6.872   1.031
 7485SOL     OW23353   0.294   6.321   5.343
 7485SOL    HW123354   0.325   6.409   5.306
 7485SOL    HW223355   0.231   6.278   5.278
 7486SOL     OW23356   1.393   1.802   5.309
 7486SOL    HW123357   1.468   1.835   5.366
 7486SOL    HW223358   1.430   1.744   5.236
 7487SOL     OW23359   3.379   5.180   2.691
 7487SOL    HW123360   3.369   5.092   2.736
 7487SOL    HW223361   3.311   5.244   2.726
 7488SOL     OW23362   4.518   1.388   5.121
 7488SOL    HW123363   4.485   1.474   5.082
 7488SOL    HW223364   4.460   1.362   5.198
 7489SOL     OW23365   0.432   3.164   3.153
 7489SOL    HW123366   0.419   3.116   3.240
 7489SOL    HW223367   0.377   3.120   3.082
 7490SOL     OW23368   5.408   6.690   2.819
 7490SOL    HW123369   5.495   6.711   2.863
 7490SOL    HW223370   5.405   6.592   2.797
 7491SOL     OW23371   0.424   0.369   0.899
 7491SOL    HW123372   0.395   0.333   0.987
 7491SOL    HW223373   0.361   0.339   0.828
 7492SOL     OW23374   1.981   1.727   3.051
 7492SOL    HW123375   2.037   1.810   3.057
 7492SOL    HW223376   2.006   1.676   2.969
 7493SOL     OW23377   5.458   4.360   6.553
 7493SOL    HW123378   5.434   4.428   6.484
 7493SOL    HW223379   5.490   4.406   6.636
 7494SOL     OW23380   5.070   1.896   1.196
 7494SOL    HW123381   5.160   1.939   1.191
 7494SOL    HW223382   5.032   1.908   1.287
 7495SOL     OW23383   1.451   1.796   3.405
 7495SOL    HW123384   1.361   1.836   3.423
 7495SOL    HW223385   1.506   1.861   3.353
 7496SOL     OW23386   0.811   4.861   5.955
 7496SOL    HW123387   0.791   4.938   5.895
 7496SOL    HW223388   0.907   4.866   5.985
 7497SOL     OW23389   1.142   4.885   2.908
 7497SOL    HW123390   1.148   4.985   2.908
 7497SOL    HW223391   1.217   4.848   2.852
 7498SOL     OW23392   5.372   1.802   4.388
 7498SOL    HW123393   5.412   1.821   4.478
 7498SOL    HW223394   5.377   1.884   4.331
 7499SOL     OW23395   3.798   4.851   3.455
 7499SOL    HW123396   3.792   4.879   3.359
 7499SOL    HW223397   3.851   4.766   3.461
 7500SOL     OW23398   4.840   3.663   1.582
 7500SOL    HW123399   4.826   3.742   1.522
 7500SOL    HW223400   4.878   3.588   1.529
 7501SOL     OW23401   0.662   4.187   3.968
 7501SOL    HW123402   0.693   4.113   3.908
 7501SOL    HW223403   0.739   4.244   3.994
 7502SOL     OW23404   1.480   2.074   3.999
 7502SOL    HW123405   1.493   2.164   3.958
 7502SOL    HW223406   1.531   2.068   4.084
 7503SOL     OW23407   2.424   1.991   6.814
 7503SOL    HW123408   2.485   2.056   6.861
 7503SOL    HW223409   2.343   2.040   6.782
 7504SOL     OW23410   4.576   5.816   4.857
 7504SOL    HW123411   4.664   5.771   4.871
 7504SOL    HW223412   4.521   5.807   4.941
 7505SOL     OW23413   1.925   1.724   3.817
 7505SOL    HW123414   1.832   1.759   3.802
 7505SOL    HW223415   1.971   1.715   3.728
 7506SOL     OW23416   3.734   0.869   3.143
 7506SOL    HW123417   3.667   0.815   3.092
 7506SOL    HW223418   3.779   0.933   3.081
 7507SOL     OW23419   1.693   7.008   5.298
 7507SOL    HW123420   1.734   6.919   5.315
 7507SOL    HW223421   1.763   0.056   5.305
 7508SOL     OW23422   5.403   5.989   3.079
 7508SOL    HW123423   5.414   6.043   2.995
 7508SOL    HW223424   5.356   5.904   3.057
 7509SOL     OW23425   3.763   4.149   6.095
 7509SOL    HW123426   3.770   4.238   6.141
 7509SOL    HW223427   3.698   4.157   6.019
 7510SOL     OW23428   3.626   3.345   4.812
 7510SOL    HW123429   3.626   3.438   4.775
 7510SOL    HW223430   3.697   3.291   4.767
 7511SOL     OW23431   1.099   1.419   2.659
 7511SOL    HW123432   1.021   1.366   2.693
 7511SOL    HW223433   1.077   1.458   2.569
 7512SOL     OW23434   2.214   2.926   2.377
 7512SOL    HW123435   2.193   3.023   2.382
 7512SOL    HW223436   2.130   2.873   2.391
 7513SOL     OW23437   2.156   3.568   6.898
 7513SOL    HW123438   2.207   3.564   6.984
 7513SOL    HW223439   2.092   3.492   6.893
 7514SOL     OW23440   3.184   5.521   3.530
 7514SOL    HW123441   3.283   5.531   3.519
 7514SOL    HW223442   3.137   5.593   3.478
 7515SOL     OW23443   0.375   4.883   3.168
 7515SOL    HW123444   0.410   4.832   3.247
 7515SOL    HW223445   0.441   4.878   3.094
 7516SOL     OW23446   2.048   3.226   1.406
 7516SOL    HW123447   1.982   3.242   1.479
 7516SOL    HW223448   2.009   3.163   1.339
 7517SOL     OW23449   1.293   4.865   2.421
 7517SOL    HW123450   1.322   4.955   2.453
 7517SOL    HW223451   1.212   4.836   2.473
 7518SOL     OW23452   4.816   4.000   2.973
 7518SOL    HW123453   4.912   3.975   2.980
 7518SOL    HW223454   4.802   4.062   2.896
 7519SOL     OW23455   2.028   6.854   4.654
 7519SOL    HW123456   2.019   6.926   4.724
 7519SOL    HW223457   1.939   6.840   4.610
 7520SOL     OW23458   2.083   0.079   4.018
 7520SOL    HW123459   2.081   0.150   4.088
 7520SOL    HW223460   2.174   0.077   3.976
 7521SOL     OW23461   4.576   3.056   5.618
 7521SOL    HW123462   4.565   3.084   5.523
 7521SOL    HW223463   4.561   2.957   5.626
 7522SOL     OW23464   1.890   6.875   2.359
 7522SOL    HW123465   1.796   6.886   2.390
 7522SOL    HW223466   1.950   6.936   2.411
 7523SOL     OW23467   0.027   6.613   6.651
 7523SOL    HW123468   0.017   6.612   6.551
 7523SOL    HW223469   0.063   6.702   6.680
 7524SOL     OW23470   6.415   1.294   4.994
 7524SOL    HW123471   6.434   1.327   5.086
 7524SOL    HW223472   6.363   1.364   4.944
 7525SOL     OW23473   0.674   0.854   0.945
 7525SOL    HW123474   0.716   0.772   0.906
 7525SOL    HW223475   0.709   0.935   0.898
 7526SOL     OW23476   3.702   3.249   5.819
 7526SOL    HW123477   3.716   3.272   5.915
 7526SOL    HW223478   3.785   3.272   5.767
 7527SOL     OW23479   3.668   6.553   1.787
 7527SOL    HW123480   3.617   6.569   1.872
 7527SOL    HW223481   3.636   6.469   1.744
 7528SOL     OW23482   6.107   3.213   6.549
 7528SOL    HW123483   6.033   3.146   6.551
 7528SOL    HW223484   6.074   3.298   6.509
 7529SOL     OW23485   1.883   6.819   4.249
 7529SOL    HW123486   1.866   6.774   4.161
 7529SOL    HW223487   1.801   6.816   4.305
 7530SOL     OW23488   0.009   2.953   2.821
 7530SOL    HW123489   0.018   3.033   2.763
 7530SOL    HW223490   6.937   2.943   2.850
 7531SOL     OW23491   2.431   1.707   4.309
 7531SOL    HW123492   2.523   1.743   4.292
 7531SOL    HW223493   2.376   1.719   4.227
 7532SOL     OW23494   4.888   4.335   2.261
 7532SOL    HW123495   4.805   4.390   2.270
 7532SOL    HW223496   4.948   4.377   2.193
 7533SOL     OW23497   3.427   0.898   5.245
 7533SOL    HW123498   3.330   0.875   5.232
 7533SOL    HW223499   3.467   0.924   5.158
 7534SOL     OW23500   3.992   6.646   3.655
 7534SOL    HW123501   3.967   6.689   3.569
 7534SOL    HW223502   4.017   6.716   3.722
 7535SOL     OW23503   2.936   5.095   0.210
 7535SOL    HW123504   2.849   5.080   0.162
 7535SOL    HW223505   2.980   5.177   0.173
 7536SOL     OW23506   4.571   5.709   6.326
 7536SOL    HW123507   4.558   5.628   6.269
 7536SOL    HW223508   4.643   5.766   6.286
 7537SOL     OW23509   2.213   4.865   5.333
 7537SOL    HW123510   2.168   4.905   5.254
 7537SOL    HW223511   2.281   4.798   5.303
 7538SOL     OW23512   3.363   3.793   5.231
 7538SOL    HW123513   3.356   3.869   5.296
 7538SOL    HW223514   3.275   3.745   5.228
 7539SOL     OW23515   0.627   2.115   5.062
 7539SOL    HW123516   0.576   2.194   5.097
 7539SOL    HW223517   0.590   2.031   5.102
 7540SOL     OW23518   2.571   1.081   0.455
 7540SOL    HW123519   2.533   0.999   0.412
 7540SOL    HW223520   2.604   1.143   0.384
 7541SOL     OW23521   6.914   2.304   5.718
 7541SOL    HW123522   6.962   2.293   5.805
 7541SOL    HW223523   6.836   2.241   5.716
 7542SOL     OW23524   1.407   0.291   4.933
 7542SOL    HW123525   1.469   0.213   4.944
 7542SOL    HW223526   1.457   0.376   4.947
 7543SOL     OW23527   2.380   2.741   1.362
 7543SOL    HW123528   2.286   2.714   1.342
 7543SOL    HW223529   2.384   2.840   1.377
 7544SOL     OW23530   1.304   1.859   2.424
 7544SOL    HW123531   1.272   1.841   2.331
 7544SOL    HW223532   1.382   1.921   2.422
 7545SOL     OW23533   3.999   0.575   3.201
 7545SOL    HW123534   4.075   0.639   3.193
 7545SOL    HW223535   4.015   0.513   3.278
 7546SOL     OW23536   5.363   0.255   5.420
 7546SOL    HW123537   5.418   0.272   5.501
 7546SOL    HW223538   5.267   0.272   5.440
 7547SOL     OW23539   2.829   0.405   0.192
 7547SOL    HW123540   2.805   0.335   0.258
 7547SOL    HW223541   2.925   0.431   0.203
 7548SOL     OW23542   2.067   3.715   1.242
 7548SOL    HW123543   2.094   3.621   1.265
 7548SOL    HW223544   2.084   3.732   1.145
 7549SOL     OW23545   5.586   0.558   2.290
 7549SOL    HW123546   5.518   0.627   2.264
 7549SOL    HW223547   5.588   0.551   2.390
 7550SOL     OW23548   1.033   5.344   0.939
 7550SOL    HW123549   0.949   5.320   0.988
 7550SOL    HW223550   1.107   5.356   1.005
 7551SOL     OW23551   5.076   3.620   6.163
 7551SOL    HW123552   5.149   3.567   6.120
 7551SOL    HW223553   5.018   3.559   6.218
 7552SOL     OW23554   3.599   5.902   3.818
 7552SOL    HW123555   3.611   5.946   3.907
 7552SOL    HW223556   3.539   5.959   3.761
 7553SOL     OW23557   4.243   4.192   5.871
 7553SOL    HW123558   4.287   4.117   5.922
 7553SOL    HW223559   4.145   4.191   5.890
 7554SOL     OW23560   0.184   1.369   0.967
 7554SOL    HW123561   0.248   1.306   1.011
 7554SOL    HW223562   0.216   1.463   0.978
 7555SOL     OW23563   1.785   6.345   6.155
 7555SOL    HW123564   1.740   6.375   6.239
 7555SOL    HW223565   1.835   6.260   6.172
 7556SOL     OW23566   6.693   3.877   2.957
 7556SOL    HW123567   6.654   3.929   2.881
 7556SOL    HW223568   6.734   3.792   2.923
 7557SOL     OW23569   4.077   4.123   0.487
 7557SOL    HW123570   4.120   4.034   0.501
 7557SOL    HW223571   4.121   4.169   0.410
 7558SOL     OW23572   1.655   3.215   3.599
 7558SOL    HW123573   1.708   3.169   3.528
 7558SOL    HW223574   1.558   3.211   3.575
 7559SOL     OW23575   0.792   4.390   6.879
 7559SOL    HW123576   0.829   4.393   6.972
 7559SOL    HW223577   0.703   4.435   6.877
 7560SOL     OW23578   4.407   0.498   5.234
 7560SOL    HW123579   4.324   0.499   5.290
 7560SOL    HW223580   4.485   0.523   5.291
 7561SOL     OW23581   0.726   3.806   0.193
 7561SOL    HW123582   0.780   3.890   0.193
 7561SOL    HW223583   0.644   3.818   0.250
 7562SOL     OW23584   4.220   6.152   4.687
 7562SOL    HW123585   4.212   6.052   4.687
 7562SOL    HW223586   4.137   6.192   4.647
 7563SOL     OW23587   2.217   0.821   3.764
 7563SOL    HW123588   2.134   0.765   3.764
 7563SOL    HW223589   2.295   0.765   3.792
 7564SOL     OW23590   5.960   5.576   4.033
 7564SOL    HW123591   5.941   5.650   3.968
 7564SOL    HW223592   6.008   5.502   3.986
 7565SOL     OW23593   4.858   5.220   6.643
 7565SOL    HW123594   4.849   5.304   6.696
 7565SOL    HW223595   4.808   5.229   6.557
 7566SOL     OW23596   1.776   5.508   4.004
 7566SOL    HW123597   1.802   5.420   4.043
 7566SOL    HW223598   1.691   5.539   4.046
 7567SOL     OW23599   2.508   3.244   0.028
 7567SOL    HW123600   2.491   3.211   6.959
 7567SOL    HW223601   2.575   3.185   0.073
 7568SOL     OW23602   4.164   4.735   3.224
 7568SOL    HW123603   4.134   4.821   3.266
 7568SOL    HW223604   4.117   4.723   3.137
 7569SOL     OW23605   3.610   0.029   2.419
 7569SOL    HW123606   3.587   6.971   2.366
 7569SOL    HW223607   3.707   0.024   2.446
 7570SOL     OW23608   5.837   4.828   4.836
 7570SOL    HW123609   5.773   4.892   4.794
 7570SOL    HW223610   5.847   4.748   4.777
 7571SOL     OW23611   6.349   4.085   0.216
 7571SOL    HW123612   6.365   3.988   0.236
 7571SOL    HW223613   6.262   4.114   0.256
 7572SOL     OW23614   6.415   1.779   3.123
 7572SOL    HW123615   6.401   1.875   3.148
 7572SOL    HW223616   6.462   1.731   3.197
 7573SOL     OW23617   3.443   5.352   4.293
 7573SOL    HW123618   3.429   5.413   4.214
 7573SOL    HW223619   3.376   5.278   4.290
 7574SOL     OW23620   4.661   5.794   1.734
 7574SOL    HW123621   4.675   5.800   1.833
 7574SOL    HW223622   4.614   5.876   1.702
 7575SOL     OW23623   4.979   3.027   4.779
 7575SOL    HW123624   5.066   3.071   4.756
 7575SOL    HW223625   4.917   3.033   4.701
 7576SOL     OW23626   6.885   3.982   1.760
 7576SOL    HW123627   6.821   3.940   1.825
 7576SOL    HW223628   6.925   3.911   1.702
 7577SOL     OW23629   4.062   1.587   4.289
 7577SOL    HW123630   4.042   1.495   4.257
 7577SOL    HW223631   3.977   1.640   4.293
 7578SOL     OW23632   2.296   5.518   4.858
 7578SOL    HW123633   2.283   5.613   4.885
 7578SOL    HW223634   2.222   5.462   4.894
 7579SOL     OW23635   4.259   1.987   4.410
 7579SOL    HW123636   4.320   1.992   4.489
 7579SOL    HW223637   4.273   1.900   4.362
 7580SOL     OW23638   2.085   3.269   2.076
 7580SOL    HW123639   2.118   3.362   2.059
 7580SOL    HW223640   2.107   3.210   1.998
 7581SOL     OW23641   5.654   0.938   0.754
 7581SOL    HW123642   5.586   0.916   0.684
 7581SOL    HW223643   5.608   0.967   0.837
 7582SOL     OW23644   3.947   2.865   1.289
 7582SOL    HW123645   3.858   2.830   1.317
 7582SOL    HW223646   3.962   2.955   1.330
 7583SOL     OW23647   6.724   4.423   3.162
 7583SOL    HW123648   6.663   4.502   3.162
 7583SOL    HW223649   6.701   4.362   3.086
 7584SOL     OW23650   2.176   2.103   2.042
 7584SOL    HW123651   2.129   2.139   1.961
 7584SOL    HW223652   2.274   2.095   2.023
 7585SOL     OW23653   2.372   4.479   0.444
 7585SOL    HW123654   2.433   4.436   0.511
 7585SOL    HW223655   2.417   4.484   0.355
 7586SOL     OW23656   1.757   2.190   3.642
 7586SOL    HW123657   1.672   2.183   3.589
 7586SOL    HW223658   1.768   2.284   3.675
 7587SOL     OW23659   2.278   1.079   5.315
 7587SOL    HW123660   2.317   1.092   5.224
 7587SOL    HW223661   2.300   1.159   5.372
 7588SOL     OW23662   0.571   4.452   1.807
 7588SOL    HW123663   0.579   4.407   1.719
 7588SOL    HW223664   0.490   4.512   1.807
 7589SOL     OW23665   4.919   5.524   6.079
 7589SOL    HW123666   5.013   5.511   6.045
 7589SOL    HW223667   4.874   5.597   6.028
 7590SOL     OW23668   1.737   0.684   5.373
 7590SOL    HW123669   1.695   0.772   5.397
 7590SOL    HW223670   1.726   0.620   5.449
 7591SOL     OW23671   6.376   6.224   6.536
 7591SOL    HW123672   6.343   6.314   6.565
 7591SOL    HW223673   6.471   6.232   6.505
 7592SOL     OW23674   3.902   4.717   6.348
 7592SOL    HW123675   3.868   4.757   6.263
 7592SOL    HW223676   3.941   4.789   6.406
 7593SOL     OW23677   6.359   4.474   0.312
 7593SOL    HW123678   6.311   4.421   0.382
 7593SOL    HW223679   6.424   4.415   0.265
 7594SOL     OW23680   0.922   6.752   3.771
 7594SOL    HW123681   0.916   6.826   3.704
 7594SOL    HW223682   0.858   6.679   3.745
 7595SOL     OW23683   6.723   3.121   6.520
 7595SOL    HW123684   6.642   3.162   6.560
 7595SOL    HW223685   6.794   3.113   6.589
 7596SOL     OW23686   5.336   5.774   2.286
 7596SOL    HW123687   5.329   5.681   2.322
 7596SOL    HW223688   5.411   5.779   2.221
 7597SOL     OW23689   2.400   5.330   1.931
 7597SOL    HW123690   2.392   5.427   1.908
 7597SOL    HW223691   2.341   5.309   2.009
 7598SOL     OW23692   6.156   0.940   3.088
 7598SOL    HW123693   6.191   1.033   3.097
 7598SOL    HW223694   6.205   0.892   3.016
 7599SOL     OW23695   5.412   3.287   2.368
 7599SOL    HW123696   5.489   3.225   2.355
 7599SOL    HW223697   5.424   3.367   2.309
 7600SOL     OW23698   2.211   2.672   2.682
 7600SOL    HW123699   2.262   2.695   2.765
 7600SOL    HW223700   2.272   2.628   2.617
 7601SOL     OW23701   1.670   0.345   5.109
 7601SOL    HW123702   1.627   0.258   5.086
 7601SOL    HW223703   1.733   0.332   5.185
 7602SOL     OW23704   2.144   2.960   5.117
 7602SOL    HW123705   2.128   2.864   5.094
 7602SOL    HW223706   2.241   2.980   5.110
 7603SOL     OW23707   6.667   1.494   2.219
 7603SOL    HW123708   6.721   1.533   2.294
 7603SOL    HW223709   6.694   1.398   2.206
 7604SOL     OW23710   5.216   5.461   6.385
 7604SOL    HW123711   5.237   5.445   6.481
 7604SOL    HW223712   5.287   5.418   6.328
 7605SOL     OW23713   5.935   3.394   6.422
 7605SOL    HW123714   5.929   3.465   6.351
 7605SOL    HW223715   5.902   3.307   6.385
 7606SOL     OW23716   5.667   1.207   3.595
 7606SOL    HW123717   5.714   1.291   3.623
 7606SOL    HW223718   5.585   1.194   3.651
 7607SOL     OW23719   5.210   6.683   5.681
 7607SOL    HW123720   5.116   6.701   5.708
 7607SOL    HW223721   5.267   6.762   5.703
 7608SOL     OW23722   3.704   3.634   4.904
 7608SOL    HW123723   3.687   3.630   4.806
 7608SOL    HW223724   3.656   3.713   4.943
 7609SOL     OW23725   1.123   2.901   3.489
 7609SOL    HW123726   1.151   2.991   3.456
 7609SOL    HW223727   1.025   2.901   3.508
 7610SOL     OW23728   5.465   0.281   2.191
 7610SOL    HW123729   5.559   0.305   2.166
 7610SOL    HW223730   5.402   0.352   2.158
 7611SOL     OW23731   2.312   1.374   1.317
 7611SOL    HW123732   2.265   1.410   1.399
 7611SOL    HW223733   2.390   1.433   1.296
 7612SOL     OW23734   4.625   2.190   2.911
 7612SOL    HW123735   4.553   2.249   2.947
 7612SOL    HW223736   4.591   2.142   2.830
 7613SOL     OW23737   6.078   0.659   2.371
 7613SOL    HW123738   6.101   0.716   2.450
 7613SOL    HW223739   6.086   0.563   2.396
 7614SOL     OW23740   4.871   0.875   0.778
 7614SOL    HW123741   4.840   0.945   0.842
 7614SOL    HW223742   4.910   0.918   0.697
 7615SOL     OW23743   3.404   4.980   5.493
 7615SOL    HW123744   3.401   4.910   5.565
 7615SOL    HW223745   3.374   4.939   5.406
 7616SOL     OW23746   0.154   5.631   3.147
 7616SOL    HW123747   0.229   5.586   3.099
 7616SOL    HW223748   0.164   5.616   3.246
 7617SOL     OW23749   3.785   5.513   3.672
 7617SOL    HW123750   3.722   5.576   3.717
 7617SOL    HW223751   3.734   5.432   3.642
 7618SOL     OW23752   3.091   2.169   0.244
 7618SOL    HW123753   3.046   2.095   0.194
 7618SOL    HW223754   3.078   2.156   0.342
 7619SOL     OW23755   5.647   2.912   6.174
 7619SOL    HW123756   5.625   2.890   6.079
 7619SOL    HW223757   5.707   2.992   6.177
 7620SOL     OW23758   3.433   5.813   1.556
 7620SOL    HW123759   3.335   5.799   1.574
 7620SOL    HW223760   3.484   5.804   1.642
 7621SOL     OW23761   2.425   2.388   0.777
 7621SOL    HW123762   2.487   2.385   0.699
 7621SOL    HW223763   2.394   2.482   0.791
 7622SOL     OW23764   4.997   2.310   0.902
 7622SOL    HW123765   4.983   2.322   1.001
 7622SOL    HW223766   5.028   2.217   0.884
 7623SOL     OW23767   6.572   6.336   5.189
 7623SOL    HW123768   6.486   6.334   5.240
 7623SOL    HW223769   6.644   6.295   5.245
 7624SOL     OW23770   0.043   0.392   4.703
 7624SOL    HW123771   0.119   0.418   4.644
 7624SOL    HW223772   6.995   0.349   4.648
 7625SOL     OW23773   2.863   5.450   0.997
 7625SOL    HW123774   2.827   5.453   0.904
 7625SOL    HW223775   2.957   5.415   0.995
 7626SOL     OW23776   2.688   4.301   5.424
 7626SOL    HW123777   2.659   4.362   5.350
 7626SOL    HW223778   2.750   4.350   5.485
 7627SOL     OW23779   6.975   1.009   0.371
 7627SOL    HW123780   7.007   1.099   0.342
 7627SOL    HW223781   6.928   0.964   0.296
 7628SOL     OW23782   4.948   1.976   1.447
 7628SOL    HW123783   5.036   1.955   1.490
 7628SOL    HW223784   4.895   2.035   1.507
 7629SOL     OW23785   6.206   5.873   3.486
 7629SOL    HW123786   6.243   5.827   3.405
 7629SOL    HW223787   6.282   5.911   3.540
 7630SOL     OW23788   6.436   1.598   2.000
 7630SOL    HW123789   6.365   1.599   2.070
 7630SOL    HW223790   6.525   1.614   2.042
 7631SOL     OW23791   1.157   0.738   3.350
 7631SOL    HW123792   1.136   0.829   3.314
 7631SOL    HW223793   1.217   0.747   3.430
 7632SOL     OW23794   4.383   0.672   4.943
 7632SOL    HW123795   4.304   0.690   5.002
 7632SOL    HW223796   4.460   0.728   4.972
 7633SOL     OW23797   6.343   3.910   6.283
 7633SOL    HW123798   6.287   3.829   6.300
 7633SOL    HW223799   6.356   3.921   6.184
 7634SOL     OW23800   1.235   2.483   2.543
 7634SOL    HW123801   1.310   2.548   2.528
 7634SOL    HW223802   1.154   2.513   2.494
 7635SOL     OW23803   2.364   4.943   5.958
 7635SOL    HW123804   2.375   4.847   5.936
 7635SOL    HW223805   2.452   4.982   5.985
 7636SOL     OW23806   0.726   0.721   3.470
 7636SOL    HW123807   0.733   0.820   3.482
 7636SOL    HW223808   0.650   0.700   3.409
 7637SOL     OW23809   2.768   6.421   4.059
 7637SOL    HW123810   2.758   6.325   4.083
 7637SOL    HW223811   2.709   6.477   4.118
 7638SOL     OW23812   4.478   4.478   1.593
 7638SOL    HW123813   4.390   4.462   1.548
 7638SOL    HW223814   4.491   4.410   1.665
 7639SOL     OW23815   0.618   1.928   4.117
 7639SOL    HW123816   0.570   1.948   4.032
 7639SOL    HW223817   0.562   1.866   4.173
 7640SOL     OW23818   2.392   3.404   6.092
 7640SOL    HW123819   2.329   3.437   6.163
 7640SOL    HW223820   2.362   3.314   6.061
 7641SOL     OW23821   5.810   3.281   2.724
 7641SOL    HW123822   5.898   3.236   2.710
 7641SOL    HW223823   5.796   3.298   2.822
 7642SOL     OW23824   1.457   2.304   2.929
 7642SOL    HW123825   1.532   2.319   2.992
 7642SOL    HW223826   1.465   2.367   2.852
 7643SOL     OW23827   5.296   3.861   3.437
 7643SOL    HW123828   5.257   3.931   3.378
 7643SOL    HW223829   5.251   3.864   3.526
 7644SOL     OW23830   6.228   3.361   4.209
 7644SOL    HW123831   6.152   3.421   4.232
 7644SOL    HW223832   6.231   3.284   4.273
 7645SOL     OW23833   3.595   3.146   0.603
 7645SOL    HW123834   3.642   3.067   0.642
 7645SOL    HW223835   3.498   3.127   0.595
 7646SOL     OW23836   0.762   0.112   1.924
 7646SOL    HW123837   0.726   0.023   1.896
 7646SOL    HW223838   0.692   0.161   1.975
 7647SOL     OW23839   2.086   4.783   0.033
 7647SOL    HW123840   2.110   4.870   0.075
 7647SOL    HW223841   2.065   4.716   0.104
 7648SOL     OW23842   2.871   0.752   3.515
 7648SOL    HW123843   2.810   0.697   3.572
 7648SOL    HW223844   2.877   0.845   3.553
 7649SOL     OW23845   3.126   1.442   0.936
 7649SOL    HW123846   3.133   1.364   0.998
 7649SOL    HW223847   3.218   1.480   0.919
 7650SOL     OW23848   6.625   5.166   0.620
 7650SOL    HW123849   6.660   5.099   0.686
 7650SOL    HW223850   6.693   5.179   0.547
 7651SOL     OW23851   5.518   1.908   6.137
 7651SOL    HW123852   5.538   1.976   6.207
 7651SOL    HW223853   5.582   1.831   6.145
 7652SOL     OW23854   0.940   3.427   3.116
 7652SOL    HW123855   1.032   3.463   3.130
 7652SOL    HW223856   0.874   3.503   3.120
 7653SOL     OW23857   4.930   2.679   1.964
 7653SOL    HW123858   4.866   2.616   1.920
 7653SOL    HW223859   4.881   2.736   2.030
 7654SOL     OW23860   5.511   3.733   4.992
 7654SOL    HW123861   5.544   3.828   4.993
 7654SOL    HW223862   5.418   3.730   5.030
 7655SOL     OW23863   4.573   5.024   6.067
 7655SOL    HW123864   4.536   5.024   6.160
 7655SOL    HW223865   4.580   5.118   6.034
 7656SOL     OW23866   0.604   0.326   5.202
 7656SOL    HW123867   0.578   0.373   5.118
 7656SOL    HW223868   0.649   0.239   5.179
 7657SOL     OW23869   4.326   1.723   3.551
 7657SOL    HW123870   4.325   1.822   3.569
 7657SOL    HW223871   4.279   1.676   3.626
 7658SOL     OW23872   4.017   0.510   6.098
 7658SOL    HW123873   3.923   0.514   6.133
 7658SOL    HW223874   4.070   0.585   6.137
 7659SOL     OW23875   5.199   6.004   6.188
 7659SOL    HW123876   5.150   5.925   6.151
 7659SOL    HW223877   5.252   5.975   6.268
 7660SOL     OW23878   5.175   5.580   3.906
 7660SOL    HW123879   5.122   5.499   3.930
 7660SOL    HW223880   5.191   5.582   3.808
 7661SOL     OW23881   6.217   3.803   3.802
 7661SOL    HW123882   6.130   3.781   3.845
 7661SOL    HW223883   6.236   3.900   3.812
 7662SOL     OW23884   6.625   5.521   3.595
 7662SOL    HW123885   6.552   5.580   3.561
 7662SOL    HW223886   6.591   5.468   3.673
 7663SOL     OW23887   0.719   6.611   0.603
 7663SOL    HW123888   0.640   6.562   0.640
 7663SOL    HW223889   0.779   6.547   0.556
 7664SOL     OW23890   3.575   5.518   4.842
 7664SOL    HW123891   3.640   5.477   4.778
 7664SOL    HW223892   3.617   5.523   4.933
 7665SOL     OW23893   2.035   5.543   4.007
 7665SOL    HW123894   1.935   5.539   4.005
 7665SOL    HW223895   2.064   5.637   4.027
 7666SOL     OW23896   2.197   0.390   2.504
 7666SOL    HW123897   2.199   0.317   2.435
 7666SOL    HW223898   2.113   0.383   2.558
 7667SOL     OW23899   5.879   6.764   5.353
 7667SOL    HW123900   5.839   6.783   5.263
 7667SOL    HW223901   5.807   6.748   5.419
 7668SOL     OW23902   3.021   3.657   1.952
 7668SOL    HW123903   3.048   3.561   1.944
 7668SOL    HW223904   2.959   3.681   1.878
 7669SOL     OW23905   4.598   6.657   4.918
 7669SOL    HW123906   4.600   6.644   4.819
 7669SOL    HW223907   4.690   6.674   4.952
 7670SOL     OW23908   1.763   5.790   0.860
 7670SOL    HW123909   1.797   5.818   0.770
 7670SOL    HW223910   1.837   5.749   0.912
 7671SOL     OW23911   4.849   2.428   4.504
 7671SOL    HW123912   4.847   2.491   4.582
 7671SOL    HW223913   4.755   2.407   4.477
 7672SOL     OW23914   6.499   0.231   2.079
 7672SOL    HW123915   6.512   0.162   2.007
 7672SOL    HW223916   6.473   0.318   2.037
 7673SOL     OW23917   0.959   3.366   0.653
 7673SOL    HW123918   0.975   3.356   0.751
 7673SOL    HW223919   0.921   3.281   0.616
 7674SOL     OW23920   5.983   0.896   5.003
 7674SOL    HW123921   6.057   0.845   4.960
 7674SOL    HW223922   6.016   0.988   5.026
 7675SOL     OW23923   4.874   0.536   3.376
 7675SOL    HW123924   4.905   0.460   3.433
 7675SOL    HW223925   4.947   0.563   3.314
 7676SOL     OW23926   1.571   0.103   0.998
 7676SOL    HW123927   1.476   0.135   1.004
 7676SOL    HW223928   1.603   0.076   1.089
 7677SOL     OW23929   1.949   3.012   2.790
 7677SOL    HW123930   1.983   2.993   2.882
 7677SOL    HW223931   1.889   3.092   2.793
 7678SOL     OW23932   5.126   6.687   6.025
 7678SOL    HW123933   5.130   6.601   5.974
 7678SOL    HW223934   5.097   6.669   6.119
 7679SOL     OW23935   1.517   5.336   4.177
 7679SOL    HW123936   1.610   5.361   4.206
 7679SOL    HW223937   1.517   5.316   4.079
 7680SOL     OW23938   5.075   0.317   0.530
 7680SOL    HW123939   5.092   0.415   0.539
 7680SOL    HW223940   4.978   0.298   0.547
 7681SOL     OW23941   4.033   2.082   5.905
 7681SOL    HW123942   4.047   1.989   5.939
 7681SOL    HW223943   3.936   2.097   5.888
 7682SOL     OW23944   3.088   0.269   0.591
 7682SOL    HW123945   3.173   0.272   0.644
 7682SOL    HW223946   3.020   0.329   0.632
 7683SOL     OW23947   6.761   3.303   3.616
 7683SOL    HW123948   6.776   3.385   3.672
 7683SOL    HW223949   6.734   3.227   3.675
 7684SOL     OW23950   3.891   1.894   5.720
 7684SOL    HW123951   3.907   1.991   5.704
 7684SOL    HW223952   3.866   1.880   5.815
 7685SOL     OW23953   3.792   3.765   1.527
 7685SOL    HW123954   3.814   3.743   1.622
 7685SOL    HW223955   3.786   3.864   1.517
 7686SOL     OW23956   2.653   1.038   2.540
 7686SOL    HW123957   2.559   1.037   2.573
 7686SOL    HW223958   2.691   1.130   2.550
 7687SOL     OW23959   4.625   4.222   5.658
 7687SOL    HW123960   4.682   4.250   5.735
 7687SOL    HW223961   4.529   4.244   5.678
 7688SOL     OW23962   6.426   0.938   3.318
 7688SOL    HW123963   6.474   0.978   3.396
 7688SOL    HW223964   6.482   0.949   3.235
 7689SOL     OW23965   3.331   6.866   4.971
 7689SOL    HW123966   3.350   6.909   4.883
 7689SOL    HW223967   3.233   6.870   4.989
 7690SOL     OW23968   0.956   5.183   2.539
 7690SOL    HW123969   1.034   5.245   2.540
 7690SOL    HW223970   0.973   5.109   2.473
 7691SOL     OW23971   6.394   4.016   5.670
 7691SOL    HW123972   6.312   4.031   5.725
 7691SOL    HW223973   6.467   4.077   5.701
 7692SOL     OW23974   1.503   6.394   1.157
 7692SOL    HW123975   1.475   6.409   1.062
 7692SOL    HW223976   1.577   6.456   1.181
 7693SOL     OW23977   5.213   1.314   0.564
 7693SOL    HW123978   5.139   1.349   0.507
 7693SOL    HW223979   5.293   1.372   0.553
 7694SOL     OW23980   5.826   4.918   3.593
 7694SOL    HW123981   5.849   4.820   3.588
 7694SOL    HW223982   5.908   4.970   3.615
 7695SOL     OW23983   4.588   0.388   6.714
 7695SOL    HW123984   4.496   0.353   6.731
 7695SOL    HW223985   4.614   0.368   6.620
 7696SOL     OW23986   1.205   3.775   5.529
 7696SOL    HW123987   1.188   3.689   5.578
 7696SOL    HW223988   1.288   3.766   5.474
 7697SOL     OW23989   4.734   1.472   2.115
 7697SOL    HW123990   4.819   1.492   2.067
 7697SOL    HW223991   4.657   1.481   2.053
 7698SOL     OW23992   0.030   2.276   5.974
 7698SOL    HW123993   0.006   2.223   6.056
 7698SOL    HW223994   0.097   2.346   5.999
 7699SOL     OW23995   3.013   3.443   0.778
 7699SOL    HW123996   2.956   3.443   0.696
 7699SOL    HW223997   3.050   3.352   0.793
 7700SOL     OW23998   5.471   6.883   4.750
 7700SOL    HW123999   5.530   6.944   4.698
 7700SOL    HW224000   5.477   6.791   4.711
 7701SOL     OW24001   6.438   2.273   5.620
 7701SOL    HW124002   6.478   2.330   5.549
 7701SOL    HW224003   6.484   2.185   5.622
 7702SOL     OW24004   1.437   6.297   6.863
 7702SOL    HW124005   1.446   6.320   6.766
 7702SOL    HW224006   1.401   6.376   6.913
 7703SOL     OW24007   0.897   2.197   6.284
 7703SOL    HW124008   0.958   2.119   6.273
 7703SOL    HW224009   0.874   2.207   6.381
 7704SOL     OW24010   2.750   3.457   1.280
 7704SOL    HW124011   2.739   3.541   1.226
 7704SOL    HW224012   2.660   3.424   1.309
 7705SOL     OW24013   3.929   3.438   4.371
 7705SOL    HW124014   3.858   3.505   4.352
 7705SOL    HW224015   3.982   3.421   4.287
 7706SOL     OW24016   6.540   0.704   5.382
 7706SOL    HW124017   6.452   0.700   5.429
 7706SOL    HW224018   6.585   0.791   5.401
 7707SOL     OW24019   6.833   5.662   6.571
 7707SOL    HW124020   6.871   5.569   6.570
 7707SOL    HW224021   6.786   5.678   6.657
 7708SOL     OW24022   5.322   1.414   5.069
 7708SOL    HW124023   5.234   1.394   5.027
 7708SOL    HW224024   5.379   1.331   5.066
 7709SOL     OW24025   3.801   2.452   1.623
 7709SOL    HW124026   3.749   2.398   1.689
 7709SOL    HW224027   3.795   2.549   1.648
 7710SOL     OW24028   3.343   1.969   6.931
 7710SOL    HW124029   3.419   2.013   6.979
 7710SOL    HW224030   3.283   2.039   6.892
 7711SOL     OW24031   4.188   5.891   4.678
 7711SOL    HW124032   4.274   5.843   4.665
 7711SOL    HW224033   4.126   5.835   4.732
 7712SOL     OW24034   5.743   3.882   6.521
 7712SOL    HW124035   5.674   3.810   6.524
 7712SOL    HW224036   5.708   3.959   6.467
 7713SOL     OW24037   0.367   5.614   6.249
 7713SOL    HW124038   0.432   5.655   6.314
 7713SOL    HW224039   0.274   5.630   6.281
 7714SOL     OW24040   5.262   4.061   4.638
 7714SOL    HW124041   5.291   4.085   4.545
 7714SOL    HW224042   5.164   4.039   4.637
 7715SOL     OW24043   3.961   2.223   1.875
 7715SOL    HW124044   3.941   2.180   1.787
 7715SOL    HW224045   3.877   2.232   1.927
 7716SOL     OW24046   4.165   2.328   4.322
 7716SOL    HW124047   4.214   2.284   4.398
 7716SOL    HW224048   4.229   2.386   4.271
 7717SOL     OW24049   3.139   0.115   6.513
 7717SOL    HW124050   3.106   0.075   6.427
 7717SOL    HW224051   3.207   0.186   6.493
 7718SOL     OW24052   2.505   6.321   3.557
 7718SOL    HW124053   2.498   6.380   3.638
 7718SOL    HW224054   2.592   6.339   3.510
 7719SOL     OW24055   5.780   2.715   5.219
 7719SOL    HW124056   5.837   2.725   5.301
 7719SOL    HW224057   5.836   2.688   5.142
 7720SOL     OW24058   4.772   6.055   1.268
 7720SOL    HW124059   4.702   6.120   1.297
 7720SOL    HW224060   4.770   5.975   1.328
 7721SOL     OW24061   0.605   4.564   2.895
 7721SOL    HW124062   0.678   4.497   2.908
 7721SOL    HW224063   0.518   4.526   2.926
 7722SOL     OW24064   0.706   6.051   3.952
 7722SOL    HW124065   0.745   6.133   3.910
 7722SOL    HW224066   0.633   6.015   3.895
 7723SOL     OW24067   6.650   2.030   0.486
 7723SOL    HW124068   6.678   1.941   0.451
 7723SOL    HW224069   6.706   2.102   0.445
 7724SOL     OW24070   2.454   6.354   6.892
 7724SOL    HW124071   2.450   6.265   6.847
 7724SOL    HW224072   2.503   6.419   6.835
 7725SOL     OW24073   5.083   3.571   4.280
 7725SOL    HW124074   5.050   3.577   4.186
 7725SOL    HW224075   5.182   3.557   4.280
 7726SOL     OW24076   5.313   5.375   2.960
 7726SOL    HW124077   5.400   5.357   3.006
 7726SOL    HW224078   5.329   5.423   2.874
 7727SOL     OW24079   5.867   3.209   2.170
 7727SOL    HW124080   5.775   3.215   2.209
 7727SOL    HW224081   5.865   3.150   2.089
 7728SOL     OW24082   2.213   2.898   3.207
 7728SOL    HW124083   2.310   2.895   3.184
 7728SOL    HW224084   2.199   2.855   3.297
 7729SOL     OW24085   5.304   1.687   6.251
 7729SOL    HW124086   5.348   1.598   6.258
 7729SOL    HW224087   5.368   1.754   6.214
 7730SOL     OW24088   4.596   6.944   2.869
 7730SOL    HW124089   4.666   6.970   2.803
 7730SOL    HW224090   4.580   6.845   2.863
 7731SOL     OW24091   6.743   1.590   3.779
 7731SOL    HW124092   6.755   1.626   3.871
 7731SOL    HW224093   6.808   1.515   3.764
 7732SOL     OW24094   4.448   4.862   0.795
 7732SOL    HW124095   4.469   4.944   0.850
 7732SOL    HW224096   4.411   4.791   0.855
 7733SOL     OW24097   2.939   6.118   0.650
 7733SOL    HW124098   2.943   6.112   0.550
 7733SOL    HW224099   2.999   6.048   0.689
 7734SOL     OW24100   1.304   2.854   2.181
 7734SOL    HW124101   1.266   2.835   2.272
 7734SOL    HW224102   1.309   2.769   2.129
 7735SOL     OW24103   5.356   4.472   0.893
 7735SOL    HW124104   5.291   4.396   0.886
 7735SOL    HW224105   5.334   4.542   0.825
 7736SOL     OW24106   5.862   4.466   6.901
 7736SOL    HW124107   5.917   4.446   6.982
 7736SOL    HW224108   5.914   4.525   6.840
 7737SOL     OW24109   4.882   2.669   0.008
 7737SOL    HW124110   4.812   2.612   0.050
 7737SOL    HW224111   4.901   2.636   6.939
 7738SOL     OW24112   2.158   5.079   6.892
 7738SOL    HW124113   2.139   5.142   6.966
 7738SOL    HW224114   2.135   4.986   6.920
 7739SOL     OW24115   5.246   3.883   2.300
 7739SOL    HW124116   5.335   3.920   2.272
 7739SOL    HW224117   5.181   3.893   2.225
 7740SOL     OW24118   6.821   6.288   3.604
 7740SOL    HW124119   6.903   6.313   3.552
 7740SOL    HW224120   6.764   6.227   3.549
 7741SOL     OW24121   2.707   5.110   3.970
 7741SOL    HW124122   2.688   5.119   4.068
 7741SOL    HW224123   2.655   5.178   3.920
 7742SOL     OW24124   6.884   0.295   4.447
 7742SOL    HW124125   6.935   0.370   4.406
 7742SOL    HW224126   6.787   0.304   4.425
 7743SOL     OW24127   4.852   3.063   2.286
 7743SOL    HW124128   4.943   3.097   2.311
 7743SOL    HW224129   4.846   3.052   2.187
 7744SOL     OW24130   0.225   6.309   4.738
 7744SOL    HW124131   0.267   6.371   4.803
 7744SOL    HW224132   0.283   6.230   4.724
 7745SOL     OW24133   5.266   3.113   6.017
 7745SOL    HW124134   5.323   3.162   5.951
 7745SOL    HW224135   5.231   3.029   5.974
 7746SOL     OW24136   2.262   0.571   6.288
 7746SOL    HW124137   2.236   0.572   6.384
 7746SOL    HW224138   2.246   0.661   6.248
 7747SOL     OW24139   4.790   5.045   0.141
 7747SOL    HW124140   4.827   4.971   0.197
 7747SOL    HW224141   4.861   5.113   0.123
 7748SOL     OW24142   2.256   3.860   6.882
 7748SOL    HW124143   2.328   3.822   6.940
 7748SOL    HW224144   2.247   3.805   6.799
 7749SOL     OW24145   5.900   3.155   6.306
 7749SOL    HW124146   5.803   3.165   6.285
 7749SOL    HW224147   5.954   3.165   6.222
 7750SOL     OW24148   4.476   5.246   3.340
 7750SOL    HW124149   4.478   5.175   3.269
 7750SOL    HW224150   4.441   5.206   3.425
 7751SOL     OW24151   0.569   2.602   1.009
 7751SOL    HW124152   0.531   2.535   1.074
 7751SOL    HW224153   0.552   2.571   0.916
 7752SOL     OW24154   3.547   1.168   3.019
 7752SOL    HW124155   3.645   1.152   3.010
 7752SOL    HW224156   3.514   1.221   2.941
 7753SOL     OW24157   4.116   1.004   5.587
 7753SOL    HW124158   4.079   1.041   5.672
 7753SOL    HW224159   4.126   1.078   5.520
 7754SOL     OW24160   4.675   5.283   1.391
 7754SOL    HW124161   4.613   5.205   1.402
 7754SOL    HW224162   4.725   5.272   1.305
 7755SOL     OW24163   0.331   4.657   6.209
 7755SOL    HW124164   0.410   4.691   6.159
 7755SOL    HW224165   0.301   4.727   6.274
 7756SOL     OW24166   2.215   3.871   2.213
 7756SOL    HW124167   2.181   3.926   2.289
 7756SOL    HW224168   2.166   3.784   2.210
 7757SOL     OW24169   0.633   4.491   0.135
 7757SOL    HW124170   0.730   4.495   0.109
 7757SOL    HW224171   0.579   4.540   0.067
 7758SOL     OW24172   0.610   1.104   5.592
 7758SOL    HW124173   0.537   1.163   5.559
 7758SOL    HW224174   0.619   1.025   5.532
 7759SOL     OW24175   3.603   0.970   2.386
 7759SOL    HW124176   3.594   1.062   2.423
 7759SOL    HW224177   3.531   0.912   2.423
 7760SOL     OW24178   4.621   2.880   0.329
 7760SOL    HW124179   4.714   2.875   0.366
 7760SOL    HW224180   4.555   2.876   0.404
 7761SOL     OW24181   5.774   5.440   3.268
 7761SOL    HW124182   5.682   5.438   3.307
 7761SOL    HW224183   5.826   5.362   3.302
 7762SOL     OW24184   4.664   2.169   1.314
 7762SOL    HW124185   4.723   2.088   1.308
 7762SOL    HW224186   4.591   2.151   1.379
 7763SOL     OW24187   1.852   0.321   3.260
 7763SOL    HW124188   1.853   0.408   3.309
 7763SOL    HW224189   1.899   0.331   3.172
 7764SOL     OW24190   3.774   5.265   5.280
 7764SOL    HW124191   3.783   5.264   5.379
 7764SOL    HW224192   3.700   5.203   5.253
 7765SOL     OW24193   6.032   4.144   4.622
 7765SOL    HW124194   5.988   4.065   4.664
 7765SOL    HW224195   6.088   4.114   4.545
 7766SOL     OW24196   6.687   2.187   6.462
 7766SOL    HW124197   6.724   2.131   6.388
 7766SOL    HW224198   6.759   2.246   6.498
 7767SOL     OW24199   4.311   7.004   4.522
 7767SOL    HW124200   4.263   0.053   4.572
 7767SOL    HW224201   4.277   6.999   4.428
 7768SOL     OW24202   3.480   5.543   3.538
 7768SOL    HW124203   3.493   5.523   3.635
 7768SOL    HW224204   3.516   5.468   3.483
 7769SOL     OW24205   3.766   2.600   6.499
 7769SOL    HW124206   3.802   2.562   6.585
 7769SOL    HW224207   3.666   2.598   6.502
 7770SOL     OW24208   0.563   3.612   3.676
 7770SOL    HW124209   0.566   3.711   3.686
 7770SOL    HW224210   0.471   3.584   3.648
 7771SOL     OW24211   0.853   3.603   5.087
 7771SOL    HW124212   0.803   3.626   5.170
 7771SOL    HW224213   0.788   3.595   5.011
 7772SOL     OW24214   4.966   5.965   1.770
 7772SOL    HW124215   4.875   5.936   1.738
 7772SOL    HW224216   5.023   5.884   1.785
 7773SOL     OW24217   2.643   6.737   6.888
 7773SOL    HW124218   2.686   6.663   6.940
 7773SOL    HW224219   2.625   6.814   6.948
 7774SOL     OW24220   5.405   1.483   3.040
 7774SOL    HW124221   5.451   1.474   3.128
 7774SOL    HW224222   5.470   1.461   2.966
 7775SOL     OW24223   3.419   1.554   0.981
 7775SOL    HW124224   3.450   1.616   0.909
 7775SOL    HW224225   3.403   1.606   1.065
 7776SOL     OW24226   3.160   1.580   3.730
 7776SOL    HW124227   3.149   1.668   3.775
 7776SOL    HW224228   3.082   1.521   3.751
 7777SOL     OW24229   5.093   5.228   3.307
 7777SOL    HW124230   5.184   5.196   3.279
 7777SOL    HW224231   5.052   5.161   3.369
 7778SOL     OW24232   1.376   3.737   2.177
 7778SOL    HW124233   1.278   3.719   2.176
 7778SOL    HW224234   1.408   3.754   2.084
 7779SOL     OW24235   2.977   0.496   2.970
 7779SOL    HW124236   2.991   0.567   3.039
 7779SOL    HW224237   2.939   0.538   2.887
 7780SOL     OW24238   6.271   5.542   4.164
 7780SOL    HW124239   6.352   5.598   4.146
 7780SOL    HW224240   6.235   5.507   4.077
 7781SOL     OW24241   3.035   2.531   0.759
 7781SOL    HW124242   2.972   2.517   0.835
 7781SOL    HW224243   3.037   2.629   0.735
 7782SOL     OW24244   5.697   4.175   4.090
 7782SOL    HW124245   5.624   4.111   4.115
 7782SOL    HW224246   5.782   4.125   4.075
 7783SOL     OW24247   0.986   6.268   3.675
 7783SOL    HW124248   0.917   6.283   3.746
 7783SOL    HW224249   1.040   6.187   3.697
 7784SOL     OW24250   1.681   2.710   2.836
 7784SOL    HW124251   1.778   2.724   2.817
 7784SOL    HW224252   1.639   2.798   2.860
 7785SOL     OW24253   6.112   6.731   2.636
 7785SOL    HW124254   6.076   6.823   2.627
 7785SOL    HW224255   6.055   6.667   2.585
 7786SOL     OW24256   5.447   1.040   6.952
 7786SOL    HW124257   5.416   1.036   6.857
 7786SOL    HW224258   5.451   0.948   6.989
 7787SOL     OW24259   1.024   2.689   1.214
 7787SOL    HW124260   1.098   2.755   1.227
 7787SOL    HW224261   0.976   2.675   1.301
 7788SOL     OW24262   0.958   4.112   2.267
 7788SOL    HW124263   0.945   4.201   2.309
 7788SOL    HW224264   0.989   4.046   2.336
 7789SOL     OW24265   3.349   0.184   6.165
 7789SOL    HW124266   3.413   0.108   6.156
 7789SOL    HW224267   3.351   0.219   6.259
 7790SOL     OW24268   4.365   5.301   4.487
 7790SOL    HW124269   4.335   5.237   4.558
 7790SOL    HW224270   4.289   5.362   4.463
 7791SOL     OW24271   2.425   6.306   1.817
 7791SOL    HW124272   2.467   6.396   1.808
 7791SOL    HW224273   2.427   6.258   1.729
 7792SOL     OW24274   1.138   1.075   1.969
 7792SOL    HW124275   1.234   1.077   1.939
 7792SOL    HW224276   1.093   0.995   1.931
 7793SOL     OW24277   4.792   1.504   0.753
 7793SOL    HW124278   4.868   1.466   0.804
 7793SOL    HW224279   4.824   1.580   0.697
 7794SOL     OW24280   1.263   0.722   2.744
 7794SOL    HW124281   1.262   0.625   2.768
 7794SOL    HW224282   1.340   0.767   2.790
 7795SOL     OW24283   3.905   3.650   1.308
 7795SOL    HW124284   3.978   3.586   1.330
 7795SOL    HW224285   3.890   3.712   1.385
 7796SOL     OW24286   4.221   1.616   0.875
 7796SOL    HW124287   4.252   1.574   0.960
 7796SOL    HW224288   4.299   1.661   0.830
 7797SOL     OW24289   1.424   6.331   2.828
 7797SOL    HW124290   1.375   6.263   2.773
 7797SOL    HW224291   1.488   6.382   2.771
 7798SOL     OW24292   1.432   3.055   1.159
 7798SOL    HW124293   1.479   3.071   1.246
 7798SOL    HW224294   1.499   3.026   1.090
 7799SOL     OW24295   2.240   6.399   3.840
 7799SOL    HW124296   2.202   6.307   3.830
 7799SOL    HW224297   2.186   6.449   3.908
 7800SOL     OW24298   1.109   0.952   2.238
 7800SOL    HW124299   1.083   0.985   2.148
 7800SOL    HW224300   1.118   0.853   2.236
 7801SOL     OW24301   1.742   2.153   0.493
 7801SOL    HW124302   1.734   2.059   0.527
 7801SOL    HW224303   1.719   2.216   0.567
 7802SOL     OW24304   6.469   5.364   4.211
 7802SOL    HW124305   6.542   5.395   4.151
 7802SOL    HW224306   6.389   5.423   4.198
 7803SOL     OW24307   3.037   1.743   6.203
 7803SOL    HW124308   3.129   1.767   6.233
 7803SOL    HW224309   2.992   1.688   6.273
 7804SOL     OW24310   2.977   1.317   5.654
 7804SOL    HW124311   3.034   1.398   5.670
 7804SOL    HW224312   2.891   1.326   5.703
 7805SOL     OW24313   6.388   2.464   6.826
 7805SOL    HW124314   6.381   2.532   6.753
 7805SOL    HW224315   6.340   2.496   6.907
 7806SOL     OW24316   6.207   2.290   5.130
 7806SOL    HW124317   6.144   2.282   5.053
 7806SOL    HW224318   6.156   2.285   5.215
 7807SOL     OW24319   1.633   5.499   5.658
 7807SOL    HW124320   1.599   5.471   5.748
 7807SOL    HW224321   1.657   5.418   5.605
 7808SOL     OW24322   0.526   2.953   4.393
 7808SOL    HW124323   0.456   2.890   4.360
 7808SOL    HW224324   0.607   2.901   4.421
 7809SOL     OW24325   3.982   0.056   2.826
 7809SOL    HW124326   4.035   0.138   2.804
 7809SOL    HW224327   3.973   7.023   2.744
 7810SOL     OW24328   2.322   6.802   6.166
 7810SOL    HW124329   2.367   6.860   6.233
 7810SOL    HW224330   2.382   6.725   6.143
 7811SOL     OW24331   1.767   5.509   3.289
 7811SOL    HW124332   1.811   5.510   3.199
 7811SOL    HW224333   1.723   5.597   3.305
 7812SOL     OW24334   3.205   0.951   5.876
 7812SOL    HW124335   3.258   0.993   5.950
 7812SOL    HW224336   3.109   0.943   5.903
 7813SOL     OW24337   5.644   1.259   0.545
 7813SOL    HW124338   5.667   1.230   0.452
 7813SOL    HW224339   5.601   1.184   0.594
 7814SOL     OW24340   0.213   2.625   2.140
 7814SOL    HW124341   0.279   2.605   2.213
 7814SOL    HW224342   0.126   2.583   2.163
 7815SOL     OW24343   4.736   5.714   3.031
 7815SOL    HW124344   4.670   5.641   3.013
 7815SOL    HW224345   4.698   5.801   2.997
 7816SOL     OW24346   1.171   1.592   5.671
 7816SOL    HW124347   1.115   1.674   5.660
 7816SOL    HW224348   1.138   1.520   5.611
 7817SOL     OW24349   4.393   1.066   6.165
 7817SOL    HW124350   4.451   1.147   6.153
 7817SOL    HW224351   4.305   1.094   6.204
 7818SOL     OW24352   5.550   1.386   2.800
 7818SOL    HW124353   5.632   1.425   2.757
 7818SOL    HW224354   5.506   1.323   2.736
 7819SOL     OW24355   2.440   2.595   4.757
 7819SOL    HW124356   2.395   2.666   4.811
 7819SOL    HW224357   2.467   2.633   4.668
 7820SOL     OW24358   1.509   1.042   5.969
 7820SOL    HW124359   1.566   1.124   5.969
 7820SOL    HW224360   1.413   1.068   5.957
 7821SOL     OW24361   3.784   5.598   6.516
 7821SOL    HW124362   3.698   5.590   6.466
 7821SOL    HW224363   3.807   5.510   6.557
 7822SOL     OW24364   0.697   1.641   4.795
 7822SOL    HW124365   0.764   1.678   4.859
 7822SOL    HW224366   0.718   1.675   4.703
 7823SOL     OW24367   2.532   2.946   5.652
 7823SOL    HW124368   2.536   2.949   5.552
 7823SOL    HW224369   2.513   2.852   5.681
 7824SOL     OW24370   5.991   4.165   2.570
 7824SOL    HW124371   6.056   4.174   2.646
 7824SOL    HW224372   5.913   4.111   2.600
 7825SOL     OW24373   3.370   3.106   3.341
 7825SOL    HW124374   3.312   3.166   3.286
 7825SOL    HW224375   3.423   3.047   3.281
 7826SOL     OW24376   6.613   6.868   0.887
 7826SOL    HW124377   6.596   6.940   0.820
 7826SOL    HW224378   6.542   6.869   0.957
 7827SOL     OW24379   4.972   4.076   0.337
 7827SOL    HW124380   5.003   3.981   0.340
 7827SOL    HW224381   5.036   4.131   0.283
 7828SOL     OW24382   1.214   6.417   0.790
 7828SOL    HW124383   1.306   6.421   0.751
 7828SOL    HW224384   1.154   6.481   0.741
 7829SOL     OW24385   3.645   3.923   2.897
 7829SOL    HW124386   3.592   3.849   2.856
 7829SOL    HW224387   3.620   4.010   2.854
 7830SOL     OW24388   6.729   4.383   0.018
 7830SOL    HW124389   6.703   4.462   6.985
 7830SOL    HW224390   6.784   4.413   0.095
 7831SOL     OW24391   2.923   2.720   0.183
 7831SOL    HW124392   2.880   2.722   0.092
 7831SOL    HW224393   2.983   2.640   0.189
 7832SOL     OW24394   3.795   2.755   5.691
 7832SOL    HW124395   3.820   2.851   5.677
 7832SOL    HW224396   3.789   2.736   5.789
 7833SOL     OW24397   6.476   0.070   1.832
 7833SOL    HW124398   6.397   0.125   1.804
 7833SOL    HW224399   6.447   6.998   1.845
 7834SOL     OW24400   5.463   1.178   1.569
 7834SOL    HW124401   5.426   1.117   1.639
 7834SOL    HW224402   5.562   1.186   1.581
 7835SOL     OW24403   2.409   1.984   4.555
 7835SOL    HW124404   2.323   2.035   4.551
 7835SOL    HW224405   2.471   2.019   4.484
 7836SOL     OW24406   2.485   0.922   6.407
 7836SOL    HW124407   2.458   0.991   6.339
 7836SOL    HW224408   2.456   0.951   6.498
 7837SOL     OW24409   5.737   6.199   1.842
 7837SOL    HW124410   5.805   6.141   1.798
 7837SOL    HW224411   5.645   6.169   1.815
 7838SOL     OW24412   3.585   5.615   3.833
 7838SOL    HW124413   3.654   5.588   3.899
 7838SOL    HW224414   3.572   5.714   3.836
 7839SOL     OW24415   6.973   5.582   3.788
 7839SOL    HW124416   6.980   5.495   3.739
 7839SOL    HW224417   6.906   5.640   3.742
 7840SOL     OW24418   4.242   2.967   6.479
 7840SOL    HW124419   4.289   3.050   6.508
 7840SOL    HW224420   4.299   2.917   6.415
 7841SOL     OW24421   1.129   2.221   5.803
 7841SOL    HW124422   1.166   2.156   5.737
 7841SOL    HW224423   1.164   2.312   5.783
 7842SOL     OW24424   1.922   0.825   2.776
 7842SOL    HW124425   1.852   0.756   2.761
 7842SOL    HW224426   1.942   0.871   2.689
 7843SOL     OW24427   0.118   2.243   2.141
 7843SOL    HW124428   0.075   2.329   2.167
 7843SOL    HW224429   0.217   2.252   2.147
 7844SOL     OW24430   3.404   2.123   3.403
 7844SOL    HW124431   3.413   2.086   3.310
 7844SOL    HW224432   3.329   2.076   3.450
 7845SOL     OW24433   0.441   0.680   4.314
 7845SOL    HW124434   0.504   0.756   4.331
 7845SOL    HW224435   0.428   0.627   4.399
 7846SOL     OW24436   4.658   0.443   2.242
 7846SOL    HW124437   4.651   0.437   2.142
 7846SOL    HW224438   4.622   0.531   2.273
 7847SOL     OW24439   0.352   6.976   6.707
 7847SOL    HW124440   0.321   0.047   6.711
 7847SOL    HW224441   0.374   6.945   6.800
 7848SOL     OW24442   3.960   3.704   1.799
 7848SOL    HW124443   4.032   3.710   1.731
 7848SOL    HW224444   4.000   3.707   1.891
 7849SOL     OW24445   5.016   3.992   4.628
 7849SOL    HW124446   4.966   4.013   4.544
 7849SOL    HW224447   4.954   3.948   4.694
 7850SOL     OW24448   1.373   2.781   5.110
 7850SOL    HW124449   1.439   2.797   5.037
 7850SOL    HW224450   1.402   2.829   5.193
 7851SOL     OW24451   4.009   6.954   0.532
 7851SOL    HW124452   3.966   6.891   0.597
 7851SOL    HW224453   3.938   7.012   0.491
 7852SOL     OW24454   2.880   6.837   0.647
 7852SOL    HW124455   2.825   6.875   0.573
 7852SOL    HW224456   2.909   6.744   0.624
 7853SOL     OW24457   2.411   1.551   0.525
 7853SOL    HW124458   2.381   1.581   0.435
 7853SOL    HW224459   2.428   1.452   0.523
 7854SOL     OW24460   4.093   3.303   4.154
 7854SOL    HW124461   4.078   3.222   4.209
 7854SOL    HW224462   4.192   3.317   4.142
 7855SOL     OW24463   2.891   0.604   4.955
 7855SOL    HW124464   2.909   0.535   4.886
 7855SOL    HW224465   2.796   0.598   4.985
 7856SOL     OW24466   3.248   2.771   6.679
 7856SOL    HW124467   3.240   2.808   6.587
 7856SOL    HW224468   3.286   2.840   6.740
 7857SOL     OW24469   0.370   2.877   5.292
 7857SOL    HW124470   0.375   2.797   5.232
 7857SOL    HW224471   0.360   2.847   5.387
 7858SOL     OW24472   5.158   3.367   3.566
 7858SOL    HW124473   5.180   3.347   3.662
 7858SOL    HW224474   5.087   3.437   3.562
 7859SOL     OW24475   0.391   0.392   0.458
 7859SOL    HW124476   0.459   0.323   0.483
 7859SOL    HW224477   0.432   0.460   0.398
 7860SOL     OW24478   5.035   6.463   1.042
 7860SOL    HW124479   4.944   6.447   1.005
 7860SOL    HW224480   5.061   6.558   1.028
 7861SOL     OW24481   6.479   3.260   0.065
 7861SOL    HW124482   6.527   3.322   0.127
 7861SOL    HW224483   6.512   3.166   0.079
 7862SOL     OW24484   2.663   4.770   1.849
 7862SOL    HW124485   2.729   4.721   1.906
 7862SOL    HW224486   2.693   4.767   1.754
 7863SOL     OW24487   4.199   6.005   2.388
 7863SOL    HW124488   4.208   5.946   2.468
 7863SOL    HW224489   4.151   6.089   2.414
 7864SOL     OW24490   1.335   5.903   5.208
 7864SOL    HW124491   1.249   5.914   5.158
 7864SOL    HW224492   1.411   5.908   5.143
 7865SOL     OW24493   4.579   0.808   2.812
 7865SOL    HW124494   4.667   0.840   2.849
 7865SOL    HW224495   4.505   0.854   2.860
 7866SOL     OW24496   2.687   1.143   5.734
 7866SOL    HW124497   2.719   1.190   5.816
 7866SOL    HW224498   2.599   1.180   5.706
 7867SOL     OW24499   6.324   3.370   1.078
 7867SOL    HW124500   6.379   3.371   0.994
 7867SOL    HW224501   6.231   3.400   1.057
 7868SOL     OW24502   4.370   6.766   0.617
 7868SOL    HW124503   4.406   6.679   0.652
 7868SOL    HW224504   4.408   6.841   0.671
 7869SOL     OW24505   6.238   1.913   4.190
 7869SOL    HW124506   6.201   1.821   4.179
 7869SOL    HW224507   6.337   1.909   4.199
 7870SOL     OW24508   6.831   0.503   3.261
 7870SOL    HW124509   6.813   0.469   3.353
 7870SOL    HW224510   6.850   0.426   3.200
 7871SOL     OW24511   5.481   2.937   4.139
 7871SOL    HW124512   5.466   2.907   4.233
 7871SOL    HW224513   5.455   2.865   4.076
 7872SOL     OW24514   6.755   4.413   4.403
 7872SOL    HW124515   6.832   4.350   4.395
 7872SOL    HW224516   6.676   4.375   4.356
 7873SOL     OW24517   6.980   5.701   4.308
 7873SOL    HW124518   0.055   5.706   4.326
 7873SOL    HW224519   6.966   5.674   4.212
 7874SOL     OW24520   6.098   6.917   6.911
 7874SOL    HW124521   6.197   6.915   6.916
 7874SOL    HW224522   6.061   6.831   6.948
 7875SOL     OW24523   5.008   3.242   0.170
 7875SOL    HW124524   5.095   3.279   0.204
 7875SOL    HW224525   5.007   3.143   0.182
 7876SOL     OW24526   0.443   1.791   4.577
 7876SOL    HW124527   0.447   1.875   4.523
 7876SOL    HW224528   0.485   1.716   4.526
 7877SOL     OW24529   5.715   3.809   2.097
 7877SOL    HW124530   5.653   3.858   2.157
 7877SOL    HW224531   5.809   3.837   2.115
 7878SOL     OW24532   3.694   3.557   1.759
 7878SOL    HW124533   3.788   3.578   1.786
 7878SOL    HW224534   3.695   3.491   1.685
 7879SOL     OW24535   6.968   1.122   5.114
 7879SOL    HW124536   0.024   1.063   5.128
 7879SOL    HW224537   6.995   1.204   5.063
 7880SOL     OW24538   1.860   6.266   6.647
 7880SOL    HW124539   1.821   6.174   6.654
 7880SOL    HW224540   1.816   6.314   6.571
 7881SOL     OW24541   0.804   5.229   4.681
 7881SOL    HW124542   0.861   5.209   4.602
 7881SOL    HW224543   0.858   5.219   4.765
 7882SOL     OW24544   1.892   4.628   1.518
 7882SOL    HW124545   1.801   4.669   1.525
 7882SOL    HW224546   1.939   4.636   1.605
 7883SOL     OW24547   3.323   2.022   2.128
 7883SOL    HW124548   3.238   2.065   2.157
 7883SOL    HW224549   3.340   2.043   2.031
 7884SOL     OW24550   1.175   2.511   5.752
 7884SOL    HW124551   1.106   2.554   5.694
 7884SOL    HW224552   1.167   2.546   5.845
 7885SOL     OW24553   5.800   5.391   2.259
 7885SOL    HW124554   5.849   5.476   2.243
 7885SOL    HW224555   5.789   5.341   2.173
 7886SOL     OW24556   4.288   4.607   2.896
 7886SOL    HW124557   4.222   4.682   2.891
 7886SOL    HW224558   4.241   4.523   2.925
 7887SOL     OW24559   0.985   3.262   0.885
 7887SOL    HW124560   0.904   3.204   0.891
 7887SOL    HW224561   1.059   3.221   0.938
 7888SOL     OW24562   6.805   1.858   5.276
 7888SOL    HW124563   6.889   1.806   5.295
 7888SOL    HW224564   6.827   1.938   5.222
 7889SOL     OW24565   5.439   4.960   0.115
 7889SOL    HW124566   5.367   4.895   0.138
 7889SOL    HW224567   5.398   5.049   0.095
 7890SOL     OW24568   2.185   2.887   2.102
 7890SOL    HW124569   2.225   2.887   2.194
 7890SOL    HW224570   2.085   2.897   2.109
 7891SOL     OW24571   6.142   1.265   4.335
 7891SOL    HW124572   6.120   1.172   4.308
 7891SOL    HW224573   6.235   1.268   4.373
 7892SOL     OW24574   1.302   2.140   4.590
 7892SOL    HW124575   1.320   2.221   4.645
 7892SOL    HW224576   1.245   2.076   4.642
 7893SOL     OW24577   5.567   6.249   1.228
 7893SOL    HW124578   5.567   6.340   1.269
 7893SOL    HW224579   5.522   6.254   1.138
 7894SOL     OW24580   3.419   0.410   6.724
 7894SOL    HW124581   3.379   0.485   6.671
 7894SOL    HW224582   3.353   0.379   6.793
 7895SOL     OW24583   5.678   6.385   3.179
 7895SOL    HW124584   5.663   6.298   3.225
 7895SOL    HW224585   5.592   6.417   3.139
 7896SOL     OW24586   2.709   1.810   0.431
 7896SOL    HW124587   2.698   1.758   0.516
 7896SOL    HW224588   2.681   1.905   0.448
 7897SOL     OW24589   4.559   1.478   1.902
 7897SOL    HW124590   4.556   1.519   1.811
 7897SOL    HW224591   4.492   1.403   1.907
 7898SOL     OW24592   4.550   6.201   2.958
 7898SOL    HW124593   4.522   6.243   2.872
 7898SOL    HW224594   4.498   6.241   3.034
 7899SOL     OW24595   6.022   5.016   2.827
 7899SOL    HW124596   5.991   4.927   2.858
 7899SOL    HW224597   5.987   5.087   2.888
 7900SOL     OW24598   0.284   3.302   0.873
 7900SOL    HW124599   0.322   3.217   0.837
 7900SOL    HW224600   0.354   3.373   0.870
 7901SOL     OW24601   0.620   2.580   0.168
 7901SOL    HW124602   0.554   2.509   0.193
 7901SOL    HW224603   0.648   2.567   0.073
 7902SOL     OW24604   1.771   0.274   1.019
 7902SOL    HW124605   1.853   0.220   0.999
 7902SOL    HW224606   1.690   0.216   1.011
 7903SOL     OW24607   3.015   1.948   5.660
 7903SOL    HW124608   2.969   1.860   5.646
 7903SOL    HW224609   3.010   1.973   5.756
 7904SOL     OW24610   5.175   3.461   3.063
 7904SOL    HW124611   5.109   3.453   3.138
 7904SOL    HW224612   5.131   3.435   2.977
 7905SOL     OW24613   6.362   1.823   1.847
 7905SOL    HW124614   6.419   1.865   1.777
 7905SOL    HW224615   6.395   1.730   1.866
 7906SOL     OW24616   0.329   5.906   6.237
 7906SOL    HW124617   0.283   5.923   6.150
 7906SOL    HW224618   0.272   5.938   6.312
 7907SOL     OW24619   5.985   6.047   3.978
 7907SOL    HW124620   5.982   6.147   3.981
 7907SOL    HW224621   6.005   6.011   4.069
 7908SOL     OW24622   1.762   0.116   5.649
 7908SOL    HW124623   1.677   0.121   5.597
 7908SOL    HW224624   1.821   0.045   5.611
 7909SOL     OW24625   6.430   3.088   1.891
 7909SOL    HW124626   6.525   3.061   1.876
 7909SOL    HW224627   6.397   3.140   1.813
 7910SOL     OW24628   1.771   4.365   5.115
 7910SOL    HW124629   1.796   4.379   5.210
 7910SOL    HW224630   1.820   4.286   5.079
 7911SOL     OW24631   6.124   3.997   5.528
 7911SOL    HW124632   6.082   4.041   5.608
 7911SOL    HW224633   6.223   4.003   5.535
 7912SOL     OW24634   5.717   6.033   1.219
 7912SOL    HW124635   5.655   5.960   1.247
 7912SOL    HW224636   5.674   6.122   1.234
 7913SOL     OW24637   1.219   5.172   6.258
 7913SOL    HW124638   1.211   5.191   6.160
 7913SOL    HW224639   1.262   5.083   6.272
 7914SOL     OW24640   1.063   0.032   4.723
 7914SOL    HW124641   1.090   0.128   4.722
 7914SOL    HW224642   1.096   7.010   4.640
 7915SOL     OW24643   2.958   5.403   2.092
 7915SOL    HW124644   3.042   5.421   2.144
 7915SOL    HW224645   2.966   5.313   2.048
 7916SOL     OW24646   1.187   0.731   4.028
 7916SOL    HW124647   1.232   0.817   4.054
 7916SOL    HW224648   1.127   0.701   4.102
 7917SOL     OW24649   5.135   2.180   3.041
 7917SOL    HW124650   5.146   2.275   3.069
 7917SOL    HW224651   5.041   2.165   3.009
 7918SOL     OW24652   1.499   2.613   2.465
 7918SOL    HW124653   1.508   2.712   2.466
 7918SOL    HW224654   1.555   2.574   2.538
 7919SOL     OW24655   0.791   6.862   4.977
 7919SOL    HW124656   0.865   6.860   5.044
 7919SOL    HW224657   0.707   6.896   5.021
 7920SOL     OW24658   5.296   6.630   0.687
 7920SOL    HW124659   5.313   6.698   0.616
 7920SOL    HW224660   5.290   6.539   0.646
 7921SOL     OW24661   5.276   3.360   0.522
 7921SOL    HW124662   5.274   3.452   0.561
 7921SOL    HW224663   5.194   3.311   0.548
 7922SOL     OW24664   2.246   6.892   3.170
 7922SOL    HW124665   2.153   6.919   3.194
 7922SOL    HW224666   2.288   6.844   3.248
 7923SOL     OW24667   5.129   0.034   1.054
 7923SOL    HW124668   5.218   0.074   1.076
 7923SOL    HW224669   5.123   0.022   0.955
 7924SOL     OW24670   5.611   5.640   0.214
 7924SOL    HW124671   5.684   5.571   0.215
 7924SOL    HW224672   5.647   5.725   0.176
 7925SOL     OW24673   1.732   4.492   5.903
 7925SOL    HW124674   1.802   4.533   5.961
 7925SOL    HW224675   1.747   4.393   5.897
 7926SOL     OW24676   4.591   5.813   5.687
 7926SOL    HW124677   4.530   5.805   5.607
 7926SOL    HW224678   4.684   5.790   5.659
 7927SOL     OW24679   4.325   0.515   3.529
 7927SOL    HW124680   4.380   0.447   3.577
 7927SOL    HW224681   4.283   0.577   3.596
 7928SOL     OW24682   5.500   1.802   4.122
 7928SOL    HW124683   5.531   1.815   4.027
 7928SOL    HW224684   5.569   1.751   4.173
 7929SOL     OW24685   4.776   3.973   5.788
 7929SOL    HW124686   4.842   3.956   5.714
 7929SOL    HW224687   4.771   4.072   5.805
 7930SOL     OW24688   4.348   5.474   0.501
 7930SOL    HW124689   4.388   5.507   0.415
 7930SOL    HW224690   4.264   5.424   0.482
 7931SOL     OW24691   4.970   0.946   0.523
 7931SOL    HW124692   4.878   0.943   0.483
 7931SOL    HW224693   5.032   0.995   0.462
 7932SOL     OW24694   1.033   3.425   1.164
 7932SOL    HW124695   0.954   3.413   1.103
 7932SOL    HW224696   1.015   3.381   1.251
 7933SOL     OW24697   1.329   1.788   0.587
 7933SOL    HW124698   1.373   1.804   0.498
 7933SOL    HW224699   1.270   1.865   0.609
 7934SOL     OW24700   7.023   5.287   1.132
 7934SOL    HW124701   7.018   5.358   1.062
 7934SOL    HW224702   6.935   5.240   1.138
 7935SOL     OW24703   6.340   3.307   3.242
 7935SOL    HW124704   6.359   3.345   3.151
 7935SOL    HW224705   6.404   3.346   3.308
 7936SOL     OW24706   2.246   6.087   3.290
 7936SOL    HW124707   2.153   6.070   3.259
 7936SOL    HW224708   2.303   6.006   3.273
 7937SOL     OW24709   4.231   1.337   1.013
 7937SOL    HW124710   4.264   1.274   0.942
 7937SOL    HW224711   4.135   1.359   0.996
 7938SOL     OW24712   2.317   6.833   3.600
 7938SOL    HW124713   2.331   6.801   3.693
 7938SOL    HW224714   2.288   6.757   3.542
 7939SOL     OW24715   1.653   0.408   2.358
 7939SOL    HW124716   1.611   0.390   2.269
 7939SOL    HW224717   1.715   0.332   2.380
 7940SOL     OW24718   6.394   1.954   5.283
 7940SOL    HW124719   6.438   2.042   5.264
 7940SOL    HW224720   6.298   1.958   5.258
 7941SOL     OW24721   3.328   0.121   0.441
 7941SOL    HW124722   3.304   0.179   0.518
 7941SOL    HW224723   3.246   0.071   0.410
 7942SOL     OW24724   1.145   4.125   1.139
 7942SOL    HW124725   1.134   4.047   1.078
 7942SOL    HW224726   1.169   4.093   1.230
 7943SOL     OW24727   1.614   5.483   6.813
 7943SOL    HW124728   1.554   5.415   6.769
 7943SOL    HW224729   1.570   5.518   6.895
 7944SOL     OW24730   1.235   2.050   0.916
 7944SOL    HW124731   1.258   2.116   0.988
 7944SOL    HW224732   1.286   1.965   0.931
 7945SOL     OW24733   6.188   3.802   3.162
 7945SOL    HW124734   6.248   3.739   3.212
 7945SOL    HW224735   6.233   3.891   3.155
 7946SOL     OW24736   4.477   1.325   6.080
 7946SOL    HW124737   4.442   1.339   5.987
 7946SOL    HW224738   4.565   1.372   6.090
 7947SOL     OW24739   0.342   3.351   6.662
 7947SOL    HW124740   0.346   3.445   6.696
 7947SOL    HW224741   0.417   3.298   6.702
 7948SOL     OW24742   1.427   5.587   1.011
 7948SOL    HW124743   1.329   5.607   1.018
 7948SOL    HW224744   1.444   5.538   0.925
 7949SOL     OW24745   2.771   5.730   5.521
 7949SOL    HW124746   2.688   5.682   5.548
 7949SOL    HW224747   2.835   5.664   5.480
 7950SOL     OW24748   6.174   3.427   5.633
 7950SOL    HW124749   6.130   3.345   5.596
 7950SOL    HW224750   6.245   3.458   5.570
 7951SOL     OW24751   3.886   0.194   3.049
 7951SOL    HW124752   3.900   0.282   3.003
 7951SOL    HW224753   3.876   0.122   2.980
 7952SOL     OW24754   6.641   2.911   5.457
 7952SOL    HW124755   6.705   2.980   5.490
 7952SOL    HW224756   6.582   2.951   5.387
 7953SOL     OW24757   1.929   0.110   0.503
 7953SOL    HW124758   1.850   0.172   0.503
 7953SOL    HW224759   2.003   0.151   0.555
 7954SOL     OW24760   3.414   2.889   6.853
 7954SOL    HW124761   3.493   2.830   6.871
 7954SOL    HW224762   3.374   2.919   6.939
 7955SOL     OW24763   6.971   0.982   6.891
 7955SOL    HW124764   6.928   0.920   6.826
 7955SOL    HW224765   0.044   0.957   6.902
 7956SOL     OW24766   0.121   0.300   0.429
 7956SOL    HW124767   0.121   0.214   0.379
 7956SOL    HW224768   0.214   0.338   0.430
 7957SOL     OW24769   5.602   1.293   5.567
 7957SOL    HW124770   5.648   1.286   5.478
 7957SOL    HW224771   5.584   1.202   5.603
 7958SOL     OW24772   4.696   2.158   6.941
 7958SOL    HW124773   4.665   2.232   7.001
 7958SOL    HW224774   4.623   2.134   6.878
 7959SOL     OW24775   4.540   3.144   6.989
 7959SOL    HW124776   4.591   3.120   6.907
 7959SOL    HW224777   4.542   3.243   7.002
 7960SOL     OW24778   0.766   1.521   5.179
 7960SOL    HW124779   0.726   1.503   5.089
 7960SOL    HW224780   0.693   1.538   5.245
 7961SOL     OW24781   6.097   0.515   6.661
 7961SOL    HW124782   6.087   0.426   6.616
 7961SOL    HW224783   6.031   0.522   6.736
 7962SOL     OW24784   5.804   6.833   4.887
 7962SOL    HW124785   5.889   6.818   4.938
 7962SOL    HW224786   5.807   6.924   4.845
 7963SOL     OW24787   5.682   6.210   2.733
 7963SOL    HW124788   5.683   6.111   2.735
 7963SOL    HW224789   5.736   6.246   2.810
 7964SOL     OW24790   6.466   3.938   1.600
 7964SOL    HW124791   6.427   4.003   1.536
 7964SOL    HW224792   6.457   3.845   1.564
 7965SOL     OW24793   4.944   1.401   6.388
 7965SOL    HW124794   4.870   1.421   6.451
 7965SOL    HW224795   4.942   1.466   6.312
 7966SOL     OW24796   5.658   3.491   5.061
 7966SOL    HW124797   5.605   3.563   5.018
 7966SOL    HW224798   5.616   3.402   5.042
 7967SOL     OW24799   1.947   4.379   1.009
 7967SOL    HW124800   1.888   4.354   1.086
 7967SOL    HW224801   1.904   4.352   0.923
 7968SOL     OW24802   2.510   2.558   4.082
 7968SOL    HW124803   2.522   2.652   4.114
 7968SOL    HW224804   2.591   2.504   4.105
 7969SOL     OW24805   3.281   4.573   6.722
 7969SOL    HW124806   3.185   4.592   6.703
 7969SOL    HW224807   3.288   4.495   6.785
 7970SOL     OW24808   6.184   2.821   3.609
 7970SOL    HW124809   6.130   2.881   3.669
 7970SOL    HW224810   6.196   2.866   3.520
 7971SOL     OW24811   3.629   0.587   0.048
 7971SOL    HW124812   3.537   0.568   0.082
 7971SOL    HW224813   3.659   0.512   7.012
 7972SOL     OW24814   3.865   3.457   4.678
 7972SOL    HW124815   3.943   3.512   4.647
 7972SOL    HW224816   3.791   3.463   4.612
 7973SOL     OW24817   0.455   5.081   2.091
 7973SOL    HW124818   0.435   5.099   1.994
 7973SOL    HW224819   0.411   4.995   2.118
 7974SOL     OW24820   0.609   3.115   4.885
 7974SOL    HW124821   0.550   3.060   4.943
 7974SOL    HW224822   0.581   3.104   4.789
 7975SOL     OW24823   3.850   6.899   6.776
 7975SOL    HW124824   3.754   6.876   6.765
 7975SOL    HW224825   3.885   6.860   6.861
 7976SOL     OW24826   0.851   0.755   0.331
 7976SOL    HW124827   0.848   0.679   0.397
 7976SOL    HW224828   0.841   0.719   0.238
 7977SOL     OW24829   4.510   5.440   3.017
 7977SOL    HW124830   4.591   5.397   2.978
 7977SOL    HW224831   4.468   5.378   3.085
 7978SOL     OW24832   0.099   3.875   1.260
 7978SOL    HW124833   0.020   3.934   1.246
 7978SOL    HW224834   0.148   3.902   1.343
 7979SOL     OW24835   2.861   2.338   5.649
 7979SOL    HW124836   2.947   2.388   5.634
 7979SOL    HW224837   2.867   2.248   5.604
 7980SOL     OW24838   3.694   5.862   2.431
 7980SOL    HW124839   3.793   5.865   2.447
 7980SOL    HW224840   3.670   5.776   2.387
 7981SOL     OW24841   1.240   3.561   4.799
 7981SOL    HW124842   1.301   3.516   4.865
 7981SOL    HW224843   1.295   3.603   4.727
 7982SOL     OW24844   6.808   0.401   0.432
 7982SOL    HW124845   6.832   0.368   0.523
 7982SOL    HW224846   6.846   0.493   0.419
 7983SOL     OW24847   3.500   1.130   1.807
 7983SOL    HW124848   3.547   1.187   1.740
 7983SOL    HW224849   3.411   1.102   1.771
 7984SOL     OW24850   6.048   2.725   2.976
 7984SOL    HW124851   6.059   2.816   3.017
 7984SOL    HW224852   5.977   2.675   3.025
 7985SOL     OW24853   3.355   3.477   5.800
 7985SOL    HW124854   3.404   3.532   5.867
 7985SOL    HW224855   3.352   3.382   5.830
 7986SOL     OW24856   3.242   0.711   3.959
 7986SOL    HW124857   3.154   0.751   3.932
 7986SOL    HW224858   3.286   0.671   3.879
 7987SOL     OW24859   1.475   2.837   5.997
 7987SOL    HW124860   1.528   2.899   5.938
 7987SOL    HW224861   1.472   2.874   6.090
 7988SOL     OW24862   6.549   0.663   1.305
 7988SOL    HW124863   6.615   0.593   1.333
 7988SOL    HW224864   6.551   0.672   1.205
 7989SOL     OW24865   0.458   4.501   1.390
 7989SOL    HW124866   0.438   4.598   1.408
 7989SOL    HW224867   0.411   4.473   1.306
 7990SOL     OW24868   3.966   5.297   5.010
 7990SOL    HW124869   3.887   5.316   5.069
 7990SOL    HW224870   4.002   5.384   4.974
 7991SOL     OW24871   5.340   0.967   4.472
 7991SOL    HW124872   5.297   0.878   4.454
 7991SOL    HW224873   5.271   1.039   4.467
 7992SOL     OW24874   1.938   0.708   0.029
 7992SOL    HW124875   1.878   0.691   0.107
 7992SOL    HW224876   1.914   0.646   6.977
 7993SOL     OW24877   6.378   6.391   0.769
 7993SOL    HW124878   6.464   6.440   0.758
 7993SOL    HW224879   6.314   6.417   0.697
 7994SOL     OW24880   0.420   1.398   4.644
 7994SOL    HW124881   0.461   1.307   4.638
 7994SOL    HW224882   0.466   1.459   4.579
 7995SOL     OW24883   0.741   6.101   1.561
 7995SOL    HW124884   0.642   6.093   1.560
 7995SOL    HW224885   0.779   6.048   1.484
 7996SOL     OW24886   2.181   6.562   3.615
 7996SOL    HW124887   2.234   6.586   3.534
 7996SOL    HW224888   2.240   6.515   3.681
 7997SOL     OW24889   2.432   1.170   5.690
 7997SOL    HW124890   2.406   1.110   5.766
 7997SOL    HW224891   2.350   1.212   5.652
 7998SOL     OW24892   1.823   1.224   0.991
 7998SOL    HW124893   1.865   1.187   1.073
 7998SOL    HW224894   1.783   1.148   0.938
 7999SOL     OW24895   0.049   0.967   2.647
 7999SOL    HW124896   0.117   0.935   2.581
 7999SOL    HW224897   0.015   0.889   2.701
 8000SOL     OW24898   4.744   5.474   0.789
 8000SOL    HW124899   4.807   5.412   0.741
 8000SOL    HW224900   4.795   5.532   0.852
 8001SOL     OW24901   5.395   4.199   2.319
 8001SOL    HW124902   5.479   4.233   2.362
 8001SOL    HW224903   5.322   4.266   2.331
 8002SOL     OW24904   1.049   0.719   4.640
 8002SOL    HW124905   1.007   0.806   4.668
 8002SOL    HW224906   1.057   0.660   4.720
 8003SOL     OW24907   2.638   6.052   3.201
 8003SOL    HW124908   2.653   6.141   3.245
 8003SOL    HW224909   2.715   5.992   3.220
 8004SOL     OW24910   2.162   3.689   3.957
 8004SOL    HW124911   2.237   3.625   3.939
 8004SOL    HW224912   2.131   3.729   3.871
 8005SOL     OW24913   3.032   0.409   4.777
 8005SOL    HW124914   3.002   0.380   4.686
 8005SOL    HW224915   3.074   0.331   4.824
 8006SOL     OW24916   4.529   5.443   6.302
 8006SOL    HW124917   4.478   5.364   6.268
 8006SOL    HW224918   4.617   5.413   6.338
 8007SOL     OW24919   0.086   0.649   1.220
 8007SOL    HW124920   0.030   0.637   1.302
 8007SOL    HW224921   0.031   0.632   1.138
 8008SOL     OW24922   5.434   5.103   0.483
 8008SOL    HW124923   5.485   5.138   0.562
 8008SOL    HW224924   5.488   5.117   0.400
 8009SOL     OW24925   6.544   0.985   1.480
 8009SOL    HW124926   6.610   0.957   1.549
 8009SOL    HW224927   6.467   0.921   1.479
 8010SOL     OW24928   2.935   0.303   6.006
 8010SOL    HW124929   2.993   0.223   5.993
 8010SOL    HW224930   2.892   0.298   6.097
 8011SOL     OW24931   3.713   2.131   2.420
 8011SOL    HW124932   3.804   2.171   2.429
 8011SOL    HW224933   3.705   2.086   2.331
 8012SOL     OW24934   6.443   0.421   5.169
 8012SOL    HW124935   6.484   0.473   5.244
 8012SOL    HW224936   6.356   0.464   5.143
 8013SOL     OW24937   3.589   0.369   2.971
 8013SOL    HW124938   3.491   0.363   2.986
 8013SOL    HW224939   3.631   0.424   3.044
 8014SOL     OW24940   2.225   2.826   3.842
 8014SOL    HW124941   2.153   2.884   3.880
 8014SOL    HW224942   2.304   2.883   3.819
 8015SOL     OW24943   3.649   6.319   4.601
 8015SOL    HW124944   3.575   6.269   4.556
 8015SOL    HW224945   3.614   6.408   4.631
 8016SOL     OW24946   3.059   2.812   5.432
 8016SOL    HW124947   3.154   2.806   5.463
 8016SOL    HW224948   3.041   2.904   5.398
 8017SOL     OW24949   5.669   6.383   1.612
 8017SOL    HW124950   5.678   6.473   1.655
 8017SOL    HW224951   5.639   6.316   1.679
 8018SOL     OW24952   2.640   3.096   0.858
 8018SOL    HW124953   2.616   3.173   0.798
 8018SOL    HW224954   2.721   3.049   0.822
 8019SOL     OW24955   2.563   3.697   0.896
 8019SOL    HW124956   2.643   3.645   0.927
 8019SOL    HW224957   2.481   3.660   0.940
 8020SOL     OW24958   0.455   0.392   0.061
 8020SOL    HW124959   0.446   0.364   6.989
 8020SOL    HW224960   0.518   0.331   0.108
 8021SOL     OW24961   1.079   2.798   0.770
 8021SOL    HW124962   1.018   2.722   0.793
 8021SOL    HW224963   1.079   2.865   0.844
 8022SOL     OW24964   4.355   0.394   2.299
 8022SOL    HW124965   4.443   0.347   2.287
 8022SOL    HW224966   4.339   0.455   2.222
 8023SOL     OW24967   3.966   4.848   2.269
 8023SOL    HW124968   3.935   4.756   2.250
 8023SOL    HW224969   3.892   4.901   2.310
 8024SOL     OW24970   2.303   0.692   5.986
 8024SOL    HW124971   2.274   0.597   5.976
 8024SOL    HW224972   2.396   0.696   6.023
 8025SOL     OW24973   1.114   6.878   1.310
 8025SOL    HW124974   1.120   6.798   1.250
 8025SOL    HW224975   1.202   6.892   1.356
 8026SOL     OW24976   0.501   7.012   5.869
 8026SOL    HW124977   0.461   6.937   5.922
 8026SOL    HW224978   0.594   6.988   5.842
 8027SOL     OW24979   4.811   0.027   6.359
 8027SOL    HW124980   4.793   6.984   6.432
 8027SOL    HW224981   4.771   0.115   6.383
 8028SOL     OW24982   3.931   5.961   6.324
 8028SOL    HW124983   3.954   6.058   6.318
 8028SOL    HW224984   4.014   5.906   6.317
 8029SOL     OW24985   0.934   0.188   1.709
 8029SOL    HW124986   0.993   0.267   1.727
 8029SOL    HW224987   0.874   0.172   1.788
 8030SOL     OW24988   0.573   3.841   1.092
 8030SOL    HW124989   0.540   3.746   1.094
 8030SOL    HW224990   0.495   3.903   1.088
 8031SOL     OW24991   6.717   0.834   3.311
 8031SOL    HW124992   6.810   0.800   3.306
 8031SOL    HW224993   6.702   0.877   3.400
 8032SOL     OW24994   0.258   3.009   1.077
 8032SOL    HW124995   0.306   2.931   1.118
 8032SOL    HW224996   0.296   3.028   0.987
 8033SOL     OW24997   3.931   5.129   1.057
 8033SOL    HW124998   3.965   5.153   1.148
 8033SOL    HW224999   4.008   5.111   0.996
 8034SOL     OW25000   1.042   1.363   5.585
 8034SOL    HW125001   0.969   1.311   5.629
 8034SOL    HW225002   1.014   1.386   5.491
 8035SOL     OW25003   5.470   0.309   4.723
 8035SOL    HW125004   5.452   0.320   4.821
 8035SOL    HW225005   5.533   0.381   4.692
 8036SOL     OW25006   4.998   4.399   3.995
 8036SOL    HW125007   5.094   4.392   4.020
 8036SOL    HW225008   4.948   4.321   4.033
 8037SOL     OW25009   2.559   1.674   6.582
 8037SOL    HW125010   2.608   1.626   6.510
 8037SOL    HW225011   2.561   1.772   6.565
 8038SOL     OW25012   6.960   5.572   1.809
 8038SOL    HW125013   6.944   5.616   1.721
 8038SOL    HW225014   0.035   5.571   1.829
 8039SOL     OW25015   1.873   2.561   5.394
 8039SOL    HW125016   1.970   2.562   5.369
 8039SOL    HW225017   1.858   2.495   5.468
 8040SOL     OW25018   0.926   6.783   5.905
 8040SOL    HW125019   0.876   6.810   5.987
 8040SOL    HW225020   0.975   6.698   5.922
 8041SOL     OW25021   3.042   1.799   2.964
 8041SOL    HW125022   2.961   1.786   3.021
 8041SOL    HW225023   3.084   1.887   2.986
 8042SOL     OW25024   4.074   4.267   6.181
 8042SOL    HW125025   3.982   4.303   6.196
 8042SOL    HW225026   4.072   4.199   6.108
 8043SOL     OW25027   5.409   5.156   6.826
 8043SOL    HW125028   5.398   5.057   6.818
 8043SOL    HW225029   5.467   5.189   6.752
 8044SOL     OW25030   0.815   2.924   1.583
 8044SOL    HW125031   0.774   2.863   1.515
 8044SOL    HW225032   0.742   2.973   1.632
 8045SOL     OW25033   6.155   3.294   4.956
 8045SOL    HW125034   6.072   3.350   4.960
 8045SOL    HW225035   6.160   3.235   5.036
 8046SOL     OW25036   0.427   4.200   0.694
 8046SOL    HW125037   0.490   4.193   0.771
 8046SOL    HW225038   0.400   4.108   0.664
 8047SOL     OW25039   3.301   6.520   6.676
 8047SOL    HW125040   3.262   6.428   6.676
 8047SOL    HW225041   3.236   6.584   6.636
 8048SOL     OW25042   4.581   1.888   6.602
 8048SOL    HW125043   4.550   1.872   6.696
 8048SOL    HW225044   4.649   1.819   6.578
 8049SOL     OW25045   1.971   1.458   1.020
 8049SOL    HW125046   1.898   1.392   1.001
 8049SOL    HW225047   2.045   1.412   1.069
 8050SOL     OW25048   0.216   5.328   6.028
 8050SOL    HW125049   0.236   5.418   5.991
 8050SOL    HW225050   0.151   5.336   6.103
 8051SOL     OW25051   4.365   6.565   2.938
 8051SOL    HW125052   4.335   6.470   2.931
 8051SOL    HW225053   4.286   6.625   2.944
 8052SOL     OW25054   2.641   1.397   3.306
 8052SOL    HW125055   2.663   1.351   3.219
 8052SOL    HW225056   2.583   1.476   3.288
 8053SOL     OW25057   1.099   2.427   6.489
 8053SOL    HW125058   1.109   2.356   6.560
 8053SOL    HW225059   1.180   2.485   6.489
 8054SOL     OW25060   5.081   3.813   5.165
 8054SOL    HW125061   5.113   3.719   5.176
 8054SOL    HW225062   5.117   3.851   5.080
 8055SOL     OW25063   6.961   0.123   6.382
 8055SOL    HW125064   0.010   0.069   6.340
 8055SOL    HW225065   6.999   0.209   6.417
 8056SOL     OW25066   2.476   2.587   3.407
 8056SOL    HW125067   2.412   2.658   3.438
 8056SOL    HW225068   2.488   2.520   3.480
 8057SOL     OW25069   3.372   2.025   1.849
 8057SOL    HW125070   3.274   2.016   1.828
 8057SOL    HW225071   3.412   2.094   1.788
 8058SOL     OW25072   3.986   6.427   1.452
 8058SOL    HW125073   3.968   6.449   1.548
 8058SOL    HW225074   3.992   6.328   1.442
 8059SOL     OW25075   3.997   3.381   5.488
 8059SOL    HW125076   3.953   3.470   5.501
 8059SOL    HW225077   3.970   3.343   5.399
 8060SOL     OW25078   0.281   1.170   5.588
 8060SOL    HW125079   0.230   1.242   5.542
 8060SOL    HW225080   0.270   1.084   5.537
 8061SOL     OW25081   6.870   0.829   1.396
 8061SOL    HW125082   6.887   0.736   1.430
 8061SOL    HW225083   6.954   0.883   1.406
 8062SOL     OW25084   3.597   4.743   6.398
 8062SOL    HW125085   3.519   4.720   6.456
 8062SOL    HW225086   3.641   4.659   6.366
 8063SOL     OW25087   2.445   4.816   3.112
 8063SOL    HW125088   2.519   4.749   3.120
 8063SOL    HW225089   2.483   4.904   3.082
 8064SOL     OW25090   6.943   3.008   0.766
 8064SOL    HW125091   6.992   3.083   0.811
 8064SOL    HW225092   6.923   2.937   0.834
 8065SOL     OW25093   4.648   0.245   6.940
 8065SOL    HW125094   4.646   0.314   6.868
 8065SOL    HW225095   4.613   0.285   0.002
 8066SOL     OW25096   6.563   1.035   6.039
 8066SOL    HW125097   6.638   0.983   6.081
 8066SOL    HW225098   6.560   1.014   5.941
 8067SOL     OW25099   4.934   1.017   4.273
 8067SOL    HW125100   4.876   1.023   4.192
 8067SOL    HW225101   4.976   1.106   4.291
 8068SOL     OW25102   6.703   4.679   1.494
 8068SOL    HW125103   6.611   4.717   1.497
 8068SOL    HW225104   6.700   4.583   1.469
 8069SOL     OW25105   1.491   2.382   2.182
 8069SOL    HW125106   1.569   2.432   2.219
 8069SOL    HW225107   1.407   2.434   2.200
 8070SOL     OW25108   5.244   3.916   1.643
 8070SOL    HW125109   5.284   3.839   1.695
 8070SOL    HW225110   5.256   3.900   1.545
 8071SOL     OW25111   2.431   0.259   5.852
 8071SOL    HW125112   2.530   0.253   5.864
 8071SOL    HW225113   2.389   0.172   5.879
 8072SOL     OW25114   2.106   2.129   5.682
 8072SOL    HW125115   2.151   2.216   5.661
 8072SOL    HW225116   2.065   2.134   5.773
 8073SOL     OW25117   5.538   0.038   6.514
 8073SOL    HW125118   5.582   0.053   6.602
 8073SOL    HW225119   5.503   6.968   6.509
 8074SOL     OW25120   6.677   1.180   0.738
 8074SOL    HW125121   6.590   1.132   0.750
 8074SOL    HW225122   6.744   1.144   0.803
 8075SOL     OW25123   0.345   0.681   1.261
 8075SOL    HW125124   0.247   0.666   1.252
 8075SOL    HW225125   0.382   0.618   1.330
 8076SOL     OW25126   6.693   5.914   0.605
 8076SOL    HW125127   6.758   5.960   0.665
 8076SOL    HW225128   6.743   5.861   0.536
 8077SOL     OW25129   5.918   4.029   1.176
 8077SOL    HW125130   5.980   3.989   1.109
 8077SOL    HW225131   5.965   4.101   1.227
 8078SOL     OW25132   6.290   1.342   1.909
 8078SOL    HW125133   6.291   1.349   2.009
 8078SOL    HW225134   6.381   1.358   1.873
 8079SOL     OW25135   0.244   0.968   6.892
 8079SOL    HW125136   0.314   0.942   6.958
 8079SOL    HW225137   0.263   0.925   6.804
 8080SOL     OW25138   0.447   3.920   3.858
 8080SOL    HW125139   0.438   4.015   3.888
 8080SOL    HW225140   0.532   3.910   3.806
 8081SOL     OW25141   6.225   0.796   5.722
 8081SOL    HW125142   6.143   0.852   5.721
 8081SOL    HW225143   6.238   0.754   5.632
 8082SOL     OW25144   4.934   2.628   4.818
 8082SOL    HW125145   4.971   2.639   4.910
 8082SOL    HW225146   5.001   2.662   4.751
 8083SOL     OW25147   6.693   3.094   4.454
 8083SOL    HW125148   6.615   3.069   4.397
 8083SOL    HW225149   6.774   3.044   4.422
 8084SOL     OW25150   5.391   1.882   0.051
 8084SOL    HW125151   5.467   1.868   0.115
 8084SOL    HW225152   5.427   1.904   6.984
 8085SOL     OW25153   1.287   6.201   4.337
 8085SOL    HW125154   1.321   6.111   4.366
 8085SOL    HW225155   1.340   6.233   4.259
 8086SOL     OW25156   0.443   2.529   2.582
 8086SOL    HW125157   0.532   2.557   2.544
 8086SOL    HW225158   0.381   2.607   2.582
 8087SOL     OW25159   6.521   0.817   6.339
 8087SOL    HW125160   6.496   0.720   6.331
 8087SOL    HW225161   6.602   0.834   6.282
 8088SOL     OW25162   0.046   6.921   5.372
 8088SOL    HW125163   7.021   6.844   5.329
 8088SOL    HW225164   7.002   6.988   5.404
 8089SOL     OW25165   6.440   1.546   0.218
 8089SOL    HW125166   6.490   1.471   0.175
 8089SOL    HW225167   6.406   1.608   0.148
 8090SOL     OW25168   4.863   2.308   4.792
 8090SOL    HW125169   4.878   2.222   4.743
 8090SOL    HW225170   4.929   2.376   4.759
 8091SOL     OW25171   0.654   3.608   4.817
 8091SOL    HW125172   0.671   3.590   4.720
 8091SOL    HW225173   0.626   3.524   4.862
 8092SOL     OW25174   4.680   0.137   5.974
 8092SOL    HW125175   4.618   0.061   5.991
 8092SOL    HW225176   4.770   0.101   5.951
 8093SOL     OW25177   3.525   6.962   3.462
 8093SOL    HW125178   3.604   6.925   3.511
 8093SOL    HW225179   3.445   6.959   3.522
 8094SOL     OW25180   1.773   3.844   3.817
 8094SOL    HW125181   1.679   3.831   3.847
 8094SOL    HW225182   1.785   3.936   3.781
 8095SOL     OW25183   1.340   5.670   4.667
 8095SOL    HW125184   1.269   5.600   4.662
 8095SOL    HW225185   1.401   5.660   4.587
 8096SOL     OW25186   0.866   4.766   1.086
 8096SOL    HW125187   0.862   4.865   1.101
 8096SOL    HW225188   0.834   4.719   1.168
 8097SOL     OW25189   5.041   6.479   7.001
 8097SOL    HW125190   5.041   6.537   0.060
 8097SOL    HW225191   4.993   6.394   7.021
 8098SOL     OW25192   2.719   6.059   4.455
 8098SOL    HW125193   2.740   6.157   4.451
 8098SOL    HW225194   2.774   6.011   4.387
 8099SOL     OW25195   2.093   3.795   2.627
 8099SOL    HW125196   2.127   3.861   2.559
 8099SOL    HW225197   2.078   3.707   2.583
 8100SOL     OW25198   0.034   6.863   0.319
 8100SOL    HW125199   0.025   6.780   0.263
 8100SOL    HW225200   7.001   6.853   0.401
 8101SOL     OW25201   2.260   4.953   0.264
 8101SOL    HW125202   2.289   5.031   0.319
 8101SOL    HW225203   2.271   4.974   0.167
 8102SOL     OW25204   1.113   4.460   3.975
 8102SOL    HW125205   1.135   4.557   3.985
 8102SOL    HW225206   1.197   4.406   3.978
 8103SOL     OW25207   4.199   0.708   1.600
 8103SOL    HW125208   4.259   0.648   1.549
 8103SOL    HW225209   4.104   0.675   1.593
 8104SOL     OW25210   0.754   5.799   6.689
 8104SOL    HW125211   0.726   5.828   6.598
 8104SOL    HW225212   0.724   5.705   6.705
 8105SOL     OW25213   6.588   0.164   2.802
 8105SOL    HW125214   6.492   0.169   2.829
 8105SOL    HW225215   6.610   0.071   2.772
 8106SOL     OW25216   2.934   6.116   6.588
 8106SOL    HW125217   2.934   6.125   6.489
 8106SOL    HW225218   2.842   6.133   6.624
 8107SOL     OW25219   1.053   6.761   0.143
 8107SOL    HW125220   1.037   6.693   0.071
 8107SOL    HW225221   0.992   6.743   0.220
 8108SOL     OW25222   1.810   1.204   0.599
 8108SOL    HW125223   1.882   1.246   0.543
 8108SOL    HW225224   1.774   1.271   0.664
 8109SOL     OW25225   0.376   3.844   2.125
 8109SOL    HW125226   0.320   3.763   2.111
 8109SOL    HW225227   0.335   3.922   2.078
 8110SOL     OW25228   4.572   4.351   0.361
 8110SOL    HW125229   4.522   4.268   0.387
 8110SOL    HW225230   4.664   4.348   0.400
 8111SOL     OW25231   5.813   2.073   2.290
 8111SOL    HW125232   5.860   2.155   2.258
 8111SOL    HW225233   5.745   2.099   2.359
 8112SOL     OW25234   2.265   4.733   6.249
 8112SOL    HW125235   2.296   4.780   6.332
 8112SOL    HW225236   2.165   4.729   6.248
 8113SOL     OW25237   5.218   5.114   6.285
 8113SOL    HW125238   5.156   5.147   6.357
 8113SOL    HW225239   5.247   5.021   6.306
 8114SOL     OW25240   2.095   3.417   2.737
 8114SOL    HW125241   2.151   3.379   2.810
 8114SOL    HW225242   2.040   3.493   2.773
 8115SOL     OW25243   2.369   1.625   6.210
 8115SOL    HW125244   2.290   1.566   6.225
 8115SOL    HW225245   2.443   1.598   6.272
 8116SOL     OW25246   4.016   3.206   2.180
 8116SOL    HW125247   3.978   3.299   2.177
 8116SOL    HW225248   4.070   3.188   2.098
 8117SOL     OW25249   1.077   0.398   4.019
 8117SOL    HW125250   0.999   0.419   4.079
 8117SOL    HW225251   1.089   0.299   4.014
 8118SOL     OW25252   6.617   2.284   6.914
 8118SOL    HW125253   6.586   2.234   6.995
 8118SOL    HW225254   6.542   2.341   6.880
 8119SOL     OW25255   5.173   5.149   5.997
 8119SOL    HW125256   5.263   5.117   5.970
 8119SOL    HW225257   5.160   5.132   6.095
 8120SOL     OW25258   2.302   6.747   2.435
 8120SOL    HW125259   2.339   6.838   2.451
 8120SOL    HW225260   2.343   6.682   2.499
 8121SOL     OW25261   2.071   2.444   2.604
 8121SOL    HW125262   2.136   2.409   2.537
 8121SOL    HW225263   2.103   2.532   2.639
 8122SOL     OW25264   1.000   4.840   1.553
 8122SOL    HW125265   1.034   4.933   1.536
 8122SOL    HW225266   0.900   4.841   1.552
 8123SOL     OW25267   6.869   1.755   6.605
 8123SOL    HW125268   6.813   1.759   6.687
 8123SOL    HW225269   6.965   1.746   6.630
 8124SOL     OW25270   6.492   5.924   5.307
 8124SOL    HW125271   6.554   5.852   5.339
 8124SOL    HW225272   6.445   5.964   5.386
 8125SOL     OW25273   0.932   6.065   2.004
 8125SOL    HW125274   0.878   6.124   2.064
 8125SOL    HW225275   0.926   6.099   1.910
 8126SOL     OW25276   3.634   5.696   4.505
 8126SOL    HW125277   3.712   5.635   4.520
 8126SOL    HW225278   3.644   5.741   4.416
 8127SOL     OW25279   4.212   1.548   6.282
 8127SOL    HW125280   4.278   1.579   6.213
 8127SOL    HW225281   4.236   1.588   6.371
 8128SOL     OW25282   3.395   3.369   1.217
 8128SOL    HW125283   3.361   3.363   1.123
 8128SOL    HW225284   3.429   3.280   1.246
 8129SOL     OW25285   0.079   2.270   4.000
 8129SOL    HW125286   0.105   2.257   3.905
 8129SOL    HW225287   0.134   2.210   4.058
 8130SOL     OW25288   6.813   6.560   7.008
 8130SOL    HW125289   6.837   6.504   6.929
 8130SOL    HW225290   6.764   6.642   6.977
 8131SOL     OW25291   1.860   2.483   1.026
 8131SOL    HW125292   1.875   2.567   1.078
 8131SOL    HW225293   1.947   2.441   1.005
 8132SOL     OW25294   6.530   1.665   4.714
 8132SOL    HW125295   6.470   1.585   4.719
 8132SOL    HW225296   6.491   1.732   4.651
 8133SOL     OW25297   3.670   5.417   1.270
 8133SOL    HW125298   3.757   5.444   1.311
 8133SOL    HW225299   3.595   5.467   1.314
 8134SOL     OW25300   5.705   2.222   6.546
 8134SOL    HW125301   5.644   2.302   6.551
 8134SOL    HW225302   5.748   2.218   6.456
 8135SOL     OW25303   2.398   6.030   1.889
 8135SOL    HW125304   2.383   6.129   1.883
 8135SOL    HW225305   2.315   5.985   1.921
 8136SOL     OW25306   4.475   4.970   2.687
 8136SOL    HW125307   4.520   5.045   2.638
 8136SOL    HW225308   4.389   5.004   2.726
 8137SOL     OW25309   4.572   0.831   5.803
 8137SOL    HW125310   4.475   0.840   5.824
 8137SOL    HW225311   4.593   0.738   5.774
 8138SOL     OW25312   5.732   0.986   2.304
 8138SOL    HW125313   5.657   0.995   2.238
 8138SOL    HW225314   5.791   1.067   2.298
 8139SOL     OW25315   0.566   0.914   4.410
 8139SOL    HW125316   0.654   0.939   4.369
 8139SOL    HW225317   0.492   0.953   4.356
 8140SOL     OW25318   5.117   2.429   3.136
 8140SOL    HW125319   5.133   2.522   3.101
 8140SOL    HW225320   5.038   2.430   3.197
 8141SOL     OW25321   6.082   3.962   3.573
 8141SOL    HW125322   6.060   3.865   3.564
 8141SOL    HW225323   6.176   3.972   3.606
 8142SOL     OW25324   0.071   6.462   0.350
 8142SOL    HW125325   0.093   6.516   0.431
 8142SOL    HW225326   0.034   6.523   0.279
 8143SOL     OW25327   6.320   2.989   5.652
 8143SOL    HW125328   6.344   2.894   5.631
 8143SOL    HW225329   6.404   3.040   5.673
 8144SOL     OW25330   5.081   5.967   6.660
 8144SOL    HW125331   5.028   6.046   6.688
 8144SOL    HW225332   5.090   5.903   6.736
 8145SOL     OW25333   4.521   6.181   3.497
 8145SOL    HW125334   4.455   6.244   3.538
 8145SOL    HW225335   4.572   6.135   3.570
 8146SOL     OW25336   3.595   1.793   4.034
 8146SOL    HW125337   3.691   1.768   4.043
 8146SOL    HW225338   3.582   1.886   4.067
 8147SOL     OW25339   4.972   1.211   3.185
 8147SOL    HW125340   5.041   1.275   3.151
 8147SOL    HW225341   4.931   1.248   3.268
 8148SOL     OW25342   6.736   3.901   3.208
 8148SOL    HW125343   6.697   3.892   3.116
 8148SOL    HW225344   6.734   3.813   3.255
 8149SOL     OW25345   4.017   5.309   3.949
 8149SOL    HW125346   3.970   5.268   3.870
 8149SOL    HW225347   3.997   5.407   3.952
 8150SOL     OW25348   1.001   6.387   1.272
 8150SOL    HW125349   1.000   6.401   1.371
 8150SOL    HW225350   1.092   6.359   1.243
 8151SOL     OW25351   0.464   1.791   4.859
 8151SOL    HW125352   0.427   1.802   4.767
 8151SOL    HW225353   0.546   1.734   4.855
 8152SOL     OW25354   0.842   0.604   3.733
 8152SOL    HW125355   0.914   0.666   3.762
 8152SOL    HW225356   0.787   0.647   3.662
 8153SOL     OW25357   2.364   6.306   0.339
 8153SOL    HW125358   2.311   6.246   0.398
 8153SOL    HW225359   2.303   6.371   0.293
 8154SOL     OW25360   2.107   6.565   3.226
 8154SOL    HW125361   2.046   6.508   3.281
 8154SOL    HW225362   2.188   6.513   3.200
 8155SOL     OW25363   3.117   3.959   4.875
 8155SOL    HW125364   3.157   3.981   4.963
 8155SOL    HW225365   3.135   4.033   4.810
 8156SOL     OW25366   0.302   6.865   5.247
 8156SOL    HW125367   0.380   6.899   5.299
 8156SOL    HW225368   0.217   6.895   5.291
 8157SOL     OW25369   5.474   2.370   6.610
 8157SOL    HW125370   5.405   2.367   6.682
 8157SOL    HW225371   5.478   2.462   6.571
 8158SOL     OW25372   1.430   5.496   2.756
 8158SOL    HW125373   1.524   5.506   2.724
 8158SOL    HW225374   1.372   5.565   2.713
 8159SOL     OW25375   0.447   5.926   0.344
 8159SOL    HW125376   0.464   5.836   0.304
 8159SOL    HW225377   0.358   5.961   0.314
 8160SOL     OW25378   4.761   1.872   1.763
 8160SOL    HW125379   4.788   1.952   1.709
 8160SOL    HW225380   4.833   1.850   1.829
 8161SOL     OW25381   4.206   3.202   1.541
 8161SOL    HW125382   4.262   3.282   1.557
 8161SOL    HW225383   4.206   3.143   1.622
 8162SOL     OW25384   6.076   0.898   2.557
 8162SOL    HW125385   6.061   0.996   2.541
 8162SOL    HW225386   6.163   0.885   2.604
 8163SOL     OW25387   2.290   2.678   5.560
 8163SOL    HW125388   2.340   2.679   5.474
 8163SOL    HW225389   2.352   2.697   5.635
 8164SOL     OW25390   4.853   3.604   1.859
 8164SOL    HW125391   4.852   3.624   1.761
 8164SOL    HW225392   4.812   3.514   1.875
 8165SOL     OW25393   1.773   4.394   1.738
 8165SOL    HW125394   1.802   4.319   1.796
 8165SOL    HW225395   1.833   4.473   1.752
 8166SOL     OW25396   3.386   0.222   1.523
 8166SOL    HW125397   3.315   0.183   1.464
 8166SOL    HW225398   3.430   0.299   1.476
 8167SOL     OW25399   5.407   2.835   4.380
 8167SOL    HW125400   5.479   2.769   4.404
 8167SOL    HW225401   5.318   2.791   4.388
 8168SOL     OW25402   2.366   2.133   3.039
 8168SOL    HW125403   2.360   2.033   3.038
 8168SOL    HW225404   2.434   2.161   3.106
 8169SOL     OW25405   5.179   3.870   4.921
 8169SOL    HW125406   5.126   3.853   4.839
 8169SOL    HW225407   5.234   3.953   4.909
 8170SOL     OW25408   1.576   5.518   3.783
 8170SOL    HW125409   1.560   5.438   3.840
 8170SOL    HW225410   1.643   5.577   3.826
 8171SOL     OW25411   1.979   1.005   7.020
 8171SOL    HW125412   2.008   0.911   7.005
 8171SOL    HW225413   1.892   1.006   0.046
 8172SOL     OW25414   0.434   6.445   1.815
 8172SOL    HW125415   0.476   6.491   1.736
 8172SOL    HW225416   0.442   6.346   1.803
 8173SOL     OW25417   6.776   2.982   0.511
 8173SOL    HW125418   6.733   3.069   0.488
 8173SOL    HW225419   6.830   2.993   0.595
 8174SOL     OW25420   4.856   6.456   2.567
 8174SOL    HW125421   4.906   6.525   2.619
 8174SOL    HW225422   4.908   6.431   2.485
 8175SOL     OW25423   1.637   3.211   3.858
 8175SOL    HW125424   1.716   3.176   3.907
 8175SOL    HW225425   1.656   3.210   3.760
 8176SOL     OW25426   3.931   5.437   3.409
 8176SOL    HW125427   4.020   5.467   3.443
 8176SOL    HW225428   3.859   5.466   3.473
 8177SOL     OW25429   1.799   6.451   6.465
 8177SOL    HW125430   1.732   6.451   6.390
 8177SOL    HW225431   1.765   6.508   6.540
 8178SOL     OW25432   2.368   6.367   6.295
 8178SOL    HW125433   2.268   6.367   6.293
 8178SOL    HW225434   2.399   6.356   6.390
 8179SOL     OW25435   4.266   0.530   6.961
 8179SOL    HW125436   4.256   0.573   0.027
 8179SOL    HW225437   4.345   0.469   6.962
 8180SOL     OW25438   5.246   4.623   4.862
 8180SOL    HW125439   5.187   4.653   4.937
 8180SOL    HW225440   5.210   4.657   4.775
 8181SOL     OW25441   2.451   2.083   2.045
 8181SOL    HW125442   2.518   2.042   1.984
 8181SOL    HW225443   2.479   2.176   2.069
 8182SOL     OW25444   5.307   2.878   5.583
 8182SOL    HW125445   5.354   2.809   5.639
 8182SOL    HW225446   5.209   2.866   5.592
 8183SOL     OW25447   2.125   3.528   3.260
 8183SOL    HW125448   2.110   3.613   3.208
 8183SOL    HW225449   2.061   3.458   3.227
 8184SOL     OW25450   6.204   5.989   4.344
 8184SOL    HW125451   6.128   6.040   4.383
 8184SOL    HW225452   6.198   5.991   4.244
 8185SOL     OW25453   0.862   2.283   3.551
 8185SOL    HW125454   0.959   2.271   3.571
 8185SOL    HW225455   0.834   2.376   3.575
 8186SOL     OW25456   4.512   3.965   6.800
 8186SOL    HW125457   4.445   3.899   6.835
 8186SOL    HW225458   4.465   4.043   6.759
 8187SOL     OW25459   2.106   1.368   5.937
 8187SOL    HW125460   2.084   1.274   5.961
 8187SOL    HW225461   2.196   1.392   5.975
 8188SOL     OW25462   4.855   3.126   2.577
 8188SOL    HW125463   4.836   3.096   2.484
 8188SOL    HW225464   4.903   3.214   2.575
 8189SOL     OW25465   6.586   5.367   3.379
 8189SOL    HW125466   6.590   5.419   3.464
 8189SOL    HW225467   6.643   5.411   3.310
 8190SOL     OW25468   5.907   3.558   2.659
 8190SOL    HW125469   5.950   3.645   2.685
 8190SOL    HW225470   5.808   3.566   2.669
 8191SOL     OW25471   5.791   5.135   1.570
 8191SOL    HW125472   5.722   5.196   1.530
 8191SOL    HW225473   5.747   5.050   1.599
 8192SOL     OW25474   1.413   2.432   1.070
 8192SOL    HW125475   1.505   2.426   1.108
 8192SOL    HW225476   1.416   2.410   0.972
 8193SOL     OW25477   4.120   6.582   5.613
 8193SOL    HW125478   4.208   6.630   5.619
 8193SOL    HW225479   4.131   6.488   5.646
 8194SOL     OW25480   1.608   0.696   2.420
 8194SOL    HW125481   1.601   0.597   2.405
 8194SOL    HW225482   1.653   0.712   2.508
 8195SOL     OW25483   5.768   1.084   1.940
 8195SOL    HW125484   5.821   1.168   1.951
 8195SOL    HW225485   5.829   1.005   1.949
 8196SOL     OW25486   1.731   0.952   0.855
 8196SOL    HW125487   1.793   0.874   0.849
 8196SOL    HW225488   1.683   0.949   0.943
 8197SOL     OW25489   0.688   0.107   1.115
 8197SOL    HW125490   0.773   0.103   1.168
 8197SOL    HW225491   0.704   0.159   1.031
 8198SOL     OW25492   3.065   1.019   2.563
 8198SOL    HW125493   3.007   1.081   2.616
 8198SOL    HW225494   3.132   0.977   2.624
 8199SOL     OW25495   5.664   4.672   1.458
 8199SOL    HW125496   5.695   4.729   1.382
 8199SOL    HW225497   5.744   4.634   1.506
 8200SOL     OW25498   4.206   3.906   1.671
 8200SOL    HW125499   4.235   3.810   1.674
 8200SOL    HW225500   4.147   3.920   1.592
 8201SOL     OW25501   0.748   1.186   5.011
 8201SOL    HW125502   0.777   1.171   5.106
 8201SOL    HW225503   0.658   1.144   4.997
 8202SOL     OW25504   1.879   3.786   4.087
 8202SOL    HW125505   1.861   3.776   3.989
 8202SOL    HW225506   1.961   3.734   4.112
 8203SOL     OW25507   6.453   4.511   6.236
 8203SOL    HW125508   6.395   4.474   6.309
 8203SOL    HW225509   6.485   4.436   6.178
 8204SOL     OW25510   3.626   0.252   0.737
 8204SOL    HW125511   3.603   0.301   0.821
 8204SOL    HW225512   3.669   0.164   0.760
 8205SOL     OW25513   3.871   6.732   3.376
 8205SOL    HW125514   3.959   6.714   3.334
 8205SOL    HW225515   3.811   6.778   3.309
 8206SOL     OW25516   3.523   2.055   4.545
 8206SOL    HW125517   3.570   2.091   4.625
 8206SOL    HW225518   3.539   1.957   4.537
 8207SOL     OW25519   2.850   5.842   6.951
 8207SOL    HW125520   2.914   5.909   6.913
 8207SOL    HW225521   2.842   5.764   6.889
 8208SOL     OW25522   1.549   5.423   0.793
 8208SOL    HW125523   1.474   5.446   0.731
 8208SOL    HW225524   1.637   5.438   0.747
 8209SOL     OW25525   1.022   5.580   5.252
 8209SOL    HW125526   0.958   5.628   5.312
 8209SOL    HW225527   1.026   5.484   5.278
 8210SOL     OW25528   2.218   0.810   0.793
 8210SOL    HW125529   2.278   0.800   0.713
 8210SOL    HW225530   2.145   0.874   0.771
 8211SOL     OW25531   3.891   3.979   4.003
 8211SOL    HW125532   3.908   3.917   3.926
 8211SOL    HW225533   3.975   3.989   4.057
 8212SOL     OW25534   4.158   4.677   6.642
 8212SOL    HW125535   4.171   4.673   6.543
 8212SOL    HW225536   4.245   4.694   6.687
 8213SOL     OW25537   4.679   4.401   1.842
 8213SOL    HW125538   4.621   4.355   1.910
 8213SOL    HW225539   4.698   4.338   1.766
 8214SOL     OW25540   4.180   5.477   3.536
 8214SOL    HW125541   4.269   5.489   3.491
 8214SOL    HW225542   4.181   5.395   3.593
 8215SOL     OW25543   2.856   6.299   6.009
 8215SOL    HW125544   2.817   6.216   6.050
 8215SOL    HW225545   2.843   6.376   6.072
 8216SOL     OW25546   5.612   5.097   0.699
 8216SOL    HW125547   5.613   4.999   0.719
 8216SOL    HW225548   5.585   5.147   0.781
 8217SOL     OW25549   2.957   6.512   3.636
 8217SOL    HW125550   2.927   6.457   3.714
 8217SOL    HW225551   3.056   6.523   3.639
 8218SOL     OW25552   1.855   6.661   4.031
 8218SOL    HW125553   1.941   6.618   4.005
 8218SOL    HW225554   1.784   6.591   4.042
 8219SOL     OW25555   3.694   3.298   3.485
 8219SOL    HW125556   3.791   3.307   3.461
 8219SOL    HW225557   3.652   3.388   3.491
 8220SOL     OW25558   4.423   4.377   5.775
 8220SOL    HW125559   4.352   4.307   5.769
 8220SOL    HW225560   4.391   4.451   5.834
 8221SOL     OW25561   6.707   3.950   3.540
 8221SOL    HW125562   6.754   3.876   3.588
 8221SOL    HW225563   6.773   3.999   3.483
 8222SOL     OW25564   5.111   2.125   5.789
 8222SOL    HW125565   5.072   2.208   5.827
 8222SOL    HW225566   5.186   2.093   5.847
 8223SOL     OW25567   1.176   6.302   5.402
 8223SOL    HW125568   1.274   6.287   5.413
 8223SOL    HW225569   1.160   6.393   5.363
 8224SOL     OW25570   5.931   0.586   5.840
 8224SOL    HW125571   6.016   0.635   5.821
 8224SOL    HW225572   5.865   0.648   5.882
 8225SOL     OW25573   6.062   2.767   0.264
 8225SOL    HW125574   6.136   2.730   0.319
 8225SOL    HW225575   6.019   2.694   0.212
 8226SOL     OW25576   4.301   0.983   6.740
 8226SOL    HW125577   4.277   1.077   6.763
 8226SOL    HW225578   4.230   0.922   6.774
 8227SOL     OW25579   5.498   3.972   2.174
 8227SOL    HW125580   5.478   4.040   2.245
 8227SOL    HW225581   5.556   4.013   2.104
 8228SOL     OW25582   2.799   1.376   4.617
 8228SOL    HW125583   2.768   1.449   4.557
 8228SOL    HW225584   2.744   1.294   4.600
 8229SOL     OW25585   3.907   4.545   0.614
 8229SOL    HW125586   4.006   4.555   0.604
 8229SOL    HW225587   3.885   4.511   0.706
 8230SOL     OW25588   6.263   0.705   6.557
 8230SOL    HW125589   6.255   0.677   6.461
 8230SOL    HW225590   6.206   0.647   6.614
 8231SOL     OW25591   3.390   1.545   2.272
 8231SOL    HW125592   3.369   1.526   2.176
 8231SOL    HW225593   3.361   1.468   2.329
 8232SOL     OW25594   3.582   6.668   3.586
 8232SOL    HW125595   3.633   6.645   3.503
 8232SOL    HW225596   3.522   6.592   3.611
 8233SOL     OW25597   2.999   0.861   6.199
 8233SOL    HW125598   3.012   0.840   6.102
 8233SOL    HW225599   2.901   0.869   6.219
 8234SOL     OW25600   1.026   2.989   0.142
 8234SOL    HW125601   1.098   2.922   0.124
 8234SOL    HW225602   1.065   3.082   0.135
 8235SOL     OW25603   0.535   6.622   0.863
 8235SOL    HW125604   0.474   6.678   0.806
 8235SOL    HW225605   0.498   6.529   0.869
 8236SOL     OW25606   1.260   0.117   0.866
 8236SOL    HW125607   1.327   0.158   0.804
 8236SOL    HW225608   1.198   0.057   0.814
 8237SOL     OW25609   4.079   5.098   5.215
 8237SOL    HW125610   4.052   5.039   5.291
 8237SOL    HW225611   4.004   5.161   5.194
 8238SOL     OW25612   6.607   5.444   0.241
 8238SOL    HW125613   6.545   5.471   0.315
 8238SOL    HW225614   6.561   5.375   0.183
 8239SOL     OW25615   4.550   1.778   4.054
 8239SOL    HW125616   4.531   1.707   4.121
 8239SOL    HW225617   4.559   1.737   3.963
 8240SOL     OW25618   3.876   3.417   5.072
 8240SOL    HW125619   3.906   3.509   5.094
 8240SOL    HW225620   3.928   3.382   4.994
 8241SOL     OW25621   0.772   3.164   5.789
 8241SOL    HW125622   0.730   3.165   5.880
 8241SOL    HW225623   0.872   3.167   5.799
 8242SOL     OW25624   0.160   2.831   3.737
 8242SOL    HW125625   0.087   2.799   3.677
 8242SOL    HW225626   0.210   2.753   3.773
 8243SOL     OW25627   1.372   6.145   3.377
 8243SOL    HW125628   1.411   6.236   3.365
 8243SOL    HW225629   1.367   6.123   3.475
 8244SOL     OW25630   5.165   0.611   4.075
 8244SOL    HW125631   5.229   0.535   4.072
 8244SOL    HW225632   5.071   0.577   4.073
 8245SOL     OW25633   5.713   4.201   2.138
 8245SOL    HW125634   5.758   4.208   2.227
 8245SOL    HW225635   5.670   4.288   2.115
 8246SOL     OW25636   1.947   4.262   6.835
 8246SOL    HW125637   1.929   4.357   6.811
 8246SOL    HW225638   1.907   4.202   6.765
 8247SOL     OW25639   2.020   4.688   3.090
 8247SOL    HW125640   1.974   4.721   3.172
 8247SOL    HW225641   1.982   4.733   3.009
 8248SOL     OW25642   6.373   6.681   2.708
 8248SOL    HW125643   6.278   6.712   2.711
 8248SOL    HW225644   6.417   6.704   2.795
 8249SOL     OW25645   3.503   0.516   6.312
 8249SOL    HW125646   3.514   0.580   6.388
 8249SOL    HW225647   3.458   0.563   6.236
 8250SOL     OW25648   1.251   1.539   0.449
 8250SOL    HW125649   1.266   1.591   0.533
 8250SOL    HW225650   1.272   1.442   0.466
 8251SOL     OW25651   1.401   2.024   6.699
 8251SOL    HW125652   1.442   1.934   6.687
 8251SOL    HW225653   1.468   2.094   6.674
 8252SOL     OW25654   0.992   1.476   6.450
 8252SOL    HW125655   0.936   1.539   6.505
 8252SOL    HW225656   0.946   1.388   6.443
 8253SOL     OW25657   6.725   4.648   5.822
 8253SOL    HW125658   6.732   4.589   5.742
 8253SOL    HW225659   6.647   4.619   5.878
 8254SOL     OW25660   5.147   4.388   6.880
 8254SOL    HW125661   5.241   4.399   6.911
 8254SOL    HW225662   5.086   4.442   6.938
 8255SOL     OW25663   1.564   6.575   5.599
 8255SOL    HW125664   1.619   6.497   5.629
 8255SOL    HW225665   1.581   6.592   5.502
 8256SOL     OW25666   1.457   5.962   2.703
 8256SOL    HW125667   1.381   5.935   2.760
 8256SOL    HW225668   1.541   5.967   2.758
 8257SOL     OW25669   4.566   4.521   3.852
 8257SOL    HW125670   4.513   4.492   3.773
 8257SOL    HW225671   4.661   4.489   3.842
 8258SOL     OW25672   0.725   3.299   4.499
 8258SOL    HW125673   0.709   3.354   4.417
 8258SOL    HW225674   0.802   3.237   4.484
 8259SOL     OW25675   5.740   2.938   4.031
 8259SOL    HW125676   5.659   2.960   4.086
 8259SOL    HW225677   5.718   2.865   3.967
 8260SOL     OW25678   4.710   2.186   6.347
 8260SOL    HW125679   4.757   2.110   6.392
 8260SOL    HW225680   4.754   2.204   6.259
 8261SOL     OW25681   5.707   2.702   2.812
 8261SOL    HW125682   5.735   2.608   2.792
 8261SOL    HW225683   5.611   2.703   2.841
 8262SOL     OW25684   5.083   3.932   2.105
 8262SOL    HW125685   5.019   3.900   2.035
 8262SOL    HW225686   5.036   3.996   2.165
 8263SOL     OW25687   6.419   1.863   6.673
 8263SOL    HW125688   6.475   1.844   6.753
 8263SOL    HW225689   6.466   1.829   6.591
 8264SOL     OW25690   3.321   0.955   1.662
 8264SOL    HW125691   3.223   0.940   1.671
 8264SOL    HW225692   3.370   0.877   1.702
 8265SOL     OW25693   4.685   5.417   0.457
 8265SOL    HW125694   4.783   5.435   0.443
 8265SOL    HW225695   4.632   5.485   0.406
 8266SOL     OW25696   4.912   2.340   3.334
 8266SOL    HW125697   4.913   2.271   3.406
 8266SOL    HW225698   4.826   2.334   3.284
 8267SOL     OW25699   2.020   3.130   3.326
 8267SOL    HW125700   2.104   3.076   3.316
 8267SOL    HW225701   2.032   3.219   3.283
 8268SOL     OW25702   2.732   5.453   1.772
 8268SOL    HW125703   2.807   5.386   1.777
 8268SOL    HW225704   2.729   5.506   1.857
 8269SOL     OW25705   6.818   1.269   3.974
 8269SOL    HW125706   6.748   1.297   3.908
 8269SOL    HW225707   6.907   1.303   3.944
 8270SOL     OW25708   4.181   4.557   0.624
 8270SOL    HW125709   4.233   4.472   0.616
 8270SOL    HW225710   4.208   4.619   0.552
 8271SOL     OW25711   2.928   6.871   5.252
 8271SOL    HW125712   2.833   6.879   5.222
 8271SOL    HW225713   2.934   6.891   5.350
 8272SOL     OW25714   0.687   0.868   1.999
 8272SOL    HW125715   0.736   0.832   2.079
 8272SOL    HW225716   0.670   0.966   2.012
 8273SOL     OW25717   5.229   6.909   5.911
 8273SOL    HW125718   5.188   6.823   5.941
 8273SOL    HW225719   5.256   6.963   5.991
 8274SOL     OW25720   5.190   0.233   4.281
 8274SOL    HW125721   5.107   0.244   4.336
 8274SOL    HW225722   5.190   0.143   4.239
 8275SOL     OW25723   4.451   0.881   4.392
 8275SOL    HW125724   4.363   0.922   4.370
 8275SOL    HW225725   4.497   0.854   4.307
 8276SOL     OW25726   6.111   2.856   0.976
 8276SOL    HW125727   6.059   2.772   0.956
 8276SOL    HW225728   6.192   2.859   0.917
 8277SOL     OW25729   1.354   6.821   1.834
 8277SOL    HW125730   1.443   6.864   1.828
 8277SOL    HW225731   1.357   6.746   1.900
 8278SOL     OW25732   1.346   0.470   1.139
 8278SOL    HW125733   1.333   0.373   1.118
 8278SOL    HW225734   1.410   0.480   1.215
 8279SOL     OW25735   6.344   4.911   5.851
 8279SOL    HW125736   6.277   4.847   5.888
 8279SOL    HW225737   6.295   4.985   5.803
 8280SOL     OW25738   6.924   4.196   6.781
 8280SOL    HW125739   6.850   4.172   6.845
 8280SOL    HW225740   6.946   4.293   6.791
 8281SOL     OW25741   3.171   4.724   6.968
 8281SOL    HW125742   3.142   4.712   6.874
 8281SOL    HW225743   3.094   4.708   0.006
 8282SOL     OW25744   4.180   2.831   0.616
 8282SOL    HW125745   4.119   2.893   0.566
 8282SOL    HW225746   4.159   2.836   0.714
 8283SOL     OW25747   0.406   1.183   3.335
 8283SOL    HW125748   0.324   1.175   3.391
 8283SOL    HW225749   0.486   1.158   3.389
 8284SOL     OW25750   5.002   2.374   1.167
 8284SOL    HW125751   4.914   2.391   1.212
 8284SOL    HW225752   5.060   2.320   1.228
 8285SOL     OW25753   0.501   4.745   0.036
 8285SOL    HW125754   0.597   4.771   0.047
 8285SOL    HW225755   0.472   4.693   0.117
 8286SOL     OW25756   6.498   1.903   6.331
 8286SOL    HW125757   6.450   1.968   6.390
 8286SOL    HW225758   6.469   1.810   6.353
 8287SOL     OW25759   6.980   0.968   3.176
 8287SOL    HW125760   0.048   1.008   3.167
 8287SOL    HW225761   6.939   0.957   3.086
 8288SOL     OW25762   2.687   6.818   2.251
 8288SOL    HW125763   2.620   6.767   2.197
 8288SOL    HW225764   2.779   6.795   2.220
 8289SOL     OW25765   6.265   6.973   0.130
 8289SOL    HW125766   6.316   6.952   0.213
 8289SOL    HW225767   6.275   0.047   0.108
 8290SOL     OW25768   4.708   2.796   1.746
 8290SOL    HW125769   4.768   2.737   1.798
 8290SOL    HW225770   4.685   2.877   1.800
 8291SOL     OW25771   5.367   5.631   5.489
 8291SOL    HW125772   5.318   5.555   5.448
 8291SOL    HW225773   5.447   5.597   5.538
 8292SOL     OW25774   6.723   3.750   5.547
 8292SOL    HW125775   6.644   3.794   5.504
 8292SOL    HW225776   6.733   3.657   5.511
 8293SOL     OW25777   2.714   5.734   4.243
 8293SOL    HW125778   2.638   5.772   4.297
 8293SOL    HW225779   2.800   5.753   4.288
 8294SOL     OW25780   6.695   3.767   5.997
 8294SOL    HW125781   6.753   3.743   5.919
 8294SOL    HW225782   6.736   3.843   6.047
 8295SOL     OW25783   4.004   4.685   1.489
 8295SOL    HW125784   4.037   4.706   1.397
 8295SOL    HW225785   4.080   4.688   1.554
 8296SOL     OW25786   3.198   0.515   1.956
 8296SOL    HW125787   3.264   0.442   1.939
 8296SOL    HW225788   3.112   0.494   1.908
 8297SOL     OW25789   6.030   4.305   1.736
 8297SOL    HW125790   5.933   4.300   1.713
 8297SOL    HW225791   6.040   4.321   1.835
 8298SOL     OW25792   6.933   6.881   0.653
 8298SOL    HW125793   6.983   6.968   0.655
 8298SOL    HW225794   6.856   6.888   0.589
 8299SOL     OW25795   1.103   2.248   6.700
 8299SOL    HW125796   1.025   2.296   6.740
 8299SOL    HW225797   1.183   2.258   6.760
 8300SOL     OW25798   4.829   6.094   3.639
 8300SOL    HW125799   4.904   6.030   3.656
 8300SOL    HW225800   4.744   6.057   3.675
 8301SOL     OW25801   6.436   5.529   0.465
 8301SOL    HW125802   6.339   5.550   0.454
 8301SOL    HW225803   6.471   5.579   0.544
 8302SOL     OW25804   3.502   6.359   5.421
 8302SOL    HW125805   3.448   6.311   5.352
 8302SOL    HW225806   3.567   6.421   5.376
 8303SOL     OW25807   0.810   4.991   3.805
 8303SOL    HW125808   0.721   4.992   3.760
 8303SOL    HW225809   0.816   4.913   3.867
 8304SOL     OW25810   5.510   2.651   3.562
 8304SOL    HW125811   5.549   2.697   3.641
 8304SOL    HW225812   5.459   2.717   3.507
 8305SOL     OW25813   4.552   6.260   4.976
 8305SOL    HW125814   4.628   6.321   4.998
 8305SOL    HW225815   4.493   6.304   4.908
 8306SOL     OW25816   4.788   1.414   4.168
 8306SOL    HW125817   4.768   1.349   4.241
 8306SOL    HW225818   4.787   1.507   4.205
 8307SOL     OW25819   0.006   4.972   4.108
 8307SOL    HW125820   0.048   5.011   4.190
 8307SOL    HW225821   6.979   5.044   4.059
 8308SOL     OW25822   1.889   5.374   0.630
 8308SOL    HW125823   1.969   5.344   0.577
 8308SOL    HW225824   1.827   5.297   0.643
 8309SOL     OW25825   5.829   5.320   2.526
 8309SOL    HW125826   5.887   5.239   2.525
 8309SOL    HW225827   5.826   5.360   2.435
 8310SOL     OW25828   1.499   6.158   3.020
 8310SOL    HW125829   1.505   6.218   3.099
 8310SOL    HW225830   1.480   6.212   2.938
 8311SOL     OW25831   4.555   6.227   1.800
 8311SOL    HW125832   4.539   6.275   1.713
 8311SOL    HW225833   4.623   6.277   1.854
 8312SOL     OW25834   6.352   0.750   0.428
 8312SOL    HW125835   6.436   0.775   0.476
 8312SOL    HW225836   6.306   0.833   0.396
 8313SOL     OW25837   4.909   2.391   5.926
 8313SOL    HW125838   4.995   2.410   5.879
 8313SOL    HW225839   4.832   2.418   5.867
 8314SOL     OW25840   4.938   5.720   4.548
 8314SOL    HW125841   4.960   5.816   4.533
 8314SOL    HW225842   5.019   5.664   4.534
 8315SOL     OW25843   3.433   1.635   0.663
 8315SOL    HW125844   3.393   1.547   0.637
 8315SOL    HW225845   3.459   1.685   0.580
 8316SOL     OW25846   1.688   1.461   4.813
 8316SOL    HW125847   1.612   1.438   4.874
 8316SOL    HW225848   1.673   1.553   4.776
 8317SOL     OW25849   1.976   1.830   6.375
 8317SOL    HW125850   1.934   1.919   6.396
 8317SOL    HW225851   1.905   1.762   6.362
 8318SOL     OW25852   4.372   6.323   5.395
 8318SOL    HW125853   4.420   6.274   5.468
 8318SOL    HW225854   4.364   6.264   5.314
 8319SOL     OW25855   2.811   5.818   6.354
 8319SOL    HW125856   2.908   5.805   6.335
 8319SOL    HW225857   2.771   5.732   6.386
 8320SOL     OW25858   3.994   4.913   5.380
 8320SOL    HW125859   3.930   4.924   5.456
 8320SOL    HW225860   4.088   4.919   5.414
 8321SOL     OW25861   0.256   0.582   0.960
 8321SOL    HW125862   0.348   0.544   0.948
 8321SOL    HW225863   0.249   0.625   1.050
 8322SOL     OW25864   2.193   0.528   1.402
 8322SOL    HW125865   2.290   0.504   1.393
 8322SOL    HW225866   2.143   0.497   1.322
 8323SOL     OW25867   5.948   5.169   6.675
 8323SOL    HW125868   5.996   5.243   6.629
 8323SOL    HW225869   5.984   5.158   6.768
 8324SOL     OW25870   5.770   6.410   6.139
 8324SOL    HW125871   5.821   6.326   6.159
 8324SOL    HW225872   5.699   6.422   6.208
 8325SOL     OW25873   1.627   6.306   4.630
 8325SOL    HW125874   1.664   6.254   4.708
 8325SOL    HW225875   1.661   6.266   4.545
 8326SOL     OW25876   2.447   1.487   6.917
 8326SOL    HW125877   2.465   1.585   6.911
 8326SOL    HW225878   2.364   1.472   6.972
 8327SOL     OW25879   0.563   5.429   5.273
 8327SOL    HW125880   0.617   5.345   5.271
 8327SOL    HW225881   0.621   5.507   5.249
 8328SOL     OW25882   1.115   0.491   0.305
 8328SOL    HW125883   1.023   0.465   0.274
 8328SOL    HW225884   1.135   0.585   0.276
 8329SOL     OW25885   1.777   2.346   5.247
 8329SOL    HW125886   1.818   2.436   5.239
 8329SOL    HW225887   1.677   2.354   5.254
 8330SOL     OW25888   3.055   6.932   0.077
 8330SOL    HW125889   3.153   6.933   0.098
 8330SOL    HW225890   3.042   6.907   7.004
 8331SOL     OW25891   2.140   2.288   6.121
 8331SOL    HW125892   2.189   2.204   6.142
 8331SOL    HW225893   2.125   2.340   6.205
 8332SOL     OW25894   5.517   3.886   0.715
 8332SOL    HW125895   5.448   3.907   0.783
 8332SOL    HW225896   5.589   3.830   0.756
 8333SOL     OW25897   2.625   4.756   6.490
 8333SOL    HW125898   2.657   4.806   6.410
 8333SOL    HW225899   2.636   4.658   6.474
 8334SOL     OW25900   3.410   2.521   5.358
 8334SOL    HW125901   3.360   2.470   5.288
 8334SOL    HW225902   3.414   2.466   5.442
 8335SOL     OW25903   5.653   3.219   6.295
 8335SOL    HW125904   5.565   3.174   6.282
 8335SOL    HW225905   5.646   3.315   6.266
 8336SOL     OW25906   1.226   4.703   3.935
 8336SOL    HW125907   1.318   4.740   3.915
 8336SOL    HW225908   1.178   4.766   3.996
 8337SOL     OW25909   6.097   0.478   4.135
 8337SOL    HW125910   6.109   0.414   4.059
 8337SOL    HW225911   6.129   0.569   4.109
 8338SOL     OW25912   2.767   5.647   1.590
 8338SOL    HW125913   2.755   5.573   1.656
 8338SOL    HW225914   2.724   5.622   1.503
 8339SOL     OW25915   6.652   0.512   2.007
 8339SOL    HW125916   6.563   0.552   2.030
 8339SOL    HW225917   6.675   0.441   2.073
 8340SOL     OW25918   6.091   2.466   6.348
 8340SOL    HW125919   6.120   2.411   6.426
 8340SOL    HW225920   6.040   2.546   6.381
 8341SOL     OW25921   3.462   0.102   1.029
 8341SOL    HW125922   3.392   0.162   1.068
 8341SOL    HW225923   3.529   0.078   1.100
 8342SOL     OW25924   4.134   1.107   1.136
 8342SOL    HW125925   4.128   1.007   1.142
 8342SOL    HW225926   4.056   1.141   1.084
 8343SOL     OW25927   4.673   5.961   2.904
 8343SOL    HW125928   4.647   6.057   2.916
 8343SOL    HW225929   4.767   5.956   2.870
 8344SOL     OW25930   2.066   4.364   5.754
 8344SOL    HW125931   2.165   4.355   5.746
 8344SOL    HW225932   2.035   4.446   5.706
 8345SOL     OW25933   6.364   0.351   4.343
 8345SOL    HW125934   6.343   0.308   4.256
 8345SOL    HW225935   6.333   0.446   4.342
 8346SOL     OW25936   6.144   4.152   3.340
 8346SOL    HW125937   6.102   4.068   3.374
 8346SOL    HW225938   6.147   4.220   3.414
 8347SOL     OW25939   1.396   1.615   6.331
 8347SOL    HW125940   1.441   1.537   6.288
 8347SOL    HW225941   1.464   1.671   6.378
 8348SOL     OW25942   3.482   5.974   1.061
 8348SOL    HW125943   3.560   5.984   0.999
 8348SOL    HW225944   3.514   5.984   1.155
 8349SOL     OW25945   4.282   5.386   1.476
 8349SOL    HW125946   4.228   5.451   1.423
 8349SOL    HW225947   4.321   5.432   1.556
 8350SOL     OW25948   2.262   0.632   6.574
 8350SOL    HW125949   2.204   0.604   6.651
 8350SOL    HW225950   2.347   0.581   6.575
 8351SOL     OW25951   6.744   2.968   3.168
 8351SOL    HW125952   6.695   3.051   3.193
 8351SOL    HW225953   6.822   2.955   3.230
 8352SOL     OW25954   2.671   6.553   6.243
 8352SOL    HW125955   2.743   6.622   6.250
 8352SOL    HW225956   2.702   6.468   6.286
 8353SOL     OW25957   0.579   5.509   2.679
 8353SOL    HW125958   0.602   5.576   2.608
 8353SOL    HW225959   0.481   5.493   2.679
 8354SOL     OW25960   4.641   2.395   3.653
 8354SOL    HW125961   4.733   2.408   3.692
 8354SOL    HW225962   4.600   2.312   3.692
 8355SOL     OW25963   3.271   4.927   6.222
 8355SOL    HW125964   3.186   4.933   6.274
 8355SOL    HW225965   3.289   4.831   6.199
 8356SOL     OW25966   2.995   3.263   1.344
 8356SOL    HW125967   3.042   3.239   1.259
 8356SOL    HW225968   2.896   3.252   1.332
 8357SOL     OW25969   2.827   6.902   4.567
 8357SOL    HW125970   2.818   6.846   4.485
 8357SOL    HW225971   2.784   6.991   4.552
 8358SOL     OW25972   7.022   0.057   4.481
 8358SOL    HW125973   6.961   0.135   4.475
 8358SOL    HW225974   0.005   0.011   4.393
 8359SOL     OW25975   5.101   2.008   5.167
 8359SOL    HW125976   5.187   1.958   5.153
 8359SOL    HW225977   5.093   2.034   5.264
 8360SOL     OW25978   2.883   0.491   2.061
 8360SOL    HW125979   2.954   0.507   2.129
 8360SOL    HW225980   2.926   0.470   1.973
 8361SOL     OW25981   4.921   0.898   0.123
 8361SOL    HW125982   4.932   0.986   0.168
 8361SOL    HW225983   5.008   0.848   0.125
 8362SOL     OW25984   0.837   4.413   1.562
 8362SOL    HW125985   0.843   4.492   1.622
 8362SOL    HW225986   0.879   4.334   1.606
 8363SOL     OW25987   2.304   1.928   1.146
 8363SOL    HW125988   2.313   1.995   1.220
 8363SOL    HW225989   2.273   1.841   1.183
 8364SOL     OW25990   0.225   1.182   3.554
 8364SOL    HW125991   0.152   1.246   3.530
 8364SOL    HW225992   0.267   1.211   3.640
 8365SOL     OW25993   2.114   3.030   0.960
 8365SOL    HW125994   2.148   2.937   0.971
 8365SOL    HW225995   2.164   3.092   1.020
 8366SOL     OW25996   5.405   5.809   1.755
 8366SOL    HW125997   5.475   5.772   1.693
 8366SOL    HW225998   5.317   5.811   1.709
 8367SOL     OW25999   1.729   4.406   3.575
 8367SOL    HW126000   1.730   4.468   3.496
 8367SOL    HW226001   1.823   4.378   3.596
 8368SOL     OW26002   0.507   3.676   6.330
 8368SOL    HW126003   0.412   3.656   6.306
 8368SOL    HW226004   0.509   3.739   6.408
 8369SOL     OW26005   0.928   0.110   0.325
 8369SOL    HW126006   1.003   0.148   0.380
 8369SOL    HW226007   0.879   0.042   0.379
 8370SOL     OW26008   2.992   2.772   0.612
 8370SOL    HW126009   3.028   2.700   0.553
 8370SOL    HW226010   2.896   2.789   0.590
 8371SOL     OW26011   2.933   4.374   5.562
 8371SOL    HW126012   2.929   4.473   5.576
 8371SOL    HW226013   3.001   4.354   5.491
 8372SOL     OW26014   1.609   6.837   2.436
 8372SOL    HW126015   1.651   6.872   2.520
 8372SOL    HW226016   1.534   6.897   2.410
 8373SOL     OW26017   5.379   0.823   4.141
 8373SOL    HW126018   5.320   0.778   4.074
 8373SOL    HW226019   5.439   0.755   4.184
 8374SOL     OW26020   0.890   1.716   3.227
 8374SOL    HW126021   0.988   1.698   3.232
 8374SOL    HW226022   0.863   1.777   3.301
 8375SOL     OW26023   1.851   2.684   5.824
 8375SOL    HW126024   1.762   2.649   5.854
 8375SOL    HW226025   1.866   2.659   5.729
 8376SOL     OW26026   0.308   1.442   3.735
 8376SOL    HW126027   0.280   1.489   3.651
 8376SOL    HW226028   0.316   1.509   3.809
 8377SOL     OW26029   3.116   5.258   1.177
 8377SOL    HW126030   3.183   5.267   1.251
 8377SOL    HW226031   3.121   5.338   1.117
 8378SOL     OW26032   4.330   5.594   4.898
 8378SOL    HW126033   4.319   5.671   4.961
 8378SOL    HW226034   4.313   5.509   4.946
 8379SOL     OW26035   5.562   2.732   2.018
 8379SOL    HW126036   5.644   2.754   1.965
 8379SOL    HW226037   5.487   2.794   1.991
 8380SOL     OW26038   1.708   5.557   2.967
 8380SOL    HW126039   1.669   5.475   2.925
 8380SOL    HW226040   1.639   5.629   2.971
 8381SOL     OW26041   1.460   2.043   2.731
 8381SOL    HW126042   1.555   2.026   2.706
 8381SOL    HW226043   1.453   2.131   2.778
 8382SOL     OW26044   1.083   6.970   1.754
 8382SOL    HW126045   1.042   0.029   1.714
 8382SOL    HW226046   1.179   6.964   1.727
 8383SOL     OW26047   2.534   0.128   4.936
 8383SOL    HW126048   2.549   0.211   4.881
 8383SOL    HW226049   2.620   0.100   4.978
 8384SOL     OW26050   0.144   3.298   3.644
 8384SOL    HW126051   0.145   3.320   3.547
 8384SOL    HW226052   0.219   3.235   3.665
 8385SOL     OW26053   4.493   2.475   2.185
 8385SOL    HW126054   4.435   2.456   2.264
 8385SOL    HW226055   4.578   2.518   2.215
 8386SOL     OW26056   6.956   5.132   1.722
 8386SOL    HW126057   0.018   5.088   1.692
 8386SOL    HW226058   6.909   5.170   1.643
 8387SOL     OW26059   0.460   1.938   3.462
 8387SOL    HW126060   0.390   1.930   3.391
 8387SOL    HW226061   0.483   2.034   3.476
 8388SOL     OW26062   3.866   5.656   1.716
 8388SOL    HW126063   3.933   5.627   1.784
 8388SOL    HW226064   3.912   5.701   1.640
 8389SOL     OW26065   1.702   2.559   4.520
 8389SOL    HW126066   1.651   2.561   4.434
 8389SOL    HW226067   1.738   2.651   4.539
 8390SOL     OW26068   2.323   0.328   6.210
 8390SOL    HW126069   2.241   0.271   6.216
 8390SOL    HW226070   2.299   0.423   6.228
 8391SOL     OW26071   4.737   6.044   0.724
 8391SOL    HW126072   4.778   6.134   0.708
 8391SOL    HW226073   4.759   6.013   0.816
 8392SOL     OW26074   4.084   5.173   0.148
 8392SOL    HW126075   3.993   5.131   0.145
 8392SOL    HW226076   4.153   5.103   0.164
 8393SOL     OW26077   1.513   6.130   1.686
 8393SOL    HW126078   1.605   6.157   1.715
 8393SOL    HW226079   1.482   6.191   1.613
 8394SOL     OW26080   1.616   1.293   3.685
 8394SOL    HW126081   1.549   1.229   3.724
 8394SOL    HW226082   1.688   1.310   3.751
 8395SOL     OW26083   2.343   5.933   6.401
 8395SOL    HW126084   2.293   5.977   6.476
 8395SOL    HW226085   2.304   5.842   6.385
 8396SOL     OW26086   4.372   2.441   0.946
 8396SOL    HW126087   4.300   2.457   0.878
 8396SOL    HW226088   4.458   2.477   0.911
 8397SOL     OW26089   1.025   4.493   3.380
 8397SOL    HW126090   1.050   4.397   3.394
 8397SOL    HW226091   1.091   4.536   3.320
 8398SOL     OW26092   5.297   1.528   0.100
 8398SOL    HW126093   5.315   1.431   0.082
 8398SOL    HW226094   5.205   1.552   0.067
 8399SOL     OW26095   5.681   6.441   5.316
 8399SOL    HW126096   5.687   6.529   5.364
 8399SOL    HW226097   5.585   6.420   5.298
 8400SOL     OW26098   6.309   6.328   3.683
 8400SOL    HW126099   6.401   6.347   3.651
 8400SOL    HW226100   6.250   6.407   3.664
 8401SOL     OW26101   2.870   3.569   5.130
 8401SOL    HW126102   2.949   3.507   5.127
 8401SOL    HW226103   2.884   3.642   5.063
 8402SOL     OW26104   5.006   0.948   5.462
 8402SOL    HW126105   4.936   0.877   5.460
 8402SOL    HW226106   5.095   0.907   5.475
 8403SOL     OW26107   0.819   2.352   6.068
 8403SOL    HW126108   0.862   2.439   6.089
 8403SOL    HW226109   0.847   2.284   6.136
 8404SOL     OW26110   4.667   4.879   5.544
 8404SOL    HW126111   4.750   4.933   5.555
 8404SOL    HW226112   4.633   4.851   5.634
 8405SOL     OW26113   1.239   2.981   5.763
 8405SOL    HW126114   1.247   2.990   5.862
 8405SOL    HW226115   1.173   2.910   5.740
 8406SOL     OW26116   5.797   3.659   1.402
 8406SOL    HW126117   5.814   3.697   1.492
 8406SOL    HW226118   5.730   3.715   1.353
 8407SOL     OW26119   4.876   3.675   2.637
 8407SOL    HW126120   4.851   3.742   2.567
 8407SOL    HW226121   4.837   3.704   2.725
 8408SOL     OW26122   4.773   4.164   4.074
 8408SOL    HW126123   4.777   4.070   4.109
 8408SOL    HW226124   4.743   4.225   4.147
 8409SOL     OW26125   1.912   1.944   4.117
 8409SOL    HW126126   1.852   1.865   4.127
 8409SOL    HW226127   1.902   1.982   4.025
 8410SOL     OW26128   2.149   5.242   2.489
 8410SOL    HW126129   2.221   5.281   2.546
 8410SOL    HW226130   2.188   5.172   2.429
 8411SOL     OW26131   1.553   3.222   3.126
 8411SOL    HW126132   1.561   3.155   3.200
 8411SOL    HW226133   1.457   3.228   3.098
 8412SOL     OW26134   5.981   2.705   2.019
 8412SOL    HW126135   5.957   2.788   1.968
 8412SOL    HW226136   5.915   2.633   1.998
 8413SOL     OW26137   2.219   5.124   1.404
 8413SOL    HW126138   2.282   5.155   1.333
 8413SOL    HW226139   2.225   5.025   1.414
 8414SOL     OW26140   5.473   0.583   3.926
 8414SOL    HW126141   5.537   0.544   3.861
 8414SOL    HW226142   5.435   0.511   3.984
 8415SOL     OW26143   0.310   4.909   0.972
 8415SOL    HW126144   0.277   5.003   0.980
 8415SOL    HW226145   0.393   4.899   1.028
 8416SOL     OW26146   4.777   4.655   2.806
 8416SOL    HW126147   4.711   4.727   2.827
 8416SOL    HW226148   4.766   4.626   2.711
 8417SOL     OW26149   1.108   5.290   0.130
 8417SOL    HW126150   1.048   5.361   0.167
 8417SOL    HW226151   1.203   5.313   0.151
 8418SOL     OW26152   5.375   5.478   2.709
 8418SOL    HW126153   5.384   5.567   2.664
 8418SOL    HW226154   5.442   5.414   2.670
 8419SOL     OW26155   3.785   1.045   3.695
 8419SOL    HW126156   3.883   1.056   3.712
 8419SOL    HW226157   3.752   0.965   3.743
 8420SOL     OW26158   4.770   1.697   5.164
 8420SOL    HW126159   4.741   1.746   5.246
 8420SOL    HW226160   4.828   1.620   5.190
 8421SOL     OW26161   0.744   1.056   0.754
 8421SOL    HW126162   0.739   1.139   0.697
 8421SOL    HW226163   0.805   0.990   0.710
 8422SOL     OW26164   2.506   0.416   1.831
 8422SOL    HW126165   2.554   0.338   1.871
 8422SOL    HW226166   2.407   0.401   1.836
 8423SOL     OW26167   2.357   4.457   0.908
 8423SOL    HW126168   2.370   4.466   1.006
 8423SOL    HW226169   2.289   4.386   0.889
 8424SOL     OW26170   3.002   2.367   1.627
 8424SOL    HW126171   3.000   2.370   1.727
 8424SOL    HW226172   3.088   2.326   1.597
 8425SOL     OW26173   0.650   4.240   6.100
 8425SOL    HW126174   0.711   4.238   6.020
 8425SOL    HW226175   0.623   4.146   6.123
 8426SOL     OW26176   3.682   3.254   2.580
 8426SOL    HW126177   3.737   3.308   2.516
 8426SOL    HW226178   3.661   3.165   2.540
 8427SOL     OW26179   2.435   1.767   6.951
 8427SOL    HW126180   2.441   1.850   6.896
 8427SOL    HW226181   2.510   1.765   7.017
 8428SOL     OW26182   6.407   3.845   0.434
 8428SOL    HW126183   6.444   3.923   0.483
 8428SOL    HW226184   6.459   3.763   0.458
 8429SOL     OW26185   1.289   6.751   2.868
 8429SOL    HW126186   1.277   6.821   2.798
 8429SOL    HW226187   1.296   6.794   2.958
 8430SOL     OW26188   3.943   5.891   2.606
 8430SOL    HW126189   3.947   5.987   2.576
 8430SOL    HW226190   4.036   5.856   2.616
 8431SOL     OW26191   2.868   3.402   2.585
 8431SOL    HW126192   2.885   3.480   2.647
 8431SOL    HW226193   2.788   3.351   2.618
 8432SOL     OW26194   4.872   6.274   0.063
 8432SOL    HW126195   4.841   6.326   0.142
 8432SOL    HW226196   4.827   6.185   0.061
 8433SOL     OW26197   6.822   0.994   3.954
 8433SOL    HW126198   6.815   1.093   3.963
 8433SOL    HW226199   6.734   0.952   3.977
 8434SOL     OW26200   5.716   6.743   6.770
 8434SOL    HW126201   5.762   6.656   6.753
 8434SOL    HW226202   5.779   6.818   6.751
 8435SOL     OW26203   4.695   2.830   1.081
 8435SOL    HW126204   4.610   2.778   1.072
 8435SOL    HW226205   4.768   2.768   1.108
 8436SOL     OW26206   3.056   4.313   1.696
 8436SOL    HW126207   2.995   4.362   1.759
 8436SOL    HW226208   3.097   4.377   1.632
 8437SOL     OW26209   6.986   2.568   1.442
 8437SOL    HW126210   0.007   2.488   1.403
 8437SOL    HW226211   6.887   2.560   1.432
 8438SOL     OW26212   2.297   5.703   1.103
 8438SOL    HW126213   2.392   5.723   1.079
 8438SOL    HW226214   2.282   5.721   1.200
 8439SOL     OW26215   5.682   0.395   1.814
 8439SOL    HW126216   5.709   0.398   1.718
 8439SOL    HW226217   5.582   0.387   1.819
 8440SOL     OW26218   1.176   3.201   4.216
 8440SOL    HW126219   1.229   3.228   4.135
 8440SOL    HW226220   1.124   3.118   4.195
 8441SOL     OW26221   4.137   5.882   1.208
 8441SOL    HW126222   4.191   5.921   1.283
 8441SOL    HW226223   4.065   5.947   1.182
 8442SOL     OW26224   2.165   2.305   1.069
 8442SOL    HW126225   2.253   2.269   1.102
 8442SOL    HW226226   2.161   2.295   0.969
 8443SOL     OW26227   0.268   2.228   1.316
 8443SOL    HW126228   0.342   2.166   1.342
 8443SOL    HW226229   0.294   2.276   1.232
 8444SOL     OW26230   5.250   1.821   3.435
 8444SOL    HW126231   5.224   1.746   3.373
 8444SOL    HW226232   5.219   1.908   3.397
 8445SOL     OW26233   4.812   5.453   2.337
 8445SOL    HW126234   4.749   5.525   2.366
 8445SOL    HW226235   4.892   5.453   2.398
 8446SOL     OW26236   6.587   3.603   3.059
 8446SOL    HW126237   6.644   3.685   3.050
 8446SOL    HW226238   6.643   3.522   3.045
 8447SOL     OW26239   4.776   4.420   1.465
 8447SOL    HW126240   4.748   4.513   1.490
 8447SOL    HW226241   4.767   4.360   1.545
 8448SOL     OW26242   2.094   4.115   5.597
 8448SOL    HW126243   2.083   4.196   5.654
 8448SOL    HW226244   2.118   4.037   5.655
 8449SOL     OW26245   1.076   0.320   5.058
 8449SOL    HW126246   1.034   0.280   4.977
 8449SOL    HW226247   1.019   0.396   5.091
 8450SOL     OW26248   1.708   5.174   0.675
 8450SOL    HW126249   1.774   5.105   0.643
 8450SOL    HW226250   1.664   5.142   0.758
 8451SOL     OW26251   3.041   4.289   0.920
 8451SOL    HW126252   3.022   4.191   0.922
 8451SOL    HW226253   2.955   4.340   0.927
 8452SOL     OW26254   0.018   6.034   1.842
 8452SOL    HW126255   7.007   5.951   1.887
 8452SOL    HW226256   7.005   6.115   1.888
 8453SOL     OW26257   0.098   4.896   5.174
 8453SOL    HW126258   0.148   4.830   5.229
 8453SOL    HW226259   0.159   4.937   5.106
 8454SOL     OW26260   2.163   0.191   4.752
 8454SOL    HW126261   2.215   0.108   4.734
 8454SOL    HW226262   2.080   0.191   4.697
 8455SOL     OW26263   6.437   2.939   0.595
 8455SOL    HW126264   6.528   2.900   0.592
 8455SOL    HW226265   6.441   3.032   0.632
 8456SOL     OW26266   5.537   5.055   3.550
 8456SOL    HW126267   5.593   4.974   3.563
 8456SOL    HW226268   5.546   5.116   3.629
 8457SOL     OW26269   6.110   6.099   6.168
 8457SOL    HW126270   6.141   6.168   6.103
 8457SOL    HW226271   6.111   6.009   6.124
 8458SOL     OW26272   1.347   1.823   0.979
 8458SOL    HW126273   1.351   1.809   1.078
 8458SOL    HW226274   1.425   1.778   0.935
 8459SOL     OW26275   2.617   5.113   3.351
 8459SOL    HW126276   2.663   5.039   3.302
 8459SOL    HW226277   2.685   5.178   3.385
 8460SOL     OW26278   3.540   1.328   1.633
 8460SOL    HW126279   3.505   1.377   1.553
 8460SOL    HW226280   3.638   1.343   1.642
 8461SOL     OW26281   5.405   4.155   3.261
 8461SOL    HW126282   5.443   4.150   3.168
 8461SOL    HW226283   5.468   4.109   3.325
 8462SOL     OW26284   1.718   3.689   0.757
 8462SOL    HW126285   1.690   3.730   0.843
 8462SOL    HW226286   1.740   3.592   0.772
 8463SOL     OW26287   0.302   6.898   1.296
 8463SOL    HW126288   0.316   6.818   1.353
 8463SOL    HW226289   0.373   6.902   1.226
 8464SOL     OW26290   0.311   3.146   6.480
 8464SOL    HW126291   0.238   3.169   6.416
 8464SOL    HW226292   0.316   3.215   6.552
 8465SOL     OW26293   5.437   4.789   0.953
 8465SOL    HW126294   5.381   4.814   1.032
 8465SOL    HW226295   5.384   4.730   0.892
 8466SOL     OW26296   0.339   1.382   5.043
 8466SOL    HW126297   0.285   1.444   4.987
 8466SOL    HW226298   0.436   1.406   5.035
 8467SOL     OW26299   3.155   1.219   0.276
 8467SOL    HW126300   3.184   1.308   0.240
 8467SOL    HW226301   3.079   1.232   0.339
 8468SOL     OW26302   5.868   4.039   0.817
 8468SOL    HW126303   5.796   4.016   0.751
 8468SOL    HW226304   5.926   3.960   0.832
 8469SOL     OW26305   3.627   2.895   5.094
 8469SOL    HW126306   3.693   2.902   5.019
 8469SOL    HW226307   3.536   2.915   5.059
 8470SOL     OW26308   1.874   5.324   1.348
 8470SOL    HW126309   1.848   5.291   1.257
 8470SOL    HW226310   1.796   5.314   1.410
 8471SOL     OW26311   4.293   1.454   3.765
 8471SOL    HW126312   4.223   1.516   3.801
 8471SOL    HW226313   4.265   1.419   3.676
 8472SOL     OW26314   5.710   1.808   6.577
 8472SOL    HW126315   5.646   1.877   6.612
 8472SOL    HW226316   5.662   1.722   6.562
 8473SOL     OW26317   4.958   4.706   5.743
 8473SOL    HW126318   4.902   4.641   5.795
 8473SOL    HW226319   4.974   4.669   5.652
 8474SOL     OW26320   3.431   3.139   5.827
 8474SOL    HW126321   3.420   3.045   5.860
 8474SOL    HW226322   3.524   3.170   5.845
 8475SOL     OW26323   0.688   2.186   2.645
 8475SOL    HW126324   0.656   2.101   2.686
 8475SOL    HW226325   0.766   2.221   2.698
 8476SOL     OW26326   6.429   0.866   2.479
 8476SOL    HW126327   6.528   0.859   2.470
 8476SOL    HW226328   6.392   0.917   2.401
 8477SOL     OW26329   5.593   6.997   1.121
 8477SOL    HW126330   5.660   0.040   1.086
 8477SOL    HW226331   5.518   6.988   1.056
 8478SOL     OW26332   1.507   6.975   6.763
 8478SOL    HW126333   1.557   6.916   6.699
 8478SOL    HW226334   1.420   6.932   6.786
 8479SOL     OW26335   1.196   2.784   0.105
 8479SOL    HW126336   1.286   2.745   0.129
 8479SOL    HW226337   1.124   2.719   0.130
 8480SOL     OW26338   3.062   4.578   1.467
 8480SOL    HW126339   3.109   4.649   1.414
 8480SOL    HW226340   3.066   4.491   1.418
 8481SOL     OW26341   4.972   3.383   2.571
 8481SOL    HW126342   4.934   3.475   2.571
 8481SOL    HW226343   5.070   3.387   2.550
 8482SOL     OW26344   4.995   0.426   5.893
 8482SOL    HW126345   4.940   0.493   5.944
 8482SOL    HW226346   4.962   0.422   5.799
 8483SOL     OW26347   4.174   5.186   3.080
 8483SOL    HW126348   4.248   5.169   3.016
 8483SOL    HW226349   4.190   5.272   3.128
 8484SOL     OW26350   6.664   6.693   5.155
 8484SOL    HW126351   6.607   6.771   5.132
 8484SOL    HW226352   6.638   6.614   5.100
 8485SOL     OW26353   3.987   0.564   5.780
 8485SOL    HW126354   3.931   0.646   5.776
 8485SOL    HW226355   4.024   0.553   5.872
 8486SOL     OW26356   4.701   2.421   4.141
 8486SOL    HW126357   4.658   2.465   4.219
 8486SOL    HW226358   4.643   2.345   4.109
 8487SOL     OW26359   6.816   2.061   6.252
 8487SOL    HW126360   6.796   1.971   6.291
 8487SOL    HW226361   6.802   2.057   6.153
 8488SOL     OW26362   4.070   4.740   2.953
 8488SOL    HW126363   4.045   4.703   2.864
 8488SOL    HW226364   4.012   4.819   2.975
 8489SOL     OW26365   6.565   2.120   2.199
 8489SOL    HW126366   6.605   2.163   2.119
 8489SOL    HW226367   6.593   2.170   2.281
 8490SOL     OW26368   3.373   6.569   0.503
 8490SOL    HW126369   3.434   6.548   0.580
 8490SOL    HW226370   3.426   6.578   0.419
 8491SOL     OW26371   3.411   5.940   2.465
 8491SOL    HW126372   3.352   5.859   2.457
 8491SOL    HW226373   3.507   5.912   2.462
 8492SOL     OW26374   5.521   6.523   4.032
 8492SOL    HW126375   5.529   6.590   3.958
 8492SOL    HW226376   5.558   6.435   4.001
 8493SOL     OW26377   5.196   0.528   5.406
 8493SOL    HW126378   5.233   0.492   5.321
 8493SOL    HW226379   5.176   0.452   5.468
 8494SOL     OW26380   0.289   3.438   2.238
 8494SOL    HW126381   0.328   3.430   2.147
 8494SOL    HW226382   0.341   3.382   2.303
 8495SOL     OW26383   5.427   6.046   5.448
 8495SOL    HW126384   5.514   5.999   5.431
 8495SOL    HW226385   5.444   6.144   5.458
 8496SOL     OW26386   4.330   2.038   2.737
 8496SOL    HW126387   4.335   1.979   2.818
 8496SOL    HW226388   4.416   2.031   2.685
 8497SOL     OW26389   6.052   0.755   3.265
 8497SOL    HW126390   6.087   0.830   3.210
 8497SOL    HW226391   6.125   0.688   3.280
 8498SOL     OW26392   4.672   6.442   3.987
 8498SOL    HW126393   4.698   6.476   4.077
 8498SOL    HW226394   4.720   6.356   3.969
 8499SOL     OW26395   6.019   6.979   5.391
 8499SOL    HW126396   6.106   6.962   5.344
 8499SOL    HW226397   5.955   6.905   5.371
 8500SOL     OW26398   1.245   0.575   6.507
 8500SOL    HW126399   1.340   0.543   6.496
 8500SOL    HW226400   1.200   0.575   6.418
 8501SOL     OW26401   3.635   1.117   5.401
 8501SOL    HW126402   3.721   1.068   5.392
 8501SOL    HW226403   3.560   1.052   5.412
 8502SOL     OW26404   6.916   2.873   0.042
 8502SOL    HW126405   6.847   2.879   0.114
 8502SOL    HW226406   7.003   2.909   0.077
 8503SOL     OW26407   4.678   1.764   5.558
 8503SOL    HW126408   4.700   1.669   5.538
 8503SOL    HW226409   4.748   1.802   5.619
 8504SOL     OW26410   1.068   0.335   3.383
 8504SOL    HW126411   1.031   0.303   3.470
 8504SOL    HW226412   1.018   0.417   3.354
 8505SOL     OW26413   5.915   2.313   2.251
 8505SOL    HW126414   5.929   2.307   2.349
 8505SOL    HW226415   5.988   2.369   2.210
 8506SOL     OW26416   1.955   0.808   5.222
 8506SOL    HW126417   1.980   0.899   5.256
 8506SOL    HW226418   1.900   0.761   5.290
 8507SOL     OW26419   4.396   4.821   6.019
 8507SOL    HW126420   4.484   4.870   6.020
 8507SOL    HW226421   4.353   4.828   6.109
 8508SOL     OW26422   3.840   0.388   6.445
 8508SOL    HW126423   3.842   0.453   6.521
 8508SOL    HW226424   3.871   0.434   6.362
 8509SOL     OW26425   4.638   2.199   2.392
 8509SOL    HW126426   4.724   2.193   2.341
 8509SOL    HW226427   4.640   2.280   2.450
 8510SOL     OW26428   0.956   2.035   4.960
 8510SOL    HW126429   0.930   1.948   5.003
 8510SOL    HW226430   0.930   2.033   4.864
 8511SOL     OW26431   5.595   2.137   4.245
 8511SOL    HW126432   5.612   2.138   4.343
 8511SOL    HW226433   5.512   2.085   4.225
 8512SOL     OW26434   1.928   6.425   5.954
 8512SOL    HW126435   1.880   6.397   6.037
 8512SOL    HW226436   1.905   6.520   5.933
 8513SOL     OW26437   4.360   5.265   6.840
 8513SOL    HW126438   4.332   5.356   6.808
 8513SOL    HW226439   4.363   5.264   6.940
 8514SOL     OW26440   3.644   6.034   4.538
 8514SOL    HW126441   3.703   5.974   4.484
 8514SOL    HW226442   3.695   6.069   4.616
 8515SOL     OW26443   5.378   3.118   1.353
 8515SOL    HW126444   5.340   3.122   1.445
 8515SOL    HW226445   5.446   3.190   1.341
 8516SOL     OW26446   0.006   1.774   1.379
 8516SOL    HW126447   0.046   1.694   1.334
 8516SOL    HW226448   6.967   1.744   1.452
 8517SOL     OW26449   1.290   3.926   4.421
 8517SOL    HW126450   1.230   4.005   4.432
 8517SOL    HW226451   1.236   3.847   4.392
 8518SOL     OW26452   3.245   5.998   0.920
 8518SOL    HW126453   3.211   6.092   0.921
 8518SOL    HW226454   3.335   5.995   0.964
 8519SOL     OW26455   2.798   5.597   3.563
 8519SOL    HW126456   2.781   5.580   3.661
 8519SOL    HW226457   2.870   5.535   3.531
 8520SOL     OW26458   3.683   6.019   6.536
 8520SOL    HW126459   3.731   5.948   6.588
 8520SOL    HW226460   3.740   6.049   6.460
 8521SOL     OW26461   1.330   0.746   2.486
 8521SOL    HW126462   1.429   0.744   2.475
 8521SOL    HW226463   1.306   0.736   2.582
 8522SOL     OW26464   1.907   6.452   4.389
 8522SOL    HW126465   1.831   6.513   4.367
 8522SOL    HW226466   1.993   6.501   4.378
 8523SOL     OW26467   1.694   5.895   0.100
 8523SOL    HW126468   1.777   5.945   0.124
 8523SOL    HW226469   1.657   5.930   0.014
 8524SOL     OW26470   1.705   1.485   0.248
 8524SOL    HW126471   1.729   1.396   0.211
 8524SOL    HW226472   1.768   1.555   0.212
 8525SOL     OW26473   5.504   4.576   4.083
 8525SOL    HW126474   5.483   4.672   4.099
 8525SOL    HW226475   5.569   4.567   4.007
 8526SOL     OW26476   0.933   3.571   2.169
 8526SOL    HW126477   0.897   3.629   2.243
 8526SOL    HW226478   0.924   3.620   2.082
 8527SOL     OW26479   4.798   0.507   4.610
 8527SOL    HW126480   4.885   0.535   4.650
 8527SOL    HW226481   4.739   0.588   4.599
 8528SOL     OW26482   5.396   0.479   0.545
 8528SOL    HW126483   5.489   0.465   0.580
 8528SOL    HW226484   5.331   0.474   0.620
 8529SOL     OW26485   6.997   6.849   4.835
 8529SOL    HW126486   6.914   6.872   4.886
 8529SOL    HW226487   0.052   6.897   4.876
 8530SOL     OW26488   2.063   4.364   6.062
 8530SOL    HW126489   2.161   4.380   6.050
 8530SOL    HW226490   2.012   4.445   6.034
 8531SOL     OW26491   4.036   5.543   2.233
 8531SOL    HW126492   3.999   5.552   2.325
 8531SOL    HW226493   3.961   5.535   2.167
 8532SOL     OW26494   1.545   4.316   6.877
 8532SOL    HW126495   1.614   4.306   6.949
 8532SOL    HW226496   1.571   4.260   6.798
 8533SOL     OW26497   2.985   6.689   5.504
 8533SOL    HW126498   3.011   6.675   5.599
 8533SOL    HW226499   2.890   6.720   5.499
 8534SOL     OW26500   2.349   1.952   0.505
 8534SOL    HW126501   2.346   2.011   0.585
 8534SOL    HW226502   2.324   1.858   0.530
 8535SOL     OW26503   0.466   3.318   6.067
 8535SOL    HW126504   0.488   3.416   6.072
 8535SOL    HW226505   0.369   3.307   6.048
 8536SOL     OW26506   6.500   0.541   5.816
 8536SOL    HW126507   6.599   0.535   5.826
 8536SOL    HW226508   6.477   0.541   5.719
 8537SOL     OW26509   3.913   6.438   3.037
 8537SOL    HW126510   3.930   6.405   3.130
 8537SOL    HW226511   3.814   6.448   3.022
 8538SOL     OW26512   4.348   0.909   5.239
 8538SOL    HW126513   4.328   0.984   5.176
 8538SOL    HW226514   4.296   0.828   5.212
 8539SOL     OW26515   0.607   3.175   3.570
 8539SOL    HW126516   0.539   3.170   3.643
 8539SOL    HW226517   0.699   3.179   3.610
 8540SOL     OW26518   4.950   6.247   6.115
 8540SOL    HW126519   4.967   6.149   6.109
 8540SOL    HW226520   4.992   6.293   6.037
 8541SOL     OW26521   2.930   6.188   5.539
 8541SOL    HW126522   2.851   6.167   5.482
 8541SOL    HW226523   2.958   6.106   5.589
 8542SOL     OW26524   1.925   4.648   6.041
 8542SOL    HW126525   1.937   4.638   6.139
 8542SOL    HW226526   1.968   4.733   6.010
 8543SOL     OW26527   3.450   1.827   5.725
 8543SOL    HW126528   3.408   1.767   5.657
 8543SOL    HW226529   3.436   1.923   5.699
 8544SOL     OW26530   5.458   3.490   5.293
 8544SOL    HW126531   5.555   3.476   5.277
 8544SOL    HW226532   5.417   3.531   5.211
 8545SOL     OW26533   2.168   0.319   5.866
 8545SOL    HW126534   2.265   0.322   5.892
 8545SOL    HW226535   2.160   0.331   5.767
 8546SOL     OW26536   2.933   1.433   3.817
 8546SOL    HW126537   2.990   1.405   3.894
 8546SOL    HW226538   2.838   1.406   3.834
 8547SOL     OW26539   5.652   5.304   5.420
 8547SOL    HW126540   5.612   5.272   5.506
 8547SOL    HW226541   5.673   5.227   5.361
 8548SOL     OW26542   1.489   4.164   3.954
 8548SOL    HW126543   1.469   4.068   3.969
 8548SOL    HW226544   1.550   4.173   3.876
 8549SOL     OW26545   3.178   0.722   3.681
 8549SOL    HW126546   3.243   0.658   3.640
 8549SOL    HW226547   3.183   0.809   3.633
 8550SOL     OW26548   0.461   3.680   4.982
 8550SOL    HW126549   0.532   3.666   4.912
 8550SOL    HW226550   0.422   3.771   4.972
 8551SOL     OW26551   3.855   1.621   3.728
 8551SOL    HW126552   3.761   1.608   3.697
 8551SOL    HW226553   3.863   1.710   3.773
 8552SOL     OW26554   4.300   1.598   2.075
 8552SOL    HW126555   4.229   1.616   2.007
 8552SOL    HW226556   4.379   1.656   2.056
 8553SOL     OW26557   5.078   3.807   0.363
 8553SOL    HW126558   5.163   3.791   0.312
 8553SOL    HW226559   5.026   3.722   0.369
 8554SOL     OW26560   1.158   1.418   6.733
 8554SOL    HW126561   1.252   1.413   6.766
 8554SOL    HW226562   1.156   1.451   6.639
 8555SOL     OW26563   3.591   1.782   3.503
 8555SOL    HW126564   3.609   1.766   3.406
 8555SOL    HW226565   3.601   1.697   3.554
 8556SOL     OW26566   0.347   4.321   5.137
 8556SOL    HW126567   0.261   4.366   5.114
 8556SOL    HW226568   0.361   4.323   5.236
 8557SOL     OW26569   6.352   0.995   0.664
 8557SOL    HW126570   6.346   1.069   0.597
 8557SOL    HW226571   6.428   0.935   0.640
 8558SOL     OW26572   2.798   6.296   3.512
 8558SOL    HW126573   2.823   6.226   3.578
 8558SOL    HW226574   2.871   6.365   3.507
 8559SOL     OW26575   1.072   3.396   3.564
 8559SOL    HW126576   1.159   3.443   3.583
 8559SOL    HW226577   1.009   3.460   3.518
 8560SOL     OW26578   3.463   4.242   1.511
 8560SOL    HW126579   3.498   4.150   1.496
 8560SOL    HW226580   3.424   4.248   1.602
 8561SOL     OW26581   4.068   1.031   2.348
 8561SOL    HW126582   4.109   0.993   2.431
 8561SOL    HW226583   4.082   0.967   2.272
 8562SOL     OW26584   5.170   2.653   6.693
 8562SOL    HW126585   5.133   2.744   6.708
 8562SOL    HW226586   5.259   2.661   6.648
 8563SOL     OW26587   0.823   4.454   2.692
 8563SOL    HW126588   0.859   4.534   2.740
 8563SOL    HW226589   0.852   4.371   2.739
 8564SOL     OW26590   4.336   6.155   6.934
 8564SOL    HW126591   4.288   6.187   6.851
 8564SOL    HW226592   4.395   6.078   6.910
 8565SOL     OW26593   1.393   5.090   1.512
 8565SOL    HW126594   1.411   5.167   1.451
 8565SOL    HW226595   1.302   5.101   1.552
 8566SOL     OW26596   2.710   1.106   3.421
 8566SOL    HW126597   2.729   1.164   3.500
 8566SOL    HW226598   2.612   1.109   3.402
 8567SOL     OW26599   1.692   2.997   0.967
 8567SOL    HW126600   1.632   2.936   0.917
 8567SOL    HW226601   1.720   3.072   0.907
 8568SOL     OW26602   5.589   6.539   5.703
 8568SOL    HW126603   5.602   6.633   5.734
 8568SOL    HW226604   5.669   6.484   5.727
 8569SOL     OW26605   5.209   1.294   6.325
 8569SOL    HW126606   5.133   1.344   6.368
 8569SOL    HW226607   5.193   1.288   6.226
 8570SOL     OW26608   1.847   2.076   3.885
 8570SOL    HW126609   1.797   2.163   3.880
 8570SOL    HW226610   1.821   2.018   3.807
 8571SOL     OW26611   1.127   1.266   3.766
 8571SOL    HW126612   1.062   1.196   3.738
 8571SOL    HW226613   1.210   1.223   3.801
 8572SOL     OW26614   2.733   3.629   5.854
 8572SOL    HW126615   2.676   3.687   5.795
 8572SOL    HW226616   2.813   3.598   5.802
 8573SOL     OW26617   1.726   6.026   6.612
 8573SOL    HW126618   1.745   5.932   6.639
 8573SOL    HW226619   1.710   6.030   6.513
 8574SOL     OW26620   5.588   1.996   5.783
 8574SOL    HW126621   5.680   1.959   5.798
 8574SOL    HW226622   5.568   2.064   5.854
 8575SOL     OW26623   2.752   6.333   4.539
 8575SOL    HW126624   2.760   6.416   4.483
 8575SOL    HW226625   2.691   6.350   4.616
 8576SOL     OW26626   1.520   3.770   4.948
 8576SOL    HW126627   1.452   3.760   5.021
 8576SOL    HW226628   1.502   3.854   4.897
 8577SOL     OW26629   1.721   0.964   0.527
 8577SOL    HW126630   1.772   1.045   0.555
 8577SOL    HW226631   1.704   0.907   0.607
 8578SOL     OW26632   1.244   0.086   5.615
 8578SOL    HW126633   1.259   0.054   5.522
 8578SOL    HW226634   1.158   0.049   5.650
 8579SOL     OW26635   3.461   6.891   2.030
 8579SOL    HW126636   3.441   6.883   2.128
 8579SOL    HW226637   3.501   6.806   1.997
 8580SOL     OW26638   1.593   0.782   1.784
 8580SOL    HW126639   1.573   0.762   1.879
 8580SOL    HW226640   1.613   0.697   1.735
 8581SOL     OW26641   3.889   3.650   3.501
 8581SOL    HW126642   3.883   3.741   3.458
 8581SOL    HW226643   3.985   3.623   3.508
 8582SOL     OW26644   4.544   5.356   5.551
 8582SOL    HW126645   4.520   5.434   5.494
 8582SOL    HW226646   4.619   5.381   5.612
 8583SOL     OW26647   3.520   0.094   2.830
 8583SOL    HW126648   3.559   0.173   2.879
 8583SOL    HW226649   3.463   0.041   2.893
 8584SOL     OW26650   5.784   2.380   5.332
 8584SOL    HW126651   5.746   2.466   5.365
 8584SOL    HW226652   5.727   2.304   5.364
 8585SOL     OW26653   4.876   2.233   2.673
 8585SOL    HW126654   4.866   2.172   2.752
 8585SOL    HW226655   4.872   2.328   2.703
 8586SOL     OW26656   6.917   6.486   5.324
 8586SOL    HW126657   6.935   6.573   5.278
 8586SOL    HW226658   6.929   6.497   5.423
 8587SOL     OW26659   6.867   0.660   0.955
 8587SOL    HW126660   6.891   0.712   0.873
 8587SOL    HW226661   6.771   0.678   0.979
 8588SOL     OW26662   1.330   1.263   5.580
 8588SOL    HW126663   1.363   1.263   5.675
 8588SOL    HW226664   1.238   1.301   5.577
 8589SOL     OW26665   5.699   2.990   6.614
 8589SOL    HW126666   5.665   2.956   6.702
 8589SOL    HW226667   5.680   3.088   6.606
 8590SOL     OW26668   0.961   0.584   3.388
 8590SOL    HW126669   0.882   0.640   3.414
 8590SOL    HW226670   1.041   0.642   3.377
 8591SOL     OW26671   1.166   4.084   5.503
 8591SOL    HW126672   1.132   4.119   5.590
 8591SOL    HW226673   1.214   3.998   5.518
 8592SOL     OW26674   0.460   2.300   5.178
 8592SOL    HW126675   0.431   2.336   5.089
 8592SOL    HW226676   0.537   2.355   5.212
 8593SOL     OW26677   6.542   1.329   0.125
 8593SOL    HW126678   6.642   1.325   0.128
 8593SOL    HW226679   6.507   1.250   0.075
 8594SOL     OW26680   5.961   4.009   6.648
 8594SOL    HW126681   5.928   4.071   6.719
 8594SOL    HW226682   5.884   3.964   6.604
 8595SOL     OW26683   5.458   6.432   2.530
 8595SOL    HW126684   5.525   6.383   2.475
 8595SOL    HW226685   5.497   6.452   2.620
 8596SOL     OW26686   0.425   2.355   6.145
 8596SOL    HW126687   0.474   2.278   6.185
 8596SOL    HW226688   0.468   2.441   6.172
 8597SOL     OW26689   6.113   2.247   5.627
 8597SOL    HW126690   6.054   2.169   5.604
 8597SOL    HW226691   6.102   2.318   5.558
 8598SOL     OW26692   6.973   0.688   6.028
 8598SOL    HW126693   6.984   0.631   5.947
 8598SOL    HW226694   6.954   0.782   6.000
 8599SOL     OW26695   5.334   4.081   4.893
 8599SOL    HW126696   5.324   4.088   4.794
 8599SOL    HW226697   5.283   4.155   4.938
 8600SOL     OW26698   4.175   2.933   1.706
 8600SOL    HW126699   4.265   2.977   1.700
 8600SOL    HW226700   4.183   2.836   1.682
 8601SOL     OW26701   4.583   5.303   2.263
 8601SOL    HW126702   4.579   5.334   2.168
 8601SOL    HW226703   4.657   5.350   2.310
 8602SOL     OW26704   2.060   6.003   4.844
 8602SOL    HW126705   2.045   6.057   4.927
 8602SOL    HW226706   2.150   6.024   4.807
 8603SOL     OW26707   1.028   1.428   6.968
 8603SOL    HW126708   1.102   1.406   0.009
 8603SOL    HW226709   1.067   1.441   6.877
 8604SOL     OW26710   1.572   5.476   6.168
 8604SOL    HW126711   1.671   5.490   6.157
 8604SOL    HW226712   1.537   5.544   6.233
 8605SOL     OW26713   6.768   4.695   4.066
 8605SOL    HW126714   6.690   4.632   4.069
 8605SOL    HW226715   6.742   4.782   4.108
 8606SOL     OW26716   1.129   0.104   6.527
 8606SOL    HW126717   1.091   0.174   6.467
 8606SOL    HW226718   1.175   0.147   6.605
 8607SOL     OW26719   2.775   3.015   1.480
 8607SOL    HW126720   2.758   2.916   1.472
 8607SOL    HW226721   2.867   3.030   1.517
 8608SOL     OW26722   2.283   5.601   1.862
 8608SOL    HW126723   2.302   5.664   1.787
 8608SOL    HW226724   2.219   5.531   1.832
 8609SOL     OW26725   5.089   2.337   4.617
 8609SOL    HW126726   5.009   2.353   4.560
 8609SOL    HW226727   5.130   2.249   4.592
 8610SOL     OW26728   6.671   5.354   2.443
 8610SOL    HW126729   6.664   5.453   2.437
 8610SOL    HW226730   6.606   5.312   2.380
 8611SOL     OW26731   1.909   1.314   5.503
 8611SOL    HW126732   1.851   1.391   5.475
 8611SOL    HW226733   1.946   1.268   5.422
 8612SOL     OW26734   3.219   3.230   5.638
 8612SOL    HW126735   3.141   3.268   5.689
 8612SOL    HW226736   3.281   3.186   5.703
 8613SOL     OW26737   2.914   3.310   3.191
 8613SOL    HW126738   2.936   3.238   3.256
 8613SOL    HW226739   2.913   3.272   3.099
 8614SOL     OW26740   0.492   2.530   3.959
 8614SOL    HW126741   0.460   2.530   4.054
 8614SOL    HW226742   0.585   2.567   3.955
 8615SOL     OW26743   3.742   0.824   5.537
 8615SOL    HW126744   3.653   0.782   5.520
 8615SOL    HW226745   3.801   0.809   5.458
 8616SOL     OW26746   5.970   4.013   5.303
 8616SOL    HW126747   5.890   4.071   5.316
 8616SOL    HW226748   6.021   4.006   5.389
 8617SOL     OW26749   0.923   0.058   3.192
 8617SOL    HW126750   0.990   7.022   3.147
 8617SOL    HW226751   0.895   0.131   3.130
 8618SOL     OW26752   6.326   4.881   0.828
 8618SOL    HW126753   6.396   4.819   0.793
 8618SOL    HW226754   6.253   4.891   0.761
 8619SOL     OW26755   5.362   5.717   6.286
 8619SOL    HW126756   5.301   5.643   6.312
 8619SOL    HW226757   5.364   5.725   6.186
 8620SOL     OW26758   1.545   6.528   4.065
 8620SOL    HW126759   1.518   6.623   4.046
 8620SOL    HW226760   1.487   6.466   4.012
 8621SOL     OW26761   6.336   3.504   1.326
 8621SOL    HW126762   6.336   3.457   1.238
 8621SOL    HW226763   6.311   3.440   1.399
 8622SOL     OW26764   1.114   5.552   1.403
 8622SOL    HW126765   1.076   5.643   1.386
 8622SOL    HW226766   1.096   5.493   1.324
 8623SOL     OW26767   2.195   1.907   3.165
 8623SOL    HW126768   2.165   1.911   3.260
 8623SOL    HW226769   2.288   1.871   3.160
 8624SOL     OW26770   3.350   3.555   5.529
 8624SOL    HW126771   3.272   3.608   5.495
 8624SOL    HW226772   3.337   3.534   5.626
 8625SOL     OW26773   4.300   3.214   6.057
 8625SOL    HW126774   4.375   3.190   5.995
 8625SOL    HW226775   4.262   3.130   6.097
 8626SOL     OW26776   5.272   2.084   1.156
 8626SOL    HW126777   5.226   2.127   1.234
 8626SOL    HW226778   5.369   2.109   1.157
 8627SOL     OW26779   0.231   6.937   2.533
 8627SOL    HW126780   0.251   6.893   2.446
 8627SOL    HW226781   0.149   6.994   2.524
 8628SOL     OW26782   1.461   6.838   0.713
 8628SOL    HW126783   1.383   6.896   0.737
 8628SOL    HW226784   1.478   6.772   0.786
 8629SOL     OW26785   7.008   0.511   4.425
 8629SOL    HW126786   7.012   0.599   4.376
 8629SOL    HW226787   0.067   0.500   4.480
 8630SOL     OW26788   4.902   3.233   1.344
 8630SOL    HW126789   4.842   3.168   1.297
 8630SOL    HW226790   4.937   3.300   1.278
 8631SOL     OW26791   1.552   6.049   6.901
 8631SOL    HW126792   1.592   6.009   6.818
 8631SOL    HW226793   1.506   6.134   6.877
 8632SOL     OW26794   6.248   5.948   4.055
 8632SOL    HW126795   6.335   5.900   4.064
 8632SOL    HW226796   6.264   6.042   4.026
 8633SOL     OW26797   6.693   3.444   5.247
 8633SOL    HW126798   6.642   3.365   5.281
 8633SOL    HW226799   6.629   3.516   5.220
 8634SOL     OW26800   4.999   4.614   6.084
 8634SOL    HW126801   4.989   4.589   6.181
 8634SOL    HW226802   4.971   4.709   6.071
 8635SOL     OW26803   5.203   1.820   5.899
 8635SOL    HW126804   5.268   1.763   5.848
 8635SOL    HW226805   5.245   1.908   5.919
 8636SOL     OW26806   3.940   5.989   0.727
 8636SOL    HW126807   4.018   5.981   0.790
 8636SOL    HW226808   3.962   6.054   0.655
 8637SOL     OW26809   2.837   2.280   0.950
 8637SOL    HW126810   2.867   2.375   0.957
 8637SOL    HW226811   2.848   2.234   1.038
 8638SOL     OW26812   5.172   2.728   4.539
 8638SOL    HW126813   5.212   2.803   4.591
 8638SOL    HW226814   5.128   2.764   4.457
 8639SOL     OW26815   3.537   4.066   0.178
 8639SOL    HW126816   3.632   4.086   0.157
 8639SOL    HW226817   3.530   4.028   0.270
 8640SOL     OW26818   3.213   2.181   6.798
 8640SOL    HW126819   3.294   2.238   6.784
 8640SOL    HW226820   3.171   2.160   6.709
 8641SOL     OW26821   3.559   5.037   3.484
 8641SOL    HW126822   3.537   5.019   3.388
 8641SOL    HW226823   3.618   4.963   3.518
 8642SOL     OW26824   2.318   6.376   3.209
 8642SOL    HW126825   2.341   6.295   3.263
 8642SOL    HW226826   2.401   6.426   3.186
 8643SOL     OW26827   3.777   6.272   1.124
 8643SOL    HW126828   3.855   6.335   1.121
 8643SOL    HW226829   3.736   6.266   1.033
 8644SOL     OW26830   5.486   2.527   6.283
 8644SOL    HW126831   5.485   2.442   6.335
 8644SOL    HW226832   5.578   2.565   6.282
 8645SOL     OW26833   4.740   5.347   2.958
 8645SOL    HW126834   4.789   5.314   3.038
 8645SOL    HW226835   4.744   5.277   2.886
 8646SOL     OW26836   0.006   1.829   4.505
 8646SOL    HW126837   6.943   1.793   4.541
 8646SOL    HW226838   7.020   1.847   4.407
 8647SOL     OW26839   1.987   4.575   1.778
 8647SOL    HW126840   1.973   4.583   1.877
 8647SOL    HW226841   2.058   4.639   1.749
 8648SOL     OW26842   5.355   5.330   6.195
 8648SOL    HW126843   5.318   5.245   6.233
 8648SOL    HW226844   5.453   5.335   6.214
 8649SOL     OW26845   5.444   2.356   1.838
 8649SOL    HW126846   5.410   2.425   1.775
 8649SOL    HW226847   5.455   2.269   1.790
 8650SOL     OW26848   1.339   0.804   4.901
 8650SOL    HW126849   1.259   0.791   4.959
 8650SOL    HW226850   1.396   0.877   4.939
 8651SOL     OW26851   4.500   2.207   1.814
 8651SOL    HW126852   4.535   2.231   1.904
 8651SOL    HW226853   4.443   2.125   1.821
 8652SOL     OW26854   6.507   2.651   4.462
 8652SOL    HW126855   6.595   2.606   4.444
 8652SOL    HW226856   6.456   2.659   4.377
 8653SOL     OW26857   5.414   0.608   0.810
 8653SOL    HW126858   5.406   0.669   0.890
 8653SOL    HW226859   5.348   0.534   0.819
 8654SOL     OW26860   0.064   4.612   2.536
 8654SOL    HW126861   6.992   4.601   2.510
 8654SOL    HW226862   0.072   4.684   2.605
 8655SOL     OW26863   1.202   6.877   4.872
 8655SOL    HW126864   1.129   6.937   4.840
 8655SOL    HW226865   1.282   6.887   4.812
 8656SOL     OW26866   4.150   5.922   0.913
 8656SOL    HW126867   4.144   5.924   1.013
 8656SOL    HW226868   4.241   5.894   0.885
 8657SOL     OW26869   3.175   1.732   2.570
 8657SOL    HW126870   3.090   1.760   2.526
 8657SOL    HW226871   3.244   1.712   2.500
 8658SOL     OW26872   6.470   4.046   0.606
 8658SOL    HW126873   6.474   4.023   0.703
 8658SOL    HW226874   6.465   4.145   0.595
 8659SOL     OW26875   3.349   0.352   3.209
 8659SOL    HW126876   3.389   0.442   3.191
 8659SOL    HW226877   3.406   0.302   3.274
 8660SOL     OW26878   0.046   4.139   1.516
 8660SOL    HW126879   0.133   4.094   1.496
 8660SOL    HW226880   7.014   4.081   1.575
 8661SOL     OW26881   6.065   3.386   2.065
 8661SOL    HW126882   5.982   3.335   2.087
 8661SOL    HW226883   6.144   3.324   2.068
 8662SOL     OW26884   1.827   2.484   2.935
 8662SOL    HW126885   1.922   2.506   2.916
 8662SOL    HW226886   1.769   2.560   2.907
 8663SOL     OW26887   3.313   4.916   2.754
 8663SOL    HW126888   3.291   4.902   2.657
 8663SOL    HW226889   3.240   4.876   2.810
 8664SOL     OW26890   3.301   5.977   3.958
 8664SOL    HW126891   3.379   6.011   3.906
 8664SOL    HW226892   3.256   5.905   3.906
 8665SOL     OW26893   0.241   3.471   6.414
 8665SOL    HW126894   0.308   3.420   6.468
 8665SOL    HW226895   0.202   3.545   6.469
 8666SOL     OW26896   4.676   0.168   2.634
 8666SOL    HW126897   4.751   0.107   2.657
 8666SOL    HW226898   4.697   0.215   2.548
 8667SOL     OW26899   5.003   2.418   2.099
 8667SOL    HW126900   4.999   2.517   2.083
 8667SOL    HW226901   5.013   2.371   2.011
 8668SOL     OW26902   3.750   2.137   3.282
 8668SOL    HW126903   3.660   2.174   3.306
 8668SOL    HW226904   3.769   2.057   3.339
 8669SOL     OW26905   0.519   6.123   5.761
 8669SOL    HW126906   0.524   6.023   5.769
 8669SOL    HW226907   0.439   6.156   5.810
 8670SOL     OW26908   0.365   5.524   5.097
 8670SOL    HW126909   0.396   5.520   5.002
 8670SOL    HW226910   0.432   5.479   5.155
 8671SOL     OW26911   0.027   3.320   4.013
 8671SOL    HW126912   0.106   3.377   3.991
 8671SOL    HW226913   0.004   3.263   3.935
 8672SOL     OW26914   6.310   1.295   2.458
 8672SOL    HW126915   6.226   1.242   2.470
 8672SOL    HW226916   6.347   1.321   2.548
 8673SOL     OW26917   0.610   1.377   1.330
 8673SOL    HW126918   0.590   1.279   1.325
 8673SOL    HW226919   0.597   1.409   1.423
 8674SOL     OW26920   0.022   3.665   3.978
 8674SOL    HW126921   0.031   3.749   3.924
 8674SOL    HW226922   0.103   3.608   3.964
 8675SOL     OW26923   4.931   2.708   5.091
 8675SOL    HW126924   4.940   2.613   5.121
 8675SOL    HW226925   4.843   2.744   5.121
 8676SOL     OW26926   4.539   2.634   0.598
 8676SOL    HW126927   4.529   2.732   0.618
 8676SOL    HW226928   4.581   2.589   0.677
 8677SOL     OW26929   3.232   0.712   6.960
 8677SOL    HW126930   3.282   0.745   0.017
 8677SOL    HW226931   3.135   0.700   6.984
 8678SOL     OW26932   3.451   1.800   0.443
 8678SOL    HW126933   3.371   1.849   0.476
 8678SOL    HW226934   3.526   1.865   0.429
 8679SOL     OW26935   1.760   2.066   6.722
 8679SOL    HW126936   1.848   2.113   6.725
 8679SOL    HW226937   1.698   2.105   6.790
 8680SOL     OW26938   7.017   0.340   1.294
 8680SOL    HW126939   0.003   0.378   1.202
 8680SOL    HW226940   6.935   0.283   1.298
 8681SOL     OW26941   5.513   5.687   0.966
 8681SOL    HW126942   5.470   5.606   0.925
 8681SOL    HW226943   5.464   5.769   0.938
 8682SOL     OW26944   1.594   1.521   2.656
 8682SOL    HW126945   1.507   1.473   2.644
 8682SOL    HW226946   1.604   1.588   2.583
 8683SOL     OW26947   2.390   4.378   4.020
 8683SOL    HW126948   2.329   4.349   3.946
 8683SOL    HW226949   2.441   4.459   3.991
 8684SOL     OW26950   2.155   4.225   3.483
 8684SOL    HW126951   2.233   4.271   3.441
 8684SOL    HW226952   2.084   4.210   3.414
 8685SOL     OW26953   5.069   3.131   5.428
 8685SOL    HW126954   5.117   3.180   5.501
 8685SOL    HW226955   5.083   3.179   5.341
 8686SOL     OW26956   1.341   4.815   2.725
 8686SOL    HW126957   1.324   4.910   2.700
 8686SOL    HW226958   1.430   4.787   2.692
 8687SOL     OW26959   5.966   4.240   5.676
 8687SOL    HW126960   5.911   4.205   5.600
 8687SOL    HW226961   5.915   4.310   5.725
 8688SOL     OW26962   0.348   3.951   5.033
 8688SOL    HW126963   0.310   3.993   5.116
 8688SOL    HW226964   0.442   3.984   5.019
 8689SOL     OW26965   5.019   3.483   0.893
 8689SOL    HW126966   5.016   3.488   0.793
 8689SOL    HW226967   5.021   3.576   0.930
 8690SOL     OW26968   1.793   2.535   2.599
 8690SOL    HW126969   1.858   2.460   2.617
 8690SOL    HW226970   1.813   2.611   2.661
 8691SOL     OW26971   3.359   1.123   6.962
 8691SOL    HW126972   3.440   1.145   6.908
 8691SOL    HW226973   3.385   1.113   0.035
 8692SOL     OW26974   5.265   2.143   4.489
 8692SOL    HW126975   5.350   2.095   4.513
 8692SOL    HW226976   5.263   2.159   4.391
 8693SOL     OW26977   0.763   0.000   5.532
 8693SOL    HW126978   0.760   6.944   5.594
 8693SOL    HW226979   0.854   0.042   5.535
 8694SOL     OW26980   4.432   3.892   5.317
 8694SOL    HW126981   4.454   3.826   5.244
 8694SOL    HW226982   4.511   3.901   5.378
 8695SOL     OW26983   4.250   4.329   1.180
 8695SOL    HW126984   4.285   4.301   1.270
 8695SOL    HW226985   4.225   4.426   1.184
 8696SOL     OW26986   2.874   5.879   6.677
 8696SOL    HW126987   2.936   5.955   6.659
 8696SOL    HW226988   2.783   5.900   6.640
 8697SOL     OW26989   1.451   3.433   4.975
 8697SOL    HW126990   1.437   3.336   4.994
 8697SOL    HW226991   1.519   3.443   4.902
 8698SOL     OW26992   5.843   4.151   6.868
 8698SOL    HW126993   5.856   4.250   6.864
 8698SOL    HW226994   5.875   4.117   6.956
 8699SOL     OW26995   2.833   2.510   1.438
 8699SOL    HW126996   2.924   2.479   1.411
 8699SOL    HW226997   2.767   2.487   1.366
 8700SOL     OW26998   0.197   1.611   4.417
 8700SOL    HW126999   0.124   1.548   4.389
 8700SOL    HW227000   0.158   1.687   4.468
 8701SOL     OW27001   2.279   2.935   6.894
 8701SOL    HW127002   2.261   3.022   6.847
 8701SOL    HW227003   2.233   2.935   6.983
 8702SOL     OW27004   5.389   3.975   0.945
 8702SOL    HW127005   5.290   3.976   0.957
 8702SOL    HW227006   5.430   4.050   0.997
 8703SOL     OW27007   2.208   5.181   2.109
 8703SOL    HW127008   2.134   5.241   2.139
 8703SOL    HW227009   2.184   5.140   2.021
 8704SOL     OW27010   6.194   0.852   3.780
 8704SOL    HW127011   6.146   0.939   3.781
 8704SOL    HW227012   6.143   0.786   3.724
 8705SOL     OW27013   3.842   2.013   0.234
 8705SOL    HW127014   3.931   2.050   0.259
 8705SOL    HW227015   3.854   1.928   0.182
 8706SOL     OW27016   4.804   3.062   5.395
 8706SOL    HW127017   4.801   2.967   5.426
 8706SOL    HW227018   4.894   3.101   5.415
 8707SOL     OW27019   0.870   1.203   3.942
 8707SOL    HW127020   0.792   1.178   3.998
 8707SOL    HW227021   0.879   1.303   3.940
 8708SOL     OW27022   6.005   2.675   0.805
 8708SOL    HW127023   5.905   2.678   0.795
 8708SOL    HW227024   6.036   2.580   0.806
 8709SOL     OW27025   6.541   6.302   3.976
 8709SOL    HW127026   6.561   6.254   4.061
 8709SOL    HW227027   6.596   6.386   3.971
 8710SOL     OW27028   2.184   2.901   4.128
 8710SOL    HW127029   2.213   2.805   4.134
 8710SOL    HW227030   2.204   2.946   4.215
 8711SOL     OW27031   0.999   1.746   2.057
 8711SOL    HW127032   0.983   1.832   2.009
 8711SOL    HW227033   0.965   1.670   2.002
 8712SOL     OW27034   0.747   3.734   4.275
 8712SOL    HW127035   0.785   3.659   4.328
 8712SOL    HW227036   0.772   3.724   4.179
 8713SOL     OW27037   0.170   4.603   3.627
 8713SOL    HW127038   0.115   4.686   3.627
 8713SOL    HW227039   0.260   4.622   3.668
 8714SOL     OW27040   0.284   4.374   6.264
 8714SOL    HW127041   0.194   4.412   6.244
 8714SOL    HW227042   0.331   4.433   6.329
 8715SOL     OW27043   2.275   4.862   1.424
 8715SOL    HW127044   2.266   4.839   1.327
 8715SOL    HW227045   2.232   4.792   1.479
 8716SOL     OW27046   5.654   0.385   2.680
 8716SOL    HW127047   5.588   0.447   2.638
 8716SOL    HW227048   5.705   0.337   2.609
 8717SOL     OW27049   3.466   2.269   6.699
 8717SOL    HW127050   3.508   2.251   6.609
 8717SOL    HW227051   3.535   2.258   6.770
 8718SOL     OW27052   2.792   5.396   5.750
 8718SOL    HW127053   2.866   5.461   5.764
 8718SOL    HW227054   2.826   5.303   5.763
 8719SOL     OW27055   3.029   2.152   4.567
 8719SOL    HW127056   3.097   2.161   4.639
 8719SOL    HW227057   2.937   2.158   4.606
 8720SOL     OW27058   0.562   6.459   4.853
 8720SOL    HW127059   0.625   6.531   4.883
 8720SOL    HW227060   0.511   6.490   4.773
 8721SOL     OW27061   1.035   0.713   1.368
 8721SOL    HW127062   1.062   0.622   1.397
 8721SOL    HW227063   1.015   0.769   1.448
 8722SOL     OW27064   4.226   1.433   0.268
 8722SOL    HW127065   4.191   1.344   0.297
 8722SOL    HW227066   4.319   1.445   0.302
 8723SOL     OW27067   3.993   6.716   2.748
 8723SOL    HW127068   4.047   6.688   2.827
 8723SOL    HW227069   3.900   6.679   2.756
 8724SOL     OW27070   3.623   0.109   5.185
 8724SOL    HW127071   3.639   0.032   5.123
 8724SOL    HW227072   3.567   0.178   5.138
 8725SOL     OW27073   6.297   0.904   2.717
 8725SOL    HW127074   6.349   0.966   2.775
 8725SOL    HW227075   6.349   0.884   2.634
 8726SOL     OW27076   6.867   1.525   0.557
 8726SOL    HW127077   6.787   1.465   0.546
 8726SOL    HW227078   6.882   1.542   0.654
 8727SOL     OW27079   4.983   5.599   6.338
 8727SOL    HW127080   4.952   5.573   6.246
 8727SOL    HW227081   5.056   5.537   6.367
 8728SOL     OW27082   5.901   6.808   4.269
 8728SOL    HW127083   5.882   6.897   4.311
 8728SOL    HW227084   5.816   6.767   4.238
 8729SOL     OW27085   5.784   6.428   5.846
 8729SOL    HW127086   5.840   6.490   5.791
 8729SOL    HW227087   5.792   6.453   5.942
 8730SOL     OW27088   4.125   4.697   1.940
 8730SOL    HW127089   4.175   4.612   1.925
 8730SOL    HW227090   4.134   4.725   2.035
 8731SOL     OW27091   6.986   1.909   4.253
 8731SOL    HW127092   6.997   1.916   4.154
 8731SOL    HW227093   6.918   1.976   4.284
 8732SOL     OW27094   5.008   6.059   5.190
 8732SOL    HW127095   5.003   6.157   5.208
 8732SOL    HW227096   4.943   6.011   5.248
 8733SOL     OW27097   5.616   4.442   2.096
 8733SOL    HW127098   5.585   4.487   2.012
 8733SOL    HW227099   5.676   4.503   2.147
 8734SOL     OW27100   0.979   5.792   1.293
 8734SOL    HW127101   0.922   5.781   1.212
 8734SOL    HW227102   1.011   5.886   1.299
 8735SOL     OW27103   1.294   2.601   6.464
 8735SOL    HW127104   1.392   2.616   6.471
 8735SOL    HW227105   1.256   2.656   6.390
 8736SOL     OW27106   1.122   5.998   4.069
 8736SOL    HW127107   1.124   5.939   4.150
 8736SOL    HW227108   1.061   6.076   4.086
 8737SOL     OW27109   0.491   5.123   6.964
 8737SOL    HW127110   0.549   5.066   6.906
 8737SOL    HW227111   0.409   5.071   6.989
 8738SOL     OW27112   2.328   2.464   2.507
 8738SOL    HW127113   2.365   2.537   2.450
 8738SOL    HW227114   2.377   2.379   2.487
 8739SOL     OW27115   4.456   4.667   3.604
 8739SOL    HW127116   4.476   4.595   3.537
 8739SOL    HW227117   4.534   4.679   3.665
 8740SOL     OW27118   2.653   0.678   3.664
 8740SOL    HW127119   2.563   0.722   3.662
 8740SOL    HW227120   2.664   0.628   3.749
 8741SOL     OW27121   2.195   2.297   2.827
 8741SOL    HW127122   2.141   2.307   2.743
 8741SOL    HW227123   2.279   2.247   2.807
 8742SOL     OW27124   1.264   3.582   1.518
 8742SOL    HW127125   1.317   3.652   1.471
 8742SOL    HW227126   1.266   3.497   1.465
 8743SOL     OW27127   1.609   3.312   0.161
 8743SOL    HW127128   1.620   3.220   0.123
 8743SOL    HW227129   1.522   3.317   0.210
 8744SOL     OW27130   2.675   4.324   5.938
 8744SOL    HW127131   2.685   4.261   5.861
 8744SOL    HW227132   2.583   4.364   5.936
 8745SOL     OW27133   5.524   1.590   6.563
 8745SOL    HW127134   5.513   1.501   6.521
 8745SOL    HW227135   5.460   1.599   6.639
 8746SOL     OW27136   4.817   4.611   4.619
 8746SOL    HW127137   4.797   4.595   4.715
 8746SOL    HW227138   4.750   4.563   4.562
 8747SOL     OW27139   0.411   6.945   1.676
 8747SOL    HW127140   0.498   6.942   1.725
 8747SOL    HW227141   0.394   0.016   1.645
 8748SOL     OW27142   6.092   1.330   4.610
 8748SOL    HW127143   6.091   1.292   4.518
 8748SOL    HW227144   6.094   1.255   4.677
 8749SOL     OW27145   2.807   1.670   3.592
 8749SOL    HW127146   2.842   1.686   3.684
 8749SOL    HW227147   2.798   1.572   3.576
 8750SOL     OW27148   3.856   3.195   1.765
 8750SOL    HW127149   3.820   3.248   1.688
 8750SOL    HW227150   3.813   3.225   1.849
 8751SOL     OW27151   2.258   6.805   0.087
 8751SOL    HW127152   2.328   6.864   0.128
 8751SOL    HW227153   2.290   6.710   0.089
 8752SOL     OW27154   0.634   3.237   6.685
 8752SOL    HW127155   0.683   3.321   6.708
 8752SOL    HW227156   0.624   3.181   6.768
 8753SOL     OW27157   2.138   1.912   0.915
 8753SOL    HW127158   2.217   1.939   0.970
 8753SOL    HW227159   2.084   1.844   0.965
 8754SOL     OW27160   1.639   6.024   6.359
 8754SOL    HW127161   1.594   6.094   6.304
 8754SOL    HW227162   1.656   5.943   6.303
 8755SOL     OW27163   0.404   1.947   1.736
 8755SOL    HW127164   0.381   1.951   1.833
 8755SOL    HW227165   0.326   1.978   1.682
 8756SOL     OW27166   1.625   1.714   2.460
 8756SOL    HW127167   1.568   1.741   2.382
 8756SOL    HW227168   1.691   1.787   2.479
 8757SOL     OW27169   5.340   5.745   4.590
 8757SOL    HW127170   5.418   5.787   4.636
 8757SOL    HW227171   5.279   5.816   4.554
 8758SOL     OW27172   3.517   5.137   6.435
 8758SOL    HW127173   3.612   5.112   6.417
 8758SOL    HW227174   3.480   5.080   6.508
 8759SOL     OW27175   6.711   1.485   1.785
 8759SOL    HW127176   6.766   1.427   1.846
 8759SOL    HW227177   6.628   1.437   1.759
 8760SOL     OW27178   1.443   2.970   4.541
 8760SOL    HW127179   1.451   3.067   4.520
 8760SOL    HW227180   1.477   2.916   4.463
 8761SOL     OW27181   5.122   2.859   3.317
 8761SOL    HW127182   5.067   2.943   3.309
 8761SOL    HW227183   5.065   2.787   3.356
 8762SOL     OW27184   4.046   6.188   2.522
 8762SOL    HW127185   3.987   6.238   2.459
 8762SOL    HW227186   4.061   6.242   2.605
 8763SOL     OW27187   6.835   1.938   5.588
 8763SOL    HW127188   6.809   1.964   5.495
 8763SOL    HW227189   6.756   1.947   5.648
 8764SOL     OW27190   2.901   5.703   6.054
 8764SOL    HW127191   2.912   5.641   6.132
 8764SOL    HW227192   2.883   5.796   6.088
 8765SOL     OW27193   4.230   6.925   3.589
 8765SOL    HW127194   4.307   6.942   3.528
 8765SOL    HW227195   4.263   6.912   3.683
 8766SOL     OW27196   6.202   0.002   4.664
 8766SOL    HW127197   6.176   7.012   4.759
 8766SOL    HW227198   6.299   0.028   4.659
 8767SOL     OW27199   1.855   1.129   4.165
 8767SOL    HW127200   1.859   1.193   4.241
 8767SOL    HW227201   1.936   1.069   4.168
 8768SOL     OW27202   6.987   2.011   1.269
 8768SOL    HW127203   6.921   2.063   1.322
 8768SOL    HW227204   6.980   1.914   1.293
 8769SOL     OW27205   6.712   0.017   6.392
 8769SOL    HW127206   6.806   0.052   6.400
 8769SOL    HW227207   6.709   6.946   6.427
 8770SOL     OW27208   5.015   1.736   0.839
 8770SOL    HW127209   5.026   1.786   0.753
 8770SOL    HW227210   5.070   1.652   0.836
 8771SOL     OW27211   1.102   3.075   6.547
 8771SOL    HW127212   1.137   3.126   6.468
 8771SOL    HW227213   1.005   3.093   6.557
 8772SOL     OW27214   0.986   6.485   3.187
 8772SOL    HW127215   1.014   6.428   3.265
 8772SOL    HW227216   1.011   6.580   3.204
 8773SOL     OW27217   6.626   1.287   4.214
 8773SOL    HW127218   6.562   1.352   4.171
 8773SOL    HW227219   6.696   1.262   4.147
 8774SOL     OW27220   1.470   2.434   0.007
 8774SOL    HW127221   1.450   2.505   6.963
 8774SOL    HW227222   1.566   2.439   0.034
 8775SOL     OW27223   5.306   2.150   2.633
 8775SOL    HW127224   5.256   2.225   2.590
 8775SOL    HW227225   5.297   2.067   2.577
 8776SOL     OW27226   5.235   3.366   1.371
 8776SOL    HW127227   5.205   3.284   1.421
 8776SOL    HW227228   5.335   3.367   1.368
 8777SOL     OW27229   6.383   2.343   4.186
 8777SOL    HW127230   6.321   2.337   4.108
 8777SOL    HW227231   6.457   2.278   4.175
 8778SOL     OW27232   1.456   4.153   6.429
 8778SOL    HW127233   1.479   4.209   6.349
 8778SOL    HW227234   1.398   4.207   6.491
 8779SOL     OW27235   4.009   6.410   2.698
 8779SOL    HW127236   3.932   6.365   2.743
 8779SOL    HW227237   4.088   6.412   2.760
 8780SOL     OW27238   0.755   3.814   4.578
 8780SOL    HW127239   0.840   3.772   4.544
 8780SOL    HW227240   0.775   3.869   4.659
 8781SOL     OW27241   4.073   1.670   1.950
 8781SOL    HW127242   4.001   1.716   2.002
 8781SOL    HW227243   4.034   1.630   1.867
 8782SOL     OW27244   6.706   2.618   0.339
 8782SOL    HW127245   6.690   2.558   0.260
 8782SOL    HW227246   6.715   2.712   0.307
 8783SOL     OW27247   4.007   4.040   6.032
 8783SOL    HW127248   3.986   3.943   6.042
 8783SOL    HW227249   3.930   4.095   6.063
 8784SOL     OW27250   4.479   1.351   5.789
 8784SOL    HW127251   4.522   1.261   5.780
 8784SOL    HW227252   4.427   1.371   5.706
 8785SOL     OW27253   0.159   6.029   6.479
 8785SOL    HW127254   0.093   5.957   6.459
 8785SOL    HW227255   0.164   6.044   6.578
 8786SOL     OW27256   5.877   2.228   3.069
 8786SOL    HW127257   5.788   2.267   3.045
 8786SOL    HW227258   5.928   2.293   3.125
 8787SOL     OW27259   3.542   4.874   2.485
 8787SOL    HW127260   3.558   4.839   2.577
 8787SOL    HW227261   3.447   4.903   2.476
 8788SOL     OW27262   0.471   6.581   3.522
 8788SOL    HW127263   0.402   6.515   3.492
 8788SOL    HW227264   0.435   6.634   3.598
 8789SOL     OW27265   2.071   3.292   0.244
 8789SOL    HW127266   2.042   3.207   0.289
 8789SOL    HW227267   1.990   3.344   0.218
 8790SOL     OW27268   5.104   3.283   5.197
 8790SOL    HW127269   5.198   3.263   5.169
 8790SOL    HW227270   5.047   3.296   5.116
 8791SOL     OW27271   4.082   6.354   5.005
 8791SOL    HW127272   4.179   6.345   4.984
 8791SOL    HW227273   4.054   6.449   4.996
 8792SOL     OW27274   5.788   4.685   0.693
 8792SOL    HW127275   5.769   4.590   0.670
 8792SOL    HW227276   5.874   4.714   0.650
 8793SOL     OW27277   6.640   0.156   5.963
 8793SOL    HW127278   6.617   0.081   6.024
 8793SOL    HW227279   6.568   0.225   5.966
 8794SOL     OW27280   7.003   2.703   3.568
 8794SOL    HW127281   0.019   2.613   3.550
 8794SOL    HW227282   6.905   2.694   3.588
 8795SOL     OW27283   1.201   0.491   6.765
 8795SOL    HW127284   1.278   0.532   6.814
 8795SOL    HW227285   1.214   0.504   6.666
 8796SOL     OW27286   5.320   5.301   4.399
 8796SOL    HW127287   5.223   5.318   4.382
 8796SOL    HW227288   5.369   5.295   4.312
 8797SOL     OW27289   5.819   5.747   5.274
 8797SOL    HW127290   5.850   5.761   5.180
 8797SOL    HW227291   5.749   5.675   5.275
 8798SOL     OW27292   1.878   5.441   6.879
 8798SOL    HW127293   1.917   5.374   6.817
 8798SOL    HW227294   1.779   5.445   6.866
 8799SOL     OW27295   1.777   6.215   1.787
 8799SOL    HW127296   1.812   6.271   1.862
 8799SOL    HW227297   1.830   6.130   1.781
 8800SOL     OW27298   6.609   6.184   4.220
 8800SOL    HW127299   6.539   6.178   4.291
 8800SOL    HW227300   6.698   6.202   4.262
 8801SOL     OW27301   4.833   3.157   5.694
 8801SOL    HW127302   4.753   3.114   5.651
 8801SOL    HW227303   4.877   3.219   5.628
 8802SOL     OW27304   1.171   6.671   6.684
 8802SOL    HW127305   1.214   6.753   6.723
 8802SOL    HW227306   1.210   6.654   6.593
 8803SOL     OW27307   4.803   4.692   5.296
 8803SOL    HW127308   4.748   4.772   5.271
 8803SOL    HW227309   4.899   4.710   5.277
 8804SOL     OW27310   2.146   6.349   1.844
 8804SOL    HW127311   2.124   6.443   1.819
 8804SOL    HW227312   2.245   6.334   1.833
 8805SOL     OW27313   4.465   5.077   1.424
 8805SOL    HW127314   4.437   5.125   1.507
 8805SOL    HW227315   4.464   5.140   1.347
 8806SOL     OW27316   1.734   1.544   1.915
 8806SOL    HW127317   1.769   1.573   1.825
 8806SOL    HW227318   1.681   1.619   1.955
 8807SOL     OW27319   6.166   2.079   1.842
 8807SOL    HW127320   6.097   2.007   1.837
 8807SOL    HW227321   6.228   2.061   1.918
 8808SOL     OW27322   1.507   1.556   0.617
 8808SOL    HW127323   1.525   1.519   0.526
 8808SOL    HW227324   1.478   1.651   0.608
 8809SOL     OW27325   0.816   3.206   2.979
 8809SOL    HW127326   0.828   3.123   3.033
 8809SOL    HW227327   0.872   3.280   3.018
 8810SOL     OW27328   6.175   2.371   4.024
 8810SOL    HW127329   6.144   2.288   4.070
 8810SOL    HW227330   6.152   2.366   3.927
 8811SOL     OW27331   3.882   5.543   2.509
 8811SOL    HW127332   3.949   5.578   2.574
 8811SOL    HW227333   3.819   5.481   2.556
 8812SOL     OW27334   5.735   0.694   0.348
 8812SOL    HW127335   5.787   0.746   0.280
 8812SOL    HW227336   5.638   0.717   0.341
 8813SOL     OW27337   1.624   2.781   1.833
 8813SOL    HW127338   1.561   2.852   1.801
 8813SOL    HW227339   1.597   2.753   1.926
 8814SOL     OW27340   5.713   6.710   5.118
 8814SOL    HW127341   5.751   6.773   5.051
 8814SOL    HW227342   5.692   6.623   5.074
 8815SOL     OW27343   5.115   0.572   1.049
 8815SOL    HW127344   5.148   0.664   1.027
 8815SOL    HW227345   5.020   0.563   1.020
 8816SOL     OW27346   6.968   0.742   2.793
 8816SOL    HW127347   7.011   0.667   2.742
 8816SOL    HW227348   6.912   0.705   2.867
 8817SOL     OW27349   0.847   2.259   4.235
 8817SOL    HW127350   0.861   2.165   4.268
 8817SOL    HW227351   0.829   2.319   4.312
 8818SOL     OW27352   1.345   5.892   6.529
 8818SOL    HW127353   1.353   5.991   6.525
 8818SOL    HW227354   1.258   5.867   6.572
 8819SOL     OW27355   5.256   6.114   5.948
 8819SOL    HW127356   5.329   6.177   5.976
 8819SOL    HW227357   5.232   6.055   6.025
 8820SOL     OW27358   3.518   6.463   5.685
 8820SOL    HW127359   3.614   6.473   5.710
 8820SOL    HW227360   3.511   6.413   5.598
 8821SOL     OW27361   1.252   5.739   5.396
 8821SOL    HW127362   1.305   5.784   5.324
 8821SOL    HW227363   1.155   5.747   5.376
 8822SOL     OW27364   6.566   0.382   4.933
 8822SOL    HW127365   6.528   0.416   5.018
 8822SOL    HW227366   6.647   0.326   4.952
 8823SOL     OW27367   4.258   1.971   3.315
 8823SOL    HW127368   4.344   1.945   3.270
 8823SOL    HW227369   4.275   1.984   3.413
 8824SOL     OW27370   1.799   0.377   4.242
 8824SOL    HW127371   1.743   0.430   4.306
 8824SOL    HW227372   1.781   0.407   4.149
 8825SOL     OW27373   1.676   6.879   0.548
 8825SOL    HW127374   1.585   6.849   0.576
 8825SOL    HW227375   1.699   6.965   0.594
 8826SOL     OW27376   0.509   3.844   0.345
 8826SOL    HW127377   0.422   3.846   0.295
 8826SOL    HW227378   0.492   3.846   0.443
 8827SOL     OW27379   4.933   5.829   3.761
 8827SOL    HW127380   4.877   5.780   3.694
 8827SOL    HW227381   4.923   5.786   3.851
 8828SOL     OW27382   5.432   2.458   5.589
 8828SOL    HW127383   5.441   2.361   5.611
 8828SOL    HW227384   5.342   2.475   5.550
 8829SOL     OW27385   6.495   1.243   2.975
 8829SOL    HW127386   6.495   1.150   2.936
 8829SOL    HW227387   6.562   1.248   3.049
 8830SOL     OW27388   2.841   0.867   2.754
 8830SOL    HW127389   2.885   0.929   2.818
 8830SOL    HW227390   2.860   0.895   2.660
 8831SOL     OW27391   0.864   2.499   3.011
 8831SOL    HW127392   0.857   2.505   2.912
 8831SOL    HW227393   0.946   2.447   3.035
 8832SOL     OW27394   5.998   0.146   4.536
 8832SOL    HW127395   6.076   0.091   4.565
 8832SOL    HW227396   5.942   0.092   4.472
 8833SOL     OW27397   4.472   3.257   0.987
 8833SOL    HW127398   4.442   3.162   0.987
 8833SOL    HW227399   4.509   3.280   0.897
 8834SOL     OW27400   6.223   4.547   5.855
 8834SOL    HW127401   6.173   4.630   5.831
 8834SOL    HW227402   6.175   4.500   5.929
 8835SOL     OW27403   6.664   1.234   5.433
 8835SOL    HW127404   6.584   1.277   5.391
 8835SOL    HW227405   6.650   1.225   5.532
 8836SOL     OW27406   4.422   1.873   1.143
 8836SOL    HW127407   4.443   1.802   1.076
 8836SOL    HW227408   4.435   1.963   1.102
 8837SOL     OW27409   5.688   4.969   6.981
 8837SOL    HW127410   5.705   5.065   6.958
 8837SOL    HW227411   5.605   4.961   0.013
 8838SOL     OW27412   1.796   3.586   2.345
 8838SOL    HW127413   1.817   3.518   2.275
 8838SOL    HW227414   1.875   3.598   2.405
 8839SOL     OW27415   4.598   4.296   1.292
 8839SOL    HW127416   4.553   4.209   1.312
 8839SOL    HW227417   4.665   4.317   1.363
 8840SOL     OW27418   0.257   0.560   1.595
 8840SOL    HW127419   0.224   0.654   1.596
 8840SOL    HW227420   0.320   0.547   1.519
 8841SOL     OW27421   4.596   1.933   0.505
 8841SOL    HW127422   4.528   1.924   0.577
 8841SOL    HW227423   4.591   2.026   0.466
 8842SOL     OW27424   3.196   2.981   3.628
 8842SOL    HW127425   3.155   2.890   3.638
 8842SOL    HW227426   3.282   2.974   3.578
 8843SOL     OW27427   2.451   6.167   5.068
 8843SOL    HW127428   2.425   6.262   5.084
 8843SOL    HW227429   2.549   6.162   5.052
 8844SOL     OW27430   4.091   2.803   5.319
 8844SOL    HW127431   4.064   2.721   5.269
 8844SOL    HW227432   4.144   2.777   5.400
 8845SOL     OW27433   0.260   3.984   2.446
 8845SOL    HW127434   0.345   3.938   2.471
 8845SOL    HW227435   0.200   3.918   2.401
 8846SOL     OW27436   5.717   5.462   4.681
 8846SOL    HW127437   5.625   5.426   4.664
 8846SOL    HW227438   5.742   5.526   4.608
 8847SOL     OW27439   1.328   2.551   4.075
 8847SOL    HW127440   1.259   2.584   4.011
 8847SOL    HW227441   1.298   2.567   4.169
 8848SOL     OW27442   5.877   2.613   1.165
 8848SOL    HW127443   5.816   2.557   1.108
 8848SOL    HW227444   5.862   2.590   1.261
 8849SOL     OW27445   3.532   4.964   4.473
 8849SOL    HW127446   3.556   5.036   4.538
 8849SOL    HW227447   3.434   4.944   4.479
 8850SOL     OW27448   3.976   2.180   1.006
 8850SOL    HW127449   3.998   2.277   1.012
 8850SOL    HW227450   3.953   2.157   0.912
 8851SOL     OW27451   6.920   5.611   3.087
 8851SOL    HW127452   7.013   5.635   3.118
 8851SOL    HW227453   6.895   5.669   3.010
 8852SOL     OW27454   5.420   3.750   4.702
 8852SOL    HW127455   5.460   3.717   4.788
 8852SOL    HW227456   5.404   3.848   4.708
 8853SOL     OW27457   4.979   1.941   4.284
 8853SOL    HW127458   5.067   1.973   4.319
 8853SOL    HW227459   4.917   2.019   4.275
 8854SOL     OW27460   3.328   0.391   5.980
 8854SOL    HW127461   3.410   0.431   5.940
 8854SOL    HW227462   3.354   0.324   6.050
 8855SOL     OW27463   6.381   4.773   6.202
 8855SOL    HW127464   6.329   4.809   6.279
 8855SOL    HW227465   6.409   4.679   6.221
 8856SOL     OW27466   5.134   1.590   5.471
 8856SOL    HW127467   5.091   1.519   5.415
 8856SOL    HW227468   5.213   1.552   5.518
 8857SOL     OW27469   2.169   3.664   4.501
 8857SOL    HW127470   2.069   3.665   4.508
 8857SOL    HW227471   2.199   3.574   4.469
 8858SOL     OW27472   0.554   3.551   5.482
 8858SOL    HW127473   0.470   3.550   5.536
 8858SOL    HW227474   0.623   3.494   5.527
 8859SOL     OW27475   2.311   6.673   5.274
 8859SOL    HW127476   2.279   6.768   5.276
 8859SOL    HW227477   2.257   6.619   5.338
 8860SOL     OW27478   1.975   1.709   1.747
 8860SOL    HW127479   2.045   1.653   1.792
 8860SOL    HW227480   1.988   1.805   1.771
 8861SOL     OW27481   2.146   1.689   0.222
 8861SOL    HW127482   2.235   1.652   0.249
 8861SOL    HW227483   2.151   1.722   0.128
 8862SOL     OW27484   0.013   2.715   4.205
 8862SOL    HW127485   6.950   2.681   4.169
 8862SOL    HW227486   0.071   2.638   4.230
 8863SOL     OW27487   2.050   5.663   5.372
 8863SOL    HW127488   1.984   5.656   5.447
 8863SOL    HW227489   2.142   5.650   5.408
 8864SOL     OW27490   1.897   4.559   5.645
 8864SOL    HW127491   1.896   4.654   5.615
 8864SOL    HW227492   1.816   4.541   5.701
 8865SOL     OW27493   2.628   1.872   5.809
 8865SOL    HW127494   2.562   1.928   5.758
 8865SOL    HW227495   2.634   1.906   5.903
 8866SOL     OW27496   4.803   0.250   5.408
 8866SOL    HW127497   4.717   0.279   5.367
 8866SOL    HW227498   4.853   0.331   5.441
 8867SOL     OW27499   5.822   0.646   3.360
 8867SOL    HW127500   5.814   0.550   3.335
 8867SOL    HW227501   5.903   0.686   3.317
 8868SOL     OW27502   5.596   3.083   0.237
 8868SOL    HW127503   5.510   3.111   0.279
 8868SOL    HW227504   5.673   3.112   0.294
 8869SOL     OW27505   2.821   1.772   3.150
 8869SOL    HW127506   2.876   1.690   3.166
 8869SOL    HW227507   2.843   1.840   3.220
 8870SOL     OW27508   4.804   6.848   1.698
 8870SOL    HW127509   4.876   6.914   1.719
 8870SOL    HW227510   4.797   6.837   1.599
 8871SOL     OW27511   1.349   2.333   4.376
 8871SOL    HW127512   1.335   2.261   4.445
 8871SOL    HW227513   1.405   2.297   4.302
 8872SOL     OW27514   1.007   1.578   2.458
 8872SOL    HW127515   1.053   1.638   2.524
 8872SOL    HW227516   0.911   1.570   2.483
 8873SOL     OW27517   0.031   5.569   5.119
 8873SOL    HW127518   0.062   5.496   5.179
 8873SOL    HW227519   6.956   5.558   5.101
 8874SOL     OW27520   1.417   1.198   6.326
 8874SOL    HW127521   1.341   1.196   6.262
 8874SOL    HW227522   1.385   1.236   6.413
 8875SOL     OW27523   1.316   1.209   3.979
 8875SOL    HW127524   1.389   1.146   3.951
 8875SOL    HW227525   1.356   1.287   4.027
 8876SOL     OW27526   2.506   1.245   4.758
 8876SOL    HW127527   2.544   1.225   4.848
 8876SOL    HW227528   2.499   1.344   4.745
 8877SOL     OW27529   3.393   6.753   4.576
 8877SOL    HW127530   3.436   6.690   4.640
 8877SOL    HW227531   3.300   6.774   4.606
 8878SOL     OW27532   6.332   4.899   5.010
 8878SOL    HW127533   6.354   4.802   5.019
 8878SOL    HW227534   6.274   4.912   4.929
 8879SOL     OW27535   5.293   5.570   4.777
 8879SOL    HW127536   5.374   5.577   4.835
 8879SOL    HW227537   5.296   5.641   4.706
 8880SOL     OW27538   1.046   6.860   5.150
 8880SOL    HW127539   1.063   6.945   5.201
 8880SOL    HW227540   1.128   6.836   5.098
 8881SOL     OW27541   0.103   2.282   2.692
 8881SOL    HW127542   0.156   2.349   2.640
 8881SOL    HW227543   0.121   2.191   2.656
 8882SOL     OW27544   5.802   2.703   0.349
 8882SOL    HW127545   5.836   2.783   0.299
 8882SOL    HW227546   5.786   2.729   0.444
 8883SOL     OW27547   5.586   1.587   5.585
 8883SOL    HW127548   5.683   1.606   5.598
 8883SOL    HW227549   5.574   1.492   5.555
 8884SOL     OW27550   0.196   1.212   6.354
 8884SOL    HW127551   0.121   1.188   6.416
 8884SOL    HW227552   0.283   1.208   6.403
 8885SOL     OW27553   5.796   3.656   1.066
 8885SOL    HW127554   5.893   3.680   1.076
 8885SOL    HW227555   5.741   3.716   1.124
 8886SOL     OW27556   2.993   5.560   5.825
 8886SOL    HW127557   3.032   5.629   5.764
 8886SOL    HW227558   2.964   5.603   5.911
 8887SOL     OW27559   1.394   1.319   1.039
 8887SOL    HW127560   1.471   1.326   1.103
 8887SOL    HW227561   1.321   1.264   1.080
 8888SOL     OW27562   2.502   2.530   2.732
 8888SOL    HW127563   2.578   2.468   2.750
 8888SOL    HW227564   2.447   2.494   2.656
 8889SOL     OW27565   3.559   1.391   4.828
 8889SOL    HW127566   3.488   1.390   4.898
 8889SOL    HW227567   3.521   1.362   4.741
 8890SOL     OW27568   6.427   4.925   3.535
 8890SOL    HW127569   6.511   4.875   3.517
 8890SOL    HW227570   6.418   4.941   3.634
 8891SOL     OW27571   3.697   1.579   6.382
 8891SOL    HW127572   3.786   1.575   6.426
 8891SOL    HW227573   3.636   1.637   6.435
 8892SOL     OW27574   1.108   6.963   3.028
 8892SOL    HW127575   1.195   6.994   3.067
 8892SOL    HW227576   1.111   6.973   2.928
 8893SOL     OW27577   0.250   1.293   0.381
 8893SOL    HW127578   0.182   1.315   0.311
 8893SOL    HW227579   0.206   1.285   0.470
 8894SOL     OW27580   4.596   2.013   5.800
 8894SOL    HW127581   4.596   2.091   5.863
 8894SOL    HW227582   4.686   2.007   5.755
 8895SOL     OW27583   1.280   0.995   3.054
 8895SOL    HW127584   1.231   0.969   3.137
 8895SOL    HW227585   1.315   1.088   3.063
 8896SOL     OW27586   1.528   4.211   5.261
 8896SOL    HW127587   1.500   4.121   5.227
 8896SOL    HW227588   1.606   4.244   5.207
 8897SOL     OW27589   1.044   2.294   2.231
 8897SOL    HW127590   1.130   2.273   2.279
 8897SOL    HW227591   0.967   2.264   2.287
 8898SOL     OW27592   6.800   2.790   5.264
 8898SOL    HW127593   6.785   2.802   5.165
 8898SOL    HW227594   6.730   2.841   5.314
 8899SOL     OW27595   3.467   5.570   1.904
 8899SOL    HW127596   3.558   5.595   1.869
 8899SOL    HW227597   3.397   5.602   1.840
 8900SOL     OW27598   6.713   1.955   3.491
 8900SOL    HW127599   6.775   1.877   3.494
 8900SOL    HW227600   6.748   2.028   3.550
 8901SOL     OW27601   1.997   0.086   1.961
 8901SOL    HW127602   1.939   0.168   1.964
 8901SOL    HW227603   2.017   0.063   1.866
 8902SOL     OW27604   3.787   6.450   5.725
 8902SOL    HW127605   3.865   6.389   5.740
 8902SOL    HW227606   3.787   6.481   5.630
 8903SOL     OW27607   6.719   1.262   3.169
 8903SOL    HW127608   6.684   1.324   3.239
 8903SOL    HW227609   6.804   1.220   3.201
 8904SOL     OW27610   1.018   3.942   4.001
 8904SOL    HW127611   1.042   3.994   4.083
 8904SOL    HW227612   0.962   3.863   4.026
 8905SOL     OW27613   1.716   4.122   4.911
 8905SOL    HW127614   1.791   4.125   4.845
 8905SOL    HW227615   1.737   4.056   4.983
 8906SOL     OW27616   2.586   5.202   4.708
 8906SOL    HW127617   2.605   5.150   4.625
 8906SOL    HW227618   2.601   5.144   4.788
 8907SOL     OW27619   3.660   2.204   6.431
 8907SOL    HW127620   3.716   2.126   6.403
 8907SOL    HW227621   3.719   2.281   6.452
 8908SOL     OW27622   0.582   3.342   3.042
 8908SOL    HW127623   0.525   3.288   3.104
 8908SOL    HW227624   0.661   3.287   3.014
 8909SOL     OW27625   3.433   6.654   5.504
 8909SOL    HW127626   3.341   6.677   5.473
 8909SOL    HW227627   3.431   6.569   5.556
 8910SOL     OW27628   4.409   2.636   6.975
 8910SOL    HW127629   4.445   2.723   7.008
 8910SOL    HW227630   4.313   2.647   6.950
 8911SOL     OW27631   5.058   2.663   4.010
 8911SOL    HW127632   5.008   2.748   3.995
 8911SOL    HW227633   5.001   2.599   4.061
 8912SOL     OW27634   4.496   1.137   6.880
 8912SOL    HW127635   4.584   1.089   6.880
 8912SOL    HW227636   4.423   1.072   6.864
 8913SOL     OW27637   4.253   4.279   0.638
 8913SOL    HW127638   4.168   4.247   0.596
 8913SOL    HW227639   4.331   4.242   0.588
 8914SOL     OW27640   4.902   2.493   3.800
 8914SOL    HW127641   4.890   2.411   3.856
 8914SOL    HW227642   4.861   2.571   3.846
 8915SOL     OW27643   0.737   5.286   2.329
 8915SOL    HW127644   0.784   5.254   2.411
 8915SOL    HW227645   0.798   5.343   2.275
 8916SOL     OW27646   5.990   3.070   1.928
 8916SOL    HW127647   6.078   3.106   1.959
 8916SOL    HW227648   5.983   3.082   1.829
 8917SOL     OW27649   5.252   4.328   5.668
 8917SOL    HW127650   5.317   4.252   5.676
 8917SOL    HW227651   5.271   4.378   5.583
 8918SOL     OW27652   4.905   3.793   6.006
 8918SOL    HW127653   4.917   3.852   5.926
 8918SOL    HW227654   4.935   3.701   5.984
 8919SOL     OW27655   1.872   3.464   1.635
 8919SOL    HW127656   1.830   3.519   1.563
 8919SOL    HW227657   1.809   3.392   1.663
 8920SOL     OW27658   6.178   5.627   5.909
 8920SOL    HW127659   6.089   5.581   5.915
 8920SOL    HW227660   6.207   5.629   5.813
 8921SOL     OW27661   0.952   5.696   3.911
 8921SOL    HW127662   0.938   5.608   3.864
 8921SOL    HW227663   1.050   5.713   3.922
 8922SOL     OW27664   0.602   3.094   6.926
 8922SOL    HW127665   0.580   3.167   6.990
 8922SOL    HW227666   0.685   3.047   6.957
 8923SOL     OW27667   2.354   4.710   4.243
 8923SOL    HW127668   2.343   4.682   4.148
 8923SOL    HW227669   2.269   4.698   4.293
 8924SOL     OW27670   2.243   6.687   4.538
 8924SOL    HW127671   2.276   6.631   4.614
 8924SOL    HW227672   2.155   6.728   4.562
 8925SOL     OW27673   4.287   5.347   0.986
 8925SOL    HW127674   4.329   5.361   0.897
 8925SOL    HW227675   4.211   5.412   0.996
 8926SOL     OW27676   5.650   6.937   6.957
 8926SOL    HW127677   5.604   6.925   0.022
 8926SOL    HW227678   5.660   6.848   6.913
 8927SOL     OW27679   2.829   1.921   4.799
 8927SOL    HW127680   2.876   1.838   4.766
 8927SOL    HW227681   2.894   1.977   4.849
 8928SOL     OW27682   0.968   0.672   5.421
 8928SOL    HW127683   1.031   0.610   5.469
 8928SOL    HW227684   0.918   0.621   5.351
 8929SOL     OW27685   5.076   4.422   3.006
 8929SOL    HW127686   5.171   4.453   3.015
 8929SOL    HW227687   5.060   4.388   2.914
 8930SOL     OW27688   0.368   5.355   5.468
 8930SOL    HW127689   0.368   5.256   5.472
 8930SOL    HW227690   0.418   5.385   5.387
 8931SOL     OW27691   4.460   0.948   1.671
 8931SOL    HW127692   4.375   0.957   1.724
 8931SOL    HW227693   4.533   0.996   1.718
 8932SOL     OW27694   4.879   0.645   0.379
 8932SOL    HW127695   4.811   0.716   0.394
 8932SOL    HW227696   4.917   0.654   0.287
 8933SOL     OW27697   1.562   6.582   5.333
 8933SOL    HW127698   1.651   6.549   5.300
 8933SOL    HW227699   1.515   6.507   5.380
 8934SOL     OW27700   3.663   6.706   4.172
 8934SOL    HW127701   3.708   6.788   4.138
 8934SOL    HW227702   3.663   6.635   4.102
 8935SOL     OW27703   5.644   2.225   2.494
 8935SOL    HW127704   5.727   2.280   2.493
 8935SOL    HW227705   5.583   2.256   2.566
 8936SOL     OW27706   1.493   4.087   2.052
 8936SOL    HW127707   1.585   4.106   2.085
 8936SOL    HW227708   1.484   3.990   2.032
 8937SOL     OW27709   3.189   6.718   4.760
 8937SOL    HW127710   3.147   6.761   4.840
 8937SOL    HW227711   3.271   6.667   4.789
 8938SOL     OW27712   5.147   6.670   1.995
 8938SOL    HW127713   5.092   6.713   2.067
 8938SOL    HW227714   5.130   6.717   1.908
 8939SOL     OW27715   6.824   2.868   4.387
 8939SOL    HW127716   6.889   2.800   4.353
 8939SOL    HW227717   6.734   2.850   4.346
 8940SOL     OW27718   6.104   3.482   2.503
 8940SOL    HW127719   6.063   3.502   2.413
 8940SOL    HW227720   6.036   3.497   2.574
 8941SOL     OW27721   5.661   2.182   3.301
 8941SOL    HW127722   5.746   2.130   3.300
 8941SOL    HW227723   5.654   2.232   3.388
 8942SOL     OW27724   4.861   5.758   4.031
 8942SOL    HW127725   4.944   5.759   4.086
 8942SOL    HW227726   4.802   5.684   4.061
 8943SOL     OW27727   4.150   3.772   0.585
 8943SOL    HW127728   4.176   3.676   0.582
 8943SOL    HW227729   4.174   3.810   0.674
 8944SOL     OW27730   4.373   6.202   5.150
 8944SOL    HW127731   4.441   6.217   5.078
 8944SOL    HW227732   4.293   6.156   5.112
 8945SOL     OW27733   6.409   5.028   1.731
 8945SOL    HW127734   6.368   5.114   1.698
 8945SOL    HW227735   6.365   5.001   1.816
 8946SOL     OW27736   2.976   1.936   4.388
 8946SOL    HW127737   3.011   2.026   4.413
 8946SOL    HW227738   2.956   1.883   4.471
 8947SOL     OW27739   2.759   5.223   0.403
 8947SOL    HW127740   2.679   5.178   0.442
 8947SOL    HW227741   2.820   5.154   0.363
 8948SOL     OW27742   5.468   0.612   2.580
 8948SOL    HW127743   5.420   0.608   2.668
 8948SOL    HW227744   5.530   0.691   2.580
 8949SOL     OW27745   4.221   6.494   0.721
 8949SOL    HW127746   4.207   6.554   0.642
 8949SOL    HW227747   4.133   6.478   0.766
 8950SOL     OW27748   3.647   4.082   3.904
 8950SOL    HW127749   3.739   4.056   3.932
 8950SOL    HW227750   3.601   4.130   3.979
 8951SOL     OW27751   0.729   0.572   3.981
 8951SOL    HW127752   0.665   0.648   3.993
 8951SOL    HW227753   0.777   0.584   3.894
 8952SOL     OW27754   1.441   3.787   4.641
 8952SOL    HW127755   1.368   3.835   4.592
 8952SOL    HW227756   1.475   3.844   4.716
 8953SOL     OW27757   0.626   5.330   0.753
 8953SOL    HW127758   0.679   5.384   0.818
 8953SOL    HW227759   0.610   5.384   0.670
 8954SOL     OW27760   2.416   4.648   5.586
 8954SOL    HW127761   2.320   4.673   5.575
 8954SOL    HW227762   2.472   4.699   5.521
 8955SOL     OW27763   5.892   3.361   5.893
 8955SOL    HW127764   5.858   3.289   5.954
 8955SOL    HW227765   5.917   3.320   5.805
 8956SOL     OW27766   0.933   6.201   1.053
 8956SOL    HW127767   0.998   6.183   0.979
 8956SOL    HW227768   0.957   6.286   1.100
 8957SOL     OW27769   0.878   6.960   3.596
 8957SOL    HW127770   0.813   6.901   3.548
 8957SOL    HW227771   0.867   0.031   3.565
 8958SOL     OW27772   7.005   3.215   4.868
 8958SOL    HW127773   0.061   3.271   4.843
 8958SOL    HW227774   6.952   3.262   4.939
 8959SOL     OW27775   4.971   1.425   3.972
 8959SOL    HW127776   4.901   1.411   4.042
 8959SOL    HW227777   4.996   1.337   3.932
 8960SOL     OW27778   4.456   5.799   2.240
 8960SOL    HW127779   4.359   5.775   2.234
 8960SOL    HW227780   4.469   5.862   2.316
 8961SOL     OW27781   2.373   1.734   5.605
 8961SOL    HW127782   2.334   1.726   5.696
 8961SOL    HW227783   2.458   1.787   5.609
 8962SOL     OW27784   6.997   6.206   1.493
 8962SOL    HW127785   6.977   6.275   1.424
 8962SOL    HW227786   0.063   6.224   1.534
 8963SOL     OW27787   2.388   5.454   5.741
 8963SOL    HW127788   2.321   5.388   5.771
 8963SOL    HW227789   2.460   5.463   5.810
 8964SOL     OW27790   1.475   2.913   4.236
 8964SOL    HW127791   1.460   2.981   4.165
 8964SOL    HW227792   1.569   2.920   4.269
 8965SOL     OW27793   3.097   5.904   0.246
 8965SOL    HW127794   3.034   5.978   0.271
 8965SOL    HW227795   3.058   5.817   0.275
 8966SOL     OW27796   4.926   0.100   5.593
 8966SOL    HW127797   4.847   0.145   5.551
 8966SOL    HW227798   4.979   0.053   5.523
 8967SOL     OW27799   2.458   0.503   3.272
 8967SOL    HW127800   2.521   0.480   3.198
 8967SOL    HW227801   2.388   0.432   3.280
 8968SOL     OW27802   3.202   5.342   2.254
 8968SOL    HW127803   3.246   5.282   2.322
 8968SOL    HW227804   3.265   5.357   2.178
 8969SOL     OW27805   6.854   1.130   2.675
 8969SOL    HW127806   6.938   1.076   2.679
 8969SOL    HW227807   6.872   1.216   2.627
 8970SOL     OW27808   2.055   1.618   4.664
 8970SOL    HW127809   2.063   1.669   4.750
 8970SOL    HW227810   2.134   1.638   4.606
 8971SOL     OW27811   3.257   5.020   1.427
 8971SOL    HW127812   3.316   5.051   1.353
 8971SOL    HW227813   3.211   4.935   1.400
 8972SOL     OW27814   6.145   3.864   6.086
 8972SOL    HW127815   6.184   3.792   6.144
 8972SOL    HW227816   6.071   3.826   6.031
 8973SOL     OW27817   2.455   1.508   3.560
 8973SOL    HW127818   2.552   1.493   3.580
 8973SOL    HW227819   2.402   1.504   3.646
 8974SOL     OW27820   1.999   4.641   5.099
 8974SOL    HW127821   2.046   4.603   5.178
 8974SOL    HW227822   1.980   4.567   5.033
 8975SOL     OW27823   0.764   3.720   6.198
 8975SOL    HW127824   0.699   3.672   6.139
 8975SOL    HW227825   0.717   3.750   6.282
 8976SOL     OW27826   6.177   0.413   1.490
 8976SOL    HW127827   6.223   0.338   1.537
 8976SOL    HW227828   6.228   0.436   1.407
 8977SOL     OW27829   0.470   4.941   5.751
 8977SOL    HW127830   0.393   5.004   5.749
 8977SOL    HW227831   0.467   4.882   5.671
 8978SOL     OW27832   6.767   5.210   5.246
 8978SOL    HW127833   6.824   5.164   5.315
 8978SOL    HW227834   6.722   5.142   5.190
 8979SOL     OW27835   1.510   4.442   3.714
 8979SOL    HW127836   1.537   4.465   3.807
 8979SOL    HW227837   1.585   4.395   3.668
 8980SOL     OW27838   5.132   0.754   0.746
 8980SOL    HW127839   5.164   0.699   0.670
 8980SOL    HW227840   5.033   0.747   0.753
 8981SOL     OW27841   3.832   2.540   6.748
 8981SOL    HW127842   3.818   2.441   6.746
 8981SOL    HW227843   3.902   2.562   6.817
 8982SOL     OW27844   0.371   0.633   2.639
 8982SOL    HW127845   0.422   0.691   2.701
 8982SOL    HW227846   0.277   0.624   2.671
 8983SOL     OW27847   1.266   6.589   2.393
 8983SOL    HW127848   1.365   6.589   2.380
 8983SOL    HW227849   1.234   6.684   2.399
 8984SOL     OW27850   6.060   1.084   3.780
 8984SOL    HW127851   5.981   1.058   3.726
 8984SOL    HW227852   6.031   1.108   3.873
 8985SOL     OW27853   5.473   0.121   1.747
 8985SOL    HW127854   5.554   0.124   1.688
 8985SOL    HW227855   5.463   0.208   1.795
 8986SOL     OW27856   0.797   6.594   6.563
 8986SOL    HW127857   0.777   6.585   6.465
 8986SOL    HW227858   0.874   6.535   6.587
 8987SOL     OW27859   3.066   6.581   2.006
 8987SOL    HW127860   3.050   6.483   2.023
 8987SOL    HW227861   3.162   6.595   1.982
 8988SOL     OW27862   2.561   6.830   0.807
 8988SOL    HW127863   2.597   6.920   0.782
 8988SOL    HW227864   2.578   6.765   0.733
 8989SOL     OW27865   6.333   1.062   2.287
 8989SOL    HW127866   6.339   1.130   2.360
 8989SOL    HW227867   6.238   1.058   2.254
 8990SOL     OW27868   3.810   1.067   2.970
 8990SOL    HW127869   3.812   1.147   2.911
 8990SOL    HW227870   3.899   1.021   2.966
 8991SOL     OW27871   1.279   2.203   1.134
 8991SOL    HW127872   1.330   2.288   1.123
 8991SOL    HW227873   1.246   2.197   1.228
 8992SOL     OW27874   1.054   5.300   5.337
 8992SOL    HW127875   1.009   5.267   5.254
 8992SOL    HW227876   1.038   5.236   5.412
 8993SOL     OW27877   5.536   4.286   3.894
 8993SOL    HW127878   5.590   4.239   3.964
 8993SOL    HW227879   5.573   4.378   3.880
 8994SOL     OW27880   1.783   5.811   1.772
 8994SOL    HW127881   1.729   5.851   1.846
 8994SOL    HW227882   1.828   5.728   1.805
 8995SOL     OW27883   2.019   3.996   3.594
 8995SOL    HW127884   2.034   3.980   3.691
 8995SOL    HW227885   2.080   4.068   3.562
 8996SOL     OW27886   2.875   3.285   1.024
 8996SOL    HW127887   2.804   3.239   0.971
 8996SOL    HW227888   2.836   3.364   1.071
 8997SOL     OW27889   4.633   1.987   4.827
 8997SOL    HW127890   4.578   2.053   4.879
 8997SOL    HW227891   4.718   1.970   4.876
 8998SOL     OW27892   0.944   1.690   6.861
 8998SOL    HW127893   1.030   1.728   6.829
 8998SOL    HW227894   0.962   1.622   6.932
 8999SOL     OW27895   5.638   2.883   5.870
 8999SOL    HW127896   5.600   2.810   5.813
 8999SOL    HW227897   5.641   2.968   5.818
 9000SOL     OW27898   4.856   4.772   1.179
 9000SOL    HW127899   4.757   4.764   1.170
 9000SOL    HW227900   4.881   4.869   1.177
 9001SOL     OW27901   1.003   3.399   4.156
 9001SOL    HW127902   1.026   3.310   4.194
 9001SOL    HW227903   1.059   3.416   4.074
 9002SOL     OW27904   4.881   2.564   5.585
 9002SOL    HW127905   4.970   2.567   5.630
 9002SOL    HW227906   4.890   2.594   5.490
 9003SOL     OW27907   0.042   3.270   6.752
 9003SOL    HW127908   0.142   3.268   6.760
 9003SOL    HW227909   0.009   3.178   6.730
 9004SOL     OW27910   4.572   5.616   0.260
 9004SOL    HW127911   4.653   5.625   0.202
 9004SOL    HW227912   4.572   5.689   0.329
 9005SOL     OW27913   4.882   3.773   3.844
 9005SOL    HW127914   4.863   3.792   3.747
 9005SOL    HW227915   4.979   3.784   3.862
 9006SOL     OW27916   3.142   6.443   1.609
 9006SOL    HW127917   3.176   6.528   1.651
 9006SOL    HW227918   3.203   6.416   1.535
 9007SOL     OW27919   1.668   6.312   5.669
 9007SOL    HW127920   1.634   6.319   5.762
 9007SOL    HW227921   1.672   6.216   5.642
 9008SOL     OW27922   0.171   4.524   2.023
 9008SOL    HW127923   0.175   4.526   2.123
 9008SOL    HW227924   0.162   4.429   1.992
 9009SOL     OW27925   3.849   6.526   0.062
 9009SOL    HW127926   3.861   6.540   0.160
 9009SOL    HW227927   3.772   6.465   0.046
 9010SOL     OW27928   6.852   5.807   4.578
 9010SOL    HW127929   6.902   5.860   4.509
 9010SOL    HW227930   6.892   5.716   4.586
 9011SOL     OW27931   4.460   2.676   1.706
 9011SOL    HW127932   4.467   2.619   1.788
 9011SOL    HW227933   4.551   2.711   1.682
 9012SOL     OW27934   4.225   5.059   2.770
 9012SOL    HW127935   4.161   5.010   2.828
 9012SOL    HW227936   4.175   5.113   2.703
 9013SOL     OW27937   4.056   5.924   1.900
 9013SOL    HW127938   4.127   5.872   1.851
 9013SOL    HW227939   4.086   5.940   1.994
 9014SOL     OW27940   2.108   0.992   1.881
 9014SOL    HW127941   2.094   1.086   1.912
 9014SOL    HW227942   2.177   0.990   1.809
 9015SOL     OW27943   6.333   2.405   4.619
 9015SOL    HW127944   6.293   2.359   4.539
 9015SOL    HW227945   6.366   2.495   4.592
 9016SOL     OW27946   7.003   5.531   6.828
 9016SOL    HW127947   6.917   5.506   6.872
 9016SOL    HW227948   7.006   5.492   6.736
 9017SOL     OW27949   6.388   3.100   2.708
 9017SOL    HW127950   6.324   3.093   2.784
 9017SOL    HW227951   6.361   3.176   2.648
 9018SOL     OW27952   5.036   1.463   6.931
 9018SOL    HW127953   4.957   1.455   6.991
 9018SOL    HW227954   5.017   1.416   6.845
 9019SOL     OW27955   2.129   5.195   0.135
 9019SOL    HW127956   2.077   5.148   0.207
 9019SOL    HW227957   2.113   5.293   0.141
 9020SOL     OW27958   1.136   5.123   4.583
 9020SOL    HW127959   1.108   5.179   4.506
 9020SOL    HW227960   1.160   5.182   4.660
 9021SOL     OW27961   6.281   5.190   5.420
 9021SOL    HW127962   6.363   5.183   5.477
 9021SOL    HW227963   6.263   5.102   5.376
 9022SOL     OW27964   1.890   6.867   6.010
 9022SOL    HW127965   1.881   6.955   5.963
 9022SOL    HW227966   1.946   6.879   6.092
 9023SOL     OW27967   3.359   3.856   4.516
 9023SOL    HW127968   3.431   3.846   4.585
 9023SOL    HW227969   3.346   3.953   4.495
 9024SOL     OW27970   1.041   0.082   6.897
 9024SOL    HW127971   1.093   0.152   6.848
 9024SOL    HW227972   1.050   0.096   6.995
 9025SOL     OW27973   0.516   3.236   0.303
 9025SOL    HW127974   0.579   3.266   0.374
 9025SOL    HW227975   0.555   3.255   0.213
 9026SOL     OW27976   3.018   3.397   5.723
 9026SOL    HW127977   3.060   3.487   5.712
 9026SOL    HW227978   2.928   3.397   5.679
 9027SOL     OW27979   1.802   3.202   2.417
 9027SOL    HW127980   1.749   3.287   2.418
 9027SOL    HW227981   1.755   3.134   2.361
 9028SOL     OW27982   2.389   4.520   4.743
 9028SOL    HW127983   2.312   4.583   4.732
 9028SOL    HW227984   2.375   4.440   4.685
 9029SOL     OW27985   5.538   5.320   3.079
 9029SOL    HW127986   5.570   5.227   3.060
 9029SOL    HW227987   5.612   5.385   3.064
 9030SOL     OW27988   4.740   2.509   3.018
 9030SOL    HW127989   4.739   2.409   3.016
 9030SOL    HW227990   4.685   2.541   3.096
 9031SOL     OW27991   2.376   1.060   2.169
 9031SOL    HW127992   2.432   1.030   2.091
 9031SOL    HW227993   2.338   0.980   2.216
 9032SOL     OW27994   0.279   3.554   2.471
 9032SOL    HW127995   0.265   3.514   2.381
 9032SOL    HW227996   0.198   3.607   2.497
 9033SOL     OW27997   1.108   3.811   2.676
 9033SOL    HW127998   1.106   3.712   2.661
 9033SOL    HW227999   1.169   3.832   2.753
 9034SOL     OW28000   1.691   6.592   6.944
 9034SOL    HW128001   1.635   6.591   0.004
 9034SOL    HW228002   1.785   6.616   6.968
 9035SOL     OW28003   6.426   1.029   4.197
 9035SOL    HW128004   6.431   1.088   4.278
 9035SOL    HW228005   6.330   1.004   4.180
 9036SOL     OW28006   0.364   1.671   5.137
 9036SOL    HW128007   0.276   1.715   5.119
 9036SOL    HW228008   0.416   1.664   5.052
 9037SOL     OW28009   2.346   4.353   5.701
 9037SOL    HW128010   2.375   4.276   5.644
 9037SOL    HW228011   2.363   4.439   5.653
 9038SOL     OW28012   4.042   5.465   5.435
 9038SOL    HW128013   4.046   5.373   5.474
 9038SOL    HW228014   3.958   5.510   5.465
 9039SOL     OW28015   2.965   4.703   0.110
 9039SOL    HW128016   2.915   4.699   0.197
 9039SOL    HW228017   2.936   4.783   0.058
 9040SOL     OW28018   3.136   0.939   2.330
 9040SOL    HW128019   3.094   0.984   2.409
 9040SOL    HW228020   3.071   0.875   2.289
 9041SOL     OW28021   2.183   2.421   5.627
 9041SOL    HW128022   2.200   2.512   5.589
 9041SOL    HW228023   2.168   2.429   5.726
 9042SOL     OW28024   1.808   5.553   2.636
 9042SOL    HW128025   1.745   5.629   2.622
 9042SOL    HW228026   1.889   5.567   2.579
 9043SOL     OW28027   0.498   1.794   6.893
 9043SOL    HW128028   0.435   1.828   6.962
 9043SOL    HW228029   0.458   1.713   6.849
 9044SOL     OW28030   0.796   4.163   0.570
 9044SOL    HW128031   0.801   4.217   0.654
 9044SOL    HW228032   0.864   4.195   0.505
 9045SOL     OW28033   2.351   4.969   4.748
 9045SOL    HW128034   2.340   5.053   4.695
 9045SOL    HW228035   2.433   4.976   4.805
 9046SOL     OW28036   3.351   4.250   6.070
 9046SOL    HW128037   3.253   4.267   6.055
 9046SOL    HW228038   3.365   4.153   6.092
 9047SOL     OW28039   0.803   4.105   4.474
 9047SOL    HW128040   0.748   4.095   4.391
 9047SOL    HW228041   0.755   4.063   4.551
 9048SOL     OW28042   1.777   2.813   5.031
 9048SOL    HW128043   1.762   2.746   4.959
 9048SOL    HW228044   1.719   2.893   5.015
 9049SOL     OW28045   4.728   6.383   5.808
 9049SOL    HW128046   4.757   6.292   5.779
 9049SOL    HW228047   4.696   6.435   5.729
 9050SOL     OW28048   0.143   4.146   5.945
 9050SOL    HW128049   0.087   4.092   5.881
 9050SOL    HW228050   0.169   4.232   5.902
 9051SOL     OW28051   6.615   6.467   6.370
 9051SOL    HW128052   6.649   6.404   6.301
 9051SOL    HW228053   6.610   6.420   6.458
 9052SOL     OW28054   2.641   5.002   4.509
 9052SOL    HW128055   2.712   4.932   4.503
 9052SOL    HW228056   2.569   4.981   4.442
 9053SOL     OW28057   2.027   1.026   2.597
 9053SOL    HW128058   2.119   1.060   2.614
 9053SOL    HW228059   2.005   1.035   2.500
 9054SOL     OW28060   1.545   6.997   1.473
 9054SOL    HW128061   1.460   0.026   1.482
 9054SOL    HW228062   1.579   6.972   1.563
 9055SOL     OW28063   1.322   2.201   5.096
 9055SOL    HW128064   1.294   2.249   5.179
 9055SOL    HW228065   1.414   2.164   5.107
 9056SOL     OW28066   5.627   2.306   1.467
 9056SOL    HW128067   5.610   2.239   1.395
 9056SOL    HW228068   5.671   2.261   1.545
 9057SOL     OW28069   3.622   6.791   6.738
 9057SOL    HW128070   3.601   6.703   6.781
 9057SOL    HW228071   3.595   6.787   6.641
 9058SOL     OW28072   2.231   2.639   4.187
 9058SOL    HW128073   2.316   2.606   4.145
 9058SOL    HW228074   2.221   2.599   4.278
 9059SOL     OW28075   6.972   0.624   2.349
 9059SOL    HW128076   6.938   0.604   2.257
 9059SOL    HW228077   6.932   0.560   2.415
 9060SOL     OW28078   6.899   4.911   0.315
 9060SOL    HW128079   6.880   4.886   0.220
 9060SOL    HW228080   6.998   4.925   0.326
 9061SOL     OW28081   4.584   4.470   2.495
 9061SOL    HW128082   4.558   4.472   2.398
 9061SOL    HW228083   4.510   4.511   2.549
 9062SOL     OW28084   0.174   5.894   3.092
 9062SOL    HW128085   0.103   5.926   3.029
 9062SOL    HW228086   0.163   5.796   3.107
 9063SOL     OW28087   5.630   6.722   0.998
 9063SOL    HW128088   5.704   6.704   0.934
 9063SOL    HW228089   5.652   6.801   1.055
 9064SOL     OW28090   1.501   5.743   3.066
 9064SOL    HW128091   1.424   5.806   3.067
 9064SOL    HW228092   1.546   5.744   3.156
 9065SOL     OW28093   3.109   4.258   6.686
 9065SOL    HW128094   3.173   4.264   6.609
 9065SOL    HW228095   3.151   4.298   6.768
 9066SOL     OW28096   4.967   4.745   3.638
 9066SOL    HW128097   4.950   4.750   3.540
 9066SOL    HW228098   5.065   4.734   3.655
 9067SOL     OW28099   2.110   6.592   4.033
 9067SOL    HW128100   2.127   6.689   4.017
 9067SOL    HW228101   2.132   6.569   4.127
 9068SOL     OW28102   5.081   0.187   6.003
 9068SOL    HW128103   5.051   0.280   5.984
 9068SOL    HW228104   5.019   0.122   5.959
 9069SOL     OW28105   4.763   2.471   1.899
 9069SOL    HW128106   4.723   2.412   1.968
 9069SOL    HW228107   4.733   2.441   1.808
 9070SOL     OW28108   1.273   0.859   6.534
 9070SOL    HW128109   1.216   0.900   6.462
 9070SOL    HW228110   1.261   0.760   6.533
 9071SOL     OW28111   4.950   2.526   6.815
 9071SOL    HW128112   4.986   2.475   6.893
 9071SOL    HW228113   5.026   2.570   6.765
 9072SOL     OW28114   6.745   1.034   2.127
 9072SOL    HW128115   6.823   1.096   2.137
 9072SOL    HW228116   6.769   0.960   2.064
 9073SOL     OW28117   4.697   2.545   5.820
 9073SOL    HW128118   4.655   2.633   5.841
 9073SOL    HW228119   4.765   2.557   5.747
 9074SOL     OW28120   2.099   1.036   3.557
 9074SOL    HW128121   2.130   0.970   3.626
 9074SOL    HW228122   2.108   1.128   3.594
 9075SOL     OW28123   5.227   5.386   0.694
 9075SOL    HW128124   5.194   5.479   0.716
 9075SOL    HW228125   5.152   5.321   0.706
 9076SOL     OW28126   1.524   5.918   2.232
 9076SOL    HW128127   1.572   5.881   2.312
 9076SOL    HW228128   1.466   5.994   2.260
 9077SOL     OW28129   6.421   1.656   6.368
 9077SOL    HW128130   6.426   1.650   6.269
 9077SOL    HW228131   6.325   1.647   6.398
 9078SOL     OW28132   5.206   6.780   6.814
 9078SOL    HW128133   5.132   6.811   6.874
 9078SOL    HW228134   5.272   6.854   6.802
 9079SOL     OW28135   1.794   1.385   6.560
 9079SOL    HW128136   1.784   1.299   6.610
 9079SOL    HW228137   1.824   1.366   6.466
 9080SOL     OW28138   6.200   4.148   0.882
 9080SOL    HW128139   6.213   4.104   0.971
 9080SOL    HW228140   6.159   4.238   0.895
 9081SOL     OW28141   4.971   1.337   0.452
 9081SOL    HW128142   4.871   1.336   0.463
 9081SOL    HW228143   5.005   1.430   0.468
 9082SOL     OW28144   3.374   5.030   6.656
 9082SOL    HW128145   3.370   4.942   6.608
 9082SOL    HW228146   3.401   5.016   6.751
 9083SOL     OW28147   4.099   0.712   0.989
 9083SOL    HW128148   4.167   0.768   1.035
 9083SOL    HW228149   4.087   0.744   0.895
 9084SOL     OW28150   6.946   4.638   4.416
 9084SOL    HW128151   6.866   4.582   4.440
 9084SOL    HW228152   6.932   4.680   4.326
 9085SOL     OW28153   3.163   4.788   1.341
 9085SOL    HW128154   3.079   4.834   1.370
 9085SOL    HW228155   3.163   4.779   1.242
 9086SOL     OW28156   6.736   2.469   0.712
 9086SOL    HW128157   6.796   2.391   0.696
 9086SOL    HW228158   6.760   2.543   0.648
 9087SOL     OW28159   4.876   1.276   1.434
 9087SOL    HW128160   4.833   1.352   1.386
 9087SOL    HW228161   4.913   1.307   1.522
 9088SOL     OW28162   5.549   6.399   6.356
 9088SOL    HW128163   5.568   6.374   6.451
 9088SOL    HW228164   5.456   6.370   6.331
 9089SOL     OW28165   4.992   5.547   2.841
 9089SOL    HW128166   4.919   5.485   2.870
 9089SOL    HW228167   5.042   5.579   2.922
 9090SOL     OW28168   6.043   5.728   5.443
 9090SOL    HW128169   6.111   5.769   5.382
 9090SOL    HW228170   5.954   5.728   5.398
 9091SOL     OW28171   2.667   2.110   1.645
 9091SOL    HW128172   2.636   2.196   1.687
 9091SOL    HW228173   2.730   2.063   1.708
 9092SOL     OW28174   2.864   1.980   5.132
 9092SOL    HW128175   2.765   1.975   5.125
 9092SOL    HW228176   2.906   1.921   5.063
 9093SOL     OW28177   2.023   3.557   0.615
 9093SOL    HW128178   2.019   3.466   0.656
 9093SOL    HW228179   1.960   3.562   0.538
 9094SOL     OW28180   6.465   2.572   0.502
 9094SOL    HW128181   6.554   2.586   0.459
 9094SOL    HW228182   6.478   2.542   0.596
 9095SOL     OW28183   2.046   2.570   6.975
 9095SOL    HW128184   1.980   2.638   7.007
 9095SOL    HW228185   2.071   2.510   0.028
 9096SOL     OW28186   6.519   4.950   2.956
 9096SOL    HW128187   6.473   5.021   3.009
 9096SOL    HW228188   6.493   4.956   2.860
 9097SOL     OW28189   6.451   5.643   6.089
 9097SOL    HW128190   6.454   5.586   6.007
 9097SOL    HW228191   6.383   5.715   6.077
 9098SOL     OW28192   4.003   3.278   4.885
 9098SOL    HW128193   3.973   3.183   4.877
 9098SOL    HW228194   3.956   3.333   4.816
 9099SOL     OW28195   1.760   2.405   6.647
 9099SOL    HW128196   1.770   2.504   6.657
 9099SOL    HW228197   1.816   2.374   6.570
 9100SOL     OW28198   1.383   2.444   0.805
 9100SOL    HW128199   1.447   2.517   0.784
 9100SOL    HW228200   1.318   2.434   0.730
 9101SOL     OW28201   1.933   2.140   0.042
 9101SOL    HW128202   2.024   2.152   0.082
 9101SOL    HW228203   1.903   2.226   7.023
 9102SOL     OW28204   4.415   6.373   2.142
 9102SOL    HW128205   4.444   6.468   2.147
 9102SOL    HW228206   4.484   6.319   2.094
 9103SOL     OW28207   1.052   4.191   6.087
 9103SOL    HW128208   1.059   4.290   6.074
 9103SOL    HW228209   1.004   4.172   6.173
 9104SOL     OW28210   4.560   0.298   3.068
 9104SOL    HW128211   4.503   0.224   3.033
 9104SOL    HW228212   4.610   0.340   2.992
 9105SOL     OW28213   2.808   2.086   6.176
 9105SOL    HW128214   2.881   2.051   6.235
 9105SOL    HW228215   2.760   2.160   6.222
 9106SOL     OW28216   6.349   5.567   1.918
 9106SOL    HW128217   6.395   5.645   1.875
 9106SOL    HW228218   6.387   5.482   1.880
 9107SOL     OW28219   5.078   6.367   6.338
 9107SOL    HW128220   5.012   6.312   6.286
 9107SOL    HW228221   5.170   6.331   6.323
 9108SOL     OW28222   3.394   5.902   0.328
 9108SOL    HW128223   3.408   6.001   0.340
 9108SOL    HW228224   3.302   5.887   0.291
 9109SOL     OW28225   3.255   1.801   4.036
 9109SOL    HW128226   3.163   1.808   4.075
 9109SOL    HW228227   3.322   1.837   4.102
 9110SOL     OW28228   0.777   3.841   3.278
 9110SOL    HW128229   0.793   3.781   3.201
 9110SOL    HW228230   0.682   3.831   3.309
 9111SOL     OW28231   4.059   3.979   1.438
 9111SOL    HW128232   4.101   4.004   1.351
 9111SOL    HW228233   3.963   4.005   1.438
 9112SOL     OW28234   0.982   5.646   2.323
 9112SOL    HW128235   0.885   5.656   2.299
 9112SOL    HW228236   1.035   5.713   2.271
 9113SOL     OW28237   2.659   5.607   6.840
 9113SOL    HW128238   2.637   5.517   6.803
 9113SOL    HW228239   2.610   5.677   6.789
 9114SOL     OW28240   2.644   3.790   1.686
 9114SOL    HW128241   2.576   3.862   1.701
 9114SOL    HW228242   2.597   3.704   1.666
 9115SOL     OW28243   1.636   3.964   4.482
 9115SOL    HW128244   1.583   3.882   4.505
 9115SOL    HW228245   1.710   3.975   4.549
 9116SOL     OW28246   2.482   2.137   5.994
 9116SOL    HW128247   2.547   2.204   5.958
 9116SOL    HW228248   2.527   2.049   6.007
 9117SOL     OW28249   0.842   3.135   0.546
 9117SOL    HW128250   0.752   3.132   0.590
 9117SOL    HW228251   0.845   3.067   0.472
 9118SOL     OW28252   0.686   6.383   1.661
 9118SOL    HW128253   0.629   6.328   1.722
 9118SOL    HW228254   0.702   6.333   1.575
 9119SOL     OW28255   6.208   0.181   0.961
 9119SOL    HW128256   6.196   0.109   0.892
 9119SOL    HW228257   6.246   0.141   1.044
 9120SOL     OW28258   6.381   0.453   6.786
 9120SOL    HW128259   6.419   0.545   6.772
 9120SOL    HW228260   6.282   0.456   6.775
 9121SOL     OW28261   1.477   1.769   6.754
 9121SOL    HW128262   1.508   1.812   6.839
 9121SOL    HW228263   1.556   1.750   6.696
 9122SOL     OW28264   0.579   2.685   1.370
 9122SOL    HW128265   0.567   2.751   1.296
 9122SOL    HW228266   0.536   2.720   1.453
 9123SOL     OW28267   2.164   6.585   6.871
 9123SOL    HW128268   2.137   6.494   6.840
 9123SOL    HW228269   2.243   6.578   6.931
 9124SOL     OW28270   6.993   4.427   5.471
 9124SOL    HW128271   7.003   4.495   5.544
 9124SOL    HW228272   6.981   4.336   5.511
 9125SOL     OW28273   4.606   5.669   1.010
 9125SOL    HW128274   4.659   5.731   1.067
 9125SOL    HW228275   4.591   5.583   1.059
 9126SOL     OW28276   5.545   0.183   3.307
 9126SOL    HW128277   5.491   0.263   3.333
 9126SOL    HW228278   5.485   0.103   3.300
 9127SOL     OW28279   5.703   5.570   5.827
 9127SOL    HW128280   5.785   5.513   5.829
 9127SOL    HW228281   5.718   5.651   5.885
 9128SOL     OW28282   4.504   2.771   5.542
 9128SOL    HW128283   4.466   2.790   5.451
 9128SOL    HW228284   4.438   2.717   5.594
 9129SOL     OW28285   2.666   1.365   0.011
 9129SOL    HW128286   2.579   1.402   7.002
 9129SOL    HW228287   2.729   1.440   0.030
 9130SOL     OW28288   5.887   5.811   0.911
 9130SOL    HW128289   5.966   5.865   0.884
 9130SOL    HW228290   5.899   5.779   1.005
 9131SOL     OW28291   1.529   4.518   3.978
 9131SOL    HW128292   1.448   4.480   4.022
 9131SOL    HW228293   1.583   4.568   4.045
 9132SOL     OW28294   1.773   2.861   4.273
 9132SOL    HW128295   1.847   2.815   4.322
 9132SOL    HW228296   1.774   2.959   4.296
 9133SOL     OW28297   1.777   5.062   1.496
 9133SOL    HW128298   1.839   5.036   1.422
 9133SOL    HW228299   1.718   4.984   1.518
 9134SOL     OW28300   2.612   5.034   6.029
 9134SOL    HW128301   2.665   4.957   6.063
 9134SOL    HW228302   2.648   5.065   5.941
 9135SOL     OW28303   0.934   6.561   4.012
 9135SOL    HW128304   0.997   6.607   3.949
 9135SOL    HW228305   0.887   6.629   4.068
 9136SOL     OW28306   3.313   5.418   5.196
 9136SOL    HW128307   3.294   5.432   5.099
 9136SOL    HW228308   3.358   5.499   5.234
 9137SOL     OW28309   4.082   0.710   1.864
 9137SOL    HW128310   4.010   0.772   1.832
 9137SOL    HW228311   4.157   0.709   1.798
 9138SOL     OW28312   3.214   4.235   1.145
 9138SOL    HW128313   3.189   4.282   1.230
 9138SOL    HW228314   3.163   4.275   1.069
 9139SOL     OW28315   3.593   0.687   5.837
 9139SOL    HW128316   3.587   0.587   5.829
 9139SOL    HW228317   3.683   0.717   5.808
 9140SOL     OW28318   6.418   2.563   3.505
 9140SOL    HW128319   6.414   2.566   3.605
 9140SOL    HW228320   6.406   2.656   3.468
 9141SOL     OW28321   5.733   0.509   5.667
 9141SOL    HW128322   5.817   0.530   5.717
 9141SOL    HW228323   5.663   0.576   5.691
 9142SOL     OW28324   1.075   4.279   6.813
 9142SOL    HW128325   1.006   4.341   6.777
 9142SOL    HW228326   1.043   4.185   6.806
 9143SOL     OW28327   5.603   4.301   0.837
 9143SOL    HW128328   5.686   4.319   0.890
 9143SOL    HW228329   5.528   4.358   0.873
 9144SOL     OW28330   1.472   5.377   4.607
 9144SOL    HW128331   1.523   5.291   4.601
 9144SOL    HW228332   1.460   5.403   4.703
 9145SOL     OW28333   0.569   3.973   6.199
 9145SOL    HW128334   0.596   3.948   6.106
 9145SOL    HW228335   0.496   3.912   6.230
 9146SOL     OW28336   0.728   1.914   1.094
 9146SOL    HW128337   0.825   1.935   1.081
 9146SOL    HW228338   0.682   1.909   1.006
 9147SOL     OW28339   4.408   5.622   5.724
 9147SOL    HW128340   4.451   5.546   5.673
 9147SOL    HW228341   4.476   5.693   5.739
 9148SOL     OW28342   3.589   5.170   3.006
 9148SOL    HW128343   3.495   5.174   2.974
 9148SOL    HW228344   3.632   5.260   2.996
 9149SOL     OW28345   6.512   2.892   4.954
 9149SOL    HW128346   6.523   2.861   4.859
 9149SOL    HW228347   6.570   2.837   5.014
 9150SOL     OW28348   4.301   1.558   2.762
 9150SOL    HW128349   4.230   1.581   2.695
 9150SOL    HW228350   4.258   1.512   2.840
 9151SOL     OW28351   0.377   3.341   1.973
 9151SOL    HW128352   0.334   3.394   1.901
 9151SOL    HW228353   0.351   3.245   1.964
 9152SOL     OW28354   1.979   5.038   3.444
 9152SOL    HW128355   2.008   4.973   3.514
 9152SOL    HW228356   1.999   5.131   3.473
 9153SOL     OW28357   1.814   2.706   0.060
 9153SOL    HW128358   1.812   2.618   0.107
 9153SOL    HW228359   1.726   2.752   0.071
 9154SOL     OW28360   0.972   5.344   0.644
 9154SOL    HW128361   1.067   5.371   0.655
 9154SOL    HW228362   0.960   5.249   0.674
 9155SOL     OW28363   1.741   4.673   6.886
 9155SOL    HW128364   1.745   4.625   6.973
 9155SOL    HW228365   1.717   4.769   6.902
 9156SOL     OW28366   5.103   2.783   1.564
 9156SOL    HW128367   5.077   2.687   1.556
 9156SOL    HW228368   5.071   2.833   1.485
 9157SOL     OW28369   5.267   3.539   5.480
 9157SOL    HW128370   5.335   3.474   5.449
 9157SOL    HW228371   5.285   3.629   5.440
 9158SOL     OW28372   0.616   3.890   3.636
 9158SOL    HW128373   0.707   3.854   3.618
 9158SOL    HW228374   0.585   3.942   3.557
 9159SOL     OW28375   6.584   4.707   2.668
 9159SOL    HW128376   6.573   4.719   2.570
 9159SOL    HW228377   6.646   4.631   2.686
 9160SOL     OW28378   0.235   0.266   0.736
 9160SOL    HW128379   0.186   0.179   0.738
 9160SOL    HW228380   0.243   0.297   0.642
 9161SOL     OW28381   4.978   4.081   2.304
 9161SOL    HW128382   5.019   4.085   2.395
 9161SOL    HW228383   4.952   4.174   2.276
 9162SOL     OW28384   5.073   2.671   2.730
 9162SOL    HW128385   5.123   2.654   2.644
 9162SOL    HW228386   4.991   2.615   2.732
 9163SOL     OW28387   3.500   1.108   5.036
 9163SOL    HW128388   3.599   1.102   5.026
 9163SOL    HW228389   3.477   1.173   5.109
 9164SOL     OW28390   3.041   0.198   0.955
 9164SOL    HW128391   3.014   0.101   0.957
 9164SOL    HW228392   3.042   0.233   1.049
 9165SOL     OW28393   4.528   5.845   0.412
 9165SOL    HW128394   4.433   5.874   0.407
 9165SOL    HW228395   4.555   5.837   0.508
 9166SOL     OW28396   2.956   5.790   1.444
 9166SOL    HW128397   2.967   5.745   1.355
 9166SOL    HW228398   2.891   5.739   1.500
 9167SOL     OW28399   0.245   3.739   4.671
 9167SOL    HW128400   0.249   3.666   4.603
 9167SOL    HW228401   0.262   3.701   4.762
 9168SOL     OW28402   3.421   0.454   0.233
 9168SOL    HW128403   3.513   0.428   0.264
 9168SOL    HW228404   3.369   0.492   0.310
 9169SOL     OW28405   0.730   6.787   3.457
 9169SOL    HW128406   0.763   6.716   3.520
 9169SOL    HW228407   0.630   6.779   3.447
 9170SOL     OW28408   6.382   6.244   0.149
 9170SOL    HW128409   6.377   6.264   0.051
 9170SOL    HW228410   6.386   6.145   0.162
 9171SOL     OW28411   3.000   5.680   5.066
 9171SOL    HW128412   3.044   5.599   5.028
 9171SOL    HW228413   2.936   5.719   5.000
 9172SOL     OW28414   2.429   2.391   4.317
 9172SOL    HW128415   2.494   2.444   4.262
 9172SOL    HW228416   2.463   2.298   4.329
 9173SOL     OW28417   0.763   4.922   5.173
 9173SOL    HW128418   0.760   5.021   5.183
 9173SOL    HW228419   0.779   4.898   5.077
 9174SOL     OW28420   0.451   5.817   6.819
 9174SOL    HW128421   0.354   5.828   6.837
 9174SOL    HW228422   0.481   5.887   6.754
 9175SOL     OW28423   1.877   6.486   5.627
 9175SOL    HW128424   1.835   6.404   5.666
 9175SOL    HW228425   1.884   6.557   5.697
 9176SOL     OW28426   1.463   1.791   5.812
 9176SOL    HW128427   1.554   1.820   5.840
 9176SOL    HW228428   1.461   1.691   5.805
 9177SOL     OW28429   0.886   4.886   3.033
 9177SOL    HW128430   0.855   4.980   3.022
 9177SOL    HW228431   0.982   4.879   3.005
 9178SOL     OW28432   2.039   4.160   0.481
 9178SOL    HW128433   1.989   4.078   0.453
 9178SOL    HW228434   2.024   4.176   0.579
 9179SOL     OW28435   2.550   4.994   4.919
 9179SOL    HW128436   2.600   5.057   4.978
 9179SOL    HW228437   2.556   4.902   4.955
 9180SOL     OW28438   5.522   2.278   3.057
 9180SOL    HW128439   5.449   2.337   3.091
 9180SOL    HW228440   5.562   2.227   3.133
 9181SOL     OW28441   3.779   1.207   2.236
 9181SOL    HW128442   3.850   1.151   2.194
 9181SOL    HW228443   3.696   1.205   2.180
 9182SOL     OW28444   2.546   6.657   2.080
 9182SOL    HW128445   2.451   6.643   2.107
 9182SOL    HW228446   2.599   6.573   2.095
 9183SOL     OW28447   5.159   5.470   5.976
 9183SOL    HW128448   5.239   5.519   5.941
 9183SOL    HW228449   5.188   5.383   6.016
 9184SOL     OW28450   4.851   6.639   6.822
 9184SOL    HW128451   4.870   6.660   6.726
 9184SOL    HW228452   4.930   6.593   6.863
 9185SOL     OW28453   4.456   1.647   4.489
 9185SOL    HW128454   4.506   1.730   4.513
 9185SOL    HW228455   4.372   1.641   4.544
 9186SOL     OW28456   5.032   7.014   6.687
 9186SOL    HW128457   5.087   0.074   6.678
 9186SOL    HW228458   5.067   6.958   6.762
 9187SOL     OW28459   2.512   6.622   2.595
 9187SOL    HW128460   2.582   6.677   2.550
 9187SOL    HW228461   2.556   6.547   2.645
 9188SOL     OW28462   2.131   5.918   0.827
 9188SOL    HW128463   2.111   5.855   0.902
 9188SOL    HW228464   2.092   5.882   0.742
 9189SOL     OW28465   4.878   5.381   2.036
 9189SOL    HW128466   4.863   5.420   2.127
 9189SOL    HW228467   4.962   5.328   2.036
 9190SOL     OW28468   0.956   5.785   0.256
 9190SOL    HW128469   0.873   5.730   0.241
 9190SOL    HW228470   0.997   5.760   0.343
 9191SOL     OW28471   6.770   0.546   5.804
 9191SOL    HW128472   6.804   0.492   5.727
 9191SOL    HW228473   6.805   0.639   5.798
 9192SOL     OW28474   1.052   3.714   4.925
 9192SOL    HW128475   1.125   3.657   4.888
 9192SOL    HW228476   0.993   3.659   4.984
 9193SOL     OW28477   2.757   3.619   0.420
 9193SOL    HW128478   2.855   3.611   0.439
 9193SOL    HW228479   2.706   3.608   0.505
 9194SOL     OW28480   3.000   0.697   4.510
 9194SOL    HW128481   3.066   0.668   4.441
 9194SOL    HW228482   2.924   0.744   4.465
 9195SOL     OW28483   1.638   0.950   4.091
 9195SOL    HW128484   1.601   0.937   4.183
 9195SOL    HW228485   1.708   1.021   4.093
 9196SOL     OW28486   5.140   1.453   5.833
 9196SOL    HW128487   5.106   1.495   5.917
 9196SOL    HW228488   5.063   1.426   5.775
 9197SOL     OW28489   2.705   4.026   0.490
 9197SOL    HW128490   2.761   4.094   0.442
 9197SOL    HW228491   2.765   3.957   0.532
 9198SOL     OW28492   0.965   4.912   4.266
 9198SOL    HW128493   0.865   4.913   4.279
 9198SOL    HW228494   1.004   4.838   4.322
 9199SOL     OW28495   5.646   4.021   5.470
 9199SOL    HW128496   5.592   4.090   5.519
 9199SOL    HW228497   5.714   3.981   5.532
 9200SOL     OW28498   3.100   0.463   0.342
 9200SOL    HW128499   3.162   0.507   0.406
 9200SOL    HW228500   3.091   0.366   0.365
 9201SOL     OW28501   1.945   4.199   0.738
 9201SOL    HW128502   1.898   4.112   0.751
 9201SOL    HW228503   1.885   4.274   0.764
 9202SOL     OW28504   2.356   0.689   4.114
 9202SOL    HW128505   2.383   0.659   4.023
 9202SOL    HW228506   2.259   0.672   4.127
 9203SOL     OW28507   6.552   6.591   0.697
 9203SOL    HW128508   6.584   6.579   0.603
 9203SOL    HW228509   6.620   6.644   0.749
 9204SOL     OW28510   6.151   0.243   5.052
 9204SOL    HW128511   6.148   0.207   5.145
 9204SOL    HW228512   6.230   0.205   5.004
 9205SOL     OW28513   0.082   5.265   1.896
 9205SOL    HW128514   0.054   5.232   1.986
 9205SOL    HW228515   0.030   5.218   1.825
 9206SOL     OW28516   3.740   6.965   0.109
 9206SOL    HW128517   3.660   7.003   0.063
 9206SOL    HW228518   3.781   6.894   0.052
 9207SOL     OW28519   5.713   5.768   6.007
 9207SOL    HW128520   5.794   5.717   6.039
 9207SOL    HW228521   5.722   5.864   6.033
 9208SOL     OW28522   1.144   4.050   2.518
 9208SOL    HW128523   1.126   3.959   2.554
 9208SOL    HW228524   1.198   4.102   2.584
 9209SOL     OW28525   2.264   6.872   6.790
 9209SOL    HW128526   2.256   6.840   6.885
 9209SOL    HW228527   2.255   6.794   6.728
 9210SOL     OW28528   6.255   0.530   3.769
 9210SOL    HW128529   6.305   0.514   3.854
 9210SOL    HW228530   6.310   0.586   3.707
 9211SOL     OW28531   0.534   1.731   2.516
 9211SOL    HW128532   0.523   1.808   2.453
 9211SOL    HW228533   0.449   1.715   2.566
 9212SOL     OW28534   3.690   5.307   4.439
 9212SOL    HW128535   3.751   5.251   4.384
 9212SOL    HW228536   3.607   5.327   4.388
 9213SOL     OW28537   6.270   4.110   6.572
 9213SOL    HW128538   6.176   4.090   6.601
 9213SOL    HW228539   6.321   4.024   6.564
 9214SOL     OW28540   0.227   5.283   0.722
 9214SOL    HW128541   0.297   5.328   0.666
 9214SOL    HW228542   0.184   5.210   0.668
 9215SOL     OW28543   1.131   1.681   0.889
 9215SOL    HW128544   1.182   1.601   0.856
 9215SOL    HW228545   1.195   1.747   0.927
 9216SOL     OW28546   2.249   0.329   3.762
 9216SOL    HW128547   2.213   0.243   3.727
 9216SOL    HW228548   2.305   0.373   3.692
 9217SOL     OW28549   0.638   2.716   0.618
 9217SOL    HW128550   0.599   2.639   0.668
 9217SOL    HW228551   0.564   2.769   0.575
 9218SOL     OW28552   2.084   0.968   0.392
 9218SOL    HW128553   1.988   0.946   0.375
 9218SOL    HW228554   2.099   0.981   0.490
 9219SOL     OW28555   6.341   1.867   0.691
 9219SOL    HW128556   6.291   1.881   0.776
 9219SOL    HW228557   6.392   1.781   0.696
 9220SOL     OW28558   3.464   6.348   0.755
 9220SOL    HW128559   3.441   6.405   0.835
 9220SOL    HW228560   3.382   6.301   0.723
 9221SOL     OW28561   2.836   4.758   4.733
 9221SOL    HW128562   2.832   4.719   4.825
 9221SOL    HW228563   2.744   4.781   4.702
 9222SOL     OW28564   2.665   2.159   6.409
 9222SOL    HW128565   2.709   2.118   6.489
 9222SOL    HW228566   2.696   2.253   6.399
 9223SOL     OW28567   2.930   3.169   5.367
 9223SOL    HW128568   3.023   3.204   5.357
 9223SOL    HW228569   2.865   3.244   5.362
 9224SOL     OW28570   2.139   4.715   5.543
 9224SOL    HW128571   2.073   4.740   5.614
 9224SOL    HW228572   2.146   4.789   5.476
 9225SOL     OW28573   1.858   6.196   0.342
 9225SOL    HW128574   1.864   6.155   0.251
 9225SOL    HW228575   1.762   6.216   0.363
 9226SOL     OW28576   4.725   6.495   0.832
 9226SOL    HW128577   4.758   6.570   0.889
 9226SOL    HW228578   4.686   6.423   0.890
 9227SOL     OW28579   1.398   6.572   2.088
 9227SOL    HW128580   1.436   6.534   2.004
 9227SOL    HW228581   1.463   6.559   2.163
 9228SOL     OW28582   0.792   6.724   6.815
 9228SOL    HW128583   0.809   6.663   6.738
 9228SOL    HW228584   0.799   6.819   6.785
 9229SOL     OW28585   0.707   5.452   5.578
 9229SOL    HW128586   0.614   5.484   5.599
 9229SOL    HW228587   0.702   5.362   5.535
 9230SOL     OW28588   4.940   1.174   3.643
 9230SOL    HW128589   5.005   1.170   3.718
 9230SOL    HW228590   4.948   1.262   3.596
 9231SOL     OW28591   2.020   3.479   3.557
 9231SOL    HW128592   2.023   3.569   3.600
 9231SOL    HW228593   2.051   3.486   3.462
 9232SOL     OW28594   3.943   5.164   1.417
 9232SOL    HW128595   3.955   5.262   1.401
 9232SOL    HW228596   4.021   5.127   1.466
 9233SOL     OW28597   5.402   4.592   0.261
 9233SOL    HW128598   5.496   4.610   0.289
 9233SOL    HW228599   5.394   4.497   0.229
 9234SOL     OW28600   1.511   6.285   3.590
 9234SOL    HW128601   1.479   6.377   3.609
 9234SOL    HW228602   1.505   6.229   3.673
 9235SOL     OW28603   0.855   2.573   3.570
 9235SOL    HW128604   0.797   2.655   3.571
 9235SOL    HW228605   0.907   2.568   3.655
 9236SOL     OW28606   4.065   2.467   5.828
 9236SOL    HW128607   3.981   2.475   5.883
 9236SOL    HW228608   4.098   2.373   5.833
 9237SOL     OW28609   1.467   3.876   3.200
 9237SOL    HW128610   1.371   3.890   3.223
 9237SOL    HW228611   1.524   3.903   3.278
 9238SOL     OW28612   4.292   3.488   6.768
 9238SOL    HW128613   4.275   3.435   6.851
 9238SOL    HW228614   4.388   3.478   6.742
 9239SOL     OW28615   1.481   3.510   6.546
 9239SOL    HW128616   1.570   3.550   6.525
 9239SOL    HW228617   1.467   3.512   6.645
 9240SOL     OW28618   4.642   1.009   1.996
 9240SOL    HW128619   4.601   1.064   2.070
 9240SOL    HW228620   4.716   0.954   2.034
 9241SOL     OW28621   0.708   5.245   6.170
 9241SOL    HW128622   0.617   5.280   6.193
 9241SOL    HW228623   0.765   5.321   6.139
 9242SOL     OW28624   5.869   6.291   1.445
 9242SOL    HW128625   5.905   6.348   1.371
 9242SOL    HW228626   5.787   6.334   1.484
 9243SOL     OW28627   5.647   6.748   4.206
 9243SOL    HW128628   5.626   6.680   4.135
 9243SOL    HW228629   5.591   6.830   4.191
 9244SOL     OW28630   4.004   5.672   0.513
 9244SOL    HW128631   3.941   5.738   0.472
 9244SOL    HW228632   3.952   5.603   0.564
 9245SOL     OW28633   0.259   6.766   1.564
 9245SOL    HW128634   0.227   6.728   1.651
 9245SOL    HW228635   0.336   6.828   1.581
 9246SOL     OW28636   6.847   4.956   3.805
 9246SOL    HW128637   6.855   4.989   3.711
 9246SOL    HW228638   6.756   4.977   3.840
 9247SOL     OW28639   1.550   7.002   3.530
 9247SOL    HW128640   1.609   0.027   3.465
 9247SOL    HW228641   1.492   0.045   3.577
 9248SOL     OW28642   4.158   1.831   6.050
 9248SOL    HW128643   4.236   1.780   6.087
 9248SOL    HW228644   4.092   1.766   6.011
 9249SOL     OW28645   4.163   6.472   3.454
 9249SOL    HW128646   4.065   6.463   3.472
 9249SOL    HW228647   4.185   6.568   3.441
 9250SOL     OW28648   5.164   4.037   3.278
 9250SOL    HW128649   5.093   4.108   3.277
 9250SOL    HW228650   5.248   4.074   3.238
 9251SOL     OW28651   3.704   2.126   2.882
 9251SOL    HW128652   3.743   2.076   2.804
 9251SOL    HW228653   3.653   2.205   2.848
 9252SOL     OW28654   1.598   6.887   4.297
 9252SOL    HW128655   1.655   6.969   4.290
 9252SOL    HW228656   1.512   6.901   4.247
 9253SOL     OW28657   1.627   6.780   5.976
 9253SOL    HW128658   1.630   6.808   5.880
 9253SOL    HW228659   1.719   6.754   6.006
 9254SOL     OW28660   5.476   2.421   1.083
 9254SOL    HW128661   5.488   2.478   1.164
 9254SOL    HW228662   5.420   2.469   1.016
 9255SOL     OW28663   6.995   5.383   0.716
 9255SOL    HW128664   6.946   5.325   0.780
 9255SOL    HW228665   0.070   5.376   0.733
 9256SOL     OW28666   3.653   5.605   2.365
 9256SOL    HW128667   3.609   5.520   2.334
 9256SOL    HW228668   3.732   5.582   2.422
 9257SOL     OW28669   0.795   3.465   0.996
 9257SOL    HW128670   0.833   3.558   0.992
 9257SOL    HW228671   0.830   3.411   0.920
 9258SOL     OW28672   3.089   3.235   3.715
 9258SOL    HW128673   3.145   3.155   3.691
 9258SOL    HW228674   3.092   3.249   3.814
 9259SOL     OW28675   1.567   2.540   0.385
 9259SOL    HW128676   1.590   2.449   0.351
 9259SOL    HW228677   1.502   2.583   0.324
 9260SOL     OW28678   6.464   3.976   6.953
 9260SOL    HW128679   6.539   3.930   7.000
 9260SOL    HW228680   6.379   3.926   6.970
 9261SOL     OW28681   3.485   6.937   6.044
 9261SOL    HW128682   3.510   6.844   6.016
 9261SOL    HW228683   3.509   7.001   5.972
 9262SOL     OW28684   5.534   0.648   5.792
 9262SOL    HW128685   5.453   0.590   5.795
 9262SOL    HW228686   5.585   0.638   5.878
 9263SOL     OW28687   6.040   3.965   1.764
 9263SOL    HW128688   6.132   3.968   1.804
 9263SOL    HW228689   5.997   4.055   1.774
 9264SOL     OW28690   5.983   2.425   6.839
 9264SOL    HW128691   5.928   2.342   6.828
 9264SOL    HW228692   6.014   2.432   6.934
 9265SOL     OW28693   1.584   1.490   5.681
 9265SOL    HW128694   1.661   1.430   5.700
 9265SOL    HW228695   1.592   1.528   5.589
 9266SOL     OW28696   2.581   6.182   2.136
 9266SOL    HW128697   2.580   6.166   2.037
 9266SOL    HW228698   2.495   6.152   2.176
 9267SOL     OW28699   2.399   5.155   5.643
 9267SOL    HW128700   2.401   5.255   5.643
 9267SOL    HW228701   2.489   5.121   5.670
 9268SOL     OW28702   1.153   1.546   3.218
 9268SOL    HW128703   1.132   1.562   3.122
 9268SOL    HW228704   1.252   1.544   3.231
 9269SOL     OW28705   4.307   1.873   5.110
 9269SOL    HW128706   4.389   1.906   5.156
 9269SOL    HW228707   4.238   1.849   5.178
 9270SOL     OW28708   1.371   0.111   5.838
 9270SOL    HW128709   1.329   0.103   5.747
 9270SOL    HW228710   1.400   0.205   5.854
 9271SOL     OW28711   0.584   4.735   6.045
 9271SOL    HW128712   0.557   4.676   5.969
 9271SOL    HW228713   0.666   4.786   6.020
 9272SOL     OW28714   2.380   5.041   6.744
 9272SOL    HW128715   2.349   5.001   6.658
 9272SOL    HW228716   2.304   5.045   6.808
 9273SOL     OW28717   3.753   5.795   5.716
 9273SOL    HW128718   3.748   5.895   5.726
 9273SOL    HW228719   3.827   5.760   5.774
 9274SOL     OW28720   5.828   2.531   1.429
 9274SOL    HW128721   5.782   2.617   1.450
 9274SOL    HW228722   5.773   2.455   1.464
 9275SOL     OW28723   0.225   0.411   6.019
 9275SOL    HW128724   0.229   0.480   6.091
 9275SOL    HW228725   0.158   0.437   5.950
 9276SOL     OW28726   4.807   6.638   3.850
 9276SOL    HW128727   4.755   6.686   3.778
 9276SOL    HW228728   4.753   6.561   3.884
 9277SOL     OW28729   3.626   2.826   0.513
 9277SOL    HW128730   3.705   2.820   0.453
 9277SOL    HW228731   3.655   2.861   0.603
 9278SOL     OW28732   1.570   2.500   1.415
 9278SOL    HW128733   1.626   2.471   1.337
 9278SOL    HW228734   1.565   2.426   1.482
 9279SOL     OW28735   1.924   6.353   0.718
 9279SOL    HW128736   1.983   6.413   0.771
 9279SOL    HW228737   1.924   6.382   0.622
 9280SOL     OW28738   1.563   0.392   2.966
 9280SOL    HW128739   1.612   0.312   2.930
 9280SOL    HW228740   1.630   0.460   2.997
 9281SOL     OW28741   2.484   2.301   0.462
 9281SOL    HW128742   2.577   2.336   0.477
 9281SOL    HW228743   2.488   2.201   0.456
 9282SOL     OW28744   4.711   1.110   6.437
 9282SOL    HW128745   4.684   1.047   6.509
 9282SOL    HW228746   4.646   1.186   6.433
 9283SOL     OW28747   5.435   2.651   2.855
 9283SOL    HW128748   5.410   2.699   2.939
 9283SOL    HW228749   5.365   2.585   2.831
 9284SOL     OW28750   3.472   3.942   1.744
 9284SOL    HW128751   3.551   3.997   1.770
 9284SOL    HW228752   3.482   3.850   1.782
 9285SOL     OW28753   6.614   2.651   6.582
 9285SOL    HW128754   6.530   2.666   6.634
 9285SOL    HW228755   6.608   2.698   6.494
 9286SOL     OW28756   5.377   5.379   5.013
 9286SOL    HW128757   5.313   5.455   5.027
 9286SOL    HW228758   5.470   5.415   5.005
 9287SOL     OW28759   2.420   0.177   2.032
 9287SOL    HW128760   2.519   0.192   2.024
 9287SOL    HW228761   2.402   0.124   2.115
 9288SOL     OW28762   4.833   2.222   6.117
 9288SOL    HW128763   4.849   2.293   6.049
 9288SOL    HW228764   4.920   2.184   6.148
 9289SOL     OW28765   5.764   4.074   2.688
 9289SOL    HW128766   5.783   4.089   2.785
 9289SOL    HW228767   5.676   4.027   2.678
 9290SOL     OW28768   4.654   1.970   4.227
 9290SOL    HW128769   4.630   1.912   4.149
 9290SOL    HW228770   4.637   1.921   4.312
 9291SOL     OW28771   0.879   1.713   4.998
 9291SOL    HW128772   0.843   1.674   5.083
 9291SOL    HW228773   0.975   1.690   4.988
 9292SOL     OW28774   0.278   3.880   0.210
 9292SOL    HW128775   0.234   3.967   0.186
 9292SOL    HW228776   0.215   3.825   0.265
 9293SOL     OW28777   6.422   3.885   6.007
 9293SOL    HW128778   6.335   3.846   5.978
 9293SOL    HW228779   6.494   3.815   6.002
 9294SOL     OW28780   5.508   5.928   6.344
 9294SOL    HW128781   5.462   5.840   6.329
 9294SOL    HW228782   5.447   5.988   6.397
 9295SOL     OW28783   4.753   2.115   3.419
 9295SOL    HW128784   4.694   2.076   3.349
 9295SOL    HW228785   4.741   2.066   3.505
 9296SOL     OW28786   6.839   6.941   5.085
 9296SOL    HW128787   6.783   7.010   5.131
 9296SOL    HW228788   6.876   6.878   5.153
 9297SOL     OW28789   0.939   0.657   1.652
 9297SOL    HW128790   0.974   0.751   1.650
 9297SOL    HW228791   0.883   0.645   1.734
 9298SOL     OW28792   0.423   6.066   5.149
 9298SOL    HW128793   0.466   6.122   5.080
 9298SOL    HW228794   0.333   6.104   5.172
 9299SOL     OW28795   1.838   3.118   4.007
 9299SOL    HW128796   1.926   3.162   3.987
 9299SOL    HW228797   1.843   3.021   3.986
 9300SOL     OW28798   5.646   4.591   3.834
 9300SOL    HW128799   5.743   4.569   3.822
 9300SOL    HW228800   5.633   4.690   3.831
 9301SOL     OW28801   6.459   4.532   1.626
 9301SOL    HW128802   6.498   4.448   1.588
 9301SOL    HW228803   6.490   4.543   1.720
 9302SOL     OW28804   1.881   2.176   2.579
 9302SOL    HW128805   1.976   2.166   2.609
 9302SOL    HW228806   1.879   2.201   2.482
 9303SOL     OW28807   5.175   4.189   0.683
 9303SOL    HW128808   5.172   4.214   0.780
 9303SOL    HW228809   5.142   4.265   0.627
 9304SOL     OW28810   4.349   3.538   0.326
 9304SOL    HW128811   4.364   3.545   0.228
 9304SOL    HW228812   4.254   3.510   0.343
 9305SOL     OW28813   4.808   3.923   1.994
 9305SOL    HW128814   4.809   3.945   1.896
 9305SOL    HW228815   4.804   4.007   2.047
 9306SOL     OW28816   6.027   5.346   4.437
 9306SOL    HW128817   5.982   5.390   4.515
 9306SOL    HW228818   6.111   5.301   4.468
 9307SOL     OW28819   2.343   0.672   5.703
 9307SOL    HW128820   2.306   0.743   5.642
 9307SOL    HW228821   2.319   0.693   5.797
 9308SOL     OW28822   6.816   2.214   0.355
 9308SOL    HW128823   6.884   2.266   0.305
 9308SOL    HW228824   6.824   2.233   0.453
 9309SOL     OW28825   5.073   2.416   6.434
 9309SOL    HW128826   5.072   2.378   6.526
 9309SOL    HW228827   5.004   2.487   6.426
 9310SOL     OW28828   4.308   6.501   1.190
 9310SOL    HW128829   4.405   6.518   1.212
 9310SOL    HW228830   4.268   6.584   1.152
 9311SOL     OW28831   6.659   3.522   1.441
 9311SOL    HW128832   6.741   3.572   1.415
 9311SOL    HW228833   6.589   3.586   1.473
 9312SOL     OW28834   2.006   4.253   4.898
 9312SOL    HW128835   2.073   4.185   4.867
 9312SOL    HW228836   2.054   4.326   4.948
 9313SOL     OW28837   6.041   6.554   2.243
 9313SOL    HW128838   6.055   6.471   2.190
 9313SOL    HW228839   6.128   6.602   2.252
 9314SOL     OW28840   6.092   4.073   0.318
 9314SOL    HW128841   6.066   4.014   0.395
 9314SOL    HW228842   6.083   4.169   0.345
 9315SOL     OW28843   0.395   6.658   6.652
 9315SOL    HW128844   0.379   6.756   6.662
 9315SOL    HW228845   0.455   6.626   6.726
 9316SOL     OW28846   3.581   5.824   4.756
 9316SOL    HW128847   3.569   5.738   4.805
 9316SOL    HW228848   3.599   5.806   4.660
 9317SOL     OW28849   4.707   4.107   5.411
 9317SOL    HW128850   4.803   4.133   5.405
 9317SOL    HW228851   4.668   4.143   5.496
 9318SOL     OW28852   7.020   6.796   5.922
 9318SOL    HW128853   6.963   6.830   5.997
 9318SOL    HW228854   6.963   6.745   5.858
 9319SOL     OW28855   6.263   2.921   4.413
 9319SOL    HW128856   6.318   2.849   4.370
 9319SOL    HW228857   6.188   2.879   4.465
 9320SOL     OW28858   4.066   2.565   6.233
 9320SOL    HW128859   4.143   2.626   6.216
 9320SOL    HW228860   4.047   2.562   6.332
 9321SOL     OW28861   5.637   5.872   4.025
 9321SOL    HW128862   5.579   5.887   4.105
 9321SOL    HW228863   5.732   5.864   4.055
 9322SOL     OW28864   1.063   6.624   0.632
 9322SOL    HW128865   1.117   6.677   0.567
 9322SOL    HW228866   1.039   6.681   0.710
 9323SOL     OW28867   0.647   1.326   6.519
 9323SOL    HW128868   0.735   1.279   6.519
 9323SOL    HW228869   0.644   1.392   6.594
 9324SOL     OW28870   1.671   5.178   6.669
 9324SOL    HW128871   1.701   5.243   6.599
 9324SOL    HW228872   1.729   5.187   6.750
 9325SOL     OW28873   0.266   3.006   0.609
 9325SOL    HW128874   0.188   3.051   0.565
 9325SOL    HW228875   0.309   2.943   0.544
 9326SOL     OW28876   2.362   5.518   1.518
 9326SOL    HW128877   2.275   5.470   1.528
 9326SOL    HW228878   2.437   5.452   1.525
 9327SOL     OW28879   3.338   1.496   3.505
 9327SOL    HW128880   3.254   1.536   3.541
 9327SOL    HW228881   3.335   1.496   3.405
 9328SOL     OW28882   2.638   0.622   2.162
 9328SOL    HW128883   2.569   0.637   2.090
 9328SOL    HW228884   2.705   0.556   2.130
 9329SOL     OW28885   0.984   4.155   1.970
 9329SOL    HW128886   1.078   4.172   1.941
 9329SOL    HW228887   0.977   4.168   2.069
 9330SOL     OW28888   5.527   6.749   6.551
 9330SOL    HW128889   5.584   6.789   6.622
 9330SOL    HW228890   5.495   6.659   6.581
 9331SOL     OW28891   0.813   2.052   0.161
 9331SOL    HW128892   0.869   2.123   0.119
 9331SOL    HW228893   0.798   1.978   0.095
 9332SOL     OW28894   3.667   3.617   5.252
 9332SOL    HW128895   3.645   3.566   5.335
 9332SOL    HW228896   3.639   3.713   5.263
 9333SOL     OW28897   5.046   5.639   0.734
 9333SOL    HW128898   5.007   5.674   0.819
 9333SOL    HW228899   5.046   5.711   0.664
 9334SOL     OW28900   2.895   0.154   4.816
 9334SOL    HW128901   2.836   0.173   4.737
 9334SOL    HW228902   2.857   0.199   4.897
 9335SOL     OW28903   1.008   1.335   2.032
 9335SOL    HW128904   1.091   1.356   2.083
 9335SOL    HW228905   1.016   1.244   1.991
 9336SOL     OW28906   3.313   0.229   5.392
 9336SOL    HW128907   3.352   0.141   5.366
 9336SOL    HW228908   3.370   0.272   5.462
 9337SOL     OW28909   4.808   0.272   2.425
 9337SOL    HW128910   4.897   0.251   2.384
 9337SOL    HW228911   4.751   0.318   2.357
 9338SOL     OW28912   3.253   6.682   1.711
 9338SOL    HW128913   3.351   6.670   1.723
 9338SOL    HW228914   3.220   6.756   1.771
 9339SOL     OW28915   3.516   5.651   1.332
 9339SOL    HW128916   3.474   5.693   1.412
 9339SOL    HW228917   3.465   5.675   1.249
 9340SOL     OW28918   6.488   3.431   0.858
 9340SOL    HW128919   6.448   3.502   0.801
 9340SOL    HW228920   6.581   3.457   0.884
 9341SOL     OW28921   6.909   4.127   5.643
 9341SOL    HW128922   6.951   4.047   5.687
 9341SOL    HW228923   6.926   4.208   5.699
 9342SOL     OW28924   1.561   0.191   6.511
 9342SOL    HW128925   1.543   0.200   6.413
 9342SOL    HW228926   1.480   0.156   6.556
 9343SOL     OW28927   5.648   6.265   4.026
 9343SOL    HW128928   5.745   6.289   4.016
 9343SOL    HW228929   5.630   6.179   3.979
 9344SOL     OW28930   5.150   6.688   0.911
 9344SOL    HW128931   5.160   6.701   0.812
 9344SOL    HW228932   5.240   6.683   0.954
 9345SOL     OW28933   0.727   3.138   0.877
 9345SOL    HW128934   0.753   3.049   0.839
 9345SOL    HW228935   0.665   3.124   0.955
 9346SOL     OW28936   6.033   0.817   0.648
 9346SOL    HW128937   6.040   0.744   0.580
 9346SOL    HW228938   6.092   0.894   0.621
 9347SOL     OW28939   2.137   6.429   2.199
 9347SOL    HW128940   2.101   6.357   2.140
 9347SOL    HW228941   2.061   6.481   2.238
 9348SOL     OW28942   2.897   4.934   0.434
 9348SOL    HW128943   2.918   4.970   0.525
 9348SOL    HW228944   2.958   4.976   0.366
 9349SOL     OW28945   1.796   5.987   2.421
 9349SOL    HW128946   1.884   6.031   2.402
 9349SOL    HW228947   1.735   6.053   2.465
 9350SOL     OW28948   0.425   2.881   5.937
 9350SOL    HW128949   0.400   2.927   6.023
 9350SOL    HW228950   0.407   2.783   5.946
 9351SOL     OW28951   3.244   0.612   6.549
 9351SOL    HW128952   3.215   0.613   6.454
 9351SOL    HW228953   3.164   0.613   6.609
 9352SOL     OW28954   2.488   5.297   6.115
 9352SOL    HW128955   2.524   5.374   6.062
 9352SOL    HW228956   2.532   5.212   6.085
 9353SOL     OW28957   5.854   0.979   0.968
 9353SOL    HW128958   5.818   0.942   0.883
 9353SOL    HW228959   5.944   1.020   0.952
 9354SOL     OW28960   0.899   1.238   6.414
 9354SOL    HW128961   0.886   1.199   6.323
 9354SOL    HW228962   0.926   1.166   6.478
 9355SOL     OW28963   0.628   1.434   4.955
 9355SOL    HW128964   0.667   1.342   4.951
 9355SOL    HW228965   0.647   1.483   4.870
 9356SOL     OW28966   4.235   6.913   3.878
 9356SOL    HW128967   4.149   6.869   3.852
 9356SOL    HW228968   4.230   6.945   3.973
 9357SOL     OW28969   1.490   2.000   0.381
 9357SOL    HW128970   1.526   1.958   0.465
 9357SOL    HW228971   1.546   1.972   0.303
 9358SOL     OW28972   1.211   2.156   1.389
 9358SOL    HW128973   1.251   2.169   1.480
 9358SOL    HW228974   1.120   2.115   1.398
 9359SOL     OW28975   0.856   0.468   5.274
 9359SOL    HW128976   0.780   0.405   5.256
 9359SOL    HW228977   0.926   0.420   5.326
 9360SOL     OW28978   0.226   0.677   6.134
 9360SOL    HW128979   0.130   0.674   6.104
 9360SOL    HW228980   0.234   0.735   6.215
 9361SOL     OW28981   2.387   5.551   4.428
 9361SOL    HW128982   2.382   5.487   4.352
 9361SOL    HW228983   2.443   5.512   4.501
 9362SOL     OW28984   1.875   0.575   2.481
 9362SOL    HW128985   1.831   0.493   2.445
 9362SOL    HW228986   1.919   0.625   2.406
 9363SOL     OW28987   1.718   3.037   2.200
 9363SOL    HW128988   1.745   3.116   2.145
 9363SOL    HW228989   1.777   2.959   2.180
 9364SOL     OW28990   0.186   2.313   0.235
 9364SOL    HW128991   0.254   2.277   0.298
 9364SOL    HW228992   0.109   2.350   0.287
 9365SOL     OW28993   2.236   0.702   5.377
 9365SOL    HW128994   2.321   0.662   5.413
 9365SOL    HW228995   2.253   0.739   5.286
 9366SOL     OW28996   4.043   6.580   2.437
 9366SOL    HW128997   4.122   6.628   2.476
 9366SOL    HW228998   4.016   6.505   2.497
 9367SOL     OW28999   6.908   0.588   1.463
 9367SOL    HW129000   6.849   0.537   1.401
 9367SOL    HW229001   6.916   0.540   1.550
 9368SOL     OW29002   2.309   0.641   2.641
 9368SOL    HW129003   2.228   0.632   2.699
 9368SOL    HW229004   2.352   0.730   2.657
 9369SOL     OW29005   3.633   5.184   0.990
 9369SOL    HW129006   3.725   5.152   1.011
 9369SOL    HW229007   3.580   5.110   0.950
 9370SOL     OW29008   4.458   2.407   5.021
 9370SOL    HW129009   4.502   2.462   5.091
 9370SOL    HW229010   4.364   2.387   5.049
 9371SOL     OW29011   4.170   4.637   0.888
 9371SOL    HW129012   4.188   4.603   0.796
 9371SOL    HW229013   4.072   4.632   0.907
 9372SOL     OW29014   3.988   6.417   1.106
 9372SOL    HW129015   4.042   6.387   1.184
 9372SOL    HW229016   4.044   6.476   1.047
 9373SOL     OW29017   0.415   2.533   1.789
 9373SOL    HW129018   0.375   2.601   1.850
 9373SOL    HW229019   0.482   2.478   1.841
 9374SOL     OW29020   0.090   5.344   6.292
 9374SOL    HW129021   0.081   5.245   6.282
 9374SOL    HW229022   0.165   5.364   6.356
 9375SOL     OW29023   1.061   1.173   0.161
 9375SOL    HW129024   1.047   1.266   0.194
 9375SOL    HW229025   1.096   1.116   0.236
 9376SOL     OW29026   2.596   3.283   0.673
 9376SOL    HW129027   2.624   3.379   0.665
 9376SOL    HW229028   2.585   3.243   0.582
 9377SOL     OW29029   0.867   0.939   3.272
 9377SOL    HW129030   0.814   0.990   3.205
 9377SOL    HW229031   0.825   0.950   3.362
 9378SOL     OW29032   3.810   1.352   4.947
 9378SOL    HW129033   3.721   1.366   4.904
 9378SOL    HW229034   3.856   1.273   4.905
 9379SOL     OW29035   4.163   0.651   4.478
 9379SOL    HW129036   4.229   0.689   4.414
 9379SOL    HW229037   4.206   0.639   4.567
 9380SOL     OW29038   5.017   5.404   0.969
 9380SOL    HW129039   5.092   5.454   1.012
 9380SOL    HW229040   5.054   5.346   0.896
 9381SOL     OW29041   5.500   1.039   4.766
 9381SOL    HW129042   5.489   0.960   4.705
 9381SOL    HW229043   5.596   1.049   4.792
 9382SOL     OW29044   3.488   5.461   5.999
 9382SOL    HW129045   3.403   5.512   5.998
 9382SOL    HW229046   3.491   5.402   6.080
 9383SOL     OW29047   6.125   3.641   1.649
 9383SOL    HW129048   6.155   3.582   1.724
 9383SOL    HW229049   6.035   3.679   1.672
 9384SOL     OW29050   4.161   0.246   0.962
 9384SOL    HW129051   4.197   0.158   0.994
 9384SOL    HW229052   4.231   0.292   0.907
 9385SOL     OW29053   4.158   2.252   4.018
 9385SOL    HW129054   4.218   2.314   4.068
 9385SOL    HW229055   4.094   2.209   4.081
 9386SOL     OW29056   5.773   6.947   1.340
 9386SOL    HW129057   5.869   6.933   1.316
 9386SOL    HW229058   5.722   6.976   1.259
 9387SOL     OW29059   2.145   1.831   6.597
 9387SOL    HW129060   2.138   1.893   6.675
 9387SOL    HW229061   2.055   1.823   6.553
 9388SOL     OW29062   2.729   0.161   4.570
 9388SOL    HW129063   2.777   0.248   4.555
 9388SOL    HW229064   2.655   0.152   4.503
 9389SOL     OW29065   2.293   4.007   1.989
 9389SOL    HW129066   2.279   3.947   2.067
 9389SOL    HW229067   2.391   4.017   1.970
 9390SOL     OW29068   5.645   4.860   3.797
 9390SOL    HW129069   5.690   4.879   3.710
 9390SOL    HW229070   5.670   4.931   3.863
 9391SOL     OW29071   1.463   4.224   4.535
 9391SOL    HW129072   1.519   4.156   4.488
 9391SOL    HW229073   1.452   4.197   4.631
 9392SOL     OW29074   4.480   4.842   2.285
 9392SOL    HW129075   4.484   4.913   2.215
 9392SOL    HW229076   4.562   4.845   2.341
 9393SOL     OW29077   1.901   4.909   6.437
 9393SOL    HW129078   1.870   4.902   6.531
 9393SOL    HW229079   1.855   4.985   6.392
 9394SOL     OW29080   4.768   0.261   0.284
 9394SOL    HW129081   4.682   0.277   0.333
 9394SOL    HW229082   4.821   0.346   0.281
 9395SOL     OW29083   1.053   1.419   1.434
 9395SOL    HW129084   1.098   1.440   1.346
 9395SOL    HW229085   0.966   1.468   1.439
 9396SOL     OW29086   0.881   0.688   6.103
 9396SOL    HW129087   0.811   0.753   6.072
 9396SOL    HW229088   0.971   0.720   6.075
 9397SOL     OW29089   3.012   1.449   4.770
 9397SOL    HW129090   2.927   1.417   4.728
 9397SOL    HW229091   3.038   1.386   4.843
 9398SOL     OW29092   6.879   1.720   0.058
 9398SOL    HW129093   6.936   1.791   0.100
 9398SOL    HW229094   6.824   1.676   0.128
 9399SOL     OW29095   1.426   1.942   4.807
 9399SOL    HW129096   1.433   1.940   4.907
 9399SOL    HW229097   1.467   2.026   4.773
 9400SOL     OW29098   5.828   1.522   1.637
 9400SOL    HW129099   5.908   1.501   1.581
 9400SOL    HW229100   5.812   1.448   1.702
 9401SOL     OW29101   0.208   2.217   3.747
 9401SOL    HW129102   0.140   2.229   3.675
 9401SOL    HW229103   0.282   2.283   3.734
 9402SOL     OW29104   3.430   6.169   5.231
 9402SOL    HW129105   3.424   6.070   5.239
 9402SOL    HW229106   3.496   6.193   5.160
 9403SOL     OW29107   5.863   2.104   1.221
 9403SOL    HW129108   5.799   2.116   1.297
 9403SOL    HW229109   5.850   2.176   1.154
 9404SOL     OW29110   2.193   2.695   0.775
 9404SOL    HW129111   2.223   2.716   0.868
 9404SOL    HW229112   2.217   2.770   0.714
 9405SOL     OW29113   6.190   5.870   5.254
 9405SOL    HW129114   6.178   5.821   5.168
 9405SOL    HW229115   6.287   5.867   5.281
 9406SOL     OW29116   1.625   1.765   0.900
 9406SOL    HW129117   1.683   1.731   0.826
 9406SOL    HW229118   1.643   1.862   0.915
 9407SOL     OW29119   1.540   4.319   4.836
 9407SOL    HW129120   1.611   4.279   4.893
 9407SOL    HW229121   1.459   4.338   4.892
 9408SOL     OW29122   5.650   4.395   4.250
 9408SOL    HW129123   5.615   4.439   4.167
 9408SOL    HW229124   5.676   4.301   4.229
 9409SOL     OW29125   5.556   5.820   1.324
 9409SOL    HW129126   5.600   5.745   1.274
 9409SOL    HW229127   5.461   5.795   1.345
 9410SOL     OW29128   4.562   0.114   0.990
 9410SOL    HW129129   4.539   0.122   1.087
 9410SOL    HW229130   4.641   0.170   0.969
 9411SOL     OW29131   3.380   4.110   3.782
 9411SOL    HW129132   3.302   4.122   3.844
 9411SOL    HW229133   3.464   4.100   3.835
 9412SOL     OW29134   4.368   0.027   1.538
 9412SOL    HW129135   4.421   6.977   1.496
 9412SOL    HW229136   4.321   7.016   1.619
 9413SOL     OW29137   3.800   4.933   3.205
 9413SOL    HW129138   3.869   4.956   3.136
 9413SOL    HW229139   3.709   4.954   3.170
 9414SOL     OW29140   1.832   1.512   2.357
 9414SOL    HW129141   1.772   1.591   2.359
 9414SOL    HW229142   1.778   1.429   2.343
 9415SOL     OW29143   5.261   0.362   1.401
 9415SOL    HW129144   5.265   0.461   1.391
 9415SOL    HW229145   5.353   0.323   1.390
 9416SOL     OW29146   6.347   4.863   5.493
 9416SOL    HW129147   6.414   4.826   5.558
 9416SOL    HW229148   6.262   4.884   5.541
 9417SOL     OW29149   3.703   6.226   2.543
 9417SOL    HW129150   3.681   6.134   2.510
 9417SOL    HW229151   3.748   6.220   2.632
 9418SOL     OW29152   3.001   2.128   4.851
 9418SOL    HW129153   3.001   2.182   4.935
 9418SOL    HW229154   3.095   2.100   4.829
 9419SOL     OW29155   2.224   2.426   5.910
 9419SOL    HW129156   2.209   2.525   5.917
 9419SOL    HW229157   2.200   2.383   5.997
 9420SOL     OW29158   5.484   3.509   5.772
 9420SOL    HW129159   5.576   3.526   5.808
 9420SOL    HW229160   5.477   3.543   5.678
 9421SOL     OW29161   3.924   6.799   7.003
 9421SOL    HW129162   3.970   6.842   0.057
 9421SOL    HW229163   3.935   6.700   7.008
 9422SOL     OW29164   2.265   6.769   5.862
 9422SOL    HW129165   2.288   6.797   5.955
 9422SOL    HW229166   2.258   6.670   5.857
 9423SOL     OW29167   4.333   4.774   1.143
 9423SOL    HW129168   4.348   4.718   1.062
 9423SOL    HW229169   4.421   4.788   1.190
 9424SOL     OW29170   6.325   0.224   4.044
 9424SOL    HW129171   6.374   0.311   4.035
 9424SOL    HW229172   6.238   0.230   3.995
 9425SOL     OW29173   0.214   5.179   0.989
 9425SOL    HW129174   0.192   5.219   0.900
 9425SOL    HW229175   0.135   5.186   1.049
 9426SOL     OW29176   4.284   2.346   6.328
 9426SOL    HW129177   4.330   2.273   6.377
 9426SOL    HW229178   4.214   2.387   6.387
 9427SOL     OW29179   3.747   5.435   1.933
 9427SOL    HW129180   3.831   5.436   1.879
 9427SOL    HW229181   3.759   5.493   2.014
 9428SOL     OW29182   0.634   5.937   5.261
 9428SOL    HW129183   0.601   5.940   5.355
 9428SOL    HW229184   0.570   5.986   5.202
 9429SOL     OW29185   3.041   2.242   3.889
 9429SOL    HW129186   3.107   2.189   3.943
 9429SOL    HW229187   3.043   2.210   3.794
 9430SOL     OW29188   1.269   7.009   4.281
 9430SOL    HW129189   1.292   6.980   4.188
 9430SOL    HW229190   1.232   0.078   4.279
 9431SOL     OW29191   1.518   4.920   4.889
 9431SOL    HW129192   1.612   4.909   4.856
 9431SOL    HW229193   1.496   5.017   4.892
 9432SOL     OW29194   6.713   1.235   3.572
 9432SOL    HW129195   6.676   1.299   3.504
 9432SOL    HW229196   6.795   1.191   3.534
 9433SOL     OW29197   4.376   5.437   1.733
 9433SOL    HW129198   4.350   5.459   1.827
 9433SOL    HW229199   4.370   5.338   1.718
 9434SOL     OW29200   4.206   5.963   4.973
 9434SOL    HW129201   4.125   5.944   5.028
 9434SOL    HW229202   4.179   5.984   4.879
 9435SOL     OW29203   6.439   4.276   6.958
 9435SOL    HW129204   6.514   4.253   6.896
 9435SOL    HW229205   6.421   4.199   7.019
 9436SOL     OW29206   2.893   1.174   2.695
 9436SOL    HW129207   2.890   1.150   2.792
 9436SOL    HW229208   2.860   1.268   2.683
 9437SOL     OW29209   5.162   1.160   4.427
 9437SOL    HW129210   5.095   1.233   4.440
 9437SOL    HW229211   5.231   1.190   4.362
 9438SOL     OW29212   5.066   0.297   2.333
 9438SOL    HW129213   5.131   0.222   2.321
 9438SOL    HW229214   5.053   0.344   2.246
 9439SOL     OW29215   2.396   4.736   0.909
 9439SOL    HW129216   2.351   4.652   0.879
 9439SOL    HW229217   2.492   4.736   0.879
 9440SOL     OW29218   1.900   5.628   5.615
 9440SOL    HW129219   1.830   5.631   5.687
 9440SOL    HW229220   1.914   5.533   5.587
 9441SOL     OW29221   6.995   6.215   4.038
 9441SOL    HW129222   0.023   6.249   4.118
 9441SOL    HW229223   6.972   6.292   3.978
 9442SOL     OW29224   6.545   2.741   1.050
 9442SOL    HW129225   6.627   2.797   1.043
 9442SOL    HW229226   6.513   2.740   1.145
 9443SOL     OW29227   2.469   4.644   1.508
 9443SOL    HW129228   2.425   4.686   1.588
 9443SOL    HW229229   2.433   4.552   1.496
 9444SOL     OW29230   1.839   5.509   6.238
 9444SOL    HW129231   1.867   5.414   6.223
 9444SOL    HW229232   1.895   5.570   6.181
 9445SOL     OW29233   0.507   0.731   4.034
 9445SOL    HW129234   0.463   0.712   3.946
 9445SOL    HW229235   0.450   0.697   4.108
 9446SOL     OW29236   5.646   5.161   4.200
 9446SOL    HW129237   5.562   5.215   4.195
 9446SOL    HW229238   5.725   5.222   4.198
 9447SOL     OW29239   5.488   5.223   2.197
 9447SOL    HW129240   5.430   5.191   2.272
 9447SOL    HW229241   5.580   5.185   2.207
 9448SOL     OW29242   4.856   2.216   6.738
 9448SOL    HW129243   4.823   2.309   6.725
 9448SOL    HW229244   4.810   2.175   6.816
 9449SOL     OW29245   4.859   6.260   2.944
 9449SOL    HW129246   4.762   6.268   2.922
 9449SOL    HW229247   4.873   6.284   3.040
 9450SOL     OW29248   1.007   0.392   2.285
 9450SOL    HW129249   0.991   0.448   2.204
 9450SOL    HW229250   1.066   0.440   2.349
 9451SOL     OW29251   4.249   5.104   0.521
 9451SOL    HW129252   4.338   5.062   0.500
 9451SOL    HW229253   4.191   5.037   0.567
 9452SOL     OW29254   6.226   3.404   6.244
 9452SOL    HW129255   6.286   3.355   6.307
 9452SOL    HW229256   6.280   3.451   6.175
 9453SOL     OW29257   6.982   4.837   2.244
 9453SOL    HW129258   6.928   4.789   2.314
 9453SOL    HW229259   0.035   4.884   2.288
 9454SOL     OW29260   5.306   5.403   0.417
 9454SOL    HW129261   5.279   5.381   0.511
 9454SOL    HW229262   5.402   5.383   0.404
 9455SOL     OW29263   4.589   0.535   1.477
 9455SOL    HW129264   4.577   0.629   1.445
 9455SOL    HW229265   4.662   0.491   1.425
 9456SOL     OW29266   6.807   2.680   2.546
 9456SOL    HW129267   6.842   2.756   2.491
 9456SOL    HW229268   6.716   2.654   2.513
 9457SOL     OW29269   6.567   6.607   4.225
 9457SOL    HW129270   6.594   6.584   4.131
 9457SOL    HW229271   6.548   6.705   4.231
 9458SOL     OW29272   6.613   3.798   0.070
 9458SOL    HW129273   6.687   3.796   0.003
 9458SOL    HW229274   6.649   3.827   0.159
 9459SOL     OW29275   5.478   4.608   5.003
 9459SOL    HW129276   5.428   4.592   5.089
 9459SOL    HW229277   5.412   4.623   4.929
 9460SOL     OW29278   1.944   2.693   3.103
 9460SOL    HW129279   1.942   2.787   3.070
 9460SOL    HW229280   2.019   2.643   3.060
 9461SOL     OW29281   2.825   1.811   1.726
 9461SOL    HW129282   2.880   1.852   1.654
 9461SOL    HW229283   2.764   1.741   1.688
 9462SOL     OW29284   0.213   1.503   5.768
 9462SOL    HW129285   0.188   1.428   5.830
 9462SOL    HW229286   0.192   1.476   5.674
 9463SOL     OW29287   6.705   4.958   0.791
 9463SOL    HW129288   6.634   4.899   0.830
 9463SOL    HW229289   6.789   4.949   0.844
 9464SOL     OW29290   1.388   0.313   2.077
 9464SOL    HW129291   1.357   0.294   1.983
 9464SOL    HW229292   1.314   0.292   2.141
 9465SOL     OW29293   6.838   5.792   0.398
 9465SOL    HW129294   6.878   5.807   0.308
 9465SOL    HW229295   6.816   5.695   0.409
 9466SOL     OW29296   4.447   3.970   5.723
 9466SOL    HW129297   4.500   4.003   5.801
 9466SOL    HW229298   4.437   4.044   5.657
 9467SOL     OW29299   1.379   3.883   1.090
 9467SOL    HW129300   1.465   3.831   1.094
 9467SOL    HW229301   1.315   3.845   1.157
 9468SOL     OW29302   6.347   1.362   1.228
 9468SOL    HW129303   6.317   1.267   1.225
 9468SOL    HW229304   6.356   1.392   1.323
 9469SOL     OW29305   6.300   6.976   2.155
 9469SOL    HW129306   6.394   6.990   2.185
 9469SOL    HW229307   6.266   6.888   2.189
 9470SOL     OW29308   3.350   2.884   1.250
 9470SOL    HW129309   3.421   2.814   1.256
 9470SOL    HW229310   3.285   2.872   1.325
 9471SOL     OW29311   6.289   3.205   4.448
 9471SOL    HW129312   6.299   3.106   4.446
 9471SOL    HW229313   6.240   3.233   4.530
 9472SOL     OW29314   2.472   3.423   6.509
 9472SOL    HW129315   2.425   3.500   6.465
 9472SOL    HW229316   2.445   3.418   6.605
 9473SOL     OW29317   3.092   3.167   1.110
 9473SOL    HW129318   3.084   3.067   1.108
 9473SOL    HW229319   3.013   3.207   1.063
 9474SOL     OW29320   5.758   4.411   0.597
 9474SOL    HW129321   5.682   4.374   0.650
 9474SOL    HW229322   5.835   4.347   0.599
 9475SOL     OW29323   6.173   3.507   6.656
 9475SOL    HW129324   6.216   3.495   6.746
 9475SOL    HW229325   6.082   3.466   6.657
 9476SOL     OW29326   3.714   4.040   0.942
 9476SOL    HW129327   3.703   3.941   0.948
 9476SOL    HW229328   3.783   4.070   1.008
 9477SOL     OW29329   1.442   5.141   0.306
 9477SOL    HW129330   1.389   5.059   0.327
 9477SOL    HW229331   1.490   5.172   0.388
 9478SOL     OW29332   6.809   3.111   5.606
 9478SOL    HW129333   6.871   3.141   5.533
 9478SOL    HW229334   6.863   3.065   5.677
 9479SOL     OW29335   4.273   0.772   2.197
 9479SOL    HW129336   4.319   0.757   2.284
 9479SOL    HW229337   4.340   0.770   2.123
 9480SOL     OW29338   5.715   0.232   0.769
 9480SOL    HW129339   5.642   0.167   0.747
 9480SOL    HW229340   5.694   0.321   0.730
 9481SOL     OW29341   4.450   0.020   3.755
 9481SOL    HW129342   4.427   0.096   3.693
 9481SOL    HW229343   4.369   7.017   3.806
 9482SOL     OW29344   6.198   4.583   5.397
 9482SOL    HW129345   6.285   4.595   5.351
 9482SOL    HW229346   6.209   4.520   5.474
 9483SOL     OW29347   6.315   4.913   6.887
 9483SOL    HW129348   6.274   4.824   6.909
 9483SOL    HW229349   6.256   4.986   6.920
 9484SOL     OW29350   1.745   6.371   3.862
 9484SOL    HW129351   1.655   6.330   3.869
 9484SOL    HW229352   1.815   6.301   3.877
 9485SOL     OW29353   0.273   1.084   4.765
 9485SOL    HW129354   0.322   1.021   4.704
 9485SOL    HW229355   0.231   1.157   4.712
 9486SOL     OW29356   6.730   5.640   0.116
 9486SOL    HW129357   6.696   5.559   0.165
 9486SOL    HW229358   6.683   5.721   0.150
 9487SOL     OW29359   3.225   3.676   3.753
 9487SOL    HW129360   3.267   3.591   3.723
 9487SOL    HW229361   3.126   3.664   3.757
 9488SOL     OW29362   1.383   1.008   2.189
 9488SOL    HW129363   1.369   1.076   2.116
 9488SOL    HW229364   1.295   0.979   2.225
 9489SOL     OW29365   6.597   4.445   6.643
 9489SOL    HW129366   6.648   4.459   6.558
 9489SOL    HW229367   6.580   4.347   6.656
 9490SOL     OW29368   5.637   3.548   4.656
 9490SOL    HW129369   5.542   3.576   4.645
 9490SOL    HW229370   5.696   3.628   4.645
 9491SOL     OW29371   5.437   0.225   2.456
 9491SOL    HW129372   5.377   0.283   2.511
 9491SOL    HW229373   5.462   0.274   2.372
 9492SOL     OW29374   4.761   2.868   4.083
 9492SOL    HW129375   4.763   2.823   4.172
 9492SOL    HW229376   4.807   2.956   4.088
 9493SOL     OW29377   2.775   6.047   2.293
 9493SOL    HW129378   2.713   6.103   2.237
 9493SOL    HW229379   2.723   6.005   2.367
 9494SOL     OW29380   4.813   2.909   2.716
 9494SOL    HW129381   4.841   2.992   2.668
 9494SOL    HW229382   4.840   2.914   2.812
 9495SOL     OW29383   5.037   3.413   1.179
 9495SOL    HW129384   5.073   3.466   1.102
 9495SOL    HW229385   5.112   3.389   1.240
 9496SOL     OW29386   5.933   3.248   1.419
 9496SOL    HW129387   5.855   3.192   1.450
 9496SOL    HW229388   5.949   3.231   1.322
 9497SOL     OW29389   5.087   4.467   5.253
 9497SOL    HW129390   5.064   4.564   5.262
 9497SOL    HW229391   5.183   4.459   5.225
 9498SOL     OW29392   0.830   5.683   6.072
 9498SOL    HW129393   0.757   5.737   6.114
 9498SOL    HW229394   0.862   5.730   5.989
 9499SOL     OW29395   5.226   6.485   4.157
 9499SOL    HW129396   5.175   6.401   4.143
 9499SOL    HW229397   5.303   6.489   4.093
 9500SOL     OW29398   3.048   1.281   0.729
 9500SOL    HW129399   3.106   1.331   0.793
 9500SOL    HW229400   3.029   1.339   0.650
 9501SOL     OW29401   1.639   3.484   5.249
 9501SOL    HW129402   1.671   3.415   5.184
 9501SOL    HW229403   1.622   3.441   5.337
 9502SOL     OW29404   5.922   4.676   3.614
 9502SOL    HW129405   6.015   4.711   3.619
 9502SOL    HW229406   5.912   4.597   3.674
 9503SOL     OW29407   5.634   1.355   0.230
 9503SOL    HW129408   5.726   1.358   0.270
 9503SOL    HW229409   5.583   1.436   0.259
 9504SOL     OW29410   6.233   5.601   2.600
 9504SOL    HW129411   6.309   5.645   2.646
 9504SOL    HW229412   6.158   5.666   2.587
 9505SOL     OW29413   4.530   3.472   6.569
 9505SOL    HW129414   4.588   3.452   6.648
 9505SOL    HW229415   4.582   3.524   6.502
 9506SOL     OW29416   3.233   1.545   2.011
 9506SOL    HW129417   3.307   1.517   1.950
 9506SOL    HW229418   3.158   1.584   1.957
 9507SOL     OW29419   0.169   5.961   1.116
 9507SOL    HW129420   0.248   6.017   1.093
 9507SOL    HW229421   0.175   5.933   1.212
 9508SOL     OW29422   5.146   1.087   1.888
 9508SOL    HW129423   5.158   1.164   1.951
 9508SOL    HW229424   5.087   1.114   1.813
 9509SOL     OW29425   6.177   1.643   4.171
 9509SOL    HW129426   6.171   1.621   4.074
 9509SOL    HW229427   6.091   1.619   4.216
 9510SOL     OW29428   1.552   3.290   2.603
 9510SOL    HW129429   1.481   3.352   2.638
 9510SOL    HW229430   1.609   3.259   2.679
 9511SOL     OW29431   1.045   1.837   1.238
 9511SOL    HW129432   0.985   1.763   1.208
 9511SOL    HW229433   1.027   1.919   1.183
 9512SOL     OW29434   6.478   2.497   1.299
 9512SOL    HW129435   6.437   2.442   1.373
 9512SOL    HW229436   6.464   2.450   1.212
 9513SOL     OW29437   4.742   4.111   5.044
 9513SOL    HW129438   4.827   4.164   5.047
 9513SOL    HW229439   4.669   4.162   5.089
 9514SOL     OW29440   3.981   3.125   1.397
 9514SOL    HW129441   3.903   3.144   1.456
 9514SOL    HW229442   4.066   3.146   1.445
 9515SOL     OW29443   6.886   6.236   2.833
 9515SOL    HW129444   6.954   6.212   2.764
 9515SOL    HW229445   6.875   6.335   2.836
 9516SOL     OW29446   0.506   4.137   5.757
 9516SOL    HW129447   0.477   4.060   5.814
 9516SOL    HW229448   0.571   4.193   5.808
 9517SOL     OW29449   1.483   5.890   1.796
 9517SOL    HW129450   1.530   5.830   1.731
 9517SOL    HW229451   1.486   5.984   1.762
 9518SOL     OW29452   0.784   0.873   1.203
 9518SOL    HW129453   0.753   0.792   1.252
 9518SOL    HW229454   0.710   0.909   1.146
 9519SOL     OW29455   1.729   2.494   5.632
 9519SOL    HW129456   1.694   2.575   5.585
 9519SOL    HW229457   1.661   2.460   5.696
 9520SOL     OW29458   4.518   6.663   1.764
 9520SOL    HW129459   4.420   6.657   1.782
 9520SOL    HW229460   4.555   6.746   1.807
 9521SOL     OW29461   5.365   4.462   2.964
 9521SOL    HW129462   5.402   4.458   2.872
 9521SOL    HW229463   5.438   4.441   3.030
 9522SOL     OW29464   3.276   5.221   5.894
 9522SOL    HW129465   3.302   5.259   5.806
 9522SOL    HW229466   3.330   5.139   5.912
 9523SOL     OW29467   1.968   6.959   5.068
 9523SOL    HW129468   1.888   6.937   5.013
 9523SOL    HW229469   2.028   6.879   5.074
 9524SOL     OW29470   6.228   3.185   0.010
 9524SOL    HW129471   6.170   3.223   0.083
 9524SOL    HW229472   6.322   3.176   0.044
 9525SOL     OW29473   3.800   0.489   4.702
 9525SOL    HW129474   3.801   0.487   4.602
 9525SOL    HW229475   3.838   0.575   4.734
 9526SOL     OW29476   4.973   5.098   0.459
 9526SOL    HW129477   5.050   5.038   0.483
 9526SOL    HW229478   4.905   5.096   0.532
 9527SOL     OW29479   0.369   2.169   0.418
 9527SOL    HW129480   0.453   2.145   0.368
 9527SOL    HW229481   0.386   2.162   0.516
 9528SOL     OW29482   6.184   0.998   1.659
 9528SOL    HW129483   6.113   0.941   1.618
 9528SOL    HW229484   6.254   0.939   1.701
 9529SOL     OW29485   1.542   2.010   5.447
 9529SOL    HW129486   1.458   2.006   5.502
 9529SOL    HW229487   1.590   2.095   5.468
 9530SOL     OW29488   2.699   1.334   3.947
 9530SOL    HW129489   2.723   1.275   4.024
 9530SOL    HW229490   2.662   1.278   3.872
 9531SOL     OW29491   2.823   6.742   3.926
 9531SOL    HW129492   2.910   6.695   3.912
 9531SOL    HW229493   2.827   6.795   4.011
 9532SOL     OW29494   3.419   1.471   1.844
 9532SOL    HW129495   3.498   1.532   1.850
 9532SOL    HW229496   3.441   1.394   1.783
 9533SOL     OW29497   0.271   1.835   4.160
 9533SOL    HW129498   0.195   1.856   4.099
 9533SOL    HW229499   0.236   1.787   4.241
 9534SOL     OW29500   5.674   1.661   4.273
 9534SOL    HW129501   5.666   1.598   4.350
 9534SOL    HW229502   5.771   1.677   4.253
 9535SOL     OW29503   2.796   1.590   4.964
 9535SOL    HW129504   2.774   1.684   4.939
 9535SOL    HW229505   2.747   1.527   4.903
 9536SOL     OW29506   2.204   6.349   6.559
 9536SOL    HW129507   2.304   6.347   6.569
 9536SOL    HW229508   2.162   6.366   6.648
 9537SOL     OW29509   1.844   0.697   0.791
 9537SOL    HW129510   1.753   0.684   0.752
 9537SOL    HW229511   1.912   0.705   0.718
 9538SOL     OW29512   6.203   3.799   2.482
 9538SOL    HW129513   6.178   3.877   2.539
 9538SOL    HW229514   6.275   3.746   2.527
 9539SOL     OW29515   0.342   3.589   6.820
 9539SOL    HW129516   0.252   3.546   6.825
 9539SOL    HW229517   0.364   3.631   6.908
 9540SOL     OW29518   5.412   3.243   5.814
 9540SOL    HW129519   5.425   3.340   5.795
 9540SOL    HW229520   5.496   3.194   5.792
 9541SOL     OW29521   6.424   2.088   3.291
 9541SOL    HW129522   6.339   2.070   3.339
 9541SOL    HW229523   6.480   2.005   3.288
 9542SOL     OW29524   4.862   3.749   4.369
 9542SOL    HW129525   4.883   3.724   4.464
 9542SOL    HW229526   4.895   3.678   4.308
 9543SOL     OW29527   3.903   2.048   0.788
 9543SOL    HW129528   3.860   2.099   0.714
 9543SOL    HW229529   3.855   1.961   0.801
 9544SOL     OW29530   5.340   0.624   1.394
 9544SOL    HW129531   5.308   0.717   1.374
 9544SOL    HW229532   5.416   0.601   1.334
 9545SOL     OW29533   1.407   6.895   4.674
 9545SOL    HW129534   1.330   6.875   4.614
 9545SOL    HW229535   1.449   6.981   4.647
 9546SOL     OW29536   2.818   4.153   1.581
 9546SOL    HW129537   2.742   4.166   1.644
 9546SOL    HW229538   2.904   4.170   1.628
 9547SOL     OW29539   5.253   6.255   2.634
 9547SOL    HW129540   5.197   6.303   2.702
 9547SOL    HW229541   5.329   6.313   2.607
 9548SOL     OW29542   5.546   6.743   2.063
 9548SOL    HW129543   5.611   6.799   2.114
 9548SOL    HW229544   5.463   6.732   2.117
 9549SOL     OW29545   1.998   5.483   0.117
 9549SOL    HW129546   1.906   5.483   0.155
 9549SOL    HW229547   1.995   5.449   0.023
 9550SOL     OW29548   1.744   0.699   0.210
 9550SOL    HW129549   1.682   0.692   0.132
 9550SOL    HW229550   1.739   0.614   0.264
 9551SOL     OW29551   1.304   5.636   5.047
 9551SOL    HW129552   1.233   5.695   5.087
 9551SOL    HW229553   1.352   5.589   5.121
 9552SOL     OW29554   6.734   5.432   2.704
 9552SOL    HW129555   6.652   5.395   2.749
 9552SOL    HW229556   6.736   5.402   2.609
 9553SOL     OW29557   5.604   4.477   6.762
 9553SOL    HW129558   5.668   4.447   6.833
 9553SOL    HW229559   5.652   4.537   6.698
 9554SOL     OW29560   1.869   2.202   2.310
 9554SOL    HW129561   1.955   2.229   2.267
 9554SOL    HW229562   1.834   2.120   2.264
 9555SOL     OW29563   6.910   2.832   6.314
 9555SOL    HW129564   6.819   2.864   6.288
 9555SOL    HW229565   6.926   2.742   6.273
 9556SOL     OW29566   6.590   0.622   1.042
 9556SOL    HW129567   6.637   0.534   1.042
 9556SOL    HW229568   6.522   0.623   0.969
 9557SOL     OW29569   4.879   1.489   1.725
 9557SOL    HW129570   4.824   1.497   1.808
 9557SOL    HW229571   4.839   1.548   1.654
 9558SOL     OW29572   6.852   3.856   1.044
 9558SOL    HW129573   6.870   3.944   1.000
 9558SOL    HW229574   6.769   3.815   1.005
 9559SOL     OW29575   0.394   4.363   2.912
 9559SOL    HW129576   0.396   4.335   3.008
 9559SOL    HW229577   0.394   4.282   2.854
 9560SOL     OW29578   3.597   1.841   5.945
 9560SOL    HW129579   3.539   1.820   5.865
 9560SOL    HW229580   3.579   1.774   6.017
 9561SOL     OW29581   3.830   5.035   0.202
 9561SOL    HW129582   3.853   5.009   0.108
 9561SOL    HW229583   3.733   5.018   0.219
 9562SOL     OW29584   6.674   5.523   4.088
 9562SOL    HW129585   6.717   5.564   4.169
 9562SOL    HW229586   6.640   5.596   4.028
 9563SOL     OW29587   1.029   6.842   6.255
 9563SOL    HW129588   1.101   6.910   6.267
 9563SOL    HW229589   0.956   6.881   6.199
 9564SOL     OW29590   0.997   0.589   5.831
 9564SOL    HW129591   0.909   0.592   5.877
 9564SOL    HW229592   1.049   0.672   5.852
 9565SOL     OW29593   2.771   5.819   5.254
 9565SOL    HW129594   2.800   5.795   5.346
 9565SOL    HW229595   2.717   5.745   5.215
 9566SOL     OW29596   2.471   5.863   4.897
 9566SOL    HW129597   2.537   5.927   4.937
 9566SOL    HW229598   2.487   5.856   4.799
 9567SOL     OW29599   5.455   5.381   4.631
 9567SOL    HW129600   5.411   5.337   4.552
 9567SOL    HW229601   5.385   5.426   4.687
 9568SOL     OW29602   5.760   3.361   5.523
 9568SOL    HW129603   5.686   3.302   5.489
 9568SOL    HW229604   5.786   3.426   5.453
 9569SOL     OW29605   5.249   6.658   1.472
 9569SOL    HW129606   5.304   6.600   1.532
 9569SOL    HW229607   5.310   6.714   1.415
 9570SOL     OW29608   0.680   2.545   6.943
 9570SOL    HW129609   0.735   2.606   6.886
 9570SOL    HW229610   0.646   2.469   6.888
 9571SOL     OW29611   3.891   1.722   0.124
 9571SOL    HW129612   3.968   1.720   0.187
 9571SOL    HW229613   3.809   1.690   0.171
 9572SOL     OW29614   0.892   3.729   1.024
 9572SOL    HW129615   0.958   3.795   0.990
 9572SOL    HW229616   0.869   3.751   1.119
 9573SOL     OW29617   4.913   2.188   1.937
 9573SOL    HW129618   4.939   2.127   2.012
 9573SOL    HW229619   4.818   2.170   1.911
 9574SOL     OW29620   2.647   1.634   3.891
 9574SOL    HW129621   2.745   1.650   3.876
 9574SOL    HW229622   2.631   1.538   3.912
 9575SOL     OW29623   3.041   1.626   2.774
 9575SOL    HW129624   3.044   1.677   2.860
 9575SOL    HW229625   3.100   1.670   2.707
 9576SOL     OW29626   3.950   3.528   5.964
 9576SOL    HW129627   3.871   3.532   5.903
 9576SOL    HW229628   4.029   3.492   5.912
 9577SOL     OW29629   0.343   5.159   3.515
 9577SOL    HW129630   0.272   5.141   3.583
 9577SOL    HW229631   0.420   5.097   3.529
 9578SOL     OW29632   6.879   4.146   1.316
 9578SOL    HW129633   6.808   4.079   1.339
 9578SOL    HW229634   6.942   4.155   1.394
 9579SOL     OW29635   1.566   4.475   2.981
 9579SOL    HW129636   1.653   4.520   3.002
 9579SOL    HW229637   1.579   4.376   2.979
 9580SOL     OW29638   4.189   3.979   5.368
 9580SOL    HW129639   4.133   3.896   5.374
 9580SOL    HW229640   4.282   3.955   5.341
 9581SOL     OW29641   1.453   6.758   6.253
 9581SOL    HW129642   1.430   6.848   6.290
 9581SOL    HW229643   1.489   6.769   6.160
 9582SOL     OW29644   3.763   6.076   3.432
 9582SOL    HW129645   3.669   6.102   3.408
 9582SOL    HW229646   3.764   6.032   3.522
 9583SOL     OW29647   1.313   4.807   2.137
 9583SOL    HW129648   1.305   4.814   2.236
 9583SOL    HW229649   1.338   4.896   2.099
 9584SOL     OW29650   5.414   3.890   6.890
 9584SOL    HW129651   5.354   3.831   6.836
 9584SOL    HW229652   5.477   3.939   6.829
 9585SOL     OW29653   5.940   1.550   3.037
 9585SOL    HW129654   5.931   1.602   2.951
 9585SOL    HW229655   5.856   1.498   3.053
 9586SOL     OW29656   4.698   4.190   2.498
 9586SOL    HW129657   4.621   4.253   2.496
 9586SOL    HW229658   4.781   4.237   2.466
 9587SOL     OW29659   4.371   6.061   1.484
 9587SOL    HW129660   4.469   6.060   1.505
 9587SOL    HW229661   4.343   6.155   1.464
 9588SOL     OW29662   5.971   1.406   3.558
 9588SOL    HW129663   5.953   1.401   3.460
 9588SOL    HW229664   6.069   1.421   3.572
 9589SOL     OW29665   3.940   1.942   5.371
 9589SOL    HW129666   4.006   1.874   5.405
 9589SOL    HW229667   3.870   1.897   5.317
 9590SOL     OW29668   0.062   4.745   4.632
 9590SOL    HW129669   0.096   4.661   4.674
 9590SOL    HW229670   0.005   4.722   4.553
 9591SOL     OW29671   6.755   4.512   2.681
 9591SOL    HW129672   6.691   4.437   2.696
 9591SOL    HW229673   6.848   4.480   2.700
 9592SOL     OW29674   4.131   5.332   0.431
 9592SOL    HW129675   4.045   5.327   0.379
 9592SOL    HW229676   4.160   5.239   0.456
 9593SOL     OW29677   1.999   2.106   3.587
 9593SOL    HW129678   2.068   2.148   3.646
 9593SOL    HW229679   1.908   2.137   3.614
 9594SOL     OW29680   5.792   0.104   0.991
 9594SOL    HW129681   5.775   0.151   0.904
 9594SOL    HW229682   5.855   0.158   1.046
 9595SOL     OW29683   2.146   5.008   5.764
 9595SOL    HW129684   2.233   4.959   5.773
 9595SOL    HW229685   2.090   4.963   5.695
 9596SOL     OW29686   5.498   4.776   2.126
 9596SOL    HW129687   5.432   4.770   2.201
 9596SOL    HW229688   5.590   4.759   2.160
 9597SOL     OW29689   2.109   4.343   1.650
 9597SOL    HW129690   2.121   4.274   1.722
 9597SOL    HW229691   2.071   4.426   1.690
 9598SOL     OW29692   0.920   5.917   5.553
 9598SOL    HW129693   0.998   5.900   5.492
 9598SOL    HW229694   0.908   6.015   5.565
 9599SOL     OW29695   3.648   2.015   5.513
 9599SOL    HW129696   3.701   1.982   5.591
 9599SOL    HW229697   3.551   2.013   5.535
 9600SOL     OW29698   1.362   5.859   6.984
 9600SOL    HW129699   1.277   5.907   7.004
 9600SOL    HW229700   1.435   5.926   6.969
 9601SOL     OW29701   1.744   6.922   4.864
 9601SOL    HW129702   1.678   6.863   4.911
 9601SOL    HW229703   1.718   6.930   4.767
 9602SOL     OW29704   1.148   5.854   6.291
 9602SOL    HW129705   1.224   5.906   6.329
 9602SOL    HW229706   1.067   5.864   6.349
 9603SOL     OW29707   1.239   5.376   1.931
 9603SOL    HW129708   1.151   5.421   1.916
 9603SOL    HW229709   1.307   5.443   1.959
 9604SOL     OW29710   6.930   0.665   6.303
 9604SOL    HW129711   6.832   0.651   6.314
 9604SOL    HW229712   6.953   0.664   6.206
 9605SOL     OW29713   3.926   4.624   1.036
 9605SOL    HW129714   3.878   4.712   1.032
 9605SOL    HW229715   3.870   4.554   0.991
 9606SOL     OW29716   0.010   1.528   5.062
 9606SOL    HW129717   0.041   1.614   5.021
 9606SOL    HW229718   7.019   1.460   4.990
 9607SOL     OW29719   6.915   2.709   3.957
 9607SOL    HW129720   6.829   2.692   3.908
 9607SOL    HW229721   6.980   2.636   3.937
 9608SOL     OW29722   5.996   0.843   1.498
 9608SOL    HW129723   5.961   0.750   1.499
 9608SOL    HW229724   6.059   0.854   1.421
 9609SOL     OW29725   1.305   2.348   4.755
 9609SOL    HW129726   1.358   2.390   4.828
 9609SOL    HW229727   1.209   2.377   4.763
 9610SOL     OW29728   5.108   0.737   5.788
 9610SOL    HW129729   5.045   0.784   5.851
 9610SOL    HW229730   5.196   0.783   5.789
 9611SOL     OW29731   4.817   5.591   1.505
 9611SOL    HW129732   4.726   5.551   1.518
 9611SOL    HW229733   4.887   5.526   1.535
 9612SOL     OW29734   5.647   4.167   3.659
 9612SOL    HW129735   5.588   4.092   3.630
 9612SOL    HW229736   5.626   4.191   3.754
 9613SOL     OW29737   5.431   0.762   4.705
 9613SOL    HW129738   5.504   0.696   4.724
 9613SOL    HW229739   5.402   0.752   4.610
 9614SOL     OW29740   2.834   2.176   0.706
 9614SOL    HW129741   2.799   2.250   0.648
 9614SOL    HW229742   2.839   2.207   0.801
 9615SOL     OW29743   6.753   6.139   3.378
 9615SOL    HW129744   6.713   6.194   3.304
 9615SOL    HW229745   6.833   6.091   3.344
 9616SOL     OW29746   0.674   2.287   1.138
 9616SOL    HW129747   0.582   2.326   1.143
 9616SOL    HW229748   0.671   2.200   1.090
 9617SOL     OW29749   0.022   3.111   3.808
 9617SOL    HW129750   0.028   3.169   3.727
 9617SOL    HW229751   0.077   3.029   3.795
 9618SOL     OW29752   5.065   3.756   1.884
 9618SOL    HW129753   4.978   3.709   1.897
 9618SOL    HW229754   5.072   3.786   1.789
 9619SOL     OW29755   1.032   0.569   0.918
 9619SOL    HW129756   0.958   0.620   0.875
 9619SOL    HW229757   1.076   0.626   0.988
 9620SOL     OW29758   4.221   1.002   6.441
 9620SOL    HW129759   4.207   0.947   6.523
 9620SOL    HW229760   4.284   1.077   6.461
 9621SOL     OW29761   6.702   1.184   1.353
 9621SOL    HW129762   6.800   1.191   1.371
 9621SOL    HW229763   6.658   1.131   1.426
 9622SOL     OW29764   6.672   6.530   4.527
 9622SOL    HW129765   6.692   6.625   4.548
 9622SOL    HW229766   6.673   6.517   4.428
 9623SOL     OW29767   2.169   5.932   6.136
 9623SOL    HW129768   2.163   5.836   6.109
 9623SOL    HW229769   2.240   5.942   6.205
 9624SOL     OW29770   4.568   4.806   6.616
 9624SOL    HW129771   4.555   4.900   6.648
 9624SOL    HW229772   4.521   4.743   6.678
 9625SOL     OW29773   5.242   4.486   5.917
 9625SOL    HW129774   5.161   4.543   5.934
 9625SOL    HW229775   5.225   4.427   5.839
 9626SOL     OW29776   2.421   2.731   6.795
 9626SOL    HW129777   2.339   2.789   6.803
 9626SOL    HW229778   2.493   2.768   6.854
 9627SOL     OW29779   6.622   6.237   0.614
 9627SOL    HW129780   6.631   6.162   0.549
 9627SOL    HW229781   6.535   6.228   0.663
 9628SOL     OW29782   5.812   1.622   5.338
 9628SOL    HW129783   5.741   1.555   5.314
 9628SOL    HW229784   5.853   1.598   5.426
 9629SOL     OW29785   0.511   5.440   4.194
 9629SOL    HW129786   0.540   5.414   4.286
 9629SOL    HW229787   0.588   5.479   4.144
 9630SOL     OW29788   6.173   7.023   6.594
 9630SOL    HW129789   6.249   0.039   6.541
 9630SOL    HW229790   6.208   6.952   6.654
 9631SOL     OW29791   4.961   5.795   0.354
 9631SOL    HW129792   4.974   5.799   0.453
 9631SOL    HW229793   5.037   5.840   0.308
 9632SOL     OW29794   3.143   5.208   2.873
 9632SOL    HW129795   3.163   5.290   2.820
 9632SOL    HW229796   3.103   5.138   2.814
 9633SOL     OW29797   3.222   2.996   5.229
 9633SOL    HW129798   3.222   3.076   5.289
 9633SOL    HW229799   3.278   2.924   5.270
 9634SOL     OW29800   6.301   4.854   2.478
 9634SOL    HW129801   6.343   4.833   2.389
 9634SOL    HW229802   6.312   4.951   2.498
 9635SOL     OW29803   0.681   5.493   4.427
 9635SOL    HW129804   0.773   5.486   4.465
 9635SOL    HW229805   0.675   5.576   4.371
 9636SOL     OW29806   5.170   3.365   3.850
 9636SOL    HW129807   5.239   3.410   3.907
 9636SOL    HW229808   5.204   3.274   3.824
 9637SOL     OW29809   2.796   2.392   6.389
 9637SOL    HW129810   2.738   2.468   6.360
 9637SOL    HW229811   2.882   2.395   6.338
 9638SOL     OW29812   0.339   4.488   5.588
 9638SOL    HW129813   0.428   4.528   5.566
 9638SOL    HW229814   0.318   4.415   5.522
 9639SOL     OW29815   4.948   2.879   1.308
 9639SOL    HW129816   4.901   2.794   1.286
 9639SOL    HW229817   4.893   2.957   1.276
 9640SOL     OW29818   3.218   6.987   3.564
 9640SOL    HW129819   3.136   7.016   3.514
 9640SOL    HW229820   3.236   0.029   3.638
 9641SOL     OW29821   0.887   2.765   4.878
 9641SOL    HW129822   0.976   2.753   4.834
 9641SOL    HW229823   0.870   2.862   4.893
 9642SOL     OW29824   0.477   3.122   5.324
 9642SOL    HW129825   0.456   3.026   5.343
 9642SOL    HW229826   0.570   3.143   5.356
 9643SOL     OW29827   5.752   5.167   4.610
 9643SOL    HW129828   5.714   5.255   4.583
 9643SOL    HW229829   5.677   5.102   4.623
 9644SOL     OW29830   0.563   4.408   3.781
 9644SOL    HW129831   0.502   4.359   3.719
 9644SOL    HW229832   0.608   4.343   3.842
 9645SOL     OW29833   1.310   4.819   6.988
 9645SOL    HW129834   1.334   4.735   0.013
 9645SOL    HW229835   1.352   4.897   0.012
 9646SOL     OW29836   2.875   4.960   0.725
 9646SOL    HW129837   2.956   4.950   0.783
 9646SOL    HW229838   2.823   5.039   0.756
 9647SOL     OW29839   5.752   0.044   3.193
 9647SOL    HW129840   5.704   6.980   3.184
 9647SOL    HW229841   5.686   0.117   3.212
 9648SOL     OW29842   3.677   2.302   1.122
 9648SOL    HW129843   3.737   2.320   1.200
 9648SOL    HW229844   3.589   2.267   1.153
 9649SOL     OW29845   6.935   6.017   0.994
 9649SOL    HW129846   7.021   6.014   1.044
 9649SOL    HW229847   6.944   6.077   0.915
 9650SOL     OW29848   0.569   5.362   4.657
 9650SOL    HW129849   0.573   5.403   4.566
 9650SOL    HW229850   0.659   5.327   4.682
 9651SOL     OW29851   4.650   1.353   6.812
 9651SOL    HW129852   4.643   1.436   6.868
 9651SOL    HW229853   4.601   1.278   6.858
 9652SOL     OW29854   6.982   3.718   0.616
 9652SOL    HW129855   6.973   3.809   0.657
 9652SOL    HW229856   6.924   3.653   0.666
 9653SOL     OW29857   5.301   3.805   5.434
 9653SOL    HW129858   5.261   3.876   5.492
 9653SOL    HW229859   5.324   3.843   5.345
 9654SOL     OW29860   4.076   3.252   4.559
 9654SOL    HW129861   4.018   3.305   4.497
 9654SOL    HW229862   4.115   3.312   4.629
 9655SOL     OW29863   5.162   6.979   0.761
 9655SOL    HW129864   5.092   6.928   0.710
 9655SOL    HW229865   5.214   0.013   0.698
 9656SOL     OW29866   5.829   4.394   6.109
 9656SOL    HW129867   5.882   4.374   6.191
 9656SOL    HW229868   5.732   4.377   6.127
 9657SOL     OW29869   4.876   5.235   3.145
 9657SOL    HW129870   4.967   5.216   3.181
 9657SOL    HW229871   4.819   5.154   3.155
 9658SOL     OW29872   5.279   0.914   2.676
 9658SOL    HW129873   5.305   0.910   2.579
 9658SOL    HW229874   5.348   0.868   2.731
 9659SOL     OW29875   3.138   2.608   0.448
 9659SOL    HW129876   3.101   2.558   0.370
 9659SOL    HW229877   3.236   2.622   0.436
 9660SOL     OW29878   2.641   6.918   1.628
 9660SOL    HW129879   2.571   6.989   1.613
 9660SOL    HW229880   2.597   6.829   1.632
 9661SOL     OW29881   3.991   3.512   2.261
 9661SOL    HW129882   3.892   3.504   2.250
 9661SOL    HW229883   4.013   3.516   2.358
 9662SOL     OW29884   4.198   0.706   5.143
 9662SOL    HW129885   4.244   0.618   5.149
 9662SOL    HW229886   4.103   0.696   5.174
 9663SOL     OW29887   1.227   5.783   2.905
 9663SOL    HW129888   1.135   5.759   2.874
 9663SOL    HW229889   1.223   5.869   2.957
 9664SOL     OW29890   2.134   4.626   3.496
 9664SOL    HW129891   2.056   4.580   3.538
 9664SOL    HW229892   2.149   4.591   3.404
 9665SOL     OW29893   6.152   4.099   6.294
 9665SOL    HW129894   6.118   4.031   6.229
 9665SOL    HW229895   6.225   4.058   6.349
 9666SOL     OW29896   5.186   3.937   0.611
 9666SOL    HW129897   5.167   3.905   0.518
 9666SOL    HW229898   5.195   4.037   0.610
 9667SOL     OW29899   5.846   6.198   6.543
 9667SOL    HW129900   5.754   6.233   6.564
 9667SOL    HW229901   5.840   6.101   6.519
 9668SOL     OW29902   2.452   0.244   0.281
 9668SOL    HW129903   2.480   0.272   0.189
 9668SOL    HW229904   2.531   0.211   0.332
 9669SOL     OW29905   3.742   0.348   0.506
 9669SOL    HW129906   3.717   0.311   0.595
 9669SOL    HW229907   3.687   0.304   0.435
 9670SOL     OW29908   1.014   0.014   2.008
 9670SOL    HW129909   0.929   0.063   1.986
 9670SOL    HW229910   1.063   7.015   1.924
 9671SOL     OW29911   0.943   6.457   6.131
 9671SOL    HW129912   1.028   6.496   6.168
 9671SOL    HW229913   0.865   6.492   6.182
 9672SOL     OW29914   1.099   4.310   4.359
 9672SOL    HW129915   1.013   4.360   4.347
 9672SOL    HW229916   1.164   4.367   4.410
 9673SOL     OW29917   2.139   3.435   5.932
 9673SOL    HW129918   2.219   3.391   5.891
 9673SOL    HW229919   2.056   3.397   5.890
 9674SOL     OW29920   1.839   0.276   3.692
 9674SOL    HW129921   1.816   0.181   3.669
 9674SOL    HW229922   1.935   0.281   3.719
 9675SOL     OW29923   6.156   4.060   5.823
 9675SOL    HW129924   6.087   4.130   5.807
 9675SOL    HW229925   6.132   4.006   5.903
 9676SOL     OW29926   0.958   3.175   6.122
 9676SOL    HW129927   0.868   3.164   6.079
 9676SOL    HW229928   0.964   3.266   6.164
 9677SOL     OW29929   0.514   4.622   2.608
 9677SOL    HW129930   0.445   4.557   2.576
 9677SOL    HW229931   0.567   4.582   2.682
 9678SOL     OW29932   4.403   2.967   6.183
 9678SOL    HW129933   4.490   3.016   6.175
 9678SOL    HW229934   4.365   2.953   6.092
 9679SOL     OW29935   1.100   1.049   4.070
 9679SOL    HW129936   1.025   1.099   4.027
 9679SOL    HW229937   1.185   1.098   4.054
 9680SOL     OW29938   4.698   0.234   1.587
 9680SOL    HW129939   4.745   0.170   1.526
 9680SOL    HW229940   4.761   0.307   1.615
 9681SOL     OW29941   0.521   3.298   1.674
 9681SOL    HW129942   0.462   3.353   1.733
 9681SOL    HW229943   0.616   3.326   1.685
 9682SOL     OW29944   3.772   6.449   5.419
 9682SOL    HW129945   3.817   6.361   5.434
 9682SOL    HW229946   3.841   6.520   5.405
 9683SOL     OW29947   3.163   5.940   3.599
 9683SOL    HW129948   3.163   5.873   3.673
 9683SOL    HW229949   3.254   5.946   3.560
 9684SOL     OW29950   0.904   2.844   6.462
 9684SOL    HW129951   0.969   2.859   6.387
 9684SOL    HW229952   0.843   2.923   6.469
 9685SOL     OW29953   3.675   4.432   1.680
 9685SOL    HW129954   3.637   4.503   1.739
 9685SOL    HW229955   3.601   4.376   1.643
 9686SOL     OW29956   0.523   1.900   6.078
 9686SOL    HW129957   0.549   1.960   6.002
 9686SOL    HW229958   0.458   1.831   6.045
 9687SOL     OW29959   5.463   1.079   3.754
 9687SOL    HW129960   5.420   1.149   3.811
 9687SOL    HW229961   5.438   0.988   3.787
 9688SOL     OW29962   0.382   5.002   2.415
 9688SOL    HW129963   0.317   5.004   2.339
 9688SOL    HW229964   0.409   5.095   2.438
 9689SOL     OW29965   1.953   5.591   1.297
 9689SOL    HW129966   2.053   5.596   1.304
 9689SOL    HW229967   1.923   5.499   1.322
 9690SOL     OW29968   6.153   4.612   5.099
 9690SOL    HW129969   6.108   4.696   5.070
 9690SOL    HW229970   6.124   4.588   5.191
 9691SOL     OW29971   3.689   3.200   2.008
 9691SOL    HW129972   3.768   3.199   2.069
 9691SOL    HW229973   3.613   3.246   2.053
 9692SOL     OW29974   5.194   4.962   0.504
 9692SOL    HW129975   5.278   5.015   0.490
 9692SOL    HW229976   5.202   4.876   0.454
 9693SOL     OW29977   4.349   3.216   6.555
 9693SOL    HW129978   4.393   3.303   6.578
 9693SOL    HW229979   4.338   3.161   6.638
 9694SOL     OW29980   2.574   6.472   0.919
 9694SOL    HW129981   2.594   6.515   0.831
 9694SOL    HW229982   2.475   6.469   0.933
 9695SOL     OW29983   1.832   2.546   3.573
 9695SOL    HW129984   1.894   2.536   3.495
 9695SOL    HW229985   1.756   2.606   3.548
 9696SOL     OW29986   4.983   3.574   3.537
 9696SOL    HW129987   4.950   3.669   3.542
 9696SOL    HW229988   4.938   3.520   3.608
 9697SOL     OW29989   6.787   0.058   1.829
 9697SOL    HW129990   6.758   6.997   1.875
 9697SOL    HW229991   6.707   0.116   1.813
 9698SOL     OW29992   6.693   3.337   1.893
 9698SOL    HW129993   6.670   3.270   1.823
 9698SOL    HW229994   6.614   3.396   1.909
 9699SOL     OW29995   1.762   6.872   2.021
 9699SOL    HW129996   1.764   6.781   2.063
 9699SOL    HW229997   1.854   6.897   1.992
 9700SOL     OW29998   6.368   0.431   5.511
 9700SOL    HW129999   6.463   0.400   5.522
 9700SOL    HW230000   6.305   0.357   5.535
 9701SOL     OW30001   5.289   3.719   6.686
 9701SOL    HW130002   5.206   3.771   6.665
 9701SOL    HW230003   5.267   3.622   6.697
 9702SOL     OW30004   3.092   3.923   1.752
 9702SOL    HW130005   3.164   3.905   1.685
 9702SOL    HW230006   3.013   3.864   1.732
 9703SOL     OW30007   6.304   5.493   2.944
 9703SOL    HW130008   6.237   5.555   2.904
 9703SOL    HW230009   6.281   5.476   3.040
 9704SOL     OW30010   0.509   4.381   2.328
 9704SOL    HW130011   0.483   4.297   2.279
 9704SOL    HW230012   0.497   4.460   2.268
 9705SOL     OW30013   6.867   3.734   5.785
 9705SOL    HW130014   6.918   3.647   5.788
 9705SOL    HW230015   6.795   3.727   5.716
 9706SOL     OW30016   1.197   6.349   1.730
 9706SOL    HW130017   1.108   6.380   1.696
 9706SOL    HW230018   1.238   6.287   1.662
 9707SOL     OW30019   1.169   5.348   2.268
 9707SOL    HW130020   1.267   5.367   2.260
 9707SOL    HW230021   1.130   5.406   2.340
 9708SOL     OW30022   2.361   1.315   2.277
 9708SOL    HW130023   2.363   1.223   2.238
 9708SOL    HW230024   2.428   1.373   2.231
 9709SOL     OW30025   4.557   1.670   2.291
 9709SOL    HW130026   4.512   1.713   2.213
 9709SOL    HW230027   4.603   1.587   2.261
 9710SOL     OW30028   4.693   4.350   4.259
 9710SOL    HW130029   4.665   4.324   4.352
 9710SOL    HW230030   4.622   4.406   4.217
 9711SOL     OW30031   2.949   0.674   7.017
 9711SOL    HW130032   2.950   0.584   6.973
 9711SOL    HW230033   2.885   0.733   6.969
 9712SOL     OW30034   5.002   6.760   5.250
 9712SOL    HW130035   5.007   6.790   5.155
 9712SOL    HW230036   4.959   6.669   5.254
 9713SOL     OW30037   0.930   0.673   2.927
 9713SOL    HW130038   0.906   0.757   2.878
 9713SOL    HW230039   1.014   0.687   2.978
 9714SOL     OW30040   2.246   2.731   4.484
 9714SOL    HW130041   2.254   2.825   4.516
 9714SOL    HW230042   2.332   2.682   4.503
 9715SOL     OW30043   0.078   1.817   6.192
 9715SOL    HW130044   7.018   1.836   6.246
 9715SOL    HW230045   0.147   1.778   6.252
 9716SOL     OW30046   2.031   6.578   0.832
 9716SOL    HW130047   2.053   6.663   0.785
 9716SOL    HW230048   2.116   6.530   0.855
 9717SOL     OW30049   4.011   2.221   6.227
 9717SOL    HW130050   4.095   2.264   6.195
 9717SOL    HW230051   3.937   2.288   6.227
 9718SOL     OW30052   3.009   2.010   6.350
 9718SOL    HW130053   3.076   1.941   6.325
 9718SOL    HW230054   3.054   2.084   6.400
 9719SOL     OW30055   3.985   0.008   5.209
 9719SOL    HW130056   3.917   6.963   5.236
 9719SOL    HW230057   3.939   0.095   5.190
 9720SOL     OW30058   1.867   2.825   2.142
 9720SOL    HW130059   1.892   2.814   2.239
 9720SOL    HW230060   1.869   2.736   2.097
 9721SOL     OW30061   0.868   2.226   1.614
 9721SOL    HW130062   0.801   2.228   1.688
 9721SOL    HW230063   0.830   2.269   1.533
 9722SOL     OW30064   3.326   2.765   5.447
 9722SOL    HW130065   3.352   2.675   5.412
 9722SOL    HW230066   3.402   2.802   5.501
 9723SOL     OW30067   5.893   0.131   5.063
 9723SOL    HW130068   5.979   0.181   5.073
 9723SOL    HW230069   5.837   0.144   5.145
 9724SOL     OW30070   2.107   5.355   1.505
 9724SOL    HW130071   2.016   5.370   1.466
 9724SOL    HW230072   2.148   5.273   1.463
 9725SOL     OW30073   5.440   5.487   3.881
 9725SOL    HW130074   5.506   5.560   3.864
 9725SOL    HW230075   5.353   5.527   3.909
 9726SOL     OW30076   0.175   0.307   3.310
 9726SOL    HW130077   0.252   0.247   3.329
 9726SOL    HW230078   0.129   0.277   3.227
 9727SOL     OW30079   6.828   2.813   1.605
 9727SOL    HW130080   6.789   2.866   1.529
 9727SOL    HW230081   6.756   2.759   1.648
 9728SOL     OW30082   6.083   1.823   4.700
 9728SOL    HW130083   6.042   1.872   4.624
 9728SOL    HW230084   6.054   1.727   4.697
 9729SOL     OW30085   0.048   3.665   2.557
 9729SOL    HW130086   0.038   3.737   2.626
 9729SOL    HW230087   6.981   3.637   2.524
 9730SOL     OW30088   0.676   5.563   3.783
 9730SOL    HW130089   0.740   5.628   3.742
 9730SOL    HW230090   0.660   5.488   3.720
 9731SOL     OW30091   6.642   1.753   1.451
 9731SOL    HW130092   6.614   1.845   1.424
 9731SOL    HW230093   6.740   1.754   1.473
 9732SOL     OW30094   0.318   2.827   3.474
 9732SOL    HW130095   0.294   2.751   3.413
 9732SOL    HW230096   0.263   2.822   3.557
 9733SOL     OW30097   5.719   5.628   0.716
 9733SOL    HW130098   5.634   5.651   0.670
 9733SOL    HW230099   5.711   5.646   0.814
 9734SOL     OW30100   3.827   3.775   0.060
 9734SOL    HW130101   3.893   3.724   0.006
 9734SOL    HW230102   3.748   3.717   0.080
 9735SOL     OW30103   0.839   1.657   0.468
 9735SOL    HW130104   0.868   1.678   0.562
 9735SOL    HW230105   0.899   1.702   0.403
 9736SOL     OW30106   5.104   2.102   5.415
 9736SOL    HW130107   5.032   2.136   5.475
 9736SOL    HW230108   5.152   2.026   5.459
 9737SOL     OW30109   5.489   3.405   4.840
 9737SOL    HW130110   5.562   3.463   4.805
 9737SOL    HW230111   5.414   3.402   4.773
 9738SOL     OW30112   2.493   6.180   1.592
 9738SOL    HW130113   2.424   6.178   1.519
 9738SOL    HW230114   2.562   6.110   1.573
 9739SOL     OW30115   5.555   6.611   0.282
 9739SOL    HW130116   5.614   6.687   0.255
 9739SOL    HW230117   5.575   6.585   0.376
 9740SOL     OW30118   6.834   1.038   0.911
 9740SOL    HW130119   6.800   0.970   0.976
 9740SOL    HW230120   6.918   1.078   0.946
 9741SOL     OW30121   2.207   2.792   3.456
 9741SOL    HW130122   2.159   2.838   3.531
 9741SOL    HW230123   2.196   2.693   3.466
 9742SOL     OW30124   4.165   0.746   6.814
 9742SOL    HW130125   4.186   0.715   6.721
 9742SOL    HW230126   4.174   0.670   6.878
 9743SOL     OW30127   6.830   3.823   4.607
 9743SOL    HW130128   6.846   3.737   4.655
 9743SOL    HW230129   6.824   3.806   4.509
 9744SOL     OW30130   1.712   2.431   2.339
 9744SOL    HW130131   1.771   2.357   2.306
 9744SOL    HW230132   1.733   2.449   2.435
 9745SOL     OW30133   1.465   6.173   6.208
 9745SOL    HW130134   1.452   6.255   6.153
 9745SOL    HW230135   1.410   6.099   6.170
 9746SOL     OW30136   3.462   6.470   6.452
 9746SOL    HW130137   3.504   6.379   6.458
 9746SOL    HW230138   3.419   6.493   6.539
 9747SOL     OW30139   4.246   1.508   3.368
 9747SOL    HW130140   4.187   1.551   3.300
 9747SOL    HW230141   4.282   1.579   3.430
 9748SOL     OW30142   0.431   2.025   3.175
 9748SOL    HW130143   0.482   1.939   3.172
 9748SOL    HW230144   0.494   2.102   3.167
 9749SOL     OW30145   6.681   0.427   1.319
 9749SOL    HW130146   6.666   0.361   1.393
 9749SOL    HW230147   6.633   0.397   1.237
 9750SOL     OW30148   5.768   1.841   4.967
 9750SOL    HW130149   5.709   1.911   5.008
 9750SOL    HW230150   5.847   1.825   5.027
 9751SOL     OW30151   2.677   6.179   0.937
 9751SOL    HW130152   2.737   6.258   0.922
 9751SOL    HW230153   2.700   6.135   1.023
 9752SOL     OW30154   3.717   3.716   0.974
 9752SOL    HW130155   3.727   3.728   0.875
 9752SOL    HW230156   3.751   3.626   1.000
 9753SOL     OW30157   6.322   6.509   3.110
 9753SOL    HW130158   6.351   6.471   3.197
 9753SOL    HW230159   6.402   6.521   3.051
 9754SOL     OW30160   3.158   0.820   1.913
 9754SOL    HW130161   3.163   0.888   1.986
 9754SOL    HW230162   3.202   0.735   1.943
 9755SOL     OW30163   2.938   4.089   1.208
 9755SOL    HW130164   2.845   4.052   1.207
 9755SOL    HW230165   3.004   4.013   1.213
 9756SOL     OW30166   5.348   7.007   6.769
 9756SOL    HW130167   5.411   0.038   6.713
 9756SOL    HW230168   5.343   0.024   6.861
 9757SOL     OW30169   5.163   3.884   4.112
 9757SOL    HW130170   5.124   3.830   4.187
 9757SOL    HW230171   5.140   3.980   4.125
 9758SOL     OW30172   3.566   1.014   2.115
 9758SOL    HW130173   3.657   1.033   2.079
 9758SOL    HW230174   3.573   0.983   2.210
 9759SOL     OW30175   7.000   2.271   1.141
 9759SOL    HW130176   7.001   2.174   1.162
 9759SOL    HW230177   6.910   2.309   1.164
 9760SOL     OW30178   5.039   0.611   6.211
 9760SOL    HW130179   4.953   0.616   6.160
 9760SOL    HW230180   5.047   0.692   6.270
 9761SOL     OW30181   0.907   1.667   1.813
 9761SOL    HW130182   0.975   1.740   1.811
 9761SOL    HW230183   0.947   1.584   1.773
 9762SOL     OW30184   4.166   0.729   6.159
 9762SOL    HW130185   4.102   0.805   6.164
 9762SOL    HW230186   4.241   0.744   6.223
 9763SOL     OW30187   5.909   1.874   1.057
 9763SOL    HW130188   5.892   1.952   1.117
 9763SOL    HW230189   5.845   1.877   0.980
 9764SOL     OW30190   0.296   2.388   3.352
 9764SOL    HW130191   0.223   2.344   3.300
 9764SOL    HW230192   0.320   2.475   3.310
 9765SOL     OW30193   6.526   1.976   1.315
 9765SOL    HW130194   6.462   2.053   1.328
 9765SOL    HW230195   6.620   2.009   1.326
 9766SOL     OW30196   0.209   2.529   2.996
 9766SOL    HW130197   0.120   2.537   2.951
 9766SOL    HW230198   0.275   2.489   2.933
 9767SOL     OW30199   3.915   1.706   5.090
 9767SOL    HW130200   3.900   1.664   5.179
 9767SOL    HW230201   3.868   1.794   5.085
 9768SOL     OW30202   5.182   1.606   6.507
 9768SOL    HW130203   5.084   1.588   6.493
 9768SOL    HW230204   5.215   1.665   6.434
 9769SOL     OW30205   4.158   1.192   5.369
 9769SOL    HW130206   4.119   1.283   5.353
 9769SOL    HW230207   4.154   1.138   5.285
 9770SOL     OW30208   1.752   3.296   5.096
 9770SOL    HW130209   1.841   3.268   5.132
 9770SOL    HW230210   1.765   3.348   5.011
 9771SOL     OW30211   3.533   0.656   1.882
 9771SOL    HW130212   3.584   0.737   1.853
 9771SOL    HW230213   3.451   0.646   1.827
 9772SOL     OW30214   0.160   0.571   2.011
 9772SOL    HW130215   0.158   0.610   2.103
 9772SOL    HW230216   0.228   0.497   2.007
 9773SOL     OW30217   5.482   6.073   1.759
 9773SOL    HW130218   5.448   5.981   1.741
 9773SOL    HW230219   5.499   6.121   1.673
 9774SOL     OW30220   1.817   5.963   4.721
 9774SOL    HW130221   1.762   6.042   4.750
 9774SOL    HW230222   1.908   5.970   4.760
 9775SOL     OW30223   1.343   1.266   3.117
 9775SOL    HW130224   1.363   1.301   3.208
 9775SOL    HW230225   1.341   1.342   3.052
 9776SOL     OW30226   1.666   5.845   1.503
 9776SOL    HW130227   1.677   5.747   1.484
 9776SOL    HW230228   1.693   5.864   1.597
 9777SOL     OW30229   4.372   1.601   4.989
 9777SOL    HW130230   4.356   1.668   5.062
 9777SOL    HW230231   4.383   1.648   4.902
 9778SOL     OW30232   1.393   3.720   2.976
 9778SOL    HW130233   1.437   3.757   3.058
 9778SOL    HW230234   1.328   3.787   2.940
 9779SOL     OW30235   2.804   0.925   3.225
 9779SOL    HW130236   2.773   0.983   3.301
 9779SOL    HW230237   2.752   0.840   3.226
 9780SOL     OW30238   0.898   1.739   0.757
 9780SOL    HW130239   0.983   1.716   0.805
 9780SOL    HW230240   0.904   1.830   0.718
 9781SOL     OW30241   1.166   1.208   2.285
 9781SOL    HW130242   1.127   1.123   2.250
 9781SOL    HW230243   1.095   1.263   2.328
 9782SOL     OW30244   0.111   2.628   0.531
 9782SOL    HW130245   0.097   2.720   0.495
 9782SOL    HW230246   0.204   2.597   0.510
 9783SOL     OW30247   4.981   2.031   2.161
 9783SOL    HW130248   4.913   1.969   2.198
 9783SOL    HW230249   5.064   2.027   2.216
 9784SOL     OW30250   2.134   1.299   0.606
 9784SOL    HW130251   2.125   1.358   0.525
 9784SOL    HW230252   2.144   1.356   0.687
 9785SOL     OW30253   1.631   3.571   4.539
 9785SOL    HW130254   1.646   3.565   4.440
 9785SOL    HW230255   1.554   3.633   4.557
 9786SOL     OW30256   2.799   4.831   6.717
 9786SOL    HW130257   2.772   4.914   6.765
 9786SOL    HW230258   2.750   4.826   6.630
 9787SOL     OW30259   2.345   3.415   0.739
 9787SOL    HW130260   2.342   3.502   0.690
 9787SOL    HW230261   2.436   3.376   0.731
 9788SOL     OW30262   3.067   6.765   2.438
 9788SOL    HW130263   3.074   6.669   2.465
 9788SOL    HW230264   3.088   6.823   2.517
 9789SOL     OW30265   4.401   1.919   0.691
 9789SOL    HW130266   4.414   1.826   0.725
 9789SOL    HW230267   4.321   1.960   0.734
 9790SOL     OW30268   4.414   5.817   5.068
 9790SOL    HW130269   4.434   5.840   5.164
 9790SOL    HW230270   4.335   5.870   5.037
 9791SOL     OW30271   0.210   1.274   1.325
 9791SOL    HW130272   0.235   1.366   1.355
 9791SOL    HW230273   0.291   1.229   1.287
 9792SOL     OW30274   3.254   3.831   0.728
 9792SOL    HW130275   3.164   3.856   0.693
 9792SOL    HW230276   3.286   3.902   0.792
 9793SOL     OW30277   5.942   1.298   1.999
 9793SOL    HW130278   6.024   1.255   1.962
 9793SOL    HW230279   5.947   1.397   1.985
 9794SOL     OW30280   4.260   5.677   4.418
 9794SOL    HW130281   4.212   5.594   4.445
 9794SOL    HW230282   4.312   5.712   4.497
 9795SOL     OW30283   1.770   4.332   3.230
 9795SOL    HW130284   1.773   4.422   3.274
 9795SOL    HW230285   1.698   4.277   3.272
 9796SOL     OW30286   3.610   3.601   4.635
 9796SOL    HW130287   3.577   3.688   4.670
 9796SOL    HW230288   3.568   3.583   4.546
 9797SOL     OW30289   3.489   5.680   6.731
 9797SOL    HW130290   3.499   5.723   6.641
 9797SOL    HW230291   3.548   5.599   6.735
 9798SOL     OW30292   0.191   4.113   6.214
 9798SOL    HW130293   0.261   4.181   6.238
 9798SOL    HW230294   0.185   4.106   6.115
 9799SOL     OW30295   4.173   6.268   6.720
 9799SOL    HW130296   4.163   6.367   6.713
 9799SOL    HW230297   4.083   6.224   6.710
 9800SOL     OW30298   6.610   4.386   4.994
 9800SOL    HW130299   6.697   4.416   4.955
 9800SOL    HW230300   6.627   4.319   5.067
 9801SOL     OW30301   4.312   0.332   0.566
 9801SOL    HW130302   4.214   0.349   0.571
 9801SOL    HW230303   4.346   0.302   0.655
 9802SOL     OW30304   3.810   3.213   0.435
 9802SOL    HW130305   3.736   3.189   0.499
 9802SOL    HW230306   3.778   3.284   0.372
 9803SOL     OW30307   2.830   3.378   0.206
 9803SOL    HW130308   2.745   3.418   0.241
 9803SOL    HW230309   2.810   3.319   0.128
 9804SOL     OW30310   0.987   4.407   3.041
 9804SOL    HW130311   1.062   4.348   3.069
 9804SOL    HW230312   1.023   4.488   2.996
 9805SOL     OW30313   0.252   5.542   4.602
 9805SOL    HW130314   0.210   5.575   4.686
 9805SOL    HW230315   0.217   5.452   4.579
 9806SOL     OW30316   3.541   1.195   6.767
 9806SOL    HW130317   3.538   1.287   6.727
 9806SOL    HW230318   3.524   1.128   6.695
 9807SOL     OW30319   3.404   3.208   3.890
 9807SOL    HW130320   3.476   3.267   3.927
 9807SOL    HW230321   3.429   3.180   3.797
 9808SOL     OW30322   3.278   6.185   2.453
 9808SOL    HW130323   3.280   6.204   2.551
 9808SOL    HW230324   3.287   6.086   2.438
 9809SOL     OW30325   6.188   2.880   1.328
 9809SOL    HW130326   6.177   2.964   1.276
 9809SOL    HW230327   6.156   2.802   1.274
 9810SOL     OW30328   3.349   2.747   0.981
 9810SOL    HW130329   3.345   2.808   1.061
 9810SOL    HW230330   3.442   2.746   0.945
 9811SOL     OW30331   5.176   3.761   3.890
 9811SOL    HW130332   5.242   3.689   3.868
 9811SOL    HW230333   5.184   3.786   3.987
 9812SOL     OW30334   3.434   5.318   6.241
 9812SOL    HW130335   3.334   5.320   6.236
 9812SOL    HW230336   3.462   5.266   6.321
 9813SOL     OW30337   4.377   1.373   2.172
 9813SOL    HW130338   4.295   1.341   2.220
 9813SOL    HW230339   4.355   1.456   2.122
 9814SOL     OW30340   6.722   1.969   6.013
 9814SOL    HW130341   6.626   1.976   6.040
 9814SOL    HW230342   6.751   1.874   6.016
 9815SOL     OW30343   5.256   2.404   4.368
 9815SOL    HW130344   5.173   2.417   4.314
 9815SOL    HW230345   5.233   2.405   4.465
 9816SOL     OW30346   3.255   0.728   0.206
 9816SOL    HW130347   3.186   0.799   0.222
 9816SOL    HW230348   3.230   0.646   0.257
 9817SOL     OW30349   6.789   0.103   1.319
 9817SOL    HW130350   6.870   0.055   1.351
 9817SOL    HW230351   6.725   0.115   1.396
 9818SOL     OW30352   3.688   2.191   5.295
 9818SOL    HW130353   3.598   2.208   5.256
 9818SOL    HW230354   3.679   2.156   5.388
 9819SOL     OW30355   2.478   0.633   1.602
 9819SOL    HW130356   2.447   0.600   1.513
 9819SOL    HW230357   2.539   0.565   1.643
 9820SOL     OW30358   3.682   2.759   6.918
 9820SOL    HW130359   3.698   2.742   6.821
 9820SOL    HW230360   3.770   2.777   6.964
 9821SOL     OW30361   6.956   5.538   0.271
 9821SOL    HW130362   6.921   5.520   0.363
 9821SOL    HW230363   6.895   5.603   0.224
 9822SOL     OW30364   0.193   0.682   2.267
 9822SOL    HW130365   0.109   0.673   2.321
 9822SOL    HW230366   0.256   0.608   2.291
 9823SOL     OW30367   3.664   6.718   1.563
 9823SOL    HW130368   3.685   6.678   1.653
 9823SOL    HW230369   3.654   6.645   1.496
 9824SOL     OW30370   2.197   3.873   5.648
 9824SOL    HW130371   2.153   3.804   5.705
 9824SOL    HW230372   2.162   3.866   5.555
 9825SOL     OW30373   3.951   5.568   5.001
 9825SOL    HW130374   4.028   5.569   5.065
 9825SOL    HW230375   3.942   5.657   4.958
 9826SOL     OW30376   5.956   6.373   5.379
 9826SOL    HW130377   5.863   6.358   5.346
 9826SOL    HW230378   6.002   6.286   5.392
 9827SOL     OW30379   0.981   5.215   4.894
 9827SOL    HW130380   1.008   5.309   4.917
 9827SOL    HW230381   1.061   5.155   4.902
 9828SOL     OW30382   2.746   1.665   6.776
 9828SOL    HW130383   2.813   1.739   6.769
 9828SOL    HW230384   2.677   1.676   6.704
 9829SOL     OW30385   2.584   4.316   1.653
 9829SOL    HW130386   2.506   4.328   1.715
 9829SOL    HW230387   2.639   4.399   1.653
 9830SOL     OW30388   6.209   1.488   0.996
 9830SOL    HW130389   6.167   1.554   1.058
 9830SOL    HW230390   6.270   1.428   1.047
 9831SOL     OW30391   6.204   6.386   1.230
 9831SOL    HW130392   6.224   6.289   1.224
 9831SOL    HW230393   6.222   6.418   1.323
 9832SOL     OW30394   3.548   4.197   0.805
 9832SOL    HW130395   3.605   4.136   0.861
 9832SOL    HW230396   3.587   4.201   0.712
 9833SOL     OW30397   4.483   4.423   6.470
 9833SOL    HW130398   4.525   4.513   6.456
 9833SOL    HW230399   4.420   4.404   6.395
 9834SOL     OW30400   2.141   2.315   4.175
 9834SOL    HW130401   2.216   2.349   4.232
 9834SOL    HW230402   2.121   2.381   4.103
 9835SOL     OW30403   5.758   1.556   4.903
 9835SOL    HW130404   5.758   1.654   4.882
 9835SOL    HW230405   5.719   1.541   4.994
 9836SOL     OW30406   5.229   5.370   1.196
 9836SOL    HW130407   5.257   5.458   1.237
 9836SOL    HW230408   5.307   5.329   1.150
 9837SOL     OW30409   2.475   6.122   5.796
 9837SOL    HW130410   2.441   6.174   5.717
 9837SOL    HW230411   2.447   6.169   5.880
 9838SOL     OW30412   6.674   5.797   4.848
 9838SOL    HW130413   6.653   5.704   4.817
 9838SOL    HW230414   6.695   5.796   4.945
 9839SOL     OW30415   5.770   3.313   2.457
 9839SOL    HW130416   5.752   3.409   2.436
 9839SOL    HW230417   5.775   3.301   2.556
 9840SOL     OW30418   5.844   0.450   0.341
 9840SOL    HW130419   5.785   0.531   0.346
 9840SOL    HW230420   5.897   0.442   0.425
 9841SOL     OW30421   2.261   3.023   4.643
 9841SOL    HW130422   2.255   3.116   4.681
 9841SOL    HW230423   2.250   2.956   4.717
 9842SOL     OW30424   3.304   3.846   3.947
 9842SOL    HW130425   3.394   3.835   3.906
 9842SOL    HW230426   3.238   3.788   3.900
 9843SOL     OW30427   5.783   4.709   3.107
 9843SOL    HW130428   5.874   4.750   3.103
 9843SOL    HW230429   5.778   4.647   3.186
 9844SOL     OW30430   5.070   6.999   2.055
 9844SOL    HW130431   5.137   0.019   2.115
 9844SOL    HW230432   5.092   7.018   1.960
 9845SOL     OW30433   1.518   1.723   3.648
 9845SOL    HW130434   1.443   1.709   3.712
 9845SOL    HW230435   1.484   1.711   3.554
 9846SOL     OW30436   2.947   3.726   3.769
 9846SOL    HW130437   2.911   3.633   3.755
 9846SOL    HW230438   2.924   3.757   3.861
 9847SOL     OW30439   2.418   4.522   5.025
 9847SOL    HW130440   2.416   4.423   5.038
 9847SOL    HW230441   2.411   4.544   4.928
 9848SOL     OW30442   6.081   3.639   0.227
 9848SOL    HW130443   5.992   3.682   0.212
 9848SOL    HW230444   6.091   3.562   0.164
 9849SOL     OW30445   6.750   6.163   5.572
 9849SOL    HW130446   6.821   6.100   5.604
 9849SOL    HW230447   6.757   6.173   5.472
 9850SOL     OW30448   4.691   0.357   3.310
 9850SOL    HW130449   4.663   0.354   3.214
 9850SOL    HW230450   4.742   0.442   3.327
 9851SOL     OW30451   5.191   2.552   5.507
 9851SOL    HW130452   5.159   2.644   5.485
 9851SOL    HW230453   5.200   2.498   5.424
 9852SOL     OW30454   5.655   1.485   4.502
 9852SOL    HW130455   5.644   1.394   4.463
 9852SOL    HW230456   5.631   1.483   4.599
 9853SOL     OW30457   0.695   4.719   1.331
 9853SOL    HW130458   0.726   4.774   1.409
 9853SOL    HW230459   0.679   4.625   1.362
 9854SOL     OW30460   3.621   6.748   3.846
 9854SOL    HW130461   3.645   6.739   3.749
 9854SOL    HW230462   3.687   6.697   3.902
 9855SOL     OW30463   1.736   4.341   0.805
 9855SOL    HW130464   1.692   4.361   0.717
 9855SOL    HW230465   1.709   4.410   0.872
 9856SOL     OW30466   3.571   3.057   1.485
 9856SOL    HW130467   3.535   3.126   1.548
 9856SOL    HW230468   3.542   3.078   1.392
 9857SOL     OW30469   6.288   4.706   3.062
 9857SOL    HW130470   6.313   4.747   2.975
 9857SOL    HW230471   6.332   4.756   3.137
 9858SOL     OW30472   3.608   1.705   1.346
 9858SOL    HW130473   3.569   1.615   1.330
 9858SOL    HW230474   3.550   1.757   1.408
 9859SOL     OW30475   0.060   0.195   1.559
 9859SOL    HW130476   0.061   0.246   1.473
 9859SOL    HW230477   0.053   0.259   1.636
 9860SOL     OW30478   0.615   1.102   2.693
 9860SOL    HW130479   0.565   1.185   2.670
 9860SOL    HW230480   0.714   1.120   2.690
 9861SOL     OW30481   3.147   6.280   4.262
 9861SOL    HW130482   3.176   6.192   4.300
 9861SOL    HW230483   3.162   6.352   4.329
 9862SOL     OW30484   0.412   2.088   1.006
 9862SOL    HW130485   0.471   2.021   0.962
 9862SOL    HW230486   0.385   2.158   0.940
 9863SOL     OW30487   3.607   0.223   0.320
 9863SOL    HW130488   3.627   0.160   0.246
 9863SOL    HW230489   3.517   0.202   0.359
 9864SOL     OW30490   4.436   6.100   3.233
 9864SOL    HW130491   4.478   6.131   3.318
 9864SOL    HW230492   4.344   6.138   3.226
 9865SOL     OW30493   1.879   2.862   3.712
 9865SOL    HW130494   1.796   2.821   3.676
 9865SOL    HW230495   1.876   2.861   3.812
 9866SOL     OW30496   3.297   5.082   3.595
 9866SOL    HW130497   3.277   5.018   3.670
 9866SOL    HW230498   3.380   5.052   3.547
 9867SOL     OW30499   4.053   6.844   6.610
 9867SOL    HW130500   4.023   6.864   6.703
 9867SOL    HW230501   3.976   6.855   6.546
 9868SOL     OW30502   1.132   5.164   5.710
 9868SOL    HW130503   1.112   5.097   5.782
 9868SOL    HW230504   1.229   5.157   5.685
 9869SOL     OW30505   1.190   4.253   3.144
 9869SOL    HW130506   1.221   4.166   3.107
 9869SOL    HW230507   1.142   4.238   3.230
 9870SOL     OW30508   4.383   4.848   1.859
 9870SOL    HW130509   4.311   4.822   1.923
 9870SOL    HW230510   4.431   4.928   1.894
 9871SOL     OW30511   1.698   1.915   5.885
 9871SOL    HW130512   1.759   1.928   5.807
 9871SOL    HW230513   1.694   1.998   5.940
 9872SOL     OW30514   1.171   4.035   3.598
 9872SOL    HW130515   1.138   3.963   3.660
 9872SOL    HW230516   1.197   4.115   3.651
 9873SOL     OW30517   1.544   1.696   0.363
 9873SOL    HW130518   1.597   1.631   0.308
 9873SOL    HW230519   1.601   1.730   0.438
 9874SOL     OW30520   1.028   3.828   4.600
 9874SOL    HW130521   1.073   3.790   4.681
 9874SOL    HW230522   1.058   3.922   4.585
 9875SOL     OW30523   1.065   1.230   3.042
 9875SOL    HW130524   1.028   1.255   3.131
 9875SOL    HW230525   1.164   1.217   3.050
 9876SOL     OW30526   0.264   5.272   2.191
 9876SOL    HW130527   0.234   5.214   2.267
 9876SOL    HW230528   0.300   5.215   2.118
 9877SOL     OW30529   3.815   0.300   1.474
 9877SOL    HW130530   3.752   0.255   1.537
 9877SOL    HW230531   3.838   0.391   1.510
 9878SOL     OW30532   0.158   0.575   4.863
 9878SOL    HW130533   0.095   0.530   4.800
 9878SOL    HW230534   0.245   0.526   4.865
 9879SOL     OW30535   5.424   5.718   5.182
 9879SOL    HW130536   5.357   5.754   5.247
 9879SOL    HW230537   5.383   5.713   5.091
 9880SOL     OW30538   1.896   1.461   3.889
 9880SOL    HW130539   1.879   1.530   3.819
 9880SOL    HW230540   1.943   1.503   3.967
 9881SOL     OW30541   0.201   1.432   6.199
 9881SOL    HW130542   0.204   1.355   6.264
 9881SOL    HW230543   0.276   1.423   6.134
 9882SOL     OW30544   2.243   2.343   3.166
 9882SOL    HW130545   2.270   2.291   3.085
 9882SOL    HW230546   2.178   2.289   3.220
 9883SOL     OW30547   2.855   1.163   2.068
 9883SOL    HW130548   2.944   1.200   2.096
 9883SOL    HW230549   2.785   1.196   2.131
 9884SOL     OW30550   3.481   0.633   4.250
 9884SOL    HW130551   3.544   0.711   4.246
 9884SOL    HW230552   3.389   0.666   4.271
 9885SOL     OW30553   6.646   4.280   4.113
 9885SOL    HW130554   6.630   4.204   4.051
 9885SOL    HW230555   6.729   4.329   4.085
 9886SOL     OW30556   0.797   3.364   1.762
 9886SOL    HW130557   0.774   3.462   1.764
 9886SOL    HW230558   0.791   3.326   1.854
 9887SOL     OW30559   4.340   6.394   5.741
 9887SOL    HW130560   4.313   6.388   5.837
 9887SOL    HW230561   4.380   6.484   5.723
 9888SOL     OW30562   6.445   5.144   6.883
 9888SOL    HW130563   6.419   5.212   6.815
 9888SOL    HW230564   6.406   5.055   6.858
 9889SOL     OW30565   0.304   5.342   0.456
 9889SOL    HW130566   0.394   5.357   0.417
 9889SOL    HW230567   0.255   5.430   0.462
 9890SOL     OW30568   1.138   3.103   0.599
 9890SOL    HW130569   1.041   3.084   0.607
 9890SOL    HW230570   1.154   3.201   0.616
 9891SOL     OW30571   4.950   1.777   1.964
 9891SOL    HW130572   4.961   1.822   2.052
 9891SOL    HW230573   4.974   1.680   1.973
 9892SOL     OW30574   0.988   6.565   6.960
 9892SOL    HW130575   0.937   6.618   6.891
 9892SOL    HW230576   1.062   6.515   6.915
 9893SOL     OW30577   2.394   1.561   0.244
 9893SOL    HW130578   2.362   1.472   0.213
 9893SOL    HW230579   2.474   1.588   0.191
 9894SOL     OW30580   1.892   0.756   1.560
 9894SOL    HW130581   1.926   0.763   1.653
 9894SOL    HW230582   1.967   0.769   1.495
 9895SOL     OW30583   4.396   2.915   5.330
 9895SOL    HW130584   4.302   2.939   5.306
 9895SOL    HW230585   4.449   2.998   5.344
 9896SOL     OW30586   6.876   6.304   6.217
 9896SOL    HW130587   6.862   6.397   6.181
 9896SOL    HW230588   6.944   6.256   6.161
 9897SOL     OW30589   5.195   4.941   4.690
 9897SOL    HW130590   5.225   5.026   4.735
 9897SOL    HW230591   5.275   4.886   4.667
 9898SOL     OW30592   2.714   6.733   5.652
 9898SOL    HW130593   2.716   6.820   5.702
 9898SOL    HW230594   2.689   6.659   5.715
 9899SOL     OW30595   0.295   4.983   0.088
 9899SOL    HW130596   0.310   4.895   0.133
 9899SOL    HW230597   0.237   5.040   0.146
 9900SOL     OW30598   2.303   4.378   3.730
 9900SOL    HW130599   2.273   4.287   3.757
 9900SOL    HW230600   2.234   4.446   3.757
 9901SOL     OW30601   1.907   3.316   5.821
 9901SOL    HW130602   1.926   3.240   5.760
 9901SOL    HW230603   1.836   3.290   5.887
 9902SOL     OW30604   2.688   4.489   0.681
 9902SOL    HW130605   2.607   4.432   0.693
 9902SOL    HW230606   2.733   4.464   0.595
 9903SOL     OW30607   5.618   0.952   4.461
 9903SOL    HW130608   5.519   0.965   4.467
 9903SOL    HW230609   5.640   0.903   4.377
 9904SOL     OW30610   6.028   2.188   0.702
 9904SOL    HW130611   6.125   2.208   0.693
 9904SOL    HW230612   6.015   2.089   0.714
 9905SOL     OW30613   5.366   0.166   0.336
 9905SOL    HW130614   5.455   0.120   0.330
 9905SOL    HW230615   5.358   0.230   0.260
 9906SOL     OW30616   3.337   3.250   5.011
 9906SOL    HW130617   3.381   3.169   5.050
 9906SOL    HW230618   3.253   3.224   4.964
 9907SOL     OW30619   1.216   6.676   1.626
 9907SOL    HW130620   1.129   6.655   1.671
 9907SOL    HW230621   1.273   6.729   1.689
 9908SOL     OW30622   4.884   3.668   2.172
 9908SOL    HW130623   4.874   3.726   2.252
 9908SOL    HW230624   4.840   3.712   2.093
 9909SOL     OW30625   1.971   0.508   4.769
 9909SOL    HW130626   2.041   0.569   4.807
 9909SOL    HW230627   1.966   0.425   4.824
 9910SOL     OW30628   6.993   5.372   3.612
 9910SOL    HW130629   6.978   5.417   3.524
 9910SOL    HW230630   6.919   5.307   3.629
 9911SOL     OW30631   2.948   5.776   2.633
 9911SOL    HW130632   3.035   5.753   2.676
 9911SOL    HW230633   2.962   5.793   2.535
 9912SOL     OW30634   4.875   0.721   6.606
 9912SOL    HW130635   4.841   0.813   6.588
 9912SOL    HW230636   4.967   0.711   6.567
 9913SOL     OW30637   4.688   3.684   0.248
 9913SOL    HW130638   4.653   3.623   0.319
 9913SOL    HW230639   4.777   3.651   0.217
 9914SOL     OW30640   0.098   4.358   4.563
 9914SOL    HW130641   0.001   4.335   4.572
 9914SOL    HW230642   0.138   4.305   4.488
 9915SOL     OW30643   5.268   1.052   3.536
 9915SOL    HW130644   5.317   1.070   3.621
 9915SOL    HW230645   5.186   1.110   3.531
 9916SOL     OW30646   1.423   3.069   2.073
 9916SOL    HW130647   1.349   3.007   2.100
 9916SOL    HW230648   1.510   3.019   2.074
 9917SOL     OW30649   5.892   4.589   4.690
 9917SOL    HW130650   5.910   4.519   4.621
 9917SOL    HW230651   5.910   4.552   4.781
 9918SOL     OW30652   4.752   2.850   2.447
 9918SOL    HW130653   4.765   2.920   2.377
 9918SOL    HW230654   4.798   2.877   2.531
 9919SOL     OW30655   5.893   6.022   0.670
 9919SOL    HW130656   5.871   5.929   0.641
 9919SOL    HW230657   5.924   6.075   0.591
 9920SOL     OW30658   5.016   2.067   2.495
 9920SOL    HW130659   5.090   2.113   2.445
 9920SOL    HW230660   4.964   2.135   2.547
 9921SOL     OW30661   3.588   4.946   6.212
 9921SOL    HW130662   3.510   5.008   6.215
 9921SOL    HW230663   3.581   4.881   6.287
 9922SOL     OW30664   0.491   5.628   1.031
 9922SOL    HW130665   0.542   5.649   0.948
 9922SOL    HW230666   0.399   5.665   1.024
 9923SOL     OW30667   5.843   4.439   1.008
 9923SOL    HW130668   5.914   4.483   1.064
 9923SOL    HW230669   5.770   4.505   0.990
 9924SOL     OW30670   0.962   3.499   4.659
 9924SOL    HW130671   1.045   3.549   4.683
 9924SOL    HW230672   0.936   3.440   4.735
 9925SOL     OW30673   5.679   1.924   3.466
 9925SOL    HW130674   5.604   1.954   3.525
 9925SOL    HW230675   5.647   1.851   3.406
 9926SOL     OW30676   2.956   5.320   0.624
 9926SOL    HW130677   2.869   5.301   0.579
 9926SOL    HW230678   3.015   5.372   0.561
 9927SOL     OW30679   4.804   0.058   4.017
 9927SOL    HW130680   4.733   0.020   4.077
 9927SOL    HW230681   4.782   0.036   3.922
 9928SOL     OW30682   4.774   4.578   2.167
 9928SOL    HW130683   4.806   4.661   2.211
 9928SOL    HW230684   4.760   4.595   2.069
 9929SOL     OW30685   1.121   4.588   2.851
 9929SOL    HW130686   1.216   4.610   2.869
 9929SOL    HW230687   1.110   4.559   2.756
 9930SOL     OW30688   5.677   0.819   3.507
 9930SOL    HW130689   5.705   0.746   3.445
 9930SOL    HW230690   5.595   0.864   3.473
 9931SOL     OW30691   0.489   5.058   6.013
 9931SOL    HW130692   0.490   4.993   5.937
 9931SOL    HW230693   0.558   5.128   5.998
 9932SOL     OW30694   0.684   6.228   5.386
 9932SOL    HW130695   0.679   6.160   5.313
 9932SOL    HW230696   0.609   6.294   5.377
 9933SOL     OW30697   0.235   6.373   2.214
 9933SOL    HW130698   0.257   6.431   2.293
 9933SOL    HW230699   0.306   6.303   2.204
 9934SOL     OW30700   6.799   2.119   5.153
 9934SOL    HW130701   6.849   2.161   5.077
 9934SOL    HW230702   6.733   2.184   5.189
 9935SOL     OW30703   2.715   0.484   6.321
 9935SOL    HW130704   2.804   0.442   6.338
 9935SOL    HW230705   2.659   0.422   6.265
 9936SOL     OW30706   0.990   4.109   4.225
 9936SOL    HW130707   1.041   4.177   4.278
 9936SOL    HW230708   0.930   4.057   4.286
 9937SOL     OW30709   6.833   2.511   6.363
 9937SOL    HW130710   6.890   2.432   6.385
 9937SOL    HW230711   6.797   2.551   6.447
 9938SOL     OW30712   0.077   6.194   2.650
 9938SOL    HW130713   0.125   6.281   2.654
 9938SOL    HW230714   0.060   6.170   2.554
 9939SOL     OW30715   3.339   3.354   2.939
 9939SOL    HW130716   3.269   3.313   2.997
 9939SOL    HW230717   3.300   3.429   2.886
 9940SOL     OW30718   0.183   0.971   1.052
 9940SOL    HW130719   0.148   0.906   0.985
 9940SOL    HW230720   0.283   0.976   1.044
 9941SOL     OW30721   3.434   5.518   4.534
 9941SOL    HW130722   3.506   5.588   4.540
 9941SOL    HW230723   3.442   5.470   4.447
 9942SOL     OW30724   2.341   5.535   4.038
 9942SOL    HW130725   2.380   5.480   4.111
 9942SOL    HW230726   2.241   5.524   4.037
 9943SOL     OW30727   0.417   0.178   4.979
 9943SOL    HW130728   0.406   0.248   4.909
 9943SOL    HW230729   0.345   0.188   5.048
 9944SOL     OW30730   1.682   4.452   6.487
 9944SOL    HW130731   1.603   4.465   6.547
 9944SOL    HW230732   1.750   4.396   6.534
 9945SOL     OW30733   0.137   5.665   7.011
 9945SOL    HW130734   0.196   5.600   0.036
 9945SOL    HW230735   0.082   5.616   6.943
 9946SOL     OW30736   5.965   1.575   4.656
 9946SOL    HW130737   6.010   1.489   4.634
 9946SOL    HW230738   5.867   1.567   4.636
 9947SOL     OW30739   6.022   4.785   2.979
 9947SOL    HW130740   6.102   4.753   3.029
 9947SOL    HW230741   6.003   4.724   2.902
 9948SOL     OW30742   5.763   3.586   4.308
 9948SOL    HW130743   5.720   3.620   4.225
 9948SOL    HW230744   5.712   3.507   4.343
 9949SOL     OW30745   6.038   5.301   1.909
 9949SOL    HW130746   6.100   5.327   1.983
 9949SOL    HW230747   5.944   5.303   1.942
 9950SOL     OW30748   3.175   6.287   6.511
 9950SOL    HW130749   3.239   6.225   6.467
 9950SOL    HW230750   3.100   6.235   6.551
 9951SOL     OW30751   6.418   2.789   2.876
 9951SOL    HW130752   6.327   2.761   2.845
 9951SOL    HW230753   6.469   2.828   2.799
 9952SOL     OW30754   6.901   4.651   6.010
 9952SOL    HW130755   6.819   4.654   5.953
 9952SOL    HW230756   6.979   4.690   5.961
 9953SOL     OW30757   5.630   2.843   3.745
 9953SOL    HW130758   5.578   2.928   3.756
 9953SOL    HW230759   5.699   2.855   3.674
 9954SOL     OW30760   3.918   0.783   4.792
 9954SOL    HW130761   4.005   0.804   4.838
 9954SOL    HW230762   3.931   0.788   4.693
 9955SOL     OW30763   0.696   4.807   4.251
 9955SOL    HW130764   0.772   4.756   4.210
 9955SOL    HW230765   0.610   4.759   4.232
 9956SOL     OW30766   1.087   6.031   0.287
 9956SOL    HW130767   1.053   5.941   0.260
 9956SOL    HW230768   1.009   6.093   0.299
 9957SOL     OW30769   5.452   5.499   2.324
 9957SOL    HW130770   5.452   5.479   2.226
 9957SOL    HW230771   5.358   5.502   2.358
 9958SOL     OW30772   3.150   4.802   1.061
 9958SOL    HW130773   3.187   4.767   0.975
 9958SOL    HW230774   3.056   4.768   1.073
 9959SOL     OW30775   3.468   3.993   1.386
 9959SOL    HW130776   3.530   3.920   1.358
 9959SOL    HW230777   3.397   3.954   1.445
 9960SOL     OW30778   0.523   0.941   2.360
 9960SOL    HW130779   0.593   0.894   2.306
 9960SOL    HW230780   0.566   1.006   2.422
 9961SOL     OW30781   2.107   3.809   5.025
 9961SOL    HW130782   2.107   3.719   5.068
 9961SOL    HW230783   2.194   3.855   5.043
 9962SOL     OW30784   5.046   6.928   4.421
 9962SOL    HW130785   5.036   6.873   4.338
 9962SOL    HW230786   5.141   6.955   4.432
 9963SOL     OW30787   3.416   1.188   0.735
 9963SOL    HW130788   3.466   1.147   0.658
 9963SOL    HW230789   3.372   1.115   0.788
 9964SOL     OW30790   5.363   6.491   4.784
 9964SOL    HW130791   5.297   6.446   4.723
 9964SOL    HW230792   5.413   6.421   4.836
 9965SOL     OW30793   5.262   6.566   0.248
 9965SOL    HW130794   5.360   6.561   0.230
 9965SOL    HW230795   5.233   6.485   0.299
 9966SOL     OW30796   6.259   1.210   3.099
 9966SOL    HW130797   6.344   1.220   3.047
 9966SOL    HW230798   6.274   1.241   3.193
 9967SOL     OW30799   1.032   4.922   0.387
 9967SOL    HW130800   0.998   4.985   0.317
 9967SOL    HW230801   0.982   4.937   0.472
 9968SOL     OW30802   3.514   3.699   2.798
 9968SOL    HW130803   3.421   3.666   2.813
 9968SOL    HW230804   3.536   3.694   2.701
 9969SOL     OW30805   1.324   3.360   1.364
 9969SOL    HW130806   1.226   3.352   1.348
 9969SOL    HW230807   1.373   3.338   1.279
 9970SOL     OW30808   6.191   4.909   1.831
 9970SOL    HW130809   6.145   4.971   1.768
 9970SOL    HW230810   6.194   4.817   1.791
 9971SOL     OW30811   2.765   6.897   6.694
 9971SOL    HW130812   2.707   6.834   6.745
 9971SOL    HW230813   2.858   6.894   6.731
 9972SOL     OW30814   6.542   5.246   1.437
 9972SOL    HW130815   6.587   5.157   1.445
 9972SOL    HW230816   6.455   5.234   1.388
 9973SOL     OW30817   5.267   6.710   3.845
 9973SOL    HW130818   5.181   6.677   3.886
 9973SOL    HW230819   5.293   6.648   3.771
 9974SOL     OW30820   2.335   0.301   4.346
 9974SOL    HW130821   2.386   0.219   4.321
 9974SOL    HW230822   2.240   0.292   4.315
 9975SOL     OW30823   0.163   4.327   1.131
 9975SOL    HW130824   0.204   4.280   1.209
 9975SOL    HW230825   0.169   4.268   1.050
 9976SOL     OW30826   2.939   6.386   4.772
 9976SOL    HW130827   2.873   6.329   4.723
 9976SOL    HW230828   3.000   6.327   4.826
 9977SOL     OW30829   6.332   4.441   3.747
 9977SOL    HW130830   6.257   4.398   3.797
 9977SOL    HW230831   6.387   4.371   3.702
 9978SOL     OW30832   6.883   2.312   4.535
 9978SOL    HW130833   6.901   2.270   4.623
 9978SOL    HW230834   6.864   2.409   4.547
 9979SOL     OW30835   0.913   3.978   4.917
 9979SOL    HW130836   0.931   4.034   4.998
 9979SOL    HW230837   0.955   3.888   4.930
 9980SOL     OW30838   2.407   6.332   5.635
 9980SOL    HW130839   2.458   6.408   5.674
 9980SOL    HW230840   2.436   6.318   5.540
 9981SOL     OW30841   4.144   2.275   3.742
 9981SOL    HW130842   4.129   2.279   3.841
 9981SOL    HW230843   4.069   2.225   3.699
 9982SOL     OW30844   6.494   6.755   2.960
 9982SOL    HW130845   6.558   6.729   3.033
 9982SOL    HW230846   6.405   6.778   2.999
 9983SOL     OW30847   6.389   0.886   0.914
 9983SOL    HW130848   6.447   0.943   0.972
 9983SOL    HW230849   6.369   0.933   0.828
 9984SOL     OW30850   3.216   0.944   6.399
 9984SOL    HW130851   3.149   0.912   6.331
 9984SOL    HW230852   3.168   0.991   6.473
 9985SOL     OW30853   2.573   1.712   1.455
 9985SOL    HW130854   2.584   1.661   1.540
 9985SOL    HW230855   2.578   1.650   1.377
 9986SOL     OW30856   4.870   4.057   4.420
 9986SOL    HW130857   4.903   4.144   4.384
 9986SOL    HW230858   4.830   4.003   4.346
 9987SOL     OW30859   0.215   4.060   5.256
 9987SOL    HW130860   0.277   4.114   5.313
 9987SOL    HW230861   0.124   4.101   5.260
 9988SOL     OW30862   6.701   0.647   4.345
 9988SOL    HW130863   6.632   0.671   4.413
 9988SOL    HW230864   6.702   0.548   4.332
 9989SOL     OW30865   1.651   2.813   4.661
 9989SOL    HW130866   1.743   2.844   4.685
 9989SOL    HW230867   1.597   2.891   4.628
 9990SOL     OW30868   1.443   5.006   1.776
 9990SOL    HW130869   1.498   5.089   1.786
 9990SOL    HW230870   1.403   5.003   1.685
 9991SOL     OW30871   4.036   1.819   3.427
 9991SOL    HW130872   4.083   1.813   3.339
 9991SOL    HW230873   4.089   1.771   3.497
 9992SOL     OW30874   6.100   5.358   6.566
 9992SOL    HW130875   6.145   5.359   6.476
 9992SOL    HW230876   6.082   5.451   6.595
 9993SOL     OW30877   1.264   0.307   1.815
 9993SOL    HW130878   1.164   0.314   1.813
 9993SOL    HW230879   1.304   0.384   1.766
 9994SOL     OW30880   6.338   4.867   3.280
 9994SOL    HW130881   6.362   4.941   3.217
 9994SOL    HW230882   6.356   4.897   3.374
 9995SOL     OW30883   5.384   1.519   4.759
 9995SOL    HW130884   5.476   1.491   4.787
 9995SOL    HW230885   5.328   1.438   4.743
 9996SOL     OW30886   2.954   2.954   0.026
 9996SOL    HW130887   3.047   2.989   0.015
 9996SOL    HW230888   2.947   2.909   0.115
 9997SOL     OW30889   2.070   0.580   4.419
 9997SOL    HW130890   2.050   0.671   4.456
 9997SOL    HW230891   2.158   0.548   4.454
 9998SOL     OW30892   5.912   6.299   4.747
 9998SOL    HW130893   5.945   6.362   4.818
 9998SOL    HW230894   5.835   6.339   4.699
 9999SOL     OW30895   0.181   1.002   5.009
 9999SOL    HW130896   0.219   1.017   4.917
 9999SOL    HW230897   0.168   0.904   5.023
10000SOL     OW30898   0.085   4.802   0.416
10000SOL    HW130899   0.160   4.752   0.460
10000SOL    HW230900   0.003   4.795   0.472
10001SOL     OW30901   4.038   0.646   3.531
10001SOL    HW130902   4.067   0.559   3.491
10001SOL    HW230903   3.987   0.699   3.463
10002SOL     OW30904   1.422   2.010   1.575
10002SOL    HW130905   1.427   1.984   1.478
10002SOL    HW230906   1.380   1.936   1.627
10003SOL     OW30907   5.082   3.840   2.714
10003SOL    HW130908   5.084   3.856   2.813
10003SOL    HW230909   5.011   3.773   2.692
10004SOL     OW30910   6.622   3.382   3.996
10004SOL    HW130911   6.534   3.428   4.009
10004SOL    HW230912   6.681   3.437   3.937
10005SOL     OW30913   4.413   0.463   3.936
10005SOL    HW130914   4.450   0.431   3.849
10005SOL    HW230915   4.442   0.558   3.952
10006SOL     OW30916   4.589   2.186   4.060
10006SOL    HW130917   4.520   2.167   3.991
10006SOL    HW230918   4.614   2.102   4.107
10007SOL     OW30919   5.458   4.866   4.144
10007SOL    HW130920   5.452   4.962   4.115
10007SOL    HW230921   5.551   4.847   4.177
10008SOL     OW30922   3.261   0.166   4.087
10008SOL    HW130923   3.222   0.086   4.042
10008SOL    HW230924   3.215   0.249   4.055
10009SOL     OW30925   2.589   4.248   1.056
10009SOL    HW130926   2.638   4.288   0.979
10009SOL    HW230927   2.648   4.250   1.137
10010SOL     OW30928   6.104   0.981   6.471
10010SOL    HW130929   6.166   0.942   6.539
10010SOL    HW230930   6.086   0.913   6.400
10011SOL     OW30931   0.157   6.633   3.454
10011SOL    HW130932   0.111   6.635   3.365
10011SOL    HW230933   0.218   6.554   3.458
10012SOL     OW30934   5.302   0.419   4.540
10012SOL    HW130935   5.211   0.380   4.529
10012SOL    HW230936   5.354   0.366   4.607
10013SOL     OW30937   1.333   0.542   1.617
10013SOL    HW130938   1.332   0.547   1.518
10013SOL    HW230939   1.427   0.536   1.650
10014SOL     OW30940   1.501   4.584   6.038
10014SOL    HW130941   1.587   4.596   5.988
10014SOL    HW230942   1.520   4.537   6.124
10015SOL     OW30943   2.522   5.941   6.193
10015SOL    HW130944   2.459   5.930   6.269
10015SOL    HW230945   2.526   5.855   6.141
10016SOL     OW30946   2.222   1.439   4.902
10016SOL    HW130947   2.271   1.478   4.824
10016SOL    HW230948   2.124   1.455   4.891
10017SOL     OW30949   0.132   1.890   3.535
10017SOL    HW130950   0.136   1.942   3.450
10017SOL    HW230951   0.037   1.880   3.564
10018SOL     OW30952   5.277   6.718   6.399
10018SOL    HW130953   5.335   6.698   6.479
10018SOL    HW230954   5.294   6.812   6.369
10019SOL     OW30955   0.817   0.865   2.778
10019SOL    HW130956   0.822   0.961   2.750
10019SOL    HW230957   0.767   0.813   2.708
10020SOL     OW30958   0.411   3.496   0.346
10020SOL    HW130959   0.447   3.415   0.394
10020SOL    HW230960   0.313   3.485   0.330
10021SOL     OW30961   4.710   3.033   1.265
10021SOL    HW130962   4.700   2.971   1.187
10021SOL    HW230963   4.655   3.000   1.341
10022SOL     OW30964   1.875   0.767   6.264
10022SOL    HW130965   1.854   0.844   6.324
10022SOL    HW230966   1.958   0.787   6.211
10023SOL     OW30967   0.506   3.491   0.941
10023SOL    HW130968   0.605   3.477   0.954
10023SOL    HW230969   0.470   3.546   1.017
10024SOL     OW30970   0.742   3.601   3.068
10024SOL    HW130971   0.685   3.522   3.092
10024SOL    HW230972   0.686   3.672   3.026
10025SOL     OW30973   0.523   1.420   0.797
10025SOL    HW130974   0.596   1.470   0.843
10025SOL    HW230975   0.471   1.483   0.740
10026SOL     OW30976   6.491   0.744   4.491
10026SOL    HW130977   6.518   0.840   4.492
10026SOL    HW230978   6.473   0.714   4.585
10027SOL     OW30979   5.923   2.814   5.859
10027SOL    HW130980   5.941   2.719   5.832
10027SOL    HW230981   5.826   2.834   5.846
10028SOL     OW30982   1.774   1.601   1.576
10028SOL    HW130983   1.757   1.653   1.492
10028SOL    HW230984   1.855   1.637   1.621
10029SOL     OW30985   3.643   1.341   4.183
10029SOL    HW130986   3.723   1.290   4.149
10029SOL    HW230987   3.668   1.389   4.267
10030SOL     OW30988   1.159   1.022   2.749
10030SOL    HW130989   1.139   0.925   2.763
10030SOL    HW230990   1.145   1.072   2.834
10031SOL     OW30991   0.020   4.703   3.280
10031SOL    HW130992   0.034   4.755   3.196
10031SOL    HW230993   6.954   4.726   3.320
10032SOL     OW30994   3.683   1.896   5.264
10032SOL    HW130995   3.598   1.844   5.258
10032SOL    HW230996   3.682   1.952   5.347
10033SOL     OW30997   5.560   3.106   3.730
10033SOL    HW130998   5.591   3.119   3.636
10033SOL    HW230999   5.637   3.115   3.793
10034SOL     OW31000   4.019   6.327   5.752
10034SOL    HW131001   4.074   6.262   5.701
10034SOL    HW231002   4.065   6.350   5.838
10035SOL     OW31003   0.521   6.544   3.839
10035SOL    HW131004   0.579   6.503   3.909
10035SOL    HW231005   0.426   6.513   3.852
10036SOL     OW31006   6.123   0.635   0.400
10036SOL    HW131007   6.219   0.661   0.393
10036SOL    HW231008   6.066   0.703   0.353
10037SOL     OW31009   6.806   6.796   1.275
10037SOL    HW131010   6.735   6.830   1.337
10037SOL    HW231011   6.896   6.828   1.307
10038SOL     OW31012   6.345   0.168   1.189
10038SOL    HW131013   6.362   0.262   1.159
10038SOL    HW231014   6.413   0.142   1.258
10039SOL     OW31015   4.205   0.925   2.570
10039SOL    HW131016   4.268   0.855   2.539
10039SOL    HW231017   4.142   0.886   2.637
10040SOL     OW31018   0.977   2.518   0.722
10040SOL    HW131019   1.065   2.489   0.687
10040SOL    HW231020   0.968   2.492   0.818
10041SOL     OW31021   1.309   6.865   0.097
10041SOL    HW131022   1.346   6.919   0.173
10041SOL    HW231023   1.220   6.828   0.123
10042SOL     OW31024   6.340   1.827   3.620
10042SOL    HW131025   6.246   1.796   3.624
10042SOL    HW231026   6.343   1.927   3.627
10043SOL     OW31027   1.575   2.648   5.813
10043SOL    HW131028   1.532   2.695   5.891
10043SOL    HW231029   1.512   2.578   5.778
10044SOL     OW31030   4.755   1.025   6.873
10044SOL    HW131031   4.778   0.928   6.877
10044SOL    HW231032   4.795   1.072   6.951
10045SOL     OW31033   2.118   0.872   1.422
10045SOL    HW131034   2.176   0.949   1.393
10045SOL    HW231035   2.175   0.790   1.432
10046SOL     OW31036   0.461   5.669   0.270
10046SOL    HW131037   0.559   5.648   0.263
10046SOL    HW231038   0.411   5.622   0.198
10047SOL     OW31039   1.462   3.421   1.139
10047SOL    HW131040   1.391   3.438   1.070
10047SOL    HW231041   1.547   3.394   1.093
10048SOL     OW31042   5.797   3.515   1.961
10048SOL    HW131043   5.760   3.608   1.970
10048SOL    HW231044   5.722   3.450   1.955
10049SOL     OW31045   6.543   1.876   4.959
10049SOL    HW131046   6.528   1.968   4.998
10049SOL    HW231047   6.456   1.827   4.955
10050SOL     OW31048   0.112   2.429   6.345
10050SOL    HW131049   0.136   2.467   6.434
10050SOL    HW231050   0.124   2.330   6.346
10051SOL     OW31051   1.512   0.907   3.582
10051SOL    HW131052   1.594   0.898   3.638
10051SOL    HW231053   1.538   0.921   3.487
10052SOL     OW31054   0.934   0.341   3.765
10052SOL    HW131055   0.889   0.428   3.742
10052SOL    HW231056   0.974   0.348   3.857
10053SOL     OW31057   6.475   5.735   2.742
10053SOL    HW131058   6.525   5.680   2.810
10053SOL    HW231059   6.538   5.767   2.672
10054SOL     OW31060   5.924   4.139   3.704
10054SOL    HW131061   5.983   4.084   3.645
10054SOL    HW231062   5.831   4.103   3.702
10055SOL     OW31063   1.876   1.688   0.167
10055SOL    HW131064   1.850   1.758   0.099
10055SOL    HW231065   1.975   1.682   0.172
10056SOL     OW31066   5.245   2.112   4.213
10056SOL    HW131067   5.231   2.025   4.165
10056SOL    HW231068   5.275   2.182   4.148
10057SOL     OW31069   5.876   4.023   4.858
10057SOL    HW131070   5.912   3.964   4.930
10057SOL    HW231071   5.935   4.104   4.849
10058SOL     OW31072   6.283   4.137   3.763
10058SOL    HW131073   6.342   4.167   3.688
10058SOL    HW231074   6.337   4.084   3.829
10059SOL     OW31075   5.406   5.752   5.973
10059SOL    HW131076   5.504   5.741   5.989
10059SOL    HW231077   5.392   5.804   5.889
10060SOL     OW31078   2.819   1.872   2.183
10060SOL    HW131079   2.736   1.864   2.238
10060SOL    HW231080   2.883   1.800   2.207
10061SOL     OW31081   3.811   6.928   3.570
10061SOL    HW131082   3.812   6.863   3.493
10061SOL    HW231083   3.882   6.997   3.556
10062SOL     OW31084   6.482   6.757   4.785
10062SOL    HW131085   6.540   6.753   4.704
10062SOL    HW231086   6.402   6.699   4.772
10063SOL     OW31087   3.605   2.056   4.139
10063SOL    HW131088   3.635   2.091   4.050
10063SOL    HW231089   3.663   2.093   4.211
10064SOL     OW31090   2.917   6.717   2.212
10064SOL    HW131091   2.974   6.678   2.140
10064SOL    HW231092   2.965   6.710   2.300
10065SOL     OW31093   6.555   1.970   1.691
10065SOL    HW131094   6.521   1.949   1.599
10065SOL    HW231095   6.608   1.892   1.725
10066SOL     OW31096   6.358   4.033   3.227
10066SOL    HW131097   6.276   4.085   3.252
10066SOL    HW231098   6.413   4.017   3.308
10067SOL     OW31099   5.338   3.266   5.065
10067SOL    HW131100   5.375   3.336   5.004
10067SOL    HW231101   5.411   3.227   5.120
10068SOL     OW31102   1.998   3.643   2.863
10068SOL    HW131103   1.944   3.666   2.944
10068SOL    HW231104   2.047   3.725   2.831
10069SOL     OW31105   2.980   5.081   2.089
10069SOL    HW131106   2.965   4.993   2.044
10069SOL    HW231107   3.038   5.138   2.031
10070SOL     OW31108   5.127   6.820   0.448
10070SOL    HW131109   5.063   6.833   0.524
10070SOL    HW231110   5.140   6.907   0.400
10071SOL     OW31111   4.917   0.520   5.260
10071SOL    HW131112   4.973   0.520   5.343
10071SOL    HW231113   4.964   0.571   5.188
10072SOL     OW31114   5.557   3.122   2.062
10072SOL    HW131115   5.460   3.143   2.067
10072SOL    HW231116   5.594   3.109   2.154
10073SOL     OW31117   5.707   5.970   5.420
10073SOL    HW131118   5.757   6.056   5.422
10073SOL    HW231119   5.744   5.912   5.347
10074SOL     OW31120   1.573   4.518   0.963
10074SOL    HW131121   1.497   4.518   0.898
10074SOL    HW231122   1.551   4.458   1.040
10075SOL     OW31123   1.094   3.120   2.321
10075SOL    HW131124   1.128   3.034   2.358
10075SOL    HW231125   1.169   3.184   2.310
10076SOL     OW31126   5.765   4.580   3.340
10076SOL    HW131127   5.750   4.626   3.427
10076SOL    HW231128   5.858   4.545   3.336
10077SOL     OW31129   4.108   3.629   6.589
10077SOL    HW131130   4.160   3.549   6.620
10077SOL    HW231131   4.159   3.676   6.517
10078SOL     OW31132   6.045   5.724   4.270
10078SOL    HW131133   6.137   5.762   4.261
10078SOL    HW231134   6.035   5.645   4.210
10079SOL     OW31135   5.818   5.453   3.005
10079SOL    HW131136   5.763   5.524   2.960
10079SOL    HW231137   5.808   5.462   3.104
10080SOL     OW31138   5.498   2.620   5.170
10080SOL    HW131139   5.597   2.635   5.169
10080SOL    HW231140   5.454   2.682   5.106
10081SOL     OW31141   1.408   4.965   0.706
10081SOL    HW131142   1.477   4.941   0.637
10081SOL    HW231143   1.448   4.954   0.797
10082SOL     OW31144   0.734   4.829   1.590
10082SOL    HW131145   0.749   4.745   1.642
10082SOL    HW231146   0.638   4.855   1.595
10083SOL     OW31147   2.993   6.261   2.628
10083SOL    HW131148   3.035   6.228   2.712
10083SOL    HW231149   2.906   6.215   2.613
10084SOL     OW31150   1.744   2.762   5.277
10084SOL    HW131151   1.766   2.764   5.180
10084SOL    HW231152   1.787   2.683   5.320
10085SOL     OW31153   3.956   6.918   1.213
10085SOL    HW131154   3.955   6.839   1.274
10085SOL    HW231155   3.976   7.000   1.266
10086SOL     OW31156   3.075   0.852   3.259
10086SOL    HW131157   3.086   0.822   3.165
10086SOL    HW231158   2.981   0.884   3.273
10087SOL     OW31159   1.756   5.091   6.283
10087SOL    HW131160   1.731   5.019   6.218
10087SOL    HW231161   1.673   5.135   6.316
10088SOL     OW31162   5.771   1.947   0.850
10088SOL    HW131163   5.731   2.038   0.855
10088SOL    HW231164   5.721   1.893   0.781
10089SOL     OW31165   3.822   6.740   2.118
10089SOL    HW131166   3.759   6.806   2.159
10089SOL    HW231167   3.845   6.770   2.025
10090SOL     OW31168   3.065   5.500   1.827
10090SOL    HW131169   3.008   5.505   1.909
10090SOL    HW231170   3.007   5.477   1.748
10091SOL     OW31171   5.733   5.939   2.755
10091SOL    HW131172   5.700   5.916   2.846
10091SOL    HW231173   5.719   5.861   2.694
10092SOL     OW31174   6.972   1.423   2.587
10092SOL    HW131175   6.897   1.486   2.607
10092SOL    HW231176   7.019   1.454   2.504
10093SOL     OW31177   4.461   4.555   6.144
10093SOL    HW131178   4.421   4.644   6.120
10093SOL    HW231179   4.541   4.569   6.202
10094SOL     OW31180   3.833   2.366   0.874
10094SOL    HW131181   3.795   2.355   0.966
10094SOL    HW231182   3.824   2.461   0.845
10095SOL     OW31183   4.419   2.651   5.179
10095SOL    HW131184   4.320   2.653   5.194
10095SOL    HW231185   4.458   2.740   5.202
10096SOL     OW31186   6.861   4.951   1.930
10096SOL    HW131187   6.869   5.019   2.002
10096SOL    HW231188   6.836   4.996   1.844
10097SOL     OW31189   1.215   1.143   1.116
10097SOL    HW131190   1.147   1.073   1.092
10097SOL    HW231191   1.255   1.121   1.205
10098SOL     OW31192   4.366   5.273   0.092
10098SOL    HW131193   4.461   5.263   0.121
10098SOL    HW231194   4.308   5.209   0.144
10099SOL     OW31195   6.721   6.397   3.176
10099SOL    HW131196   6.671   6.358   3.099
10099SOL    HW231197   6.814   6.418   3.149
10100SOL     OW31198   4.844   5.335   4.173
10100SOL    HW131199   4.762   5.378   4.212
10100SOL    HW231200   4.917   5.336   4.241
10101SOL     OW31201   0.254   2.480   6.926
10101SOL    HW131202   0.224   2.419   6.853
10101SOL    HW231203   0.321   2.434   6.984
10102SOL     OW31204   0.113   4.873   3.075
10102SOL    HW131205   0.211   4.869   3.096
10102SOL    HW231206   0.099   4.922   2.989
10103SOL     OW31207   0.207   0.066   0.002
10103SOL    HW131208   0.170   0.142   6.972
10103SOL    HW231209   0.294   0.036   6.985
10104SOL     OW31210   2.416   1.515   4.684
10104SOL    HW131211   2.432   1.540   4.780
10104SOL    HW231212   2.352   1.580   4.643
10105SOL     OW31213   3.134   1.675   4.423
10105SOL    HW131214   3.056   1.626   4.384
10105SOL    HW231215   3.101   1.757   4.470
10106SOL     OW31216   6.031   3.787   1.079
10106SOL    HW131217   6.027   3.763   1.176
10106SOL    HW231218   6.106   3.737   1.036
10107SOL     OW31219   5.088   6.048   5.720
10107SOL    HW131220   5.096   5.948   5.716
10107SOL    HW231221   5.171   6.086   5.761
10108SOL     OW31222   2.608   1.958   5.037
10108SOL    HW131223   2.611   1.890   4.964
10108SOL    HW231224   2.514   1.968   5.069
10109SOL     OW31225   0.944   3.010   1.377
10109SOL    HW131226   0.878   2.985   1.306
10109SOL    HW231227   0.907   2.987   1.466
10110SOL     OW31228   6.112   6.470   1.883
10110SOL    HW131229   6.092   6.432   1.792
10110SOL    HW231230   6.085   6.405   1.953
10111SOL     OW31231   0.064   2.853   1.912
10111SOL    HW131232   0.026   2.764   1.937
10111SOL    HW231233   0.079   2.857   1.813
10112SOL     OW31234   0.161   2.877   4.024
10112SOL    HW131235   0.102   2.847   4.098
10112SOL    HW231236   0.131   2.835   3.938
10113SOL     OW31237   0.027   6.613   6.340
10113SOL    HW131238   0.109   6.652   6.300
10113SOL    HW231239   6.996   6.569   6.268
10114SOL     OW31240   5.422   4.397   1.594
10114SOL    HW131241   5.340   4.342   1.578
10114SOL    HW231242   5.487   4.346   1.650
10115SOL     OW31243   3.963   1.583   6.477
10115SOL    HW131244   3.950   1.572   6.575
10115SOL    HW231245   3.985   1.494   6.436
10116SOL     OW31246   0.612   6.863   6.612
10116SOL    HW131247   0.669   6.803   6.668
10116SOL    HW231248   0.586   6.944   6.664
10117SOL     OW31249   0.370   4.230   1.322
10117SOL    HW131250   0.456   4.188   1.293
10117SOL    HW231251   0.381   4.270   1.413
10118SOL     OW31252   4.083   5.033   3.569
10118SOL    HW131253   4.042   5.084   3.493
10118SOL    HW231254   4.053   5.073   3.656
10119SOL     OW31255   5.577   6.223   6.635
10119SOL    HW131256   5.609   6.280   6.711
10119SOL    HW231257   5.478   6.213   6.640
10120SOL     OW31258   2.392   2.748   2.906
10120SOL    HW131259   2.419   2.697   2.987
10120SOL    HW231260   2.455   2.726   2.831
10121SOL     OW31261   6.629   5.706   1.376
10121SOL    HW131262   6.652   5.771   1.449
10121SOL    HW231263   6.685   5.725   1.296
10122SOL     OW31264   2.116   0.176   3.279
10122SOL    HW131265   2.102   0.081   3.251
10122SOL    HW231266   2.028   0.224   3.277
10123SOL     OW31267   6.260   6.488   6.648
10123SOL    HW131268   6.186   6.442   6.601
10123SOL    HW231269   6.250   6.587   6.639
10124SOL     OW31270   0.766   4.466   3.275
10124SOL    HW131271   0.764   4.400   3.200
10124SOL    HW231272   0.860   4.492   3.295
10125SOL     OW31273   1.854   1.853   4.745
10125SOL    HW131274   1.925   1.893   4.803
10125SOL    HW231275   1.878   1.758   4.725
10126SOL     OW31276   6.713   6.173   4.554
10126SOL    HW131277   6.653   6.253   4.558
10126SOL    HW231278   6.788   6.190   4.490
10127SOL     OW31279   2.253   1.072   4.778
10127SOL    HW131280   2.177   1.104   4.720
10127SOL    HW231281   2.332   1.131   4.765
10128SOL     OW31282   3.083   0.936   0.235
10128SOL    HW131283   3.112   1.032   0.234
10128SOL    HW231284   3.001   0.925   0.179
10129SOL     OW31285   6.545   2.021   5.673
10129SOL    HW131286   6.560   1.954   5.600
10129SOL    HW231287   6.450   2.014   5.705
10130SOL     OW31288   1.432   2.953   3.171
10130SOL    HW131289   1.444   2.916   3.079
10130SOL    HW231290   1.335   2.973   3.187
10131SOL     OW31291   2.108   1.036   5.038
10131SOL    HW131292   2.140   1.010   4.947
10131SOL    HW231293   2.051   0.963   5.075
10132SOL     OW31294   5.992   0.794   2.162
10132SOL    HW131295   6.021   0.890   2.172
10132SOL    HW231296   6.004   0.746   2.248
10133SOL     OW31297   4.811   5.329   1.162
10133SOL    HW131298   4.729   5.377   1.131
10133SOL    HW231299   4.886   5.347   1.098
10134SOL     OW31300   6.278   0.288   3.251
10134SOL    HW131301   6.362   0.333   3.221
10134SOL    HW231302   6.294   0.245   3.340
10135SOL     OW31303   5.864   6.703   3.439
10135SOL    HW131304   5.771   6.681   3.467
10135SOL    HW231305   5.928   6.636   3.477
10136SOL     OW31306   4.857   0.848   2.849
10136SOL    HW131307   4.900   0.758   2.858
10136SOL    HW231308   4.911   0.916   2.899
10137SOL     OW31309   6.588   6.139   2.766
10137SOL    HW131310   6.535   6.162   2.685
10137SOL    HW231311   6.635   6.052   2.752
10138SOL     OW31312   0.170   2.033   2.619
10138SOL    HW131313   0.150   2.056   2.523
10138SOL    HW231314   0.177   1.934   2.628
10139SOL     OW31315   4.193   2.629   1.075
10139SOL    HW131316   4.130   2.603   1.148
10139SOL    HW231317   4.238   2.547   1.039
10140SOL     OW31318   5.954   6.633   4.055
10140SOL    HW131319   5.974   6.707   4.119
10140SOL    HW231320   5.860   6.643   4.020
10141SOL     OW31321   0.814   2.004   4.298
10141SOL    HW131322   0.777   1.973   4.385
10141SOL    HW231323   0.758   1.968   4.223
10142SOL     OW31324   4.551   6.411   1.581
10142SOL    HW131325   4.459   6.430   1.548
10142SOL    HW231326   4.587   6.493   1.626
10143SOL     OW31327   6.816   3.359   6.919
10143SOL    HW131328   6.719   3.380   6.908
10143SOL    HW231329   6.855   3.338   6.830
10144SOL     OW31330   4.150   0.967   1.589
10144SOL    HW131331   4.096   0.973   1.505
10144SOL    HW231332   4.189   0.875   1.597
10145SOL     OW31333   6.400   0.132   4.952
10145SOL    HW131334   6.464   0.064   4.988
10145SOL    HW231335   6.450   0.208   4.912
10146SOL     OW31336   1.465   1.222   5.336
10146SOL    HW131337   1.443   1.245   5.431
10146SOL    HW231338   1.529   1.145   5.335
10147SOL     OW31339   3.130   4.769   0.582
10147SOL    HW131340   3.189   4.791   0.504
10147SOL    HW231341   3.045   4.728   0.550
10148SOL     OW31342   0.087   5.651   6.314
10148SOL    HW131343   0.094   5.674   6.411
10148SOL    HW231344   0.075   5.552   6.305
10149SOL     OW31345   2.910   3.442   3.755
10149SOL    HW131346   2.946   3.349   3.753
10149SOL    HW231347   2.908   3.475   3.849
10150SOL     OW31348   6.026   4.329   0.410
10150SOL    HW131349   5.946   4.270   0.425
10150SOL    HW231350   6.087   4.321   0.489
10151SOL     OW31351   0.360   1.046   0.334
10151SOL    HW131352   0.295   0.987   0.381
10151SOL    HW231353   0.338   1.142   0.354
10152SOL     OW31354   3.452   6.405   3.920
10152SOL    HW131355   3.381   6.413   3.851
10152SOL    HW231356   3.423   6.454   4.003
10153SOL     OW31357   4.847   3.965   0.983
10153SOL    HW131358   4.791   4.045   1.006
10153SOL    HW231359   4.815   3.927   0.896
10154SOL     OW31360   4.917   5.223   6.088
10154SOL    HW131361   4.874   5.304   6.047
10154SOL    HW231362   5.004   5.205   6.043
10155SOL     OW31363   4.699   2.654   4.694
10155SOL    HW131364   4.781   2.653   4.751
10155SOL    HW231365   4.725   2.675   4.600
10156SOL     OW31366   3.462   1.623   6.909
10156SOL    HW131367   3.442   1.656   7.001
10156SOL    HW231368   3.418   1.684   6.842
10157SOL     OW31369   0.350   5.143   1.860
10157SOL    HW131370   0.391   5.186   1.780
10157SOL    HW231371   0.251   5.155   1.857
10158SOL     OW31372   6.301   4.879   6.469
10158SOL    HW131373   6.372   4.948   6.476
10158SOL    HW231374   6.320   4.805   6.534
10159SOL     OW31375   3.906   2.948   1.808
10159SOL    HW131376   3.877   3.043   1.792
10159SOL    HW231377   3.988   2.929   1.754
10160SOL     OW31378   6.940   4.111   2.566
10160SOL    HW131379   6.975   4.194   2.609
10160SOL    HW231380   6.930   4.126   2.468
10161SOL     OW31381   6.747   2.904   0.248
10161SOL    HW131382   6.752   2.907   0.347
10161SOL    HW231383   6.665   2.953   0.217
10162SOL     OW31384   2.364   2.459   1.731
10162SOL    HW131385   2.272   2.444   1.767
10162SOL    HW231386   2.388   2.555   1.738
10163SOL     OW31387   3.320   5.597   4.790
10163SOL    HW131388   3.415   5.589   4.820
10163SOL    HW231389   3.317   5.589   4.690
10164SOL     OW31390   0.492   0.917   3.589
10164SOL    HW131391   0.579   0.965   3.580
10164SOL    HW231392   0.467   0.877   3.501
10165SOL     OW31393   2.073   3.504   4.146
10165SOL    HW131394   2.085   3.407   4.125
10165SOL    HW231395   2.121   3.560   4.078
10166SOL     OW31396   2.954   6.326   3.027
10166SOL    HW131397   2.933   6.422   3.044
10166SOL    HW231398   2.879   6.284   2.976
10167SOL     OW31399   4.118   1.643   6.926
10167SOL    HW131400   4.019   1.651   6.917
10167SOL    HW231401   4.143   1.653   7.022
10168SOL     OW31402   0.731   1.042   6.627
10168SOL    HW131403   0.670   1.059   6.705
10168SOL    HW231404   0.727   0.945   6.602
10169SOL     OW31405   4.464   5.162   3.054
10169SOL    HW131406   4.441   5.066   3.044
10169SOL    HW231407   4.563   5.175   3.044
10170SOL     OW31408   4.910   6.191   6.710
10170SOL    HW131409   4.842   6.187   6.782
10170SOL    HW231410   4.955   6.280   6.711
10171SOL     OW31411   1.506   4.146   3.088
10171SOL    HW131412   1.493   4.047   3.091
10171SOL    HW231413   1.490   4.185   3.179
10172SOL     OW31414   0.582   1.441   3.174
10172SOL    HW131415   0.655   1.424   3.241
10172SOL    HW231416   0.586   1.372   3.102
10173SOL     OW31417   4.566   2.678   4.930
10173SOL    HW131418   4.505   2.606   4.962
10173SOL    HW231419   4.613   2.648   4.847
10174SOL     OW31420   5.028   4.568   1.207
10174SOL    HW131421   5.110   4.587   1.262
10174SOL    HW231422   4.969   4.648   1.208
10175SOL     OW31423   6.401   6.986   3.430
10175SOL    HW131424   6.408   7.005   3.332
10175SOL    HW231425   6.328   0.018   3.469
10176SOL     OW31426   6.509   1.426   5.238
10176SOL    HW131427   6.600   1.459   5.215
10176SOL    HW231428   6.476   1.474   5.320
10177SOL     OW31429   3.168   1.217   4.658
10177SOL    HW131430   3.107   1.272   4.714
10177SOL    HW231431   3.114   1.167   4.590
10178SOL     OW31432   6.804   1.624   2.411
10178SOL    HW131433   6.749   1.698   2.373
10178SOL    HW231434   6.818   1.640   2.509
10179SOL     OW31435   0.359   5.998   0.902
10179SOL    HW131436   0.448   6.012   0.859
10179SOL    HW231437   0.322   5.909   0.875
10180SOL     OW31438   2.050   0.156   6.201
10180SOL    HW131439   1.966   0.208   6.185
10180SOL    HW231440   2.029   0.059   6.202
10181SOL     OW31441   6.754   4.150   2.184
10181SOL    HW131442   6.700   4.072   2.153
10181SOL    HW231443   6.693   4.218   2.225
10182SOL     OW31444   2.882   6.812   6.480
10182SOL    HW131445   2.893   6.716   6.508
10182SOL    HW231446   2.818   6.858   6.542
10183SOL     OW31447   3.710   5.852   6.161
10183SOL    HW131448   3.790   5.843   6.219
10183SOL    HW231449   3.707   5.777   6.095
10184SOL     OW31450   4.714   2.632   3.941
10184SOL    HW131451   4.713   2.722   3.984
10184SOL    HW231452   4.702   2.562   4.011
10185SOL     OW31453   2.949   4.849   1.959
10185SOL    HW131454   2.887   4.772   1.965
10185SOL    HW231455   2.994   4.849   1.869
10186SOL     OW31456   3.135   2.771   1.870
10186SOL    HW131457   3.207   2.707   1.897
10186SOL    HW231458   3.061   2.721   1.826
10187SOL     OW31459   1.795   3.495   5.634
10187SOL    HW131460   1.722   3.446   5.588
10187SOL    HW231461   1.864   3.431   5.666
10188SOL     OW31462   2.586   0.187   6.716
10188SOL    HW131463   2.526   0.127   6.768
10188SOL    HW231464   2.595   0.153   6.622
10189SOL     OW31465   2.028   1.668   5.351
10189SOL    HW131466   1.977   1.681   5.436
10189SOL    HW231467   2.110   1.725   5.352
10190SOL     OW31468   3.021   3.977   0.894
10190SOL    HW131469   2.946   3.930   0.940
10190SOL    HW231470   3.108   3.951   0.936
10191SOL     OW31471   5.942   0.469   0.051
10191SOL    HW131472   5.918   0.454   0.147
10191SOL    HW231473   6.024   0.527   0.046
10192SOL     OW31474   2.840   0.404   4.524
10192SOL    HW131475   2.878   0.450   4.444
10192SOL    HW231476   2.802   0.473   4.586
10193SOL     OW31477   3.900   3.041   3.897
10193SOL    HW131478   3.890   2.994   3.809
10193SOL    HW231479   3.857   2.986   3.969
10194SOL     OW31480   3.115   5.733   3.365
10194SOL    HW131481   3.152   5.732   3.273
10194SOL    HW231482   3.135   5.821   3.408
10195SOL     OW31483   5.249   0.109   2.232
10195SOL    HW131484   5.329   0.144   2.183
10195SOL    HW231485   5.279   0.055   2.310
10196SOL     OW31486   4.495   4.938   3.888
10196SOL    HW131487   4.575   4.898   3.843
10196SOL    HW231488   4.450   4.868   3.943
10197SOL     OW31489   5.152   1.911   3.015
10197SOL    HW131490   5.155   2.008   2.991
10197SOL    HW231491   5.245   1.874   3.014
10198SOL     OW31492   3.666   1.586   1.942
10198SOL    HW131493   3.695   1.656   1.877
10198SOL    HW231494   3.667   1.624   2.034
10199SOL     OW31495   1.379   1.775   0.015
10199SOL    HW131496   1.388   1.677   7.021
10199SOL    HW231497   1.380   1.792   0.113
10200SOL     OW31498   5.505   6.813   3.925
10200SOL    HW131499   5.416   6.775   3.901
10200SOL    HW231500   5.494   6.910   3.949
10201SOL     OW31501   0.922   5.169   3.420
10201SOL    HW131502   0.881   5.098   3.363
10201SOL    HW231503   0.920   5.257   3.372
10202SOL     OW31504   1.377   2.322   3.434
10202SOL    HW131505   1.371   2.352   3.339
10202SOL    HW231506   1.420   2.394   3.489
10203SOL     OW31507   6.520   2.317   1.054
10203SOL    HW131508   6.524   2.228   1.010
10203SOL    HW231509   6.514   2.388   0.984
10204SOL     OW31510   1.547   6.175   4.161
10204SOL    HW131511   1.508   6.090   4.126
10204SOL    HW231512   1.555   6.241   4.087
10205SOL     OW31513   3.552   6.764   0.782
10205SOL    HW131514   3.485   6.743   0.853
10205SOL    HW231515   3.566   6.684   0.724
10206SOL     OW31516   5.799   6.193   6.895
10206SOL    HW131517   5.891   6.201   6.932
10206SOL    HW231518   5.739   6.153   6.963
10207SOL     OW31519   3.306   1.335   2.436
10207SOL    HW131520   3.207   1.320   2.449
10207SOL    HW231521   3.353   1.322   2.523
10208SOL     OW31522   0.406   2.432   6.552
10208SOL    HW131523   0.499   2.447   6.519
10208SOL    HW231524   0.383   2.502   6.620
10209SOL     OW31525   3.586   6.371   0.098
10209SOL    HW131526   3.577   6.271   0.094
10209SOL    HW231527   3.533   6.411   0.023
10210SOL     OW31528   4.601   6.436   6.649
10210SOL    HW131529   4.574   6.530   6.673
10210SOL    HW231530   4.624   6.386   6.732
10211SOL     OW31531   3.564   5.173   4.960
10211SOL    HW131532   3.573   5.273   4.956
10211SOL    HW231533   3.563   5.143   5.055
10212SOL     OW31534   5.928   5.931   5.807
10212SOL    HW131535   5.958   6.006   5.747
10212SOL    HW231536   5.838   5.899   5.778
10213SOL     OW31537   4.191   0.385   4.360
10213SOL    HW131538   4.213   0.378   4.263
10213SOL    HW231539   4.160   0.478   4.380
10214SOL     OW31540   0.188   0.874   0.430
10214SOL    HW131541   0.173   0.784   0.472
10214SOL    HW231542   0.103   0.926   0.432
10215SOL     OW31543   4.685   2.577   0.243
10215SOL    HW131544   4.645   2.645   0.305
10215SOL    HW231545   4.736   2.510   0.295
10216SOL     OW31546   5.142   0.571   2.364
10216SOL    HW131547   5.132   0.472   2.360
10216SOL    HW231548   5.113   0.611   2.277
10217SOL     OW31549   3.016   2.054   5.897
10217SOL    HW131550   3.104   2.098   5.913
10217SOL    HW231551   2.944   2.102   5.949
10218SOL     OW31552   3.706   0.803   6.667
10218SOL    HW131553   3.721   0.891   6.622
10218SOL    HW231554   3.616   0.804   6.712
10219SOL     OW31555   0.466   4.877   0.635
10219SOL    HW131556   0.559   4.873   0.598
10219SOL    HW231557   0.467   4.845   0.730
10220SOL     OW31558   4.109   2.475   6.520
10220SOL    HW131559   4.079   2.389   6.560
10220SOL    HW231560   4.173   2.521   6.581
10221SOL     OW31561   2.502   0.678   4.346
10221SOL    HW131562   2.454   0.694   4.260
10221SOL    HW231563   2.447   0.619   4.404
10222SOL     OW31564   2.418   4.660   5.270
10222SOL    HW131565   2.506   4.632   5.308
10222SOL    HW231566   2.402   4.611   5.184
10223SOL     OW31567   1.492   4.946   5.948
10223SOL    HW131568   1.518   4.894   5.867
10223SOL    HW231569   1.519   5.042   5.936
10224SOL     OW31570   3.510   5.755   5.569
10224SOL    HW131571   3.578   5.765   5.642
10224SOL    HW231572   3.449   5.834   5.569
10225SOL     OW31573   5.312   6.961   4.516
10225SOL    HW131574   5.368   0.010   4.476
10225SOL    HW231575   5.350   6.936   4.605
10226SOL     OW31576   0.099   2.513   6.675
10226SOL    HW131577   0.187   2.551   6.704
10226SOL    HW231578   0.025   2.553   6.730
10227SOL     OW31579   4.760   4.453   5.350
10227SOL    HW131580   4.677   4.422   5.305
10227SOL    HW231581   4.767   4.553   5.343
10228SOL     OW31582   1.033   2.613   1.642
10228SOL    HW131583   1.122   2.590   1.604
10228SOL    HW231584   0.969   2.633   1.568
10229SOL     OW31585   2.806   0.910   1.998
10229SOL    HW131586   2.839   0.857   2.076
10229SOL    HW231587   2.823   1.007   2.013
10230SOL     OW31588   5.387   6.951   3.289
10230SOL    HW131589   5.440   6.898   3.222
10230SOL    HW231590   5.365   6.894   3.368
10231SOL     OW31591   4.861   6.008   4.691
10231SOL    HW131592   4.848   6.035   4.596
10231SOL    HW231593   4.772   6.002   4.736
10232SOL     OW31594   4.228   2.192   3.129
10232SOL    HW131595   4.245   2.136   3.209
10232SOL    HW231596   4.130   2.194   3.109
10233SOL     OW31597   4.499   6.527   5.289
10233SOL    HW131598   4.433   6.456   5.314
10233SOL    HW231599   4.592   6.491   5.298
10234SOL     OW31600   4.315   4.364   0.904
10234SOL    HW131601   4.261   4.329   0.981
10234SOL    HW231602   4.269   4.342   0.818
10235SOL     OW31603   4.998   0.168   0.151
10235SOL    HW131604   5.056   0.141   0.228
10235SOL    HW231605   4.903   0.173   0.181
10236SOL     OW31606   1.372   4.948   1.300
10236SOL    HW131607   1.380   4.995   1.387
10236SOL    HW231608   1.456   4.960   1.247
10237SOL     OW31609   5.824   2.647   3.060
10237SOL    HW131610   5.781   2.665   2.972
10237SOL    HW231611   5.756   2.613   3.124
10238SOL     OW31612   4.769   5.326   6.396
10238SOL    HW131613   4.851   5.384   6.398
10238SOL    HW231614   4.787   5.245   6.339
10239SOL     OW31615   5.603   3.361   4.371
10239SOL    HW131616   5.619   3.288   4.438
10239SOL    HW231617   5.561   3.323   4.289
10240SOL     OW31618   4.869   3.730   2.906
10240SOL    HW131619   4.899   3.695   2.995
10240SOL    HW231620   4.817   3.815   2.920
10241SOL     OW31621   1.163   2.508   2.799
10241SOL    HW131622   1.192   2.475   2.709
10241SOL    HW231623   1.224   2.581   2.829
10242SOL     OW31624   1.294   5.491   6.603
10242SOL    HW131625   1.340   5.403   6.613
10242SOL    HW231626   1.212   5.480   6.547
10243SOL     OW31627   0.422   5.734   3.669
10243SOL    HW131628   0.370   5.726   3.584
10243SOL    HW231629   0.505   5.678   3.664
10244SOL     OW31630   2.363   5.864   6.921
10244SOL    HW131631   2.285   5.881   6.982
10244SOL    HW231632   2.445   5.851   6.976
10245SOL     OW31633   3.677   2.945   0.768
10245SOL    HW131634   3.747   2.990   0.822
10245SOL    HW231635   3.635   2.872   0.822
10246SOL     OW31636   3.642   4.093   5.072
10246SOL    HW131637   3.628   4.165   5.140
10246SOL    HW231638   3.738   4.092   5.044
10247SOL     OW31639   1.512   5.685   6.535
10247SOL    HW131640   1.453   5.605   6.548
10247SOL    HW231641   1.456   5.768   6.533
10248SOL     OW31642   5.825   0.702   3.860
10248SOL    HW131643   5.842   0.636   3.933
10248SOL    HW231644   5.814   0.794   3.900
10249SOL     OW31645   4.681   0.854   6.034
10249SOL    HW131646   4.600   0.845   6.093
10249SOL    HW231647   4.654   0.848   5.938
10250SOL     OW31648   4.400   5.813   0.882
10250SOL    HW131649   4.464   5.760   0.938
10250SOL    HW231650   4.396   5.774   0.789
10251SOL     OW31651   3.817   4.270   1.343
10251SOL    HW131652   3.868   4.292   1.426
10251SOL    HW231653   3.781   4.354   1.303
10252SOL     OW31654   0.368   3.765   0.821
10252SOL    HW131655   0.306   3.789   0.895
10252SOL    HW231656   0.326   3.695   0.764
10253SOL     OW31657   4.582   4.357   0.089
10253SOL    HW131658   4.580   4.344   0.188
10253SOL    HW231659   4.669   4.323   0.053
10254SOL     OW31660   2.873   2.098   5.494
10254SOL    HW131661   2.905   2.072   5.403
10254SOL    HW231662   2.940   2.070   5.562
10255SOL     OW31663   3.497   4.880   4.203
10255SOL    HW131664   3.399   4.860   4.200
10255SOL    HW231665   3.527   4.885   4.299
10256SOL     OW31666   5.440   5.940   6.900
10256SOL    HW131667   5.475   5.888   6.822
10256SOL    HW231668   5.370   5.887   6.947
10257SOL     OW31669   1.849   4.393   5.363
10257SOL    HW131670   1.924   4.434   5.414
10257SOL    HW231671   1.838   4.298   5.389
10258SOL     OW31672   4.792   1.417   2.670
10258SOL    HW131673   4.787   1.348   2.598
10258SOL    HW231674   4.729   1.492   2.649
10259SOL     OW31675   6.559   3.619   4.599
10259SOL    HW131676   6.464   3.590   4.590
10259SOL    HW231677   6.619   3.552   4.555
10260SOL     OW31678   0.482   5.559   2.279
10260SOL    HW131679   0.482   5.533   2.183
10260SOL    HW231680   0.388   5.567   2.312
10261SOL     OW31681   2.089   0.381   2.183
10261SOL    HW131682   1.997   0.367   2.146
10261SOL    HW231683   2.120   0.296   2.227
10262SOL     OW31684   6.909   6.397   3.835
10262SOL    HW131685   6.925   6.493   3.812
10262SOL    HW231686   6.846   6.357   3.769
10263SOL     OW31687   6.458   3.154   4.956
10263SOL    HW131688   6.461   3.055   4.973
10263SOL    HW231689   6.510   3.175   4.874
10264SOL     OW31690   0.508   0.832   0.690
10264SOL    HW131691   0.490   0.856   0.785
10264SOL    HW231692   0.605   0.814   0.677
10265SOL     OW31693   4.972   2.523   4.240
10265SOL    HW131694   4.997   2.615   4.270
10265SOL    HW231695   4.878   2.503   4.268
10266SOL     OW31696   3.531   3.668   0.135
10266SOL    HW131697   3.464   3.690   0.206
10266SOL    HW231698   3.491   3.687   0.045
10267SOL     OW31699   0.026   0.724   6.564
10267SOL    HW131700   6.979   0.789   6.595
10267SOL    HW231701   0.000   0.688   6.475
10268SOL     OW31702   6.897   3.925   0.190
10268SOL    HW131703   6.893   3.977   0.104
10268SOL    HW231704   6.993   3.903   0.211
10269SOL     OW31705   4.429   1.675   5.574
10269SOL    HW131706   4.382   1.721   5.649
10269SOL    HW231707   4.518   1.718   5.559
10270SOL     OW31708   3.816   6.237   2.817
10270SOL    HW131709   3.775   6.311   2.871
10270SOL    HW231710   3.854   6.169   2.879
10271SOL     OW31711   2.100   4.664   1.284
10271SOL    HW131712   2.136   4.575   1.253
10271SOL    HW231713   2.033   4.649   1.357
10272SOL     OW31714   2.072   3.278   3.975
10272SOL    HW131715   2.136   3.222   4.028
10272SOL    HW231716   2.086   3.259   3.877
10273SOL     OW31717   4.389   6.437   4.046
10273SOL    HW131718   4.322   6.448   3.973
10273SOL    HW231719   4.481   6.448   4.009
10274SOL     OW31720   2.421   4.278   6.229
10274SOL    HW131721   2.413   4.257   6.132
10274SOL    HW231722   2.336   4.253   6.276
10275SOL     OW31723   0.967   5.841   1.680
10275SOL    HW131724   1.062   5.815   1.660
10275SOL    HW231725   0.962   5.940   1.693
10276SOL     OW31726   1.455   0.085   0.234
10276SOL    HW131727   1.502   7.021   0.218
10276SOL    HW231728   1.523   0.158   0.246
10277SOL     OW31729   6.903   5.810   1.932
10277SOL    HW131730   6.812   5.813   1.974
10277SOL    HW231731   6.917   5.720   1.891
10278SOL     OW31732   6.378   1.111   5.533
10278SOL    HW131733   6.366   1.207   5.511
10278SOL    HW231734   6.327   1.055   5.468
10279SOL     OW31735   3.747   5.970   4.095
10279SOL    HW131736   3.768   6.056   4.140
10279SOL    HW231737   3.827   5.937   4.045
10280SOL     OW31738   2.726   2.556   0.370
10280SOL    HW131739   2.798   2.612   0.329
10280SOL    HW231740   2.657   2.536   0.301
10281SOL     OW31741   4.193   0.960   4.349
10281SOL    HW131742   4.132   0.890   4.313
10281SOL    HW231743   4.140   1.034   4.390
10282SOL     OW31744   1.698   3.620   4.267
10282SOL    HW131745   1.761   3.543   4.275
10282SOL    HW231746   1.742   3.694   4.216
10283SOL     OW31747   1.513   5.192   6.374
10283SOL    HW131748   1.461   5.266   6.331
10283SOL    HW231749   1.453   5.113   6.387
10284SOL     OW31750   4.985   2.973   0.083
10284SOL    HW131751   5.045   2.987   0.005
10284SOL    HW231752   4.898   2.935   0.052
10285SOL     OW31753   4.984   1.553   1.363
10285SOL    HW131754   4.917   1.614   1.404
10285SOL    HW231755   5.051   1.525   1.433
10286SOL     OW31756   3.459   0.355   4.218
10286SOL    HW131757   3.473   0.454   4.230
10286SOL    HW231758   3.433   0.337   4.123
10287SOL     OW31759   2.174   4.066   2.459
10287SOL    HW131760   2.251   4.081   2.521
10287SOL    HW231761   2.096   4.122   2.487
10288SOL     OW31762   4.410   6.224   4.502
10288SOL    HW131763   4.349   6.185   4.570
10288SOL    HW231764   4.389   6.187   4.411
10289SOL     OW31765   2.610   1.612   1.723
10289SOL    HW131766   2.537   1.607   1.791
10289SOL    HW231767   2.667   1.529   1.730
10290SOL     OW31768   3.066   3.144   3.379
10290SOL    HW131769   3.014   3.194   3.449
10290SOL    HW231770   3.139   3.092   3.423
10291SOL     OW31771   3.869   0.400   4.195
10291SOL    HW131772   3.811   0.451   4.260
10291SOL    HW231773   3.900   0.315   4.237
10292SOL     OW31774   6.306   2.661   4.273
10292SOL    HW131775   6.234   2.712   4.226
10292SOL    HW231776   6.283   2.563   4.271
10293SOL     OW31777   1.349   4.653   2.967
10293SOL    HW131778   1.423   4.588   2.983
10293SOL    HW231779   1.377   4.718   2.896
10294SOL     OW31780   5.580   0.857   3.162
10294SOL    HW131781   5.626   0.769   3.179
10294SOL    HW231782   5.633   0.909   3.095
10295SOL     OW31783   1.871   3.946   3.232
10295SOL    HW131784   1.809   3.928   3.309
10295SOL    HW231785   1.913   4.036   3.245
10296SOL     OW31786   6.147   3.360   1.521
10296SOL    HW131787   6.126   3.450   1.562
10296SOL    HW231788   6.071   3.333   1.461
10297SOL     OW31789   3.815   5.012   5.023
10297SOL    HW131790   3.780   4.974   4.938
10297SOL    HW231791   3.822   5.111   5.016
10298SOL     OW31792   5.894   3.345   3.355
10298SOL    HW131793   5.896   3.247   3.334
10298SOL    HW231794   5.881   3.397   3.270
10299SOL     OW31795   4.243   4.740   2.464
10299SOL    HW131796   4.238   4.835   2.433
10299SOL    HW231797   4.254   4.680   2.386
10300SOL     OW31798   0.404   5.810   2.229
10300SOL    HW131799   0.469   5.734   2.239
10300SOL    HW231800   0.371   5.838   2.319
10301SOL     OW31801   4.249   0.284   1.561
10301SOL    HW131802   4.183   0.249   1.627
10301SOL    HW231803   4.314   0.211   1.538
10302SOL     OW31804   0.518   3.830   3.333
10302SOL    HW131805   0.487   3.907   3.277
10302SOL    HW231806   0.439   3.784   3.373
10303SOL     OW31807   4.371   3.469   0.784
10303SOL    HW131808   4.407   3.388   0.740
10303SOL    HW231809   4.447   3.529   0.811
10304SOL     OW31810   5.627   5.666   3.822
10304SOL    HW131811   5.654   5.744   3.878
10304SOL    HW231812   5.655   5.682   3.727
10305SOL     OW31813   2.556   5.287   1.600
10305SOL    HW131814   2.588   5.192   1.599
10305SOL    HW231815   2.600   5.337   1.675
10306SOL     OW31816   4.878   3.776   6.948
10306SOL    HW131817   4.950   3.721   6.990
10306SOL    HW231818   4.886   3.871   6.979
10307SOL     OW31819   2.624   1.918   6.075
10307SOL    HW131820   2.703   1.978   6.092
10307SOL    HW231821   2.612   1.856   6.152
10308SOL     OW31822   2.897   5.097   4.316
10308SOL    HW131823   2.959   5.106   4.238
10308SOL    HW231824   2.941   5.041   4.387
10309SOL     OW31825   0.265   6.395   3.483
10309SOL    HW131826   0.189   6.343   3.523
10309SOL    HW231827   0.318   6.334   3.423
10310SOL     OW31828   3.689   4.108   4.432
10310SOL    HW131829   3.740   4.135   4.514
10310SOL    HW231830   3.752   4.072   4.364
10311SOL     OW31831   1.128   6.947   0.718
10311SOL    HW131832   1.137   6.913   0.624
10311SOL    HW231833   1.040   6.920   0.755
10312SOL     OW31834   2.928   4.660   0.429
10312SOL    HW131835   2.885   4.750   0.427
10312SOL    HW231836   2.890   4.607   0.505
10313SOL     OW31837   6.628   5.981   3.999
10313SOL    HW131838   6.604   6.010   3.907
10313SOL    HW231839   6.635   6.061   4.059
10314SOL     OW31840   0.055   5.415   5.336
10314SOL    HW131841   6.993   5.424   5.387
10314SOL    HW231842   0.127   5.382   5.397
10315SOL     OW31843   4.136   6.134   5.532
10315SOL    HW131844   4.197   6.205   5.496
10315SOL    HW231845   4.190   6.069   5.585
10316SOL     OW31846   0.544   3.126   4.190
10316SOL    HW131847   0.540   3.077   4.277
10316SOL    HW231848   0.452   3.154   4.162
10317SOL     OW31849   5.939   4.309   6.365
10317SOL    HW131850   5.928   4.390   6.422
10317SOL    HW231851   6.014   4.253   6.399
10318SOL     OW31852   4.888   5.104   2.835
10318SOL    HW131853   4.891   5.004   2.826
10318SOL    HW231854   4.965   5.134   2.891
10319SOL     OW31855   4.691   6.714   3.599
10319SOL    HW131856   4.602   6.755   3.618
10319SOL    HW231857   4.679   6.620   3.570
10320SOL     OW31858   3.910   6.604   1.680
10320SOL    HW131859   3.817   6.586   1.714
10320SOL    HW231860   3.968   6.631   1.757
10321SOL     OW31861   4.686   6.059   4.871
10321SOL    HW131862   4.631   6.126   4.922
10321SOL    HW231863   4.641   5.970   4.874
10322SOL     OW31864   6.826   1.378   6.486
10322SOL    HW131865   6.727   1.370   6.472
10322SOL    HW231866   6.846   1.463   6.535
10323SOL     OW31867   0.797   2.401   5.298
10323SOL    HW131868   0.791   2.431   5.393
10323SOL    HW231869   0.861   2.324   5.292
10324SOL     OW31870   2.966   3.551   4.563
10324SOL    HW131871   3.028   3.623   4.592
10324SOL    HW231872   2.911   3.521   4.640
10325SOL     OW31873   0.409   3.214   3.738
10325SOL    HW131874   0.402   3.134   3.797
10325SOL    HW231875   0.408   3.297   3.794
10326SOL     OW31876   5.518   1.770   1.368
10326SOL    HW131877   5.472   1.681   1.379
10326SOL    HW231878   5.602   1.771   1.421
10327SOL     OW31879   6.155   1.572   3.908
10327SOL    HW131880   6.070   1.605   3.866
10327SOL    HW231881   6.201   1.510   3.845
10328SOL     OW31882   6.892   3.761   2.218
10328SOL    HW131883   6.895   3.689   2.288
10328SOL    HW231884   6.953   3.736   2.142
10329SOL     OW31885   2.915   5.606   3.230
10329SOL    HW131886   2.967   5.663   3.294
10329SOL    HW231887   2.927   5.510   3.255
10330SOL     OW31888   3.163   3.602   0.937
10330SOL    HW131889   3.086   3.561   0.887
10330SOL    HW231890   3.248   3.558   0.909
10331SOL     OW31891   5.182   1.926   4.676
10331SOL    HW131892   5.196   1.996   4.605
10331SOL    HW231893   5.262   1.924   4.737
10332SOL     OW31894   1.477   2.638   6.850
10332SOL    HW131895   1.474   2.729   6.892
10332SOL    HW231896   1.562   2.627   6.799
10333SOL     OW31897   0.119   4.487   5.198
10333SOL    HW131898   0.041   4.424   5.200
10333SOL    HW231899   0.123   4.539   5.283
10334SOL     OW31900   1.175   4.779   5.378
10334SOL    HW131901   1.172   4.754   5.475
10334SOL    HW231902   1.112   4.721   5.327
10335SOL     OW31903   3.158   5.158   3.306
10335SOL    HW131904   3.114   5.070   3.324
10335SOL    HW231905   3.212   5.185   3.386
10336SOL     OW31906   4.399   6.769   3.187
10336SOL    HW131907   4.493   6.737   3.173
10336SOL    HW231908   4.343   6.744   3.108
10337SOL     OW31909   1.233   3.717   6.615
10337SOL    HW131910   1.140   3.737   6.584
10337SOL    HW231911   1.299   3.755   6.550
10338SOL     OW31912   2.458   4.389   2.483
10338SOL    HW131913   2.532   4.439   2.529
10338SOL    HW231914   2.497   4.329   2.412
10339SOL     OW31915   3.332   6.084   6.927
10339SOL    HW131916   3.264   6.022   6.966
10339SOL    HW231917   3.419   6.072   6.974
10340SOL     OW31918   1.703   6.484   0.898
10340SOL    HW131919   1.788   6.505   0.850
10340SOL    HW231920   1.674   6.391   0.877
10341SOL     OW31921   0.103   3.616   2.083
10341SOL    HW131922   0.027   3.564   2.045
10341SOL    HW231923   0.148   3.563   2.154
10342SOL     OW31924   3.013   5.468   3.931
10342SOL    HW131925   3.109   5.456   3.909
10342SOL    HW231926   2.990   5.414   4.012
10343SOL     OW31927   2.607   2.223   4.872
10343SOL    HW131928   2.586   2.137   4.917
10343SOL    HW231929   2.685   2.267   4.917
10344SOL     OW31930   4.748   3.880   1.337
10344SOL    HW131931   4.734   3.804   1.274
10344SOL    HW231932   4.841   3.915   1.327
10345SOL     OW31933   3.475   1.684   6.524
10345SOL    HW131934   3.441   1.768   6.567
10345SOL    HW231935   3.405   1.648   6.462
10346SOL     OW31936   6.304   5.994   0.184
10346SOL    HW131937   6.384   5.956   0.231
10346SOL    HW231938   6.221   5.967   0.232
10347SOL     OW31939   4.121   6.908   2.062
10347SOL    HW131940   4.031   6.894   2.021
10347SOL    HW231941   4.118   6.987   2.123
10348SOL     OW31942   6.927   3.795   5.315
10348SOL    HW131943   6.858   3.865   5.331
10348SOL    HW231944   7.018   3.837   5.310
10349SOL     OW31945   5.973   2.164   0.431
10349SOL    HW131946   5.979   2.160   0.531
10349SOL    HW231947   6.007   2.078   0.392
10350SOL     OW31948   1.989   5.019   4.589
10350SOL    HW131949   2.012   4.994   4.683
10350SOL    HW231950   1.921   4.956   4.553
10351SOL     OW31951   3.694   5.461   5.091
10351SOL    HW131952   3.791   5.487   5.094
10351SOL    HW231953   3.668   5.418   5.177
10352SOL     OW31954   0.345   1.109   1.797
10352SOL    HW131955   0.433   1.083   1.756
10352SOL    HW231956   0.291   1.159   1.729
10353SOL     OW31957   5.599   3.119   3.465
10353SOL    HW131958   5.505   3.133   3.433
10353SOL    HW231959   5.663   3.142   3.391
10354SOL     OW31960   0.005   2.564   1.888
10354SOL    HW131961   6.988   2.485   1.840
10354SOL    HW231962   0.100   2.544   1.912
10355SOL     OW31963   0.110   2.354   0.676
10355SOL    HW131964   0.036   2.287   0.683
10355SOL    HW231965   0.081   2.429   0.617
10356SOL     OW31966   5.900   2.713   6.801
10356SOL    HW131967   5.959   2.633   6.813
10356SOL    HW231968   5.899   2.766   6.885
10357SOL     OW31969   0.493   0.248   6.592
10357SOL    HW131970   0.402   0.255   6.551
10357SOL    HW231971   0.561   0.230   6.520
10358SOL     OW31972   0.691   3.026   3.992
10358SOL    HW131973   0.639   3.075   4.062
10358SOL    HW231974   0.732   2.944   4.032
10359SOL     OW31975   0.892   2.519   2.727
10359SOL    HW131976   0.843   2.455   2.667
10359SOL    HW231977   0.981   2.481   2.751
10360SOL     OW31978   6.015   4.649   1.135
10360SOL    HW131979   5.923   4.680   1.158
10360SOL    HW231980   6.070   4.727   1.104
10361SOL     OW31981   5.871   1.955   3.134
10361SOL    HW131982   5.874   2.053   3.114
10361SOL    HW231983   5.799   1.912   3.080
10362SOL     OW31984   0.206   6.377   1.528
10362SOL    HW131985   0.134   6.443   1.548
10362SOL    HW231986   0.295   6.416   1.553
10363SOL     OW31987   5.841   4.926   6.013
10363SOL    HW131988   5.831   4.882   5.923
10363SOL    HW231989   5.895   4.867   6.073
10364SOL     OW31990   5.944   5.384   1.484
10364SOL    HW131991   5.848   5.410   1.495
10364SOL    HW231992   5.997   5.419   1.561
10365SOL     OW31993   6.058   6.192   6.981
10365SOL    HW131994   6.109   6.271   6.946
10365SOL    HW231995   6.111   6.109   6.968
10366SOL     OW31996   2.868   0.057   3.124
10366SOL    HW131997   2.859   0.125   3.051
10366SOL    HW231998   2.778   0.018   3.144
10367SOL     OW31999   5.105   6.145   1.932
10367SOL    HW132000   5.124   6.096   2.017
10367SOL    HW232001   5.092   6.079   1.858
10368SOL     OW32002   1.524   5.621   1.706
10368SOL    HW132003   1.561   5.565   1.781
10368SOL    HW232004   1.581   5.609   1.625
10369SOL     OW32005   2.355   0.929   5.543
10369SOL    HW132006   2.395   1.014   5.578
10369SOL    HW232007   2.308   0.948   5.457
10370SOL     OW32008   1.924   2.362   6.435
10370SOL    HW132009   1.850   2.322   6.380
10370SOL    HW232010   1.985   2.415   6.376
10371SOL     OW32011   3.931   5.489   3.109
10371SOL    HW132012   3.940   5.432   3.191
10371SOL    HW232013   3.921   5.585   3.136
10372SOL     OW32014   1.166   6.117   1.586
10372SOL    HW132015   1.112   6.114   1.501
10372SOL    HW232016   1.250   6.065   1.573
10373SOL     OW32017   6.423   0.399   6.023
10373SOL    HW132018   6.439   0.441   5.934
10373SOL    HW232019   6.355   0.326   6.013
10374SOL     OW32020   2.791   4.891   3.234
10374SOL    HW132021   2.862   4.857   3.295
10374SOL    HW232022   2.803   4.850   3.144
10375SOL     OW32023   2.490   5.776   6.649
10375SOL    HW132024   2.509   5.850   6.585
10375SOL    HW232025   2.432   5.810   6.723
10376SOL     OW32026   1.760   4.702   4.162
10376SOL    HW132027   1.677   4.757   4.173
10376SOL    HW232028   1.840   4.756   4.191
10377SOL     OW32029   2.690   0.576   3.917
10377SOL    HW132030   2.641   0.567   4.003
10377SOL    HW232031   2.763   0.507   3.912
10378SOL     OW32032   0.457   6.754   5.713
10378SOL    HW132033   0.554   6.780   5.715
10378SOL    HW232034   0.436   6.713   5.624
10379SOL     OW32035   0.876   5.572   3.515
10379SOL    HW132036   0.820   5.655   3.525
10379SOL    HW232037   0.920   5.551   3.602
10380SOL     OW32038   3.032   1.432   4.058
10380SOL    HW132039   2.994   1.476   4.139
10380SOL    HW232040   3.120   1.474   4.035
10381SOL     OW32041   2.393   0.362   2.813
10381SOL    HW132042   2.333   0.333   2.887
10381SOL    HW232043   2.480   0.313   2.820
10382SOL     OW32044   4.224   5.691   2.149
10382SOL    HW132045   4.188   5.768   2.096
10382SOL    HW232046   4.148   5.633   2.179
10383SOL     OW32047   0.451   6.971   6.979
10383SOL    HW132048   0.504   6.886   6.983
10383SOL    HW232049   0.506   0.019   6.937
10384SOL     OW32050   5.112   5.081   1.227
10384SOL    HW132051   5.114   5.121   1.319
10384SOL    HW232052   5.127   5.152   1.160
10385SOL     OW32053   3.880   4.649   6.701
10385SOL    HW132054   3.976   4.663   6.679
10385SOL    HW232055   3.829   4.733   6.682
10386SOL     OW32056   0.163   0.149   2.130
10386SOL    HW132057   0.087   0.112   2.078
10386SOL    HW232058   0.221   0.204   2.069
10387SOL     OW32059   5.647   1.909   1.822
10387SOL    HW132060   5.623   1.830   1.879
10387SOL    HW232061   5.733   1.948   1.854
10388SOL     OW32062   1.053   0.480   4.805
10388SOL    HW132063   1.109   0.400   4.785
10388SOL    HW232064   0.956   0.453   4.808
10389SOL     OW32065   0.456   3.462   0.678
10389SOL    HW132066   0.481   3.491   0.771
10389SOL    HW232067   0.372   3.509   0.650
10390SOL     OW32068   2.133   2.239   2.277
10390SOL    HW132069   2.202   2.312   2.278
10390SOL    HW232070   2.150   2.178   2.199
10391SOL     OW32071   6.236   6.873   2.992
10391SOL    HW132072   6.242   6.929   2.909
10391SOL    HW232073   6.150   6.823   2.992
10392SOL     OW32074   6.431   3.750   4.149
10392SOL    HW132075   6.514   3.717   4.193
10392SOL    HW232076   6.431   3.850   4.148
10393SOL     OW32077   1.890   2.574   2.013
10393SOL    HW132078   1.856   2.480   2.014
10393SOL    HW232079   1.894   2.607   1.918
10394SOL     OW32080   2.906   6.324   3.836
10394SOL    HW132081   2.858   6.354   3.918
10394SOL    HW232082   2.871   6.236   3.806
10395SOL     OW32083   0.557   1.094   1.604
10395SOL    HW132084   0.615   1.151   1.663
10395SOL    HW232085   0.595   1.091   1.512
10396SOL     OW32086   3.407   2.201   5.311
10396SOL    HW132087   3.354   2.278   5.275
10396SOL    HW232088   3.346   2.123   5.324
10397SOL     OW32089   5.118   1.608   4.114
10397SOL    HW132090   5.216   1.589   4.121
10397SOL    HW232091   5.072   1.529   4.074
10398SOL     OW32092   5.215   2.964   2.465
10398SOL    HW132093   5.167   2.882   2.437
10398SOL    HW232094   5.172   3.044   2.423
10399SOL     OW32095   0.870   3.771   2.343
10399SOL    HW132096   0.876   3.746   2.440
10399SOL    HW232097   0.775   3.794   2.321
10400SOL     OW32098   2.057   6.527   0.535
10400SOL    HW132099   1.988   6.592   0.505
10400SOL    HW232100   2.138   6.534   0.476
10401SOL     OW32101   6.583   0.954   5.772
10401SOL    HW132102   6.577   0.924   5.677
10401SOL    HW232103   6.540   1.044   5.781
10402SOL     OW32104   6.810   4.431   5.249
10402SOL    HW132105   6.731   4.370   5.242
10402SOL    HW232106   6.867   4.403   5.327
10403SOL     OW32107   3.298   6.961   0.813
10403SOL    HW132108   3.357   6.937   0.890
10403SOL    HW232109   3.276   0.035   0.817
10404SOL     OW32110   0.330   5.623   5.977
10404SOL    HW132111   0.411   5.577   5.941
10404SOL    HW232112   0.344   5.647   6.073
10405SOL     OW32113   0.303   1.589   0.065
10405SOL    HW132114   0.238   1.631   0.128
10405SOL    HW232115   0.275   1.495   0.046
10406SOL     OW32116   1.615   5.213   0.953
10406SOL    HW132117   1.566   5.284   0.901
10406SOL    HW232118   1.711   5.240   0.964
10407SOL     OW32119   2.124   6.106   6.982
10407SOL    HW132120   2.125   6.007   6.967
10407SOL    HW232121   2.216   6.138   7.002
10408SOL     OW32122   4.776   0.516   0.594
10408SOL    HW132123   4.827   0.575   0.531
10408SOL    HW232124   4.681   0.546   0.597
10409SOL     OW32125   6.249   4.346   0.585
10409SOL    HW132126   6.197   4.288   0.647
10409SOL    HW232127   6.345   4.349   0.615
10410SOL     OW32128   4.475   6.970   0.792
10410SOL    HW132129   4.377   6.990   0.803
10410SOL    HW232130   4.526   7.012   0.867
10411SOL     OW32131   1.829   5.415   4.248
10411SOL    HW132132   1.882   5.368   4.319
10411SOL    HW232133   1.859   5.510   4.242
10412SOL     OW32134   5.709   0.095   1.592
10412SOL    HW132135   5.764   0.083   1.509
10412SOL    HW232136   5.768   0.121   1.668
10413SOL     OW32137   5.993   3.036   2.634
10413SOL    HW132138   6.045   2.952   2.619
10413SOL    HW232139   5.975   3.080   2.546
10414SOL     OW32140   5.780   3.465   4.022
10414SOL    HW132141   5.801   3.369   4.001
10414SOL    HW232142   5.865   3.517   4.027
10415SOL     OW32143   0.959   0.875   6.916
10415SOL    HW132144   0.912   0.960   6.939
10415SOL    HW232145   0.916   0.799   6.965
10416SOL     OW32146   5.251   2.905   3.653
10416SOL    HW132147   5.196   2.821   3.656
10416SOL    HW232148   5.322   2.896   3.583
10417SOL     OW32149   1.693   4.177   2.877
10417SOL    HW132150   1.692   4.095   2.820
10417SOL    HW232151   1.630   4.166   2.953
10418SOL     OW32152   1.744   5.725   6.682
10418SOL    HW132153   1.677   5.720   6.608
10418SOL    HW232154   1.720   5.660   6.754
10419SOL     OW32155   1.537   0.836   6.787
10419SOL    HW132156   1.612   0.903   6.787
10419SOL    HW232157   1.450   0.884   6.790
10420SOL     OW32158   0.579   2.877   2.882
10420SOL    HW132159   0.536   2.909   2.797
10420SOL    HW232160   0.664   2.831   2.860
10421SOL     OW32161   0.882   2.035   3.081
10421SOL    HW132162   0.812   2.107   3.087
10421SOL    HW232163   0.897   2.013   2.984
10422SOL     OW32164   5.477   2.888   0.062
10422SOL    HW132165   5.533   2.943   0.123
10422SOL    HW232166   5.439   2.810   0.113
10423SOL     OW32167   5.079   5.468   3.110
10423SOL    HW132168   5.156   5.450   3.049
10423SOL    HW232169   5.039   5.382   3.141
10424SOL     OW32170   4.723   1.464   6.543
10424SOL    HW132171   4.641   1.486   6.491
10424SOL    HW232172   4.699   1.408   6.622
10425SOL     OW32173   1.755   6.647   2.169
10425SOL    HW132174   1.790   6.708   2.241
10425SOL    HW232175   1.720   6.564   2.211
10426SOL     OW32176   6.551   4.178   6.684
10426SOL    HW132177   6.452   4.190   6.687
10426SOL    HW232178   6.573   4.089   6.645
10427SOL     OW32179   5.321   0.807   0.996
10427SOL    HW132180   5.383   0.886   0.995
10427SOL    HW232181   5.261   0.812   0.917
10428SOL     OW32182   4.934   1.354   3.432
10428SOL    HW132183   4.858   1.385   3.489
10428SOL    HW232184   4.969   1.430   3.379
10429SOL     OW32185   5.561   5.290   2.509
10429SOL    HW132186   5.530   5.371   2.460
10429SOL    HW232187   5.658   5.299   2.530
10430SOL     OW32188   4.313   6.113   2.730
10430SOL    HW132189   4.353   6.026   2.760
10430SOL    HW232190   4.384   6.183   2.728
10431SOL     OW32191   2.499   1.348   5.217
10431SOL    HW132192   2.459   1.409   5.285
10431SOL    HW232193   2.427   1.310   5.160
10432SOL     OW32194   3.930   0.272   4.830
10432SOL    HW132195   3.901   0.276   4.926
10432SOL    HW232196   3.916   0.361   4.787
10433SOL     OW32197   2.737   6.583   1.108
10433SOL    HW132198   2.694   6.535   1.031
10433SOL    HW232199   2.666   6.627   1.163
10434SOL     OW32200   3.051   2.129   5.271
10434SOL    HW132201   2.988   2.079   5.211
10434SOL    HW232202   3.077   2.216   5.228
10435SOL     OW32203   5.622   5.328   6.261
10435SOL    HW132204   5.649   5.351   6.354
10435SOL    HW232205   5.686   5.369   6.196
10436SOL     OW32206   0.352   1.208   2.488
10436SOL    HW132207   0.355   1.108   2.496
10436SOL    HW232208   0.271   1.243   2.534
10437SOL     OW32209   0.626   3.924   5.932
10437SOL    HW132210   0.708   3.897   5.882
10437SOL    HW232211   0.545   3.887   5.886
10438SOL     OW32212   3.292   6.838   5.711
10438SOL    HW132213   3.383   6.809   5.738
10438SOL    HW232214   3.289   6.938   5.705
10439SOL     OW32215   3.490   0.743   5.465
10439SOL    HW132216   3.477   0.796   5.381
10439SOL    HW232217   3.422   0.772   5.533
10440SOL     OW32218   0.798   5.485   0.919
10440SOL    HW132219   0.879   5.436   0.888
10440SOL    HW232220   0.819   5.538   1.001
10441SOL     OW32221   4.000   0.354   0.552
10441SOL    HW132222   4.023   0.289   0.624
10441SOL    HW232223   3.902   0.349   0.533
10442SOL     OW32224   4.559   5.882   5.425
10442SOL    HW132225   4.469   5.922   5.405
10442SOL    HW232226   4.625   5.955   5.444
10443SOL     OW32227   6.063   2.861   4.563
10443SOL    HW132228   6.122   2.834   4.640
10443SOL    HW232229   6.002   2.934   4.592
10444SOL     OW32230   4.038   5.288   4.691
10444SOL    HW132231   4.053   5.210   4.629
10444SOL    HW232232   4.031   5.255   4.785
10445SOL     OW32233   6.431   6.200   2.041
10445SOL    HW132234   6.444   6.297   2.019
10445SOL    HW232235   6.383   6.192   2.128
10446SOL     OW32236   1.297   6.639   6.448
10446SOL    HW132237   1.254   6.634   6.358
10446SOL    HW232238   1.372   6.705   6.446
10447SOL     OW32239   5.644   1.853   0.478
10447SOL    HW132240   5.580   1.787   0.517
10447SOL    HW232241   5.738   1.823   0.495
10448SOL     OW32242   3.463   3.801   2.495
10448SOL    HW132243   3.453   3.838   2.403
10448SOL    HW232244   3.389   3.837   2.553
10449SOL     OW32245   1.802   5.508   4.745
10449SOL    HW132246   1.766   5.593   4.785
10449SOL    HW232247   1.763   5.429   4.793
10450SOL     OW32248   6.960   3.626   1.130
10450SOL    HW132249   7.005   3.580   1.053
10450SOL    HW232250   6.925   3.715   1.099
10451SOL     OW32251   2.404   4.534   2.178
10451SOL    HW132252   2.361   4.450   2.212
10451SOL    HW232253   2.352   4.568   2.100
10452SOL     OW32254   1.850   3.359   6.405
10452SOL    HW132255   1.850   3.361   6.305
10452SOL    HW232256   1.806   3.275   6.436
10453SOL     OW32257   5.294   0.592   1.666
10453SOL    HW132258   5.194   0.582   1.670
10453SOL    HW232259   5.321   0.619   1.573
10454SOL     OW32260   5.262   4.726   2.596
10454SOL    HW132261   5.337   4.702   2.658
10454SOL    HW232262   5.181   4.672   2.619
10455SOL     OW32263   0.446   4.366   3.193
10455SOL    HW132264   0.541   4.385   3.215
10455SOL    HW232265   0.386   4.427   3.244
10456SOL     OW32266   3.901   6.036   1.175
10456SOL    HW132267   3.850   5.973   1.117
10456SOL    HW232268   3.875   6.130   1.153
10457SOL     OW32269   3.325   3.050   4.104
10457SOL    HW132270   3.355   3.119   4.038
10457SOL    HW232271   3.270   3.092   4.175
10458SOL     OW32272   0.208   5.941   1.626
10458SOL    HW132273   0.119   5.964   1.665
10458SOL    HW232274   0.251   5.869   1.680
10459SOL     OW32275   6.940   4.712   1.620
10459SOL    HW132276   6.967   4.642   1.686
10459SOL    HW232277   6.844   4.700   1.595
10460SOL     OW32278   1.279   4.120   1.655
10460SOL    HW132279   1.289   4.170   1.741
10460SOL    HW232280   1.218   4.170   1.594
10461SOL     OW32281   3.371   0.305   6.465
10461SOL    HW132282   3.395   0.334   6.558
10461SOL    HW232283   3.425   0.358   6.399
10462SOL     OW32284   5.472   6.311   0.989
10462SOL    HW132285   5.384   6.285   0.950
10462SOL    HW232286   5.526   6.360   0.920
10463SOL     OW32287   3.819   3.204   1.177
10463SOL    HW132288   3.846   3.195   1.273
10463SOL    HW232289   3.838   3.297   1.145
10464SOL     OW32290   5.830   6.405   1.982
10464SOL    HW132291   5.796   6.323   1.935
10464SOL    HW232292   5.867   6.469   1.915
10465SOL     OW32293   0.251   4.984   4.571
10465SOL    HW132294   0.331   4.950   4.522
10465SOL    HW232295   0.182   4.912   4.576
10466SOL     OW32296   4.733   6.385   5.312
10466SOL    HW132297   4.824   6.416   5.338
10466SOL    HW232298   4.730   6.371   5.213
10467SOL     OW32299   4.391   1.231   4.257
10467SOL    HW132300   4.484   1.243   4.221
10467SOL    HW232301   4.325   1.265   4.190
10468SOL     OW32302   2.893   5.042   3.568
10468SOL    HW132303   2.941   5.093   3.639
10468SOL    HW232304   2.882   5.100   3.487
10469SOL     OW32305   0.964   4.639   6.160
10469SOL    HW132306   1.007   4.632   6.250
10469SOL    HW232307   0.886   4.577   6.156
10470SOL     OW32308   2.124   2.258   4.752
10470SOL    HW132309   2.090   2.352   4.759
10470SOL    HW232310   2.221   2.260   4.728
10471SOL     OW32311   4.682   4.012   7.020
10471SOL    HW132312   4.639   3.969   0.076
10471SOL    HW232313   4.631   3.988   6.937
10472SOL     OW32314   3.853   1.326   3.813
10472SOL    HW132315   3.803   1.331   3.727
10472SOL    HW232316   3.897   1.413   3.832
10473SOL     OW32317   5.074   5.415   6.862
10473SOL    HW132318   5.120   5.446   6.945
10473SOL    HW232319   4.988   5.370   6.886
10474SOL     OW32320   5.393   0.828   3.809
10474SOL    HW132321   5.447   0.755   3.851
10474SOL    HW232322   5.301   0.794   3.789
10475SOL     OW32323   4.222   6.739   1.492
10475SOL    HW132324   4.127   6.729   1.463
10475SOL    HW232325   4.235   6.692   1.579
10476SOL     OW32326   0.335   4.842   6.405
10476SOL    HW132327   0.431   4.847   6.378
10476SOL    HW232328   0.320   4.897   6.487
10477SOL     OW32329   4.575   4.258   5.202
10477SOL    HW132330   4.582   4.211   5.290
10477SOL    HW232331   4.508   4.332   5.208
10478SOL     OW32332   0.727   6.337   3.245
10478SOL    HW132333   0.633   6.327   3.214
10478SOL    HW232334   0.780   6.386   3.176
10479SOL     OW32335   0.834   4.397   2.181
10479SOL    HW132336   0.737   4.382   2.162
10479SOL    HW232337   0.852   4.384   2.278
10480SOL     OW32338   4.996   1.227   0.741
10480SOL    HW132339   5.063   1.284   0.788
10480SOL    HW232340   4.989   1.255   0.645
10481SOL     OW32341   2.673   1.591   4.496
10481SOL    HW132342   2.575   1.578   4.510
10481SOL    HW232343   2.689   1.681   4.457
10482SOL     OW32344   1.159   6.349   6.898
10482SOL    HW132345   1.140   6.277   6.965
10482SOL    HW232346   1.172   6.308   6.808
10483SOL     OW32347   0.474   5.781   0.583
10483SOL    HW132348   0.481   5.836   0.499
10483SOL    HW232349   0.396   5.719   0.576
10484SOL     OW32350   6.691   1.762   1.805
10484SOL    HW132351   6.702   1.664   1.786
10484SOL    HW232352   6.778   1.808   1.787
10485SOL     OW32353   3.780   3.892   4.278
10485SOL    HW132354   3.877   3.914   4.264
10485SOL    HW232355   3.770   3.794   4.295
10486SOL     OW32356   5.963   5.433   5.984
10486SOL    HW132357   5.911   5.353   6.017
10486SOL    HW232358   5.968   5.501   6.057
10487SOL     OW32359   5.526   3.969   2.612
10487SOL    HW132360   5.509   3.932   2.703
10487SOL    HW232361   5.489   3.906   2.544
10488SOL     OW32362   0.774   2.396   5.774
10488SOL    HW132363   0.782   2.416   5.871
10488SOL    HW232364   0.679   2.406   5.745
10489SOL     OW32365   5.882   5.208   2.997
10489SOL    HW132366   5.806   5.154   3.034
10489SOL    HW232367   5.855   5.305   2.994
10490SOL     OW32368   5.052   6.637   6.294
10490SOL    HW132369   5.127   6.683   6.340
10490SOL    HW232370   5.054   6.539   6.317
10491SOL     OW32371   2.141   1.894   5.512
10491SOL    HW132372   2.222   1.848   5.549
10491SOL    HW232373   2.126   1.979   5.563
10492SOL     OW32374   2.758   6.459   0.347
10492SOL    HW132375   2.778   6.400   0.268
10492SOL    HW232376   2.841   6.508   0.374
10493SOL     OW32377   3.708   5.939   0.825
10493SOL    HW132378   3.801   5.966   0.801
10493SOL    HW232379   3.664   5.898   0.745
10494SOL     OW32380   0.335   5.594   4.041
10494SOL    HW132381   0.415   5.535   4.053
10494SOL    HW232382   0.252   5.545   4.067
10495SOL     OW32383   5.894   6.434   0.219
10495SOL    HW132384   5.888   6.480   0.130
10495SOL    HW232385   5.991   6.423   0.244
10496SOL     OW32386   1.053   4.458   5.666
10496SOL    HW132387   1.055   4.358   5.669
10496SOL    HW232388   0.964   4.490   5.699
10497SOL     OW32389   3.682   6.527   0.598
10497SOL    HW132390   3.733   6.524   0.512
10497SOL    HW232391   3.676   6.436   0.637
10498SOL     OW32392   3.341   3.630   0.306
10498SOL    HW132393   3.259   3.594   0.262
10498SOL    HW232394   3.323   3.648   0.403
10499SOL     OW32395   4.405   4.629   3.272
10499SOL    HW132396   4.432   4.545   3.320
10499SOL    HW232397   4.306   4.639   3.277
10500SOL     OW32398   2.003   3.097   4.901
10500SOL    HW132399   2.048   3.048   4.975
10500SOL    HW232400   1.947   3.033   4.849
10501SOL     OW32401   3.529   5.013   3.204
10501SOL    HW132402   3.570   5.089   3.154
10501SOL    HW232403   3.454   4.974   3.150
10502SOL     OW32404   3.193   3.996   2.490
10502SOL    HW132405   3.198   4.002   2.391
10502SOL    HW232406   3.276   4.036   2.530
10503SOL     OW32407   6.805   0.918   0.578
10503SOL    HW132408   6.855   0.956   0.501
10503SOL    HW232409   6.814   0.978   0.658
10504SOL     OW32410   1.489   2.865   5.646
10504SOL    HW132411   1.518   2.782   5.694
10504SOL    HW232412   1.398   2.892   5.679
10505SOL     OW32413   5.881   6.652   0.875
10505SOL    HW132414   5.865   6.587   0.950
10505SOL    HW232415   5.941   6.725   0.906
10506SOL     OW32416   1.775   4.831   5.126
10506SOL    HW132417   1.709   4.764   5.090
10506SOL    HW232418   1.858   4.783   5.155
10507SOL     OW32419   1.562   6.363   5.937
10507SOL    HW132420   1.611   6.368   6.024
10507SOL    HW232421   1.479   6.419   5.941
10508SOL     OW32422   1.862   6.392   1.103
10508SOL    HW132423   1.830   6.427   1.015
10508SOL    HW232424   1.851   6.292   1.104
10509SOL     OW32425   4.899   3.391   2.181
10509SOL    HW132426   4.891   3.346   2.092
10509SOL    HW232427   4.879   3.488   2.171
10510SOL     OW32428   6.048   6.032   2.122
10510SOL    HW132429   6.108   6.006   2.047
10510SOL    HW232430   6.083   5.994   2.208
10511SOL     OW32431   3.938   1.728   0.716
10511SOL    HW132432   3.971   1.636   0.734
10511SOL    HW232433   3.882   1.728   0.633
10512SOL     OW32434   3.928   0.673   5.242
10512SOL    HW132435   3.861   0.599   5.243
10512SOL    HW232436   3.881   0.760   5.257
10513SOL     OW32437   3.908   3.741   0.454
10513SOL    HW132438   3.852   3.823   0.466
10513SOL    HW232439   3.997   3.754   0.497
10514SOL     OW32440   1.416   5.557   2.016
10514SOL    HW132441   1.515   5.551   2.007
10514SOL    HW232442   1.388   5.532   2.108
10515SOL     OW32443   1.873   3.969   4.638
10515SOL    HW132444   1.954   3.953   4.582
10515SOL    HW232445   1.872   3.905   4.714
10516SOL     OW32446   5.332   1.904   2.061
10516SOL    HW132447   5.301   1.905   2.156
10516SOL    HW232448   5.401   1.975   2.048
10517SOL     OW32449   0.453   1.678   2.074
10517SOL    HW132450   0.360   1.692   2.108
10517SOL    HW232451   0.475   1.748   2.006
10518SOL     OW32452   0.969   5.723   2.819
10518SOL    HW132453   0.889   5.773   2.853
10518SOL    HW232454   0.964   5.628   2.850
10519SOL     OW32455   2.358   6.501   0.642
10519SOL    HW132456   2.361   6.402   0.626
10519SOL    HW232457   2.328   6.520   0.735
10520SOL     OW32458   2.999   2.459   6.201
10520SOL    HW132459   2.977   2.480   6.105
10520SOL    HW232460   3.082   2.403   6.204
10521SOL     OW32461   6.243   2.404   2.824
10521SOL    HW132462   6.157   2.354   2.808
10521SOL    HW232463   6.269   2.393   2.920
10522SOL     OW32464   4.994   1.576   3.220
10522SOL    HW132465   4.908   1.545   3.180
10522SOL    HW232466   4.988   1.674   3.240
10523SOL     OW32467   0.614   4.046   1.802
10523SOL    HW132468   0.679   4.092   1.742
10523SOL    HW232469   0.662   4.008   1.881
10524SOL     OW32470   5.785   6.577   4.731
10524SOL    HW132471   5.839   6.587   4.647
10524SOL    HW232472   5.782   6.665   4.779
10525SOL     OW32473   4.738   1.724   3.369
10525SOL    HW132474   4.801   1.759   3.300
10525SOL    HW232475   4.651   1.700   3.325
10526SOL     OW32476   1.375   5.958   6.062
10526SOL    HW132477   1.277   5.975   6.049
10526SOL    HW232478   1.389   5.865   6.096
10527SOL     OW32479   0.321   6.202   5.936
10527SOL    HW132480   0.385   6.278   5.934
10527SOL    HW232481   0.228   6.236   5.928
10528SOL     OW32482   2.105   6.189   5.370
10528SOL    HW132483   2.113   6.220   5.464
10528SOL    HW232484   2.190   6.144   5.342
10529SOL     OW32485   6.772   5.225   0.382
10529SOL    HW132486   6.722   5.303   0.343
10529SOL    HW232487   6.846   5.199   0.320
10530SOL     OW32488   6.320   0.485   1.250
10530SOL    HW132489   6.278   0.555   1.192
10530SOL    HW232490   6.403   0.523   1.292
10531SOL     OW32491   3.326   1.566   6.293
10531SOL    HW132492   3.322   1.479   6.343
10531SOL    HW232493   3.300   1.550   6.198
10532SOL     OW32494   4.826   5.709   5.919
10532SOL    HW132495   4.755   5.777   5.936
10532SOL    HW232496   4.858   5.717   5.824
10533SOL     OW32497   4.230   6.721   3.389
10533SOL    HW132498   4.237   6.801   3.450
10533SOL    HW232499   4.309   6.719   3.329
10534SOL     OW32500   0.688   6.457   4.021
10534SOL    HW132501   0.681   6.429   4.117
10534SOL    HW232502   0.779   6.495   4.004
10535SOL     OW32503   4.300   1.702   2.357
10535SOL    HW132504   4.399   1.713   2.359
10535SOL    HW232505   4.274   1.642   2.281
10536SOL     OW32506   6.076   3.937   4.430
10536SOL    HW132507   6.042   3.985   4.349
10536SOL    HW232508   6.141   3.866   4.402
10537SOL     OW32509   3.187   1.170   3.050
10537SOL    HW132510   3.255   1.099   3.068
10537SOL    HW232511   3.232   1.247   3.004
10538SOL     OW32512   5.811   2.835   3.527
10538SOL    HW132513   5.851   2.907   3.470
10538SOL    HW232514   5.816   2.748   3.478
10539SOL     OW32515   6.347   7.002   2.520
10539SOL    HW132516   6.422   6.939   2.502
10539SOL    HW232517   6.347   0.051   2.451
10540SOL     OW32518   1.576   3.425   6.034
10540SOL    HW132519   1.591   3.497   5.967
10540SOL    HW232520   1.511   3.456   6.104
10541SOL     OW32521   3.259   2.170   5.891
10541SOL    HW132522   3.246   2.269   5.885
10541SOL    HW232523   3.326   2.141   5.822
10542SOL     OW32524   4.081   6.626   1.912
10542SOL    HW132525   4.061   6.563   1.987
10542SOL    HW232526   4.124   6.709   1.948
10543SOL     OW32527   1.530   2.631   4.329
10543SOL    HW132528   1.515   2.689   4.249
10543SOL    HW232529   1.458   2.646   4.396
10544SOL     OW32530   3.068   2.117   2.165
10544SOL    HW132531   3.003   2.180   2.122
10544SOL    HW232532   3.039   2.023   2.148
10545SOL     OW32533   1.446   2.963   1.755
10545SOL    HW132534   1.366   2.951   1.814
10545SOL    HW232535   1.436   3.048   1.703
10546SOL     OW32536   2.077   6.663   5.068
10546SOL    HW132537   2.042   6.569   5.065
10546SOL    HW232538   2.155   6.667   5.131
10547SOL     OW32539   3.415   6.246   5.851
10547SOL    HW132540   3.443   6.243   5.755
10547SOL    HW232541   3.315   6.258   5.856
10548SOL     OW32542   0.869   5.394   3.282
10548SOL    HW132543   0.951   5.403   3.226
10548SOL    HW232544   0.883   5.441   3.370
10549SOL     OW32545   6.774   1.624   2.690
10549SOL    HW132546   6.756   1.560   2.765
10549SOL    HW232547   6.826   1.701   2.726
10550SOL     OW32548   6.556   5.577   2.985
10550SOL    HW132549   6.594   5.515   3.053
10550SOL    HW232550   6.465   5.546   2.958
10551SOL     OW32551   4.512   0.145   4.596
10551SOL    HW132552   4.446   0.219   4.605
10551SOL    HW232553   4.479   0.078   4.530
10552SOL     OW32554   2.563   0.055   3.208
10552SOL    HW132555   2.510   0.134   3.178
10552SOL    HW232556   2.524   0.020   3.294
10553SOL     OW32557   5.284   5.536   1.431
10553SOL    HW132558   5.361   5.575   1.481
10553SOL    HW232559   5.212   5.509   1.495
10554SOL     OW32560   6.352   5.548   1.476
10554SOL    HW132561   6.430   5.607   1.456
10554SOL    HW232562   6.378   5.482   1.546
10555SOL     OW32563   3.420   3.072   1.957
10555SOL    HW132564   3.420   3.172   1.957
10555SOL    HW232565   3.373   3.038   1.876
10556SOL     OW32566   2.612   2.354   1.760
10556SOL    HW132567   2.518   2.374   1.733
10556SOL    HW232568   2.670   2.434   1.741
10557SOL     OW32569   0.401   3.941   2.826
10557SOL    HW132570   0.432   3.925   2.732
10557SOL    HW232571   0.378   4.037   2.838
10558SOL     OW32572   4.672   4.832   4.643
10558SOL    HW132573   4.732   4.903   4.605
10558SOL    HW232574   4.727   4.757   4.679
10559SOL     OW32575   3.771   5.781   1.331
10559SOL    HW132576   3.804   5.776   1.236
10559SOL    HW232577   3.680   5.739   1.336
10560SOL     OW32578   5.370   0.033   3.903
10560SOL    HW132579   5.280   7.014   3.917
10560SOL    HW232580   5.372   0.080   3.815
10561SOL     OW32581   0.931   5.086   5.503
10561SOL    HW132582   1.002   5.082   5.573
10561SOL    HW232583   0.924   4.997   5.458
10562SOL     OW32584   3.579   6.854   2.649
10562SOL    HW132585   3.536   6.942   2.671
10562SOL    HW232586   3.650   6.867   2.580
10563SOL     OW32587   2.053   5.751   2.150
10563SOL    HW132588   2.138   5.699   2.154
10563SOL    HW232589   2.019   5.766   2.243
10564SOL     OW32590   5.367   4.722   3.183
10564SOL    HW132591   5.274   4.760   3.179
10564SOL    HW232592   5.378   4.654   3.111
10565SOL     OW32593   0.224   1.517   4.831
10565SOL    HW132594   0.295   1.483   4.769
10565SOL    HW232595   0.173   1.590   4.786
10566SOL     OW32596   4.136   1.875   0.457
10566SOL    HW132597   4.090   1.906   0.541
10566SOL    HW232598   4.143   1.951   0.393
10567SOL     OW32599   3.100   1.740   6.631
10567SOL    HW132600   3.051   1.653   6.633
10567SOL    HW232601   3.040   1.811   6.594
10568SOL     OW32602   5.632   2.213   6.068
10568SOL    HW132603   5.686   2.291   6.101
10568SOL    HW232604   5.578   2.241   5.989
10569SOL     OW32605   5.217   0.415   0.814
10569SOL    HW132606   5.169   0.432   0.900
10569SOL    HW232607   5.278   0.337   0.825
10570SOL     OW32608   0.995   3.941   3.057
10570SOL    HW132609   1.073   3.947   3.119
10570SOL    HW232610   1.017   3.879   2.981
10571SOL     OW32611   0.324   3.806   5.393
10571SOL    HW132612   0.307   3.892   5.344
10571SOL    HW232613   0.423   3.788   5.395
10572SOL     OW32614   6.840   4.528   0.487
10572SOL    HW132615   6.785   4.602   0.526
10572SOL    HW232616   6.903   4.494   0.557
10573SOL     OW32617   6.114   2.585   3.721
10573SOL    HW132618   6.168   2.655   3.675
10573SOL    HW232619   6.161   2.497   3.714
10574SOL     OW32620   5.432   2.695   2.552
10574SOL    HW132621   5.440   2.795   2.551
10574SOL    HW232622   5.436   2.663   2.647
10575SOL     OW32623   4.877   0.590   2.457
10575SOL    HW132624   4.977   0.601   2.449
10575SOL    HW232625   4.857   0.500   2.494
10576SOL     OW32626   1.877   3.381   4.875
10576SOL    HW132627   1.900   3.285   4.888
10576SOL    HW232628   1.961   3.433   4.858
10577SOL     OW32629   3.749   4.254   6.976
10577SOL    HW132630   3.682   4.327   6.986
10577SOL    HW232631   3.841   4.292   6.984
10578SOL     OW32632   1.464   3.960   2.328
10578SOL    HW132633   1.395   3.900   2.289
10578SOL    HW232634   1.555   3.920   2.315
10579SOL     OW32635   0.082   3.525   6.794
10579SOL    HW132636   0.055   3.429   6.804
10579SOL    HW232637   0.007   3.576   6.751
10580SOL     OW32638   5.434   6.495   6.684
10580SOL    HW132639   5.366   6.517   6.753
10580SOL    HW232640   5.519   6.467   6.728
10581SOL     OW32641   4.519   1.028   2.457
10581SOL    HW132642   4.557   0.953   2.510
10581SOL    HW232643   4.424   1.009   2.434
10582SOL     OW32644   0.078   3.521   0.063
10582SOL    HW132645   0.138   3.442   0.049
10582SOL    HW232646   0.062   3.566   6.998
10583SOL     OW32647   4.312   2.092   5.400
10583SOL    HW132648   4.334   2.084   5.497
10583SOL    HW232649   4.393   2.122   5.350
10584SOL     OW32650   5.940   0.727   3.629
10584SOL    HW132651   5.868   0.734   3.561
10584SOL    HW232652   5.900   0.716   3.720
10585SOL     OW32653   1.255   1.279   5.186
10585SOL    HW132654   1.330   1.253   5.247
10585SOL    HW232655   1.229   1.373   5.204
10586SOL     OW32656   4.698   3.338   6.081
10586SOL    HW132657   4.615   3.389   6.062
10586SOL    HW232658   4.774   3.376   6.028
10587SOL     OW32659   1.936   5.267   4.933
10587SOL    HW132660   2.014   5.318   4.967
10587SOL    HW232661   1.851   5.309   4.965
10588SOL     OW32662   1.099   3.751   4.355
10588SOL    HW132663   1.073   3.779   4.447
10588SOL    HW232664   1.027   3.694   4.315
10589SOL     OW32665   5.662   0.151   3.743
10589SOL    HW132666   5.697   0.166   3.650
10589SOL    HW232667   5.564   0.133   3.740
10590SOL     OW32668   0.252   6.037   1.988
10590SOL    HW132669   0.172   6.059   1.932
10590SOL    HW232670   0.246   5.941   2.018
10591SOL     OW32671   6.497   4.280   2.657
10591SOL    HW132672   6.435   4.346   2.700
10591SOL    HW232673   6.494   4.292   2.558
10592SOL     OW32674   6.726   3.444   4.490
10592SOL    HW132675   6.728   3.391   4.405
10592SOL    HW232676   6.798   3.411   4.551
10593SOL     OW32677   3.623   5.770   3.463
10593SOL    HW132678   3.720   5.747   3.472
10593SOL    HW232679   3.567   5.691   3.489
10594SOL     OW32680   3.830   5.935   3.655
10594SOL    HW132681   3.760   5.910   3.721
10594SOL    HW232682   3.895   5.860   3.644
10595SOL     OW32683   5.572   6.128   0.712
10595SOL    HW132684   5.599   6.077   0.794
10595SOL    HW232685   5.616   6.087   0.632
10596SOL     OW32686   5.742   3.972   0.208
10596SOL    HW132687   5.660   4.027   0.188
10596SOL    HW232688   5.814   3.995   0.144
10597SOL     OW32689   1.114   6.561   5.310
10597SOL    HW132690   1.035   6.604   5.267
10597SOL    HW232691   1.183   6.541   5.241
10598SOL     OW32692   3.584   1.337   0.892
10598SOL    HW132693   3.527   1.411   0.925
10598SOL    HW232694   3.528   1.270   0.843
10599SOL     OW32695   0.770   2.179   0.907
10599SOL    HW132696   0.691   2.195   0.848
10599SOL    HW232697   0.821   2.264   0.919
10600SOL     OW32698   4.559   1.501   1.627
10600SOL    HW132699   4.538   1.433   1.556
10600SOL    HW232700   4.635   1.558   1.597
10601SOL     OW32701   2.049   1.725   4.914
10601SOL    HW132702   1.983   1.696   4.982
10601SOL    HW232703   2.094   1.810   4.944
10602SOL     OW32704   6.626   6.863   1.477
10602SOL    HW132705   6.548   6.926   1.483
10602SOL    HW232706   6.596   6.770   1.496
10603SOL     OW32707   5.753   0.801   2.763
10603SOL    HW132708   5.766   0.808   2.664
10603SOL    HW232709   5.739   0.892   2.801
10604SOL     OW32710   5.417   2.362   5.189
10604SOL    HW132711   5.333   2.329   5.231
10604SOL    HW232712   5.423   2.461   5.201
10605SOL     OW32713   4.335   2.327   1.218
10605SOL    HW132714   4.331   2.348   1.120
10605SOL    HW232715   4.400   2.389   1.262
10606SOL     OW32716   5.741   1.620   0.712
10606SOL    HW132717   5.681   1.575   0.646
10606SOL    HW232718   5.721   1.586   0.804
10607SOL     OW32719   2.671   5.100   0.949
10607SOL    HW132720   2.646   5.187   0.906
10607SOL    HW232721   2.588   5.047   0.967
10608SOL     OW32722   5.255   4.227   2.641
10608SOL    HW132723   5.245   4.319   2.602
10608SOL    HW232724   5.213   4.160   2.579
10609SOL     OW32725   5.922   6.892   6.521
10609SOL    HW132726   6.011   6.933   6.501
10609SOL    HW232727   5.889   6.925   6.610
10610SOL     OW32728   0.606   1.894   2.759
10610SOL    HW132729   0.667   1.848   2.824
10610SOL    HW232730   0.579   1.829   2.688
10611SOL     OW32731   4.231   5.315   5.296
10611SOL    HW132732   4.181   5.235   5.265
10611SOL    HW232733   4.170   5.373   5.351
10612SOL     OW32734   5.374   2.830   3.401
10612SOL    HW132735   5.285   2.841   3.357
10612SOL    HW232736   5.446   2.848   3.335
10613SOL     OW32737   5.108   5.110   5.217
10613SOL    HW132738   5.066   5.155   5.138
10613SOL    HW232739   5.199   5.149   5.233
10614SOL     OW32740   3.724   1.805   6.675
10614SOL    HW132741   3.634   1.848   6.663
10614SOL    HW232742   3.789   1.847   6.613
10615SOL     OW32743   2.759   2.264   5.270
10615SOL    HW132744   2.840   2.238   5.323
10615SOL    HW232745   2.683   2.203   5.293
10616SOL     OW32746   1.428   5.229   6.949
10616SOL    HW132747   1.381   5.293   7.010
10616SOL    HW232748   1.403   5.248   6.854
10617SOL     OW32749   2.235   2.455   0.413
10617SOL    HW132750   2.173   2.465   0.491
10617SOL    HW232751   2.312   2.396   0.439
10618SOL     OW32752   0.473   4.749   4.037
10618SOL    HW132753   0.445   4.716   4.127
10618SOL    HW232754   0.442   4.843   4.024
10619SOL     OW32755   1.265   2.836   1.223
10619SOL    HW132756   1.297   2.923   1.184
10619SOL    HW232757   1.295   2.829   1.318
10620SOL     OW32758   3.968   1.117   5.813
10620SOL    HW132759   3.942   1.090   5.906
10620SOL    HW232760   3.887   1.150   5.765
10621SOL     OW32761   0.852   4.436   4.354
10621SOL    HW132762   0.863   4.522   4.304
10621SOL    HW232763   0.756   4.406   4.347
10622SOL     OW32764   4.153   1.766   5.684
10622SOL    HW132765   4.077   1.830   5.692
10622SOL    HW232766   4.124   1.675   5.713
10623SOL     OW32767   5.670   4.514   5.295
10623SOL    HW132768   5.745   4.567   5.335
10623SOL    HW232769   5.706   4.459   5.219
10624SOL     OW32770   6.897   1.706   6.002
10624SOL    HW132771   6.969   1.749   6.056
10624SOL    HW232772   6.926   1.703   5.906
10625SOL     OW32773   5.776   5.663   6.756
10625SOL    HW132774   5.717   5.623   6.826
10625SOL    HW232775   5.733   5.747   6.721
10626SOL     OW32776   5.413   3.748   2.482
10626SOL    HW132777   5.371   3.717   2.568
10626SOL    HW232778   5.341   3.776   2.419
10627SOL     OW32779   5.835   4.606   5.587
10627SOL    HW132780   5.880   4.625   5.500
10627SOL    HW232781   5.862   4.516   5.620
10628SOL     OW32782   3.058   5.823   1.739
10628SOL    HW132783   3.090   5.750   1.678
10628SOL    HW232784   3.129   5.893   1.747
10629SOL     OW32785   4.609   5.630   4.075
10629SOL    HW132786   4.521   5.609   4.034
10629SOL    HW232787   4.620   5.577   4.159
10630SOL     OW32788   3.847   0.920   1.126
10630SOL    HW132789   3.836   1.002   1.070
10630SOL    HW232790   3.850   0.839   1.068
10631SOL     OW32791   3.838   6.255   1.674
10631SOL    HW132792   3.858   6.172   1.725
10631SOL    HW232793   3.740   6.261   1.657
10632SOL     OW32794   5.651   0.088   4.626
10632SOL    HW132795   5.610   0.153   4.690
10632SOL    HW232796   5.738   0.055   4.662
10633SOL     OW32797   2.223   2.759   0.470
10633SOL    HW132798   2.189   2.680   0.420
10633SOL    HW232799   2.308   2.791   0.429
10634SOL     OW32800   0.916   4.444   0.090
10634SOL    HW132801   0.983   4.382   0.130
10634SOL    HW232802   0.961   4.531   0.067
10635SOL     OW32803   3.012   4.648   6.706
10635SOL    HW132804   2.940   4.708   6.741
10635SOL    HW232805   2.970   4.570   6.659
10636SOL     OW32806   6.529   3.193   0.678
10636SOL    HW132807   6.492   3.274   0.722
10636SOL    HW232808   6.619   3.172   0.716
10637SOL     OW32809   1.917   0.359   5.631
10637SOL    HW132810   1.863   0.283   5.666
10637SOL    HW232811   1.862   0.413   5.568
10638SOL     OW32812   5.848   4.909   6.750
10638SOL    HW132813   5.804   4.904   6.840
10638SOL    HW232814   5.870   5.004   6.729
10639SOL     OW32815   6.513   5.223   0.114
10639SOL    HW132816   6.522   5.146   0.177
10639SOL    HW232817   6.512   5.190   0.020
10640SOL     OW32818   3.390   6.261   4.462
10640SOL    HW132819   3.381   6.208   4.378
10640SOL    HW232820   3.323   6.336   4.462
10641SOL     OW32821   0.864   1.563   3.664
10641SOL    HW132822   0.905   1.514   3.740
10641SOL    HW232823   0.765   1.569   3.678
10642SOL     OW32824   0.236   1.992   6.635
10642SOL    HW132825   0.309   1.985   6.703
10642SOL    HW232826   0.263   2.058   6.565
10643SOL     OW32827   2.900   5.122   5.190
10643SOL    HW132828   2.887   5.096   5.094
10643SOL    HW232829   2.868   5.215   5.203
10644SOL     OW32830   0.508   3.442   3.886
10644SOL    HW132831   0.536   3.511   3.820
10644SOL    HW232832   0.584   3.380   3.905
10645SOL     OW32833   2.054   3.045   3.607
10645SOL    HW132834   2.040   3.092   3.519
10645SOL    HW232835   1.969   3.002   3.635
10646SOL     OW32836   5.015   1.047   2.970
10646SOL    HW132837   4.967   1.075   3.053
10646SOL    HW232838   5.102   1.096   2.965
10647SOL     OW32839   3.934   5.647   4.619
10647SOL    HW132840   3.914   5.662   4.716
10647SOL    HW232841   3.969   5.555   4.606
10648SOL     OW32842   4.630   3.821   5.543
10648SOL    HW132843   4.620   3.885   5.619
10648SOL    HW232844   4.710   3.845   5.488
10649SOL     OW32845   6.156   3.501   3.793
10649SOL    HW132846   6.243   3.517   3.839
10649SOL    HW232847   6.134   3.579   3.734
10650SOL     OW32848   0.966   0.435   2.746
10650SOL    HW132849   0.952   0.503   2.818
10650SOL    HW232850   1.062   0.411   2.742
10651SOL     OW32851   2.104   5.804   5.646
10651SOL    HW132852   2.108   5.868   5.723
10651SOL    HW232853   2.022   5.747   5.654
10652SOL     OW32854   2.780   0.691   6.795
10652SOL    HW132855   2.733   0.669   6.709
10652SOL    HW232856   2.712   0.696   6.869
10653SOL     OW32857   5.672   6.318   4.348
10653SOL    HW132858   5.693   6.317   4.250
10653SOL    HW232859   5.724   6.390   4.393
10654SOL     OW32860   6.745   1.459   4.415
10654SOL    HW132861   6.710   1.396   4.346
10654SOL    HW232862   6.744   1.413   4.504
10655SOL     OW32863   6.623   5.650   0.671
10655SOL    HW132864   6.618   5.750   0.672
10655SOL    HW232865   6.586   5.615   0.757
10656SOL     OW32866   6.260   0.664   6.271
10656SOL    HW132867   6.301   0.573   6.275
10656SOL    HW232868   6.311   0.721   6.207
10657SOL     OW32869   4.376   6.715   5.590
10657SOL    HW132870   4.360   6.771   5.509
10657SOL    HW232871   4.339   6.761   5.670
10658SOL     OW32872   1.181   1.342   6.176
10658SOL    HW132873   1.142   1.357   6.266
10658SOL    HW232874   1.174   1.425   6.122
10659SOL     OW32875   0.754   5.506   7.016
10659SOL    HW132876   0.693   5.574   6.976
10659SOL    HW232877   0.829   5.486   6.952
10660SOL     OW32878   6.312   2.662   6.650
10660SOL    HW132879   6.282   2.757   6.641
10660SOL    HW232880   6.232   2.602   6.652
10661SOL     OW32881   3.442   5.618   5.336
10661SOL    HW132882   3.464   5.647   5.429
10661SOL    HW232883   3.451   5.696   5.274
10662SOL     OW32884   3.328   1.405   0.551
10662SOL    HW132885   3.290   1.336   0.490
10662SOL    HW232886   3.359   1.362   0.636
10663SOL     OW32887   6.645   3.095   4.095
10663SOL    HW132888   6.645   3.194   4.109
10663SOL    HW232889   6.718   3.071   4.031
10664SOL     OW32890   1.156   6.624   4.921
10664SOL    HW132891   1.167   6.723   4.912
10664SOL    HW232892   1.214   6.590   4.995
10665SOL     OW32893   3.564   3.425   0.464
10665SOL    HW132894   3.477   3.433   0.414
10665SOL    HW232895   3.561   3.344   0.523
10666SOL     OW32896   4.577   3.725   1.009
10666SOL    HW132897   4.642   3.708   1.083
10666SOL    HW232898   4.622   3.776   0.936
10667SOL     OW32899   5.795   2.440   4.060
10667SOL    HW132900   5.872   2.500   4.038
10667SOL    HW232901   5.709   2.485   4.033
10668SOL     OW32902   3.474   3.609   6.008
10668SOL    HW132903   3.385   3.648   6.030
10668SOL    HW232904   3.502   3.546   6.080
10669SOL     OW32905   6.331   2.756   1.793
10669SOL    HW132906   6.252   2.739   1.735
10669SOL    HW232907   6.395   2.816   1.746
10670SOL     OW32908   4.525   4.521   4.122
10670SOL    HW132909   4.534   4.619   4.141
10670SOL    HW232910   4.525   4.505   4.023
10671SOL     OW32911   2.153   3.241   4.749
10671SOL    HW132912   2.185   3.326   4.791
10671SOL    HW232913   2.098   3.190   4.816
10672SOL     OW32914   6.325   4.640   1.352
10672SOL    HW132915   6.339   4.626   1.450
10672SOL    HW232916   6.287   4.731   1.336
10673SOL     OW32917   3.180   1.493   1.287
10673SOL    HW132918   3.121   1.504   1.367
10673SOL    HW232919   3.146   1.416   1.232
10674SOL     OW32920   3.610   3.325   4.303
10674SOL    HW132921   3.662   3.410   4.299
10674SOL    HW232922   3.572   3.305   4.213
10675SOL     OW32923   3.504   6.156   5.602
10675SOL    HW132924   3.602   6.145   5.618
10675SOL    HW232925   3.489   6.224   5.531
10676SOL     OW32926   1.116   1.221   4.687
10676SOL    HW132927   1.215   1.235   4.691
10676SOL    HW232928   1.070   1.308   4.667
10677SOL     OW32929   0.293   1.892   0.010
10677SOL    HW132930   0.279   1.796   7.009
10677SOL    HW232931   0.208   1.931   0.045
10678SOL     OW32932   3.698   5.197   2.523
10678SOL    HW132933   3.655   5.141   2.594
10678SOL    HW232934   3.714   5.141   2.442
10679SOL     OW32935   5.313   4.146   7.009
10679SOL    HW132936   5.371   4.213   6.964
10679SOL    HW232937   5.346   4.054   6.988
10680SOL     OW32938   4.942   1.173   5.593
10680SOL    HW132939   4.843   1.175   5.578
10680SOL    HW232940   4.978   1.086   5.559
10681SOL     OW32941   2.499   3.308   5.371
10681SOL    HW132942   2.595   3.330   5.388
10681SOL    HW232943   2.492   3.230   5.309
10682SOL     OW32944   5.271   3.483   6.054
10682SOL    HW132945   5.258   3.453   6.149
10682SOL    HW232946   5.363   3.457   6.024
10683SOL     OW32947   1.821   0.800   3.087
10683SOL    HW132948   1.777   0.859   3.155
10683SOL    HW232949   1.849   0.856   3.008
10684SOL     OW32950   4.958   4.265   1.358
10684SOL    HW132951   4.955   4.257   1.458
10684SOL    HW232952   4.893   4.334   1.328
10685SOL     OW32953   0.992   0.150   2.648
10685SOL    HW132954   0.930   0.123   2.721
10685SOL    HW232955   1.019   0.246   2.661
10686SOL     OW32956   2.744   1.352   6.342
10686SOL    HW132957   2.793   1.388   6.262
10686SOL    HW232958   2.772   1.257   6.357
10687SOL     OW32959   0.689   3.073   3.320
10687SOL    HW132960   0.674   3.140   3.394
10687SOL    HW232961   0.717   3.121   3.237
10688SOL     OW32962   5.356   1.261   3.953
10688SOL    HW132963   5.415   1.211   4.017
10688SOL    HW232964   5.372   1.359   3.962
10689SOL     OW32965   1.370   1.458   2.908
10689SOL    HW132966   1.276   1.493   2.906
10689SOL    HW232967   1.395   1.427   2.817
10690SOL     OW32968   0.724   6.761   4.696
10690SOL    HW132969   0.627   6.784   4.689
10690SOL    HW232970   0.751   6.761   4.792
10691SOL     OW32971   3.206   6.523   0.959
10691SOL    HW132972   3.230   6.590   0.888
10691SOL    HW232973   3.271   6.531   1.035
10692SOL     OW32974   2.535   2.108   4.366
10692SOL    HW132975   2.623   2.137   4.404
10692SOL    HW232976   2.547   2.083   4.270
10693SOL     OW32977   1.135   4.981   6.830
10693SOL    HW132978   1.217   4.954   6.881
10693SOL    HW232979   1.162   5.021   6.742
10694SOL     OW32980   5.128   0.905   5.072
10694SOL    HW132981   5.179   0.970   5.016
10694SOL    HW232982   5.054   0.954   5.120
10695SOL     OW32983   5.088   4.500   1.573
10695SOL    HW132984   5.151   4.513   1.497
10695SOL    HW232985   5.023   4.577   1.576
10696SOL     OW32986   6.394   4.520   4.387
10696SOL    HW132987   6.385   4.509   4.486
10696SOL    HW232988   6.315   4.571   4.352
10697SOL     OW32989   2.622   5.139   4.224
10697SOL    HW132990   2.705   5.109   4.271
10697SOL    HW232991   2.553   5.067   4.227
10698SOL     OW32992   3.828   4.051   0.125
10698SOL    HW132993   3.812   4.108   0.044
10698SOL    HW232994   3.828   3.954   0.098
10699SOL     OW32995   3.817   3.508   1.106
10699SOL    HW132996   3.911   3.484   1.081
10699SOL    HW232997   3.817   3.561   1.190
10700SOL     OW32998   4.758   0.417   1.290
10700SOL    HW132999   4.712   0.339   1.246
10700SOL    HW233000   4.840   0.385   1.336
10701SOL     OW33001   3.225   6.087   6.292
10701SOL    HW133002   3.173   6.002   6.285
10701SOL    HW233003   3.318   6.072   6.258
10702SOL     OW33004   5.779   2.497   2.075
10702SOL    HW133005   5.687   2.508   2.113
10702SOL    HW233006   5.826   2.422   2.122
10703SOL     OW33007   0.428   1.857   5.701
10703SOL    HW133008   0.383   1.817   5.781
10703SOL    HW233009   0.362   1.869   5.627
10704SOL     OW33010   5.313   6.755   2.264
10704SOL    HW133011   5.349   6.846   2.286
10704SOL    HW233012   5.218   6.764   2.233
10705SOL     OW33013   4.796   3.354   0.843
10705SOL    HW133014   4.779   3.321   0.936
10705SOL    HW233015   4.856   3.434   0.846
10706SOL     OW33016   3.046   0.721   1.417
10706SOL    HW133017   3.089   0.807   1.443
10706SOL    HW233018   3.072   0.698   1.323
10707SOL     OW33019   4.666   6.911   3.118
10707SOL    HW133020   4.668   6.951   3.026
10707SOL    HW233021   4.648   6.813   3.111
10708SOL     OW33022   4.314   0.520   1.439
10708SOL    HW133023   4.293   0.441   1.496
10708SOL    HW233024   4.413   0.530   1.431
10709SOL     OW33025   6.053   4.681   2.496
10709SOL    HW133026   6.033   4.660   2.592
10709SOL    HW233027   6.147   4.716   2.488
10710SOL     OW33028   4.474   1.500   3.194
10710SOL    HW133029   4.546   1.431   3.201
10710SOL    HW233030   4.398   1.476   3.254
10711SOL     OW33031   2.739   6.777   2.522
10711SOL    HW133032   2.745   6.803   2.426
10711SOL    HW233033   2.828   6.745   2.554
10712SOL     OW33034   5.383   0.432   3.337
10712SOL    HW133035   5.437   0.468   3.414
10712SOL    HW233036   5.417   0.471   3.252
10713SOL     OW33037   1.284   3.865   1.750
10713SOL    HW133038   1.288   3.962   1.727
10713SOL    HW233039   1.281   3.811   1.666
10714SOL     OW33040   3.117   4.126   5.269
10714SOL    HW133041   3.052   4.051   5.253
10714SOL    HW233042   3.187   4.125   5.199
10715SOL     OW33043   6.086   1.061   2.175
10715SOL    HW133044   6.098   1.054   2.076
10715SOL    HW233045   6.019   1.131   2.196
10716SOL     OW33046   5.106   0.810   3.320
10716SOL    HW133047   5.075   0.716   3.333
10716SOL    HW233048   5.033   0.873   3.347
10717SOL     OW33049   2.977   2.633   6.756
10717SOL    HW133050   3.076   2.639   6.757
10717SOL    HW233051   2.945   2.593   6.842
10718SOL     OW33052   1.631   4.710   6.332
10718SOL    HW133053   1.639   4.768   6.413
10718SOL    HW233054   1.659   4.617   6.355
10719SOL     OW33055   0.399   5.775   4.725
10719SOL    HW133056   0.334   5.749   4.655
10719SOL    HW233057   0.353   5.827   4.797
10720SOL     OW33058   0.031   5.287   3.195
10720SOL    HW133059   0.128   5.269   3.211
10720SOL    HW233060   0.016   5.303   3.098
10721SOL     OW33061   5.038   2.500   6.163
10721SOL    HW133062   4.964   2.517   6.098
10721SOL    HW233063   5.001   2.454   6.244
10722SOL     OW33064   0.228   3.188   5.353
10722SOL    HW133065   0.327   3.180   5.341
10722SOL    HW233066   0.182   3.112   5.307
10723SOL     OW33067   5.603   6.974   0.791
10723SOL    HW133068   5.702   6.985   0.789
10723SOL    HW233069   5.574   6.919   0.712
10724SOL     OW33070   0.268   6.125   6.763
10724SOL    HW133071   0.227   6.041   6.799
10724SOL    HW233072   0.203   6.200   6.772
10725SOL     OW33073   1.893   6.114   6.260
10725SOL    HW133074   1.819   6.051   6.283
10725SOL    HW233075   1.978   6.062   6.248
10726SOL     OW33076   4.069   1.037   3.926
10726SOL    HW133077   4.131   1.003   3.998
10726SOL    HW233078   3.978   1.049   3.964
10727SOL     OW33079   2.017   6.578   6.400
10727SOL    HW133080   2.081   6.512   6.362
10727SOL    HW233081   1.932   6.532   6.425
10728SOL     OW33082   4.969   5.744   0.970
10728SOL    HW133083   4.960   5.843   0.968
10728SOL    HW233084   5.031   5.718   1.045
10729SOL     OW33085   6.129   2.042   1.126
10729SOL    HW133086   6.070   1.979   1.076
10729SOL    HW233087   6.078   2.081   1.203
10730SOL     OW33088   4.524   0.341   2.796
10730SOL    HW133089   4.568   0.267   2.745
10730SOL    HW233090   4.590   0.414   2.815
10731SOL     OW33091   4.481   0.184   1.275
10731SOL    HW133092   4.389   0.169   1.310
10731SOL    HW233093   4.546   0.190   1.351
10732SOL     OW33094   0.780   3.691   5.818
10732SOL    HW133095   0.714   3.616   5.812
10732SOL    HW233096   0.855   3.665   5.880
10733SOL     OW33097   5.554   1.501   0.521
10733SOL    HW133098   5.505   1.516   0.435
10733SOL    HW233099   5.589   1.407   0.524
10734SOL     OW33100   6.674   2.966   1.839
10734SOL    HW133101   6.671   2.876   1.794
10734SOL    HW233102   6.735   2.961   1.918
10735SOL     OW33103   0.292   5.196   2.655
10735SOL    HW133104   0.330   5.105   2.674
10735SOL    HW233105   0.349   5.242   2.587
10736SOL     OW33106   2.044   0.923   4.125
10736SOL    HW133107   2.039   0.912   4.026
10736SOL    HW233108   2.025   0.835   4.169
10737SOL     OW33109   6.874   2.205   0.692
10737SOL    HW133110   6.793   2.157   0.726
10737SOL    HW233111   6.948   2.139   0.678
10738SOL     OW33112   4.023   0.224   3.802
10738SOL    HW133113   3.949   0.164   3.832
10738SOL    HW233114   4.063   0.188   3.717
10739SOL     OW33115   2.684   1.948   1.943
10739SOL    HW133116   2.724   1.921   2.031
10739SOL    HW233117   2.724   1.892   1.870
10740SOL     OW33118   4.392   5.844   3.213
10740SOL    HW133119   4.440   5.926   3.246
10740SOL    HW233120   4.455   5.767   3.211
10741SOL     OW33121   3.109   0.798   2.980
10741SOL    HW133122   3.176   0.749   2.925
10741SOL    HW233123   3.077   0.879   2.931
10742SOL     OW33124   6.807   5.204   0.876
10742SOL    HW133125   6.798   5.168   0.968
10742SOL    HW233126   6.721   5.192   0.826
10743SOL     OW33127   2.494   2.167   5.325
10743SOL    HW133128   2.424   2.204   5.263
10743SOL    HW233129   2.520   2.238   5.391
10744SOL     OW33130   5.557   2.084   0.605
10744SOL    HW133131   5.552   2.006   0.542
10744SOL    HW233132   5.650   2.093   0.640
10745SOL     OW33133   0.095   5.747   6.591
10745SOL    HW133134   0.107   5.807   6.670
10745SOL    HW233135   0.001   5.714   6.588
10746SOL     OW33136   1.420   4.115   5.867
10746SOL    HW133137   1.437   4.097   5.770
10746SOL    HW233138   1.394   4.210   5.879
10747SOL     OW33139   3.271   2.106   4.392
10747SOL    HW133140   3.200   2.136   4.456
10747SOL    HW233141   3.361   2.127   4.430
10748SOL     OW33142   5.054   1.344   2.195
10748SOL    HW133143   5.149   1.330   2.165
10748SOL    HW233144   5.053   1.361   2.293
10749SOL     OW33145   2.413   0.052   6.901
10749SOL    HW133146   2.437   0.026   6.995
10749SOL    HW233147   2.353   7.006   6.862
10750SOL     OW33148   3.895   6.555   6.215
10750SOL    HW133149   3.862   6.567   6.122
10750SOL    HW233150   3.995   6.555   6.216
10751SOL     OW33151   2.070   5.328   3.815
10751SOL    HW133152   2.055   5.409   3.872
10751SOL    HW233153   2.008   5.331   3.736
10752SOL     OW33154   4.893   4.849   3.988
10752SOL    HW133155   4.963   4.920   3.989
10752SOL    HW233156   4.931   4.764   4.023
10753SOL     OW33157   6.266   3.738   4.844
10753SOL    HW133158   6.307   3.664   4.896
10753SOL    HW233159   6.196   3.701   4.783
10754SOL     OW33160   1.366   6.998   2.151
10754SOL    HW133161   1.337   6.910   2.113
10754SOL    HW233162   1.299   0.045   2.127
10755SOL     OW33163   6.094   5.510   1.672
10755SOL    HW133164   6.066   5.465   1.757
10755SOL    HW233165   6.192   5.531   1.676
10756SOL     OW33166   0.600   7.011   5.114
10756SOL    HW133167   0.559   0.049   5.045
10756SOL    HW233168   0.560   0.007   5.203
10757SOL     OW33169   2.829   2.816   0.981
10757SOL    HW133170   2.916   2.839   1.026
10757SOL    HW233171   2.796   2.895   0.930
10758SOL     OW33172   0.557   5.036   3.715
10758SOL    HW133173   0.492   4.978   3.765
10758SOL    HW233174   0.567   5.123   3.763
10759SOL     OW33175   7.007   1.180   6.532
10759SOL    HW133176   6.942   1.253   6.509
10759SOL    HW233177   7.006   1.166   6.631
10760SOL     OW33178   5.962   1.685   5.102
10760SOL    HW133179   5.928   1.631   5.025
10760SOL    HW233180   5.922   1.650   5.187
10761SOL     OW33181   2.669   5.219   5.026
10761SOL    HW133182   2.741   5.272   5.070
10761SOL    HW233183   2.580   5.253   5.055
10762SOL     OW33184   3.040   1.636   5.147
10762SOL    HW133185   3.076   1.717   5.100
10762SOL    HW233186   2.954   1.608   5.103
10763SOL     OW33187   4.491   6.219   4.179
10763SOL    HW133188   4.452   6.293   4.125
10763SOL    HW233189   4.467   6.131   4.137
10764SOL     OW33190   4.696   7.006   5.053
10764SOL    HW133191   4.733   0.046   4.984
10764SOL    HW233192   4.607   6.972   5.024
10765SOL     OW33193   6.281   3.815   0.188
10765SOL    HW133194   6.341   3.819   0.268
10765SOL    HW233195   6.199   3.762   0.211
10766SOL     OW33196   3.515   3.625   1.494
10766SOL    HW133197   3.594   3.623   1.555
10766SOL    HW233198   3.543   3.599   1.402
10767SOL     OW33199   4.853   1.810   2.238
10767SOL    HW133200   4.767   1.760   2.241
10767SOL    HW233201   4.889   1.821   2.331
10768SOL     OW33202   6.339   4.586   6.590
10768SOL    HW133203   6.265   4.525   6.562
10768SOL    HW233204   6.419   4.570   6.533
10769SOL     OW33205   1.730   3.658   5.071
10769SOL    HW133206   1.688   3.600   5.141
10769SOL    HW233207   1.659   3.689   5.008
10770SOL     OW33208   4.195   6.160   3.870
10770SOL    HW133209   4.204   6.146   3.969
10770SOL    HW233210   4.171   6.073   3.827
10771SOL     OW33211   1.746   0.962   3.758
10771SOL    HW133212   1.776   1.052   3.791
10771SOL    HW233213   1.784   0.891   3.817
10772SOL     OW33214   5.400   5.669   3.282
10772SOL    HW133215   5.381   5.692   3.186
10772SOL    HW233216   5.314   5.649   3.329
10773SOL     OW33217   6.001   4.588   2.770
10773SOL    HW133218   5.906   4.575   2.742
10773SOL    HW233219   6.045   4.499   2.779
10774SOL     OW33220   0.273   6.708   2.679
10774SOL    HW133221   0.372   6.721   2.684
10774SOL    HW233222   0.232   6.785   2.630
10775SOL     OW33223   6.969   3.430   1.548
10775SOL    HW133224   6.882   3.473   1.572
10775SOL    HW233225   6.969   3.406   1.451
10776SOL     OW33226   1.468   0.587   6.166
10776SOL    HW133227   1.497   0.505   6.117
10776SOL    HW233228   1.522   0.597   6.250
10777SOL     OW33229   2.736   6.013   1.149
10777SOL    HW133230   2.811   5.954   1.118
10777SOL    HW233231   2.742   6.024   1.248
10778SOL     OW33232   5.712   5.650   2.439
10778SOL    HW133233   5.780   5.631   2.510
10778SOL    HW233234   5.682   5.564   2.398
10779SOL     OW33235   4.758   2.749   3.680
10779SOL    HW133236   4.711   2.708   3.758
10779SOL    HW233237   4.784   2.677   3.615
10780SOL     OW33238   6.506   0.583   2.349
10780SOL    HW133239   6.414   0.561   2.317
10780SOL    HW233240   6.521   0.682   2.345
10781SOL     OW33241   3.515   0.092   4.337
10781SOL    HW133242   3.424   0.049   4.346
10781SOL    HW233243   3.510   0.167   4.272
10782SOL     OW33244   5.998   5.164   3.856
10782SOL    HW133245   6.035   5.098   3.791
10782SOL    HW233246   5.986   5.252   3.810
10783SOL     OW33247   6.706   2.044   3.215
10783SOL    HW133248   6.671   2.137   3.208
10783SOL    HW233249   6.707   2.016   3.311
10784SOL     OW33250   2.551   1.695   5.159
10784SOL    HW133251   2.465   1.745   5.170
10784SOL    HW233252   2.615   1.723   5.230
10785SOL     OW33253   1.182   3.412   5.955
10785SOL    HW133254   1.188   3.487   6.020
10785SOL    HW233255   1.274   3.383   5.929
10786SOL     OW33256   0.356   4.346   4.116
10786SOL    HW133257   0.434   4.362   4.177
10786SOL    HW233258   0.302   4.430   4.110
10787SOL     OW33259   2.284   2.363   6.619
10787SOL    HW133260   2.369   2.314   6.604
10787SOL    HW233261   2.299   2.461   6.604
10788SOL     OW33262   5.903   3.730   5.954
10788SOL    HW133263   5.883   3.822   5.921
10788SOL    HW233264   5.828   3.669   5.930
10789SOL     OW33265   5.382   1.605   0.706
10789SOL    HW133266   5.442   1.567   0.636
10789SOL    HW233267   5.411   1.572   0.796
10790SOL     OW33268   6.361   6.254   2.881
10790SOL    HW133269   6.336   6.230   2.974
10790SOL    HW233270   6.433   6.192   2.848
10791SOL     OW33271   0.608   6.321   2.420
10791SOL    HW133272   0.674   6.283   2.356
10791SOL    HW233273   0.520   6.334   2.373
10792SOL     OW33274   3.935   4.186   5.807
10792SOL    HW133275   3.876   4.140   5.741
10792SOL    HW233276   3.969   4.120   5.874
10793SOL     OW33277   6.429   4.055   3.986
10793SOL    HW133278   6.402   4.049   4.082
10793SOL    HW233279   6.529   4.062   3.980
10794SOL     OW33280   3.238   4.150   4.729
10794SOL    HW133281   3.332   4.161   4.761
10794SOL    HW233282   3.235   4.157   4.629
10795SOL     OW33283   6.982   5.300   2.920
10795SOL    HW133284   6.882   5.289   2.923
10795SOL    HW233285   7.007   5.357   2.842
10796SOL     OW33286   0.906   6.228   5.541
10796SOL    HW133287   0.983   6.214   5.480
10796SOL    HW233288   0.822   6.239   5.487
10797SOL     OW33289   3.471   2.622   0.474
10797SOL    HW133290   3.529   2.701   0.494
10797SOL    HW233291   3.470   2.562   0.554
10798SOL     OW33292   6.184   1.329   0.740
10798SOL    HW133293   6.170   1.389   0.819
10798SOL    HW233294   6.096   1.294   0.709
10799SOL     OW33295   4.808   1.845   1.021
10799SOL    HW133296   4.749   1.887   0.953
10799SOL    HW233297   4.898   1.826   0.980
10800SOL     OW33298   6.711   6.780   1.777
10800SOL    HW133299   6.618   6.812   1.755
10800SOL    HW233300   6.777   6.826   1.717
10801SOL     OW33301   2.054   0.847   1.162
10801SOL    HW133302   2.066   0.756   1.122
10801SOL    HW233303   2.056   0.840   1.262
10802SOL     OW33304   5.876   1.448   3.304
10802SOL    HW133305   5.862   1.430   3.206
10802SOL    HW233306   5.962   1.497   3.317
10803SOL     OW33307   1.908   5.263   6.132
10803SOL    HW133308   1.993   5.213   6.151
10803SOL    HW233309   1.831   5.214   6.172
10804SOL     OW33310   0.086   3.208   4.446
10804SOL    HW133311   0.182   3.197   4.418
10804SOL    HW233312   0.051   3.121   4.482
10805SOL     OW33313   6.403   0.956   6.558
10805SOL    HW133314   6.353   0.873   6.582
10805SOL    HW233315   6.442   0.947   6.467
10806SOL     OW33316   1.707   5.208   7.023
10806SOL    HW133317   1.616   5.228   6.987
10806SOL    HW233318   1.732   5.279   0.065
10807SOL     OW33319   3.173   5.910   5.118
10807SOL    HW133320   3.272   5.901   5.112
10807SOL    HW233321   3.131   5.820   5.116
10808SOL     OW33322   1.035   2.934   6.224
10808SOL    HW133323   1.088   2.882   6.157
10808SOL    HW233324   1.004   3.020   6.182
10809SOL     OW33325   1.227   0.259   4.754
10809SOL    HW133326   1.289   0.253   4.676
10809SOL    HW233327   1.280   0.254   4.839
10810SOL     OW33328   6.364   0.643   4.260
10810SOL    HW133329   6.431   0.697   4.311
10810SOL    HW233330   6.325   0.700   4.187
10811SOL     OW33331   4.849   5.463   4.985
10811SOL    HW133332   4.878   5.528   4.914
10811SOL    HW233333   4.752   5.476   5.004
10812SOL     OW33334   0.232   3.185   0.260
10812SOL    HW133335   0.167   3.206   0.334
10812SOL    HW233336   0.325   3.188   0.296
10813SOL     OW33337   0.947   3.352   6.511
10813SOL    HW133338   0.863   3.399   6.541
10813SOL    HW233339   0.965   3.376   6.415
10814SOL     OW33340   3.559   1.855   0.956
10814SOL    HW133341   3.506   1.892   1.033
10814SOL    HW233342   3.626   1.789   0.990
10815SOL     OW33343   5.271   1.205   4.689
10815SOL    HW133344   5.227   1.163   4.611
10815SOL    HW233345   5.370   1.194   4.682
10816SOL     OW33346   3.122   3.161   4.868
10816SOL    HW133347   3.050   3.217   4.828
10816SOL    HW233348   3.133   3.077   4.815
10817SOL     OW33349   1.488   6.217   3.869
10817SOL    HW133350   1.465   6.122   3.891
10817SOL    HW233351   1.408   6.275   3.885
10818SOL     OW33352   4.204   3.974   6.946
10818SOL    HW133353   4.263   4.022   7.011
10818SOL    HW233354   4.244   3.885   6.925
10819SOL     OW33355   6.036   6.122   5.658
10819SOL    HW133356   6.073   6.130   5.565
10819SOL    HW233357   5.962   6.188   5.670
10820SOL     OW33358   2.703   4.618   6.218
10820SOL    HW133359   2.754   4.682   6.159
10820SOL    HW233360   2.611   4.605   6.180
10821SOL     OW33361   4.431   5.815   3.570
10821SOL    HW133362   4.510   5.837   3.512
10821SOL    HW233363   4.347   5.845   3.525
10822SOL     OW33364   5.891   1.243   2.281
10822SOL    HW133365   5.852   1.328   2.316
10822SOL    HW233366   5.901   1.249   2.182
10823SOL     OW33367   5.162   6.437   1.300
10823SOL    HW133368   5.198   6.523   1.336
10823SOL    HW233369   5.127   6.451   1.208
10824SOL     OW33370   1.390   3.230   3.575
10824SOL    HW133371   1.319   3.185   3.522
10824SOL    HW233372   1.348   3.289   3.644
10825SOL     OW33373   0.528   2.515   0.754
10825SOL    HW133374   0.573   2.429   0.729
10825SOL    HW233375   0.445   2.495   0.807
10826SOL     OW33376   6.697   3.120   2.522
10826SOL    HW133377   6.605   3.104   2.487
10826SOL    HW233378   6.696   3.118   2.622
10827SOL     OW33379   0.366   3.435   4.609
10827SOL    HW133380   0.450   3.489   4.612
10827SOL    HW233381   0.303   3.475   4.543
10828SOL     OW33382   6.679   4.213   5.204
10828SOL    HW133383   6.744   4.175   5.270
10828SOL    HW233384   6.587   4.180   5.227
10829SOL     OW33385   3.525   2.875   5.574
10829SOL    HW133386   3.606   2.833   5.615
10829SOL    HW233387   3.553   2.937   5.501
10830SOL     OW33388   5.183   2.079   3.370
10830SOL    HW133389   5.228   2.161   3.406
10830SOL    HW233390   5.151   2.096   3.277
10831SOL     OW33391   3.834   0.050   3.839
10831SOL    HW133392   3.805   0.022   3.748
10831SOL    HW233393   3.759   0.035   3.904
10832SOL     OW33394   6.710   2.606   0.050
10832SOL    HW133395   6.806   2.608   0.021
10832SOL    HW233396   6.654   2.569   6.999
10833SOL     OW33397   0.400   0.913   6.665
10833SOL    HW133398   0.454   0.866   6.595
10833SOL    HW233399   0.392   1.010   6.643
10834SOL     OW33400   6.228   6.178   1.505
10834SOL    HW133401   6.294   6.200   1.433
10834SOL    HW233402   6.273   6.184   1.594
10835SOL     OW33403   0.001   2.656   5.402
10835SOL    HW133404   6.943   2.689   5.354
10835SOL    HW233405   0.054   2.598   5.341
10836SOL     OW33406   0.002   1.317   3.471
10836SOL    HW133407   7.005   1.226   3.433
10836SOL    HW233408   7.015   1.386   3.399
10837SOL     OW33409   0.298   3.115   4.029
10837SOL    HW133410   0.250   3.176   4.091
10837SOL    HW233411   0.239   3.039   4.003
10838SOL     OW33412   0.642   5.772   2.545
10838SOL    HW133413   0.661   5.759   2.448
10838SOL    HW233414   0.580   5.850   2.556
10839SOL     OW33415   4.418   2.916   0.489
10839SOL    HW133416   4.451   2.927   0.583
10839SOL    HW233417   4.326   2.878   0.489
10840SOL     OW33418   2.228   0.367   1.926
10840SOL    HW133419   2.165   0.389   2.000
10840SOL    HW233420   2.260   0.272   1.935
10841SOL     OW33421   2.148   5.406   5.073
10841SOL    HW133422   2.132   5.451   5.161
10841SOL    HW233423   2.217   5.334   5.085
10842SOL     OW33424   6.337   4.427   1.947
10842SOL    HW133425   6.246   4.428   1.989
10842SOL    HW233426   6.344   4.350   1.883
10843SOL     OW33427   2.931   1.913   1.466
10843SOL    HW133428   2.926   2.009   1.440
10843SOL    HW233429   2.882   1.857   1.399
10844SOL     OW33430   1.659   5.704   5.184
10844SOL    HW133431   1.629   5.663   5.270
10844SOL    HW233432   1.584   5.758   5.145
10845SOL     OW33433   4.285   0.314   4.617
10845SOL    HW133434   4.197   0.283   4.651
10845SOL    HW233435   4.278   0.336   4.519
10846SOL     OW33436   5.889   0.155   6.021
10846SOL    HW133437   5.871   0.064   6.059
10846SOL    HW233438   5.806   0.190   5.977
10847SOL     OW33439   2.925   0.383   6.963
10847SOL    HW133440   2.883   0.374   0.030
10847SOL    HW233441   2.873   0.329   6.896
10848SOL     OW33442   1.467   3.816   1.928
10848SOL    HW133443   1.400   3.845   1.860
10848SOL    HW233444   1.553   3.792   1.882
10849SOL     OW33445   2.317   6.571   2.915
10849SOL    HW133446   2.255   6.648   2.896
10849SOL    HW233447   2.270   6.485   2.894
10850SOL     OW33448   4.635   4.525   0.713
10850SOL    HW133449   4.580   4.579   0.776
10850SOL    HW233450   4.626   4.562   0.620
10851SOL     OW33451   1.408   4.233   0.665
10851SOL    HW133452   1.343   4.297   0.707
10851SOL    HW233453   1.479   4.285   0.617
10852SOL     OW33454   2.393   1.918   2.520
10852SOL    HW133455   2.355   1.827   2.503
10852SOL    HW233456   2.443   1.917   2.606
10853SOL     OW33457   3.645   1.208   6.136
10853SOL    HW133458   3.639   1.284   6.071
10853SOL    HW233459   3.556   1.163   6.143
10854SOL     OW33460   3.116   6.199   5.917
10854SOL    HW133461   3.041   6.251   5.958
10854SOL    HW233462   3.090   6.103   5.909
10855SOL     OW33463   4.372   1.470   7.021
10855SOL    HW133464   4.334   1.377   7.022
10855SOL    HW233465   4.303   1.533   6.985
10856SOL     OW33466   0.610   1.475   0.423
10856SOL    HW133467   0.693   1.531   0.432
10856SOL    HW233468   0.602   1.443   0.328
10857SOL     OW33469   0.032   3.039   2.275
10857SOL    HW133470   0.102   3.044   2.346
10857SOL    HW233471   0.075   3.046   2.185
10858SOL     OW33472   2.361   6.390   2.355
10858SOL    HW133473   2.443   6.445   2.338
10858SOL    HW233474   2.291   6.411   2.287
10859SOL     OW33475   1.303   5.242   3.241
10859SOL    HW133476   1.382   5.303   3.243
10859SOL    HW233477   1.219   5.296   3.231
10860SOL     OW33478   0.005   3.834   3.254
10860SOL    HW133479   0.001   3.762   3.324
10860SOL    HW233480   6.976   3.913   3.284
10861SOL     OW33481   3.860   3.002   5.609
10861SOL    HW133482   3.875   2.995   5.510
10861SOL    HW233483   3.897   3.088   5.642
10862SOL     OW33484   0.676   0.939   5.394
10862SOL    HW133485   0.756   0.991   5.364
10862SOL    HW233486   0.626   0.906   5.314
10863SOL     OW33487   2.181   6.561   4.282
10863SOL    HW133488   2.231   6.475   4.276
10863SOL    HW233489   2.216   6.614   4.359
10864SOL     OW33490   3.607   6.662   2.980
10864SOL    HW133491   3.604   6.562   2.989
10864SOL    HW233492   3.644   6.686   2.890
10865SOL     OW33493   6.629   1.600   6.166
10865SOL    HW133494   6.640   1.501   6.163
10865SOL    HW233495   6.713   1.642   6.200
10866SOL     OW33496   5.674   4.959   6.537
10866SOL    HW133497   5.735   4.960   6.616
10866SOL    HW233498   5.728   4.961   6.453
10867SOL     OW33499   2.856   1.105   6.381
10867SOL    HW133500   2.803   1.086   6.298
10867SOL    HW233501   2.813   1.060   6.459
10868SOL     OW33502   2.467   2.554   3.117
10868SOL    HW133503   2.386   2.495   3.128
10868SOL    HW233504   2.496   2.588   3.206
10869NA      NA33505   6.285   2.381   5.757
10870NA      NA33506   4.282   4.753   5.204
10871NA      NA33507   2.127   3.617   1.844
10872NA      NA33508   4.851   3.724   5.232
10873NA      NA33509   4.116   2.362   5.295
10874NA      NA33510   3.685   4.786   1.733
10875NA      NA33511   6.721   5.983   4.707
10876NA      NA33512   3.642   3.435   5.039
10877NA      NA33513   4.585   6.472   6.266
10878NA      NA33514   2.564   0.632   5.205
10879NA      NA33515   0.557   4.814   2.462
10880NA      NA33516   2.372   0.555   2.423
10881NA      NA33517   3.439   4.393   1.322
10882NA      NA33518   3.563   3.324   3.044
   7.02314   7.02314   7.02314
