Generated by trjconv : CNT in water t= 402.00000
33518
    1C        C    1   2.841   2.767   4.747
    1C        C    2   2.896   2.719   4.868
    1C        C    3   2.842   2.771   4.986
    1C        C    4   2.846   2.768   4.258
    1C        C    5   2.895   2.721   4.382
    1C        C    6   2.838   2.765   4.503
    1C        C    7   3.007   2.636   4.622
    1C        C    8   2.890   2.716   4.625
    1C        C    9   3.076   2.606   4.742
    1C        C   10   3.010   2.636   4.863
    1C        C   11   3.182   2.495   4.971
    1C        C   12   3.060   2.563   4.973
    1C        C   13   2.845   2.764   3.769
    1C        C   14   2.896   2.716   3.891
    1C        C   15   2.844   2.768   4.012
    1C        C   16   3.013   2.642   4.137
    1C        C   17   2.896   2.722   4.135
    1C        C   18   3.075   2.607   4.259
    1C        C   19   3.013   2.642   4.381
    1C        C   20   3.207   2.557   4.501
    1C        C   21   3.073   2.602   4.502
    1C        C   22   3.277   2.531   4.621
    1C        C   23   3.205   2.546   4.741
    1C        C   24   3.414   2.487   4.863
    1C        C   25   3.273   2.510   4.861
    1C        C   26   3.489   2.473   4.980
    1C        C   27   2.842   2.760   3.278
    1C        C   28   2.898   2.721   3.402
    1C        C   29   2.847   2.769   3.524
    1C        C   30   3.016   2.640   3.646
    1C        C   31   2.899   2.720   3.646
    1C        C   32   3.074   2.603   3.769
    1C        C   33   3.014   2.638   3.892
    1C        C   34   3.205   2.552   4.014
    1C        C   35   3.075   2.606   4.015
    1C        C   36   3.275   2.539   4.136
    1C        C   37   3.207   2.558   4.258
    1C        C   38   3.412   2.500   4.380
    1C        C   39   3.275   2.533   4.379
    1C        C   40   3.483   2.495   4.502
    1C        C   41   3.413   2.495   4.625
    1C        C   42   3.631   2.478   4.742
    1C        C   43   3.489   2.476   4.742
    1C        C   44   3.706   2.485   4.862
    1C        C   45   3.628   2.477   4.978
    1C        C   46   2.833   2.747   2.789
    1C        C   47   2.890   2.708   2.913
    1C        C   48   2.839   2.761   3.034
    1C        C   49   3.013   2.638   3.157
    1C        C   50   2.894   2.714   3.155
    1C        C   51   3.075   2.605   3.280
    1C        C   52   3.013   2.638   3.402
    1C        C   53   3.205   2.546   3.523
    1C        C   54   3.076   2.603   3.523
    1C        C   55   3.272   2.530   3.647
    1C        C   56   3.204   2.547   3.769
    1C        C   57   3.413   2.509   3.891
    1C        C   58   3.273   2.529   3.891
    1C        C   59   3.482   2.501   4.015
    1C        C   60   3.412   2.505   4.138
    1C        C   61   3.626   2.497   4.257
    1C        C   62   3.485   2.494   4.258
    1C        C   63   3.695   2.510   4.380
    1C        C   64   3.624   2.496   4.502
    1C        C   65   3.835   2.539   4.619
    1C        C   66   3.700   2.499   4.621
    1C        C   67   3.902   2.565   4.741
    1C        C   68   3.841   2.525   4.861
    1C        C   69   4.050   2.579   4.975
    1C        C   70   3.923   2.521   4.975
    1C        C   71   2.826   2.737   2.305
    1C        C   72   2.884   2.694   2.426
    1C        C   73   2.827   2.741   2.547
    1C        C   74   3.007   2.624   2.667
    1C        C   75   2.887   2.699   2.668
    1C        C   76   3.070   2.596   2.790
    1C        C   77   3.008   2.632   2.912
    1C        C   78   3.202   2.545   3.037
    1C        C   79   3.072   2.601   3.034
    1C        C   80   3.273   2.525   3.158
    1C        C   81   3.204   2.548   3.279
    1C        C   82   3.412   2.508   3.402
    1C        C   83   3.272   2.524   3.401
    1C        C   84   3.482   2.504   3.524
    1C        C   85   3.412   2.512   3.647
    1C        C   86   3.624   2.504   3.766
    1C        C   87   3.483   2.500   3.769
    1C        C   88   3.691   2.513   3.890
    1C        C   89   3.623   2.508   4.014
    1C        C   90   3.832   2.549   4.132
    1C        C   91   3.695   2.512   4.135
    1C        C   92   3.898   2.572   4.255
    1C        C   93   3.832   2.544   4.376
    1C        C   94   4.021   2.641   4.498
    1C        C   95   3.899   2.571   4.497
    1C        C   96   4.088   2.672   4.618
    1C        C   97   4.032   2.623   4.738
    1C        C   98   4.183   2.767   4.860
    1C        C   99   4.098   2.652   4.861
    1C        C  100   4.209   2.840   4.977
    1C        C  101   2.815   2.723   2.067
    1C        C  102   2.988   2.591   2.185
    1C        C  103   2.872   2.674   2.186
    1C        C  104   3.062   2.570   2.305
    1C        C  105   3.003   2.618   2.424
    1C        C  106   3.200   2.538   2.548
    1C        C  107   3.070   2.593   2.545
    1C        C  108   3.270   2.526   2.671
    1C        C  109   3.201   2.544   2.793
    1C        C  110   3.409   2.500   2.913
    1C        C  111   3.269   2.522   2.915
    1C        C  112   3.481   2.491   3.034
    1C        C  113   3.412   2.501   3.157
    1C        C  114   3.624   2.499   3.277
    1C        C  115   3.483   2.506   3.279
    1C        C  116   3.695   2.506   3.399
    1C        C  117   3.624   2.504   3.520
    1C        C  118   3.831   2.541   3.643
    1C        C  119   3.693   2.511   3.643
    1C        C  120   3.894   2.572   3.766
    1C        C  121   3.827   2.549   3.889
    1C        C  122   4.022   2.636   4.009
    1C        C  123   3.898   2.569   4.009
    1C        C  124   4.083   2.673   4.131
    1C        C  125   4.022   2.641   4.255
    1C        C  126   4.194   2.767   4.374
    1C        C  127   4.082   2.681   4.376
    1C        C  128   4.242   2.819   4.496
    1C        C  129   4.193   2.767   4.618
    1C        C  130   4.324   2.933   4.737
    1C        C  131   4.240   2.818   4.741
    1C        C  132   4.348   3.004   4.857
    1C        C  133   4.282   2.958   4.971
    1C        C  134   3.173   2.473   2.075
    1C        C  135   3.038   2.509   2.078
    1C        C  136   3.258   2.477   2.186
    1C        C  137   3.195   2.518   2.305
    1C        C  138   3.404   2.479   2.425
    1C        C  139   3.266   2.508   2.427
    1C        C  140   3.479   2.484   2.545
    1C        C  141   3.408   2.497   2.667
    1C        C  142   3.618   2.495   2.789
    1C        C  143   3.477   2.489   2.790
    1C        C  144   3.691   2.500   2.909
    1C        C  145   3.622   2.493   3.033
    1C        C  146   3.831   2.538   3.151
    1C        C  147   3.694   2.503   3.154
    1C        C  148   3.898   2.559   3.273
    1C        C  149   3.834   2.535   3.397
    1C        C  150   4.025   2.621   3.520
    1C        C  151   3.899   2.555   3.520
    1C        C  152   4.083   2.666   3.641
    1C        C  153   4.021   2.634   3.763
    1C        C  154   4.189   2.765   3.886
    1C        C  155   4.077   2.678   3.885
    1C        C  156   4.243   2.811   4.008
    1C        C  157   4.193   2.761   4.130
    1C        C  158   4.335   2.923   4.250
    1C        C  159   4.247   2.812   4.251
    1C        C  160   4.372   2.984   4.372
    1C        C  161   4.327   2.932   4.495
    1C        C  162   4.434   3.116   4.616
    1C        C  163   4.365   2.993   4.616
    1C        C  164   4.463   3.185   4.736
    1C        C  165   4.424   3.123   4.857
    1C        C  166   4.510   3.322   4.976
    1C        C  167   4.466   3.190   4.973
    1C        C  168   3.472   2.434   2.069
    1C        C  169   3.398   2.460   2.185
    1C        C  170   3.617   2.467   2.304
    1C        C  171   3.475   2.466   2.303
    1C        C  172   3.691   2.487   2.422
    1C        C  173   3.620   2.482   2.544
    1C        C  174   3.826   2.532   2.664
    1C        C  175   3.688   2.501   2.666
    1C        C  176   3.893   2.562   2.784
    1C        C  177   3.827   2.539   2.907
    1C        C  178   4.021   2.627   3.032
    1C        C  179   3.896   2.562   3.028
    1C        C  180   4.084   2.661   3.153
    1C        C  181   4.024   2.624   3.275
    1C        C  182   4.194   2.749   3.397
    1C        C  183   4.083   2.661   3.398
    1C        C  184   4.246   2.802   3.517
    1C        C  185   4.193   2.755   3.639
    1C        C  186   4.336   2.911   3.762
    1C        C  187   4.240   2.807   3.762
    1C        C  188   4.373   2.973   3.883
    1C        C  189   4.336   2.917   4.007
    1C        C  190   4.441   3.105   4.128
    1C        C  191   4.376   2.980   4.127
    1C        C  192   4.469   3.171   4.250
    1C        C  193   4.443   3.106   4.373
    1C        C  194   4.502   3.314   4.491
    1C        C  195   4.464   3.178   4.493
    1C        C  196   4.521   3.386   4.610
    1C        C  197   4.507   3.320   4.734
    1C        C  198   4.552   3.532   4.848
    1C        C  199   4.531   3.390   4.856
    1C        C  200   4.587   3.616   4.958
    1C        C  201   3.612   2.424   2.067
    1C        C  202   3.823   2.512   2.180
    1C        C  203   3.688   2.465   2.181
    1C        C  204   3.897   2.539   2.298
    1C        C  205   3.829   2.517   2.420
    1C        C  206   4.021   2.612   2.542
    1C        C  207   3.894   2.550   2.541
    1C        C  208   4.084   2.651   2.663
    1C        C  209   4.019   2.626   2.786
    1C        C  210   4.192   2.748   2.906
    1C        C  211   4.079   2.663   2.908
    1C        C  212   4.247   2.795   3.028
    1C        C  213   4.196   2.748   3.151
    1C        C  214   4.334   2.905   3.271
    1C        C  215   4.245   2.796   3.274
    1C        C  216   4.372   2.967   3.392
    1C        C  217   4.334   2.912   3.517
    1C        C  218   4.430   3.101   3.638
    1C        C  219   4.372   2.972   3.639
    1C        C  220   4.454   3.168   3.760
    1C        C  221   4.431   3.103   3.883
    1C        C  222   4.500   3.304   4.001
    1C        C  223   4.466   3.167   4.003
    1C        C  224   4.513   3.376   4.122
    1C        C  225   4.505   3.308   4.245
    1C        C  226   4.514   3.522   4.366
    1C        C  227   4.510   3.380   4.366
    1C        C  228   4.519   3.596   4.486
    1C        C  229   4.532   3.527   4.609
    1C        C  230   4.497   3.742   4.725
    1C        C  231   4.534   3.604   4.727
    1C        C  232   4.490   3.813   4.846
    1C        C  233   4.548   3.751   4.958
    1C        C  234   4.018   2.603   2.062
    1C        C  235   3.896   2.536   2.063
    1C        C  236   4.084   2.645   2.178
    1C        C  237   4.022   2.607   2.299
    1C        C  238   4.201   2.726   2.420
    1C        C  239   4.083   2.646   2.420
    1C        C  240   4.254   2.780   2.539
    1C        C  241   4.197   2.735   2.661
    1C        C  242   4.337   2.896   2.782
    1C        C  243   4.246   2.788   2.782
    1C        C  244   4.378   2.957   2.903
    1C        C  245   4.338   2.903   3.027
    1C        C  246   4.439   3.088   3.147
    1C        C  247   4.382   2.959   3.149
    1C        C  248   4.457   3.159   3.268
    1C        C  249   4.433   3.094   3.391
    1C        C  250   4.492   3.298   3.511
    1C        C  251   4.456   3.161   3.513
    1C        C  252   4.507   3.369   3.632
    1C        C  253   4.500   3.302   3.756
    1C        C  254   4.520   3.514   3.878
    1C        C  255   4.514   3.373   3.878
    1C        C  256   4.519   3.587   3.999
    1C        C  257   4.519   3.517   4.122
    1C        C  258   4.480   3.729   4.240
    1C        C  259   4.510   3.590   4.243
    1C        C  260   4.462   3.799   4.361
    1C        C  261   4.479   3.731   4.484
    1C        C  262   4.424   3.940   4.605
    1C        C  263   4.471   3.807   4.603
    1C        C  264   4.395   4.008   4.725
    1C        C  265   4.432   3.942   4.845
    1C        C  266   4.313   4.127   4.958
    1C        C  267   4.390   4.011   4.959
    1C        C  268   4.259   2.774   2.061
    1C        C  269   4.200   2.726   2.178
    1C        C  270   4.344   2.885   2.297
    1C        C  271   4.255   2.773   2.299
    1C        C  272   4.381   2.951   2.416
    1C        C  273   4.341   2.891   2.537
    1C        C  274   4.440   3.079   2.660
    1C        C  275   4.380   2.951   2.659
    1C        C  276   4.469   3.148   2.780
    1C        C  277   4.440   3.084   2.902
    1C        C  278   4.500   3.289   3.020
    1C        C  279   4.464   3.153   3.023
    1C        C  280   4.505   3.361   3.142
    1C        C  281   4.494   3.295   3.266
    1C        C  282   4.510   3.508   3.389
    1C        C  283   4.503   3.366   3.388
    1C        C  284   4.510   3.579   3.510
    1C        C  285   4.512   3.511   3.634
    1C        C  286   4.488   3.722   3.751
    1C        C  287   4.508   3.583   3.756
    1C        C  288   4.470   3.791   3.873
    1C        C  289   4.490   3.726   3.997
    1C        C  290   4.417   3.928   4.118
    1C        C  291   4.469   3.797   4.117
    1C        C  292   4.392   3.996   4.239
    1C        C  293   4.420   3.934   4.363
    1C        C  294   4.327   4.128   4.479
    1C        C  295   4.388   4.001   4.483
    1C        C  296   4.289   4.192   4.600
    1C        C  297   4.327   4.133   4.723
    1C        C  298   4.195   4.312   4.838
    1C        C  299   4.283   4.199   4.841
    1C        C  300   4.163   4.398   4.948
    1C        C  301   4.346   2.883   2.060
    1C        C  302   4.468   3.065   2.176
    1C        C  303   4.393   2.943   2.177
    1C        C  304   4.487   3.138   2.296
    1C        C  305   4.452   3.073   2.416
    1C        C  306   4.511   3.278   2.536
    1C        C  307   4.471   3.143   2.538
    1C        C  308   4.514   3.355   2.654
    1C        C  309   4.498   3.286   2.777
    1C        C  310   4.515   3.500   2.898
    1C        C  311   4.509   3.359   2.898
    1C        C  312   4.512   3.573   3.019
    1C        C  313   4.509   3.503   3.141
    1C        C  314   4.489   3.713   3.263
    1C        C  315   4.509   3.573   3.264
    1C        C  316   4.473   3.785   3.384
    1C        C  317   4.487   3.719   3.508
    1C        C  318   4.419   3.923   3.626
    1C        C  319   4.470   3.791   3.629
    1C        C  320   4.391   3.987   3.748
    1C        C  321   4.417   3.922   3.871
    1C        C  322   4.320   4.111   3.990
    1C        C  323   4.390   3.988   3.993
    1C        C  324   4.278   4.170   4.111
    1C        C  325   4.321   4.119   4.235
    1C        C  326   4.191   4.288   4.353
    1C        C  327   4.284   4.182   4.356
    1C        C  328   4.141   4.342   4.473
    1C        C  329   4.193   4.296   4.596
    1C        C  330   4.024   4.435   4.714
    1C        C  331   4.138   4.350   4.714
    1C        C  332   3.971   4.498   4.828
    1C        C  333   4.050   4.480   4.943
    1C        C  334   4.548   3.265   2.062
    1C        C  335   4.534   3.126   2.064
    1C        C  336   4.538   3.348   2.175
    1C        C  337   4.510   3.279   2.295
    1C        C  338   4.519   3.493   2.409
    1C        C  339   4.519   3.352   2.415
    1C        C  340   4.508   3.565   2.530
    1C        C  341   4.515   3.496   2.653
    1C        C  342   4.484   3.708   2.771
    1C        C  343   4.508   3.568   2.775
    1C        C  344   4.475   3.779   2.892
    1C        C  345   4.492   3.713   3.016
    1C        C  346   4.425   3.913   3.137
    1C        C  347   4.471   3.779   3.139
    1C        C  348   4.398   3.981   3.258
    1C        C  349   4.432   3.920   3.380
    1C        C  350   4.322   4.104   3.500
    1C        C  351   4.396   3.984   3.501
    1C        C  352   4.280   4.164   3.620
    1C        C  353   4.319   4.109   3.745
    1C        C  354   4.181   4.270   3.866
    1C        C  355   4.277   4.167   3.867
    1C        C  356   4.128   4.321   3.987
    1C        C  357   4.183   4.275   4.108
    1C        C  358   4.012   4.399   4.229
    1C        C  359   4.133   4.327   4.230
    1C        C  360   3.952   4.441   4.350
    1C        C  361   4.022   4.419   4.471
    1C        C  362   3.827   4.510   4.590
    1C        C  363   3.958   4.457   4.591
    1C        C  364   3.760   4.546   4.709
    1C        C  365   3.836   4.541   4.828
    1C        C  366   3.627   4.583   4.947
    1C        C  367   3.766   4.569   4.946
    1C        C  368   4.511   3.562   2.052
    1C        C  369   4.522   3.488   2.170
    1C        C  370   4.504   3.706   2.285
    1C        C  371   4.518   3.566   2.288
    1C        C  372   4.488   3.776   2.406
    1C        C  373   4.499   3.706   2.528
    1C        C  374   4.428   3.910   2.647
    1C        C  375   4.473   3.777   2.648
    1C        C  376   4.401   3.977   2.769
    1C        C  377   4.428   3.912   2.891
    1C        C  378   4.318   4.093   3.007
    1C        C  379   4.396   3.975   3.014
    1C        C  380   4.275   4.148   3.130
    1C        C  381   4.315   4.095   3.255
    1C        C  382   4.177   4.258   3.377
    1C        C  383   4.275   4.156   3.377
    1C        C  384   4.124   4.308   3.497
    1C        C  385   4.179   4.263   3.620
    1C        C  386   4.005   4.383   3.738
    1C        C  387   4.125   4.308   3.742
    1C        C  388   3.944   4.422   3.859
    1C        C  389   4.009   4.397   3.982
    1C        C  390   3.819   4.484   4.105
    1C        C  391   3.950   4.432   4.106
    1C        C  392   3.750   4.504   4.226
    1C        C  393   3.821   4.494   4.348
    1C        C  394   3.617   4.550   4.471
    1C        C  395   3.755   4.523   4.469
    1C        C  396   3.544   4.557   4.592
    1C        C  397   3.620   4.562   4.711
    1C        C  398   3.409   4.548   4.839
    1C        C  399   3.548   4.570   4.833
    1C        C  400   3.340   4.512   4.955
    1C        C  401   4.494   3.700   2.046
    1C        C  402   4.456   3.914   2.164
    1C        C  403   4.487   3.777   2.163
    1C        C  404   4.417   3.977   2.284
    1C        C  405   4.439   3.909   2.406
    1C        C  406   4.326   4.095   2.521
    1C        C  407   4.401   3.975   2.525
    1C        C  408   4.276   4.148   2.643
    1C        C  409   4.319   4.093   2.765
    1C        C  410   4.176   4.252   2.886
    1C        C  411   4.273   4.150   2.886
    1C        C  412   4.124   4.299   3.008
    1C        C  413   4.178   4.250   3.130
    1C        C  414   4.008   4.376   3.250
    1C        C  415   4.128   4.301   3.252
    1C        C  416   3.943   4.410   3.370
    1C        C  417   4.005   4.384   3.495
    1C        C  418   3.810   4.469   3.617
    1C        C  419   3.943   4.420   3.617
    1C        C  420   3.744   4.494   3.739
    1C        C  421   3.811   4.471   3.861
    1C        C  422   3.609   4.526   3.985
    1C        C  423   3.747   4.497   3.984
    1C        C  424   3.539   4.534   4.108
    1C        C  425   3.611   4.527   4.229
    1C        C  426   3.401   4.541   4.355
    1C        C  427   3.542   4.545   4.351
    1C        C  428   3.330   4.543   4.477
    1C        C  429   3.403   4.551   4.598
    1C        C  430   3.193   4.517   4.721
    1C        C  431   3.332   4.544   4.720
    1C        C  432   3.121   4.497   4.842
    1C        C  433   3.202   4.494   4.956
    1C        C  434   4.383   4.119   2.047
    1C        C  435   4.446   3.994   2.049
    1C        C  436   4.302   4.157   2.159
    1C        C  437   4.335   4.093   2.282
    1C        C  438   4.181   4.249   2.400
    1C        C  439   4.284   4.152   2.399
    1C        C  440   4.127   4.299   2.520
    1C        C  441   4.181   4.252   2.642
    1C        C  442   4.004   4.374   2.763
    1C        C  443   4.123   4.297   2.762
    1C        C  444   3.942   4.408   2.886
    1C        C  445   4.006   4.377   3.008
    1C        C  446   3.814   4.468   3.129
    1C        C  447   3.944   4.413   3.129
    1C        C  448   3.746   4.492   3.250
    1C        C  449   3.813   4.465   3.372
    1C        C  450   3.607   4.520   3.496
    1C        C  451   3.746   4.491   3.493
    1C        C  452   3.537   4.528   3.618
    1C        C  453   3.607   4.526   3.741
    1C        C  454   3.396   4.538   3.862
    1C        C  455   3.537   4.537   3.864
    1C        C  456   3.328   4.529   3.986
    1C        C  457   3.397   4.533   4.109
    1C        C  458   3.193   4.498   4.236
    1C        C  459   3.331   4.531   4.233
    1C        C  460   3.125   4.481   4.358
    1C        C  461   3.194   4.508   4.479
    1C        C  462   2.997   4.428   4.601
    1C        C  463   3.123   4.491   4.601
    1C        C  464   2.930   4.395   4.721
    1C        C  465   2.988   4.444   4.841
    1C        C  466   2.807   4.326   4.959
    1C        C  467   2.907   4.424   4.957
    1C        C  468   4.123   4.281   2.039
    1C        C  469   4.183   4.237   2.158
    1C        C  470   4.004   4.363   2.275
    1C        C  471   4.124   4.287   2.277
    1C        C  472   3.939   4.394   2.397
    1C        C  473   4.006   4.371   2.520
    1C        C  474   3.810   4.459   2.640
    1C        C  475   3.941   4.405   2.641
    1C        C  476   3.743   4.480   2.762
    1C        C  477   3.811   4.461   2.884
    1C        C  478   3.606   4.510   3.006
    1C        C  479   3.746   4.487   3.006
    1C        C  480   3.536   4.520   3.128
    1C        C  481   3.607   4.516   3.251
    1C        C  482   3.396   4.523   3.375
    1C        C  483   3.537   4.526   3.373
    1C        C  484   3.324   4.530   3.496
    1C        C  485   3.396   4.535   3.617
    1C        C  486   3.187   4.501   3.743
    1C        C  487   3.326   4.527   3.739
    1C        C  488   3.123   4.480   3.867
    1C        C  489   3.191   4.496   3.991
    1C        C  490   2.997   4.418   4.114
    1C        C  491   3.126   4.475   4.114
    1C        C  492   2.935   4.385   4.237
    1C        C  493   2.996   4.423   4.358
    1C        C  494   2.825   4.301   4.480
    1C        C  495   2.934   4.390   4.481
    1C        C  496   2.767   4.254   4.601
    1C        C  497   2.817   4.309   4.721
    1C        C  498   2.666   4.160   4.844
    1C        C  499   2.759   4.267   4.842
    1C        C  500   2.599   4.113   4.957
    1C        C  501   4.002   4.350   2.039
    1C        C  502   3.810   4.454   2.154
    1C        C  503   3.939   4.397   2.155
    1C        C  504   3.739   4.471   2.275
    1C        C  505   3.807   4.446   2.395
    1C        C  506   3.605   4.501   2.519
    1C        C  507   3.744   4.480   2.517
    1C        C  508   3.533   4.513   2.640
    1C        C  509   3.605   4.513   2.761
    1C        C  510   3.395   4.528   2.884
    1C        C  511   3.537   4.522   2.884
    1C        C  512   3.323   4.519   3.005
    1C        C  513   3.394   4.523   3.127
    1C        C  514   3.189   4.490   3.254
    1C        C  515   3.328   4.516   3.251
    1C        C  516   3.120   4.469   3.376
    1C        C  517   3.187   4.496   3.497
    1C        C  518   2.996   4.411   3.626
    1C        C  519   3.121   4.475   3.621
    1C        C  520   2.936   4.373   3.749
    1C        C  521   2.997   4.416   3.869
    1C        C  522   2.830   4.288   3.995
    1C        C  523   2.938   4.378   3.992
    1C        C  524   2.784   4.235   4.117
    1C        C  525   2.827   4.294   4.238
    1C        C  526   2.692   4.132   4.362
    1C        C  527   2.772   4.248   4.360
    1C        C  528   2.656   4.071   4.484
    1C        C  529   2.681   4.142   4.604
    1C        C  530   2.582   3.956   4.731
    1C        C  531   2.634   4.088   4.726
    1C        C  532   2.538   3.898   4.853
    1C        C  533   2.538   3.987   4.965
    1C        C  534   3.616   4.554   2.040
    1C        C  535   3.748   4.507   2.039
    1C        C  536   3.533   4.532   2.155
    1C        C  537   3.600   4.503   2.277
    1C        C  538   3.389   4.516   2.400
    1C        C  539   3.531   4.512   2.399
    1C        C  540   3.319   4.512   2.522
    1C        C  541   3.392   4.511   2.643
    1C        C  542   3.183   4.483   2.764
    1C        C  543   3.321   4.514   2.765
    1C        C  544   3.120   4.463   2.888
    1C        C  545   3.187   4.483   3.011
    1C        C  546   2.993   4.402   3.133
    1C        C  547   3.119   4.467   3.134
    1C        C  548   2.937   4.364   3.257
    1C        C  549   2.995   4.405   3.380
    1C        C  550   2.829   4.280   3.505
    1C        C  551   2.937   4.370   3.504
    1C        C  552   2.778   4.230   3.627
    1C        C  553   2.829   4.282   3.749
    1C        C  554   2.696   4.122   3.875
    1C        C  555   2.779   4.237   3.874
    1C        C  556   2.658   4.063   3.997
    1C        C  557   2.696   4.124   4.118
    1C        C  558   2.597   3.939   4.245
    1C        C  559   2.658   4.066   4.241
    1C        C  560   2.566   3.877   4.368
    1C        C  561   2.591   3.946   4.488
    1C        C  562   2.529   3.746   4.614
    1C        C  563   2.562   3.883   4.612
    1C        C  564   2.512   3.678   4.737
    1C        C  565   2.518   3.756   4.856
    1C        C  566   2.512   3.541   4.975
    1C        C  567   2.519   3.680   4.974
    1C        C  568   3.326   4.474   2.040
    1C        C  569   3.392   4.514   2.156
    1C        C  570   3.180   4.476   2.278
    1C        C  571   3.319   4.506   2.278
    1C        C  572   3.111   4.459   2.400
    1C        C  573   3.182   4.477   2.521
    1C        C  574   2.984   4.404   2.649
    1C        C  575   3.112   4.463   2.643
    1C        C  576   2.926   4.363   2.771
    1C        C  577   2.995   4.397   2.889
    1C        C  578   2.826   4.271   3.015
    1C        C  579   2.934   4.361   3.012
    1C        C  580   2.776   4.222   3.137
    1C        C  581   2.827   4.276   3.258
    1C        C  582   2.700   4.113   3.382
    1C        C  583   2.781   4.228   3.382
    1C        C  584   2.667   4.051   3.505
    1C        C  585   2.696   4.116   3.627
    1C        C  586   2.602   3.933   3.754
    1C        C  587   2.663   4.060   3.752
    1C        C  588   2.576   3.870   3.878
    1C        C  589   2.598   3.935   4.001
    1C        C  590   2.538   3.732   4.124
    1C        C  591   2.577   3.868   4.124
    1C        C  592   2.520   3.668   4.249
    1C        C  593   2.533   3.739   4.370
    1C        C  594   2.517   3.531   4.495
    1C        C  595   2.522   3.673   4.494
    1C        C  596   2.516   3.462   4.618
    1C        C  597   2.508   3.536   4.737
    1C        C  598   2.520   3.323   4.859
    1C        C  599   2.507   3.463   4.858
    1C        C  600   2.514   3.240   4.972
    1C        C  601   3.194   4.431   2.041
    1C        C  602   2.980   4.393   2.158
    1C        C  603   3.117   4.435   2.157
    1C        C  604   2.919   4.364   2.283
    1C        C  605   2.984   4.396   2.404
    1C        C  606   2.820   4.267   2.528
    1C        C  607   2.927   4.359   2.527
    1C        C  608   2.768   4.219   2.650
    1C        C  609   2.819   4.271   2.771
    1C        C  610   2.682   4.112   2.894
    1C        C  611   2.769   4.224   2.894
    1C        C  612   2.651   4.051   3.018
    1C        C  613   2.688   4.111   3.140
    1C        C  614   2.589   3.926   3.263
    1C        C  615   2.653   4.051   3.263
    1C        C  616   2.570   3.861   3.388
    1C        C  617   2.603   3.925   3.509
    1C        C  618   2.537   3.728   3.637
    1C        C  619   2.574   3.864   3.633
    1C        C  620   2.523   3.660   3.760
    1C        C  621   2.537   3.734   3.879
    1C        C  622   2.513   3.523   4.007
    1C        C  623   2.525   3.664   4.001
    1C        C  624   2.519   3.455   4.131
    1C        C  625   2.512   3.527   4.252
    1C        C  626   2.536   3.318   4.377
    1C        C  627   2.512   3.457   4.375
    1C        C  628   2.553   3.250   4.499
    1C        C  629   2.536   3.322   4.619
    1C        C  630   2.596   3.117   4.741
    1C        C  631   2.550   3.251   4.741
    1C        C  632   2.616   3.046   4.862
    1C        C  633   2.556   3.106   4.977
    1C        C  634   2.776   4.302   2.052
    1C        C  635   2.885   4.390   2.051
    1C        C  636   2.743   4.233   2.169
    1C        C  637   2.808   4.276   2.287
    1C        C  638   2.677   4.107   2.409
    1C        C  639   2.764   4.218   2.408
    1C        C  640   2.640   4.044   2.531
    1C        C  641   2.687   4.103   2.650
    1C        C  642   2.589   3.919   2.774
    1C        C  643   2.648   4.047   2.774
    1C        C  644   2.564   3.855   2.898
    1C        C  645   2.589   3.924   3.018
    1C        C  646   2.533   3.721   3.146
    1C        C  647   2.567   3.858   3.141
    1C        C  648   2.521   3.653   3.269
    1C        C  649   2.538   3.723   3.390
    1C        C  650   2.516   3.517   3.516
    1C        C  651   2.526   3.658   3.515
    1C        C  652   2.520   3.448   3.639
    1C        C  653   2.516   3.519   3.761
    1C        C  654   2.538   3.312   3.886
    1C        C  655   2.513   3.451   3.885
    1C        C  656   2.552   3.245   4.010
    1C        C  657   2.536   3.314   4.132
    1C        C  658   2.604   3.117   4.257
    1C        C  659   2.552   3.248   4.255
    1C        C  660   2.632   3.049   4.378
    1C        C  661   2.602   3.117   4.498
    1C        C  662   2.710   2.936   4.623
    1C        C  663   2.632   3.053   4.620
    1C        C  664   2.751   2.877   4.745
    1C        C  665   2.694   2.926   4.866
    1C        C  666   2.738   2.863   4.983
    1C        C  667   2.670   4.027   2.054
    1C        C  668   2.677   4.108   2.168
    1C        C  669   2.593   3.909   2.292
    1C        C  670   2.645   4.042   2.288
    1C        C  671   2.557   3.844   2.412
    1C        C  672   2.582   3.916   2.531
    1C        C  673   2.521   3.715   2.659
    1C        C  674   2.558   3.851   2.654
    1C        C  675   2.512   3.645   2.782
    1C        C  676   2.532   3.717   2.901
    1C        C  677   2.508   3.509   3.029
    1C        C  678   2.519   3.650   3.024
    1C        C  679   2.507   3.439   3.151
    1C        C  680   2.508   3.512   3.272
    1C        C  681   2.527   3.303   3.399
    1C        C  682   2.511   3.443   3.395
    1C        C  683   2.551   3.236   3.521
    1C        C  684   2.538   3.308   3.642
    1C        C  685   2.597   3.107   3.768
    1C        C  686   2.551   3.240   3.765
    1C        C  687   2.626   3.044   3.891
    1C        C  688   2.602   3.113   4.012
    1C        C  689   2.706   2.930   4.137
    1C        C  690   2.635   3.052   4.135
    1C        C  691   2.750   2.872   4.258
    1C        C  692   2.703   2.927   4.379
    1C        C  693   2.745   2.871   4.502
    1C        C  694   2.620   3.896   2.057
    1C        C  695   2.526   3.702   2.175
    1C        C  696   2.577   3.833   2.174
    1C        C  697   2.509   3.633   2.297
    1C        C  698   2.521   3.708   2.416
    1C        C  699   2.489   3.500   2.542
    1C        C  700   2.505   3.641   2.540
    1C        C  701   2.506   3.431   2.664
    1C        C  702   2.508   3.503   2.785
    1C        C  703   2.528   3.295   2.911
    1C        C  704   2.508   3.435   2.909
    1C        C  705   2.543   3.227   3.033
    1C        C  706   2.532   3.300   3.154
    1C        C  707   2.593   3.101   3.276
    1C        C  708   2.543   3.233   3.278
    1C        C  709   2.626   3.039   3.399
    1C        C  710   2.597   3.102   3.522
    1C        C  711   2.706   2.925   3.649
    1C        C  712   2.628   3.043   3.646
    1C        C  713   2.752   2.871   3.771
    1C        C  714   2.708   2.929   3.892
    1C        C  715   2.748   2.871   4.015
    1C        C  716   2.448   3.495   2.059
    1C        C  717   2.488   3.629   2.061
    1C        C  718   2.461   3.420   2.180
    1C        C  719   2.478   3.494   2.300
    1C        C  720   2.509   3.286   2.420
    1C        C  721   2.485   3.425   2.422
    1C        C  722   2.533   3.221   2.543
    1C        C  723   2.521   3.291   2.665
    1C        C  724   2.590   3.093   2.786
    1C        C  725   2.539   3.225   2.789
    1C        C  726   2.616   3.028   2.908
    1C        C  727   2.586   3.092   3.031
    1C        C  728   2.698   2.916   3.157
    1C        C  729   2.618   3.032   3.155
    1C        C  730   2.747   2.865   3.279
    1C        C  731   2.708   2.924   3.401
    1C        C  732   2.748   2.870   3.525
    1C        C  733   2.490   3.196   2.065
    1C        C  734   2.489   3.280   2.178
    1C        C  735   2.581   3.084   2.302
    1C        C  736   2.523   3.213   2.299
    1C        C  737   2.610   3.019   2.425
    1C        C  738   2.582   3.088   2.545
    1C        C  739   2.694   2.906   2.666
    1C        C  740   2.619   3.026   2.666
    1C        C  741   2.738   2.851   2.789
    1C        C  742   2.694   2.911   2.909
    1C        C  743   2.741   2.862   3.033
    1C        C  744   2.550   3.071   2.066
    1C        C  745   2.680   2.895   2.182
    1C        C  746   2.609   3.017   2.181
    1C        C  747   2.726   2.838   2.302
    1C        C  748   2.687   2.901   2.423
    1C        C  749   2.732   2.845   2.544
    1C        C  750   2.741   2.841   2.068
    1C        C  751   3.660   2.309   1.986
    1C        O  752   3.652   2.190   2.026
    1C        O  753   3.715   2.322   1.858
    1C        C  754   4.636   3.051   1.987
    1C        O  755   4.648   3.066   1.863
    1C        O  756   4.754   3.019   2.055
    1C        C  757   4.411   4.190   1.920
    1C        O  758   4.467   4.303   1.916
    1C        O  759   4.333   4.171   1.805
    1C        C  760   3.595   4.680   1.966
    1C        O  761   3.645   4.788   2.007
    1C        O  762   3.550   4.689   1.833
    1C        C  763   2.884   4.501   1.952
    1C        O  764   2.929   4.466   1.839
    1C        O  765   2.803   4.615   1.957
    1C        C  766   2.340   3.477   1.959
    1C        O  767   2.341   3.383   1.875
    1C        O  768   2.235   3.565   1.931
    1C        C  769   4.706   3.572   5.034
    1C        O  770   4.700   3.602   5.156
    1C        O  771   4.833   3.615   4.991
    1C        C  772   4.258   4.429   5.057
    1C        O  773   4.234   4.414   5.180
    1C        O  774   4.382   4.489   5.033
    1C        C  775   4.137   2.537   5.087
    1C        O  776   4.252   2.493   5.058
    1C        O  777   4.100   2.514   5.220
    1C        C  778   2.853   4.548   5.018
    1C        O  779   2.801   4.644   4.954
    1C        O  780   2.822   4.562   5.154
    1C        C  781   2.464   3.035   5.069
    1C        O  782   2.338   3.028   5.059
    1C        O  783   2.498   3.007   5.200
    1C        C  784   2.428   3.987   5.064
    1C        O  785   2.308   3.976   5.027
    1C        O  786   2.441   3.963   5.202
    1C        C  787   2.950   2.409   2.014
    1C        O  788   2.882   2.451   1.917
    1C        O  789   2.970   2.271   2.007
    1C        C  790   3.169   2.360   5.032
    1C        O  791   3.139   2.257   4.966
    1C        O  792   3.195   2.339   5.167
    1C        H  793   4.277   3.023   5.056
    1C        H  794   4.136   2.840   5.056
    1C        H  795   4.490   3.132   5.059
    1C        H  796   4.523   3.373   5.070
    1C        H  797   4.591   3.814   5.032
    1C        H  798   4.433   3.979   5.051
    1C        H  799   4.233   4.131   5.029
    1C        H  800   4.045   4.549   5.025
    1C        H  801   3.819   4.609   5.030
    1C        H  802   3.580   4.609   5.040
    1C        H  803   3.386   4.453   5.031
    1C        H  804   3.159   4.455   5.046
    1C        H  805   3.899   2.450   5.052
    1C        H  806   3.683   2.492   5.068
    1C        H  807   3.030   2.594   5.071
    1C        H  808   3.443   2.418   5.060
    1C        H  809   2.895   2.759   5.078
    1C        H  810   2.677   2.872   5.071
    1C        H  811   2.461   3.280   5.056
    1C        H  812   2.474   3.497   5.064
    1C        H  813   2.544   3.721   5.069
    1C        H  814   2.605   4.172   5.046
    1C        H  815   2.739   4.331   5.042
    1C        H  816   2.770   2.912   1.993
    1C        H  817   2.833   2.678   1.972
    1C        H  818   3.210   2.458   1.976
    1C        H  819   3.424   2.366   2.002
    1C        H  820   3.874   2.477   1.977
    1C        H  821   4.044   2.656   1.972
    1C        H  822   4.248   2.719   1.969
    1C        H  823   4.426   2.866   1.991
    1C        H  824   4.587   3.308   1.972
    1C        H  825   4.453   3.513   1.975
    1C        H  826   4.475   3.750   1.954
    1C        H  827   3.804   4.514   1.948
    1C        H  828   3.948   4.337   1.948
    1C        H  829   4.162   4.253   1.944
    1C        H  830   4.519   3.977   1.972
    1C        H  831   2.650   3.835   1.974
    1C        H  832   2.761   4.033   1.997
    1C        H  833   2.696   4.324   1.984
    1C        H  834   3.369   4.490   1.943
    1C        H  835   3.169   4.367   1.959
    1C        H  836   2.545   3.009   1.978
    1C        H  837   2.419   3.204   1.985
    1C        H  838   2.444   3.686   1.981
    2V3OU   H29  839   2.812   3.547   4.699
    2V3OU   C27  840   2.793   3.505   4.801
    2V3OU   H27  841   2.732   3.570   4.870
    2V3OU   H28  842   2.744   3.406   4.784
    2V3OU   O11  843   2.910   3.477   4.878
    2V3OU   C15  844   2.920   3.393   4.988
    2V3OU   C13  845   3.049   3.373   5.039
    2V3OU   C14  846   3.073   3.265   5.125
    2V3OU   C16  847   2.967   3.184   5.167
    2V3OU    H6  848   2.988   3.102   5.238
    2V3OU   C12  849   3.213   3.224   5.152
    2V3OU    O2  850   3.239   3.119   5.214
    2V3OU   C10  851   3.325   3.306   5.104
    2V3OU    C8  852   3.458   3.269   5.115
    2V3OU   O10  853   3.488   3.155   5.183
    2V3OU   H26  854   3.401   3.115   5.203
    2V3OU    C6  855   3.561   3.346   5.053
    2V3OU    C5  856   3.534   3.464   4.986
    2V3OU    C4  857   3.698   3.288   5.038
    2V3OU    H4  858   3.717   3.221   5.127
    2V3OU    H5  859   3.706   3.227   4.943
    2V3OU    C2  860   3.810   3.392   5.039
    2V3OU    O6  861   3.799   3.467   5.161
    2V3OU   H21  862   3.759   3.553   5.142
    2V3OU    C3  863   3.779   3.490   4.925
    2V3OU    H2  864   3.858   3.569   4.919
    2V3OU    H3  865   3.781   3.433   4.829
    2V3OU   C25  866   3.948   3.327   5.027
    2V3OU    O7  867   4.002   3.293   4.922
    2V3OU   C26  868   4.030   3.295   5.150
    2V3OU   H22  869   4.064   3.389   5.200
    2V3OU   H23  870   4.121   3.236   5.120
    2V3OU    O8  871   3.956   3.212   5.237
    2V3OU   H24  872   3.935   3.267   5.314
    2V3OU    C1  873   3.644   3.558   4.947
    2V3OU    H1  874   3.620   3.612   4.851
    2V3OU    O3  875   3.654   3.652   5.054
    2V3OU   C19  876   3.618   3.789   5.031
    2V3OU    H9  877   3.518   3.802   4.981
    2V3OU    O4  878   3.711   3.841   4.938
    2V3OU   C20  879   3.842   3.873   4.987
    2V3OU   H10  880   3.891   3.772   5.003
    2V3OU   C24  881   3.610   3.856   5.168
    2V3OU   H16  882   3.537   3.797   5.230
    2V3OU   H17  883   3.563   3.956   5.148
    2V3OU   C23  884   3.752   3.870   5.224
    2V3OU   H15  885   3.789   3.765   5.250
    2V3OU    N1  886   3.732   3.951   5.342
    2V3OU   H19  887   3.802   3.918   5.406
    2V3OU   H20  888   3.639   3.934   5.376
    2V3OU   C21  889   3.844   3.944   5.122
    2V3OU   H11  890   3.948   3.927   5.162
    2V3OU    O5  891   3.818   4.084   5.134
    2V3OU   H18  892   3.777   4.101   5.220
    2V3OU   C22  893   3.913   3.950   4.877
    2V3OU   H12  894   3.860   4.048   4.864
    2V3OU   H13  895   3.906   3.895   4.780
    2V3OU   H14  896   4.021   3.957   4.906
    2V3OU   C11  897   3.156   3.470   5.011
    2V3OU    O1  898   3.136   3.579   4.952
    2V3OU    C9  899   3.295   3.422   5.028
    2V3OU    C7  900   3.396   3.496   4.967
    2V3OU    O9  901   3.383   3.608   4.887
    2V3OU   H25  902   3.289   3.630   4.889
    2V3OU   C17  903   2.816   3.314   5.040
    2V3OU    H7  904   2.714   3.353   5.042
    2V3OU   C18  905   2.836   3.210   5.130
    2V3OU    H8  906   2.750   3.149   5.161
    3SOL     OW  907   3.387   4.029   4.923
    3SOL    HW1  908   3.405   4.095   4.996
    3SOL    HW2  909   3.290   4.006   4.921
    4SOL     OW  910   6.850   0.273   0.423
    4SOL    HW1  911   6.782   0.255   0.494
    4SOL    HW2  912   6.827   0.220   0.340
    5SOL     OW  913   4.447   1.038   1.326
    5SOL    HW1  914   4.430   1.136   1.332
    5SOL    HW2  915   4.389   0.990   1.392
    6SOL     OW  916   5.584   0.882   3.301
    6SOL    HW1  917   5.526   0.855   3.377
    6SOL    HW2  918   5.654   0.946   3.333
    7SOL     OW  919   0.885   4.316   5.055
    7SOL    HW1  920   0.825   4.321   4.976
    7SOL    HW2  921   0.837   4.270   5.130
    8SOL     OW  922   2.040   2.613   5.576
    8SOL    HW1  923   1.952   2.623   5.622
    8SOL    HW2  924   2.046   2.680   5.501
    9SOL     OW  925   6.016   1.575   6.477
    9SOL    HW1  926   5.994   1.548   6.570
    9SOL    HW2  927   5.935   1.612   6.433
   10SOL     OW  928   5.031   4.531   2.624
   10SOL    HW1  929   5.042   4.435   2.596
   10SOL    HW2  930   5.018   4.588   2.544
   11SOL     OW  931   2.323   1.385   0.379
   11SOL    HW1  932   2.287   1.359   0.469
   11SOL    HW2  933   2.416   1.422   0.390
   12SOL     OW  934   2.967   4.809   3.676
   12SOL    HW1  935   2.877   4.812   3.721
   12SOL    HW2  936   3.026   4.879   3.717
   13SOL     OW  937   4.545   5.964   2.434
   13SOL    HW1  938   4.520   6.050   2.479
   13SOL    HW2  939   4.496   5.889   2.478
   14SOL     OW  940   4.997   4.739   5.144
   14SOL    HW1  941   4.898   4.734   5.131
   14SOL    HW2  942   5.035   4.648   5.156
   15SOL     OW  943   0.624   5.587   5.669
   15SOL    HW1  944   0.542   5.532   5.687
   15SOL    HW2  945   0.680   5.540   5.600
   16SOL     OW  946   6.918   2.672   5.773
   16SOL    HW1  947   6.982   2.623   5.832
   16SOL    HW2  948   6.922   2.770   5.792
   17SOL     OW  949   6.242   0.323   5.730
   17SOL    HW1  950   6.219   0.420   5.722
   17SOL    HW2  951   6.204   0.274   5.652
   18SOL     OW  952   3.372   0.125   5.139
   18SOL    HW1  953   3.387   0.139   5.041
   18SOL    HW2  954   3.323   0.203   5.177
   19SOL     OW  955   0.873   1.421   3.183
   19SOL    HW1  956   0.836   1.481   3.254
   19SOL    HW2  957   0.865   1.466   3.093
   20SOL     OW  958   5.596   3.015   5.345
   20SOL    HW1  959   5.618   3.111   5.329
   20SOL    HW2  960   5.613   2.992   5.441
   21SOL     OW  961   4.284   6.816   2.722
   21SOL    HW1  962   4.255   6.843   2.630
   21SOL    HW2  963   4.381   6.840   2.734
   22SOL     OW  964   2.179   6.261   5.241
   22SOL    HW1  965   2.189   6.355   5.208
   22SOL    HW2  966   2.083   6.242   5.259
   23SOL     OW  967   5.613   4.506   2.159
   23SOL    HW1  968   5.696   4.543   2.116
   23SOL    HW2  969   5.569   4.443   2.095
   24SOL     OW  970   4.080   0.593   1.825
   24SOL    HW1  971   3.992   0.640   1.818
   24SOL    HW2  972   4.130   0.602   1.739
   25SOL     OW  973   2.731   6.869   3.063
   25SOL    HW1  974   2.801   6.827   3.121
   25SOL    HW2  975   2.692   6.948   3.109
   26SOL     OW  976   0.939   2.636   6.567
   26SOL    HW1  977   0.907   2.656   6.659
   26SOL    HW2  978   0.913   2.543   6.542
   27SOL     OW  979   6.422   1.487   2.056
   27SOL    HW1  980   6.485   1.444   2.120
   27SOL    HW2  981   6.367   1.556   2.104
   28SOL     OW  982   2.193   0.660   4.534
   28SOL    HW1  983   2.146   0.733   4.484
   28SOL    HW2  984   2.194   0.578   4.478
   29SOL     OW  985   6.973   0.882   0.476
   29SOL    HW1  986   6.968   0.805   0.540
   29SOL    HW2  987   6.890   0.884   0.421
   30SOL     OW  988   4.300   0.323   5.001
   30SOL    HW1  989   4.236   0.248   4.982
   30SOL    HW2  990   4.249   0.403   5.031
   31SOL     OW  991   0.792   2.873   5.398
   31SOL    HW1  992   0.791   2.886   5.299
   31SOL    HW2  993   0.746   2.949   5.443
   32SOL     OW  994   1.291   0.686   1.116
   32SOL    HW1  995   1.223   0.683   1.189
   32SOL    HW2  996   1.382   0.671   1.155
   33SOL     OW  997   0.494   4.034   6.797
   33SOL    HW1  998   0.573   3.985   6.835
   33SOL    HW2  999   0.514   4.061   6.703
   34SOL     OW 1000   1.795   5.199   5.057
   34SOL    HW1 1001   1.847   5.284   5.057
   34SOL    HW2 1002   1.697   5.219   5.050
   35SOL     OW 1003   3.884   3.211   6.950
   35SOL    HW1 1004   3.920   3.296   6.989
   35SOL    HW2 1005   3.891   3.216   6.850
   36SOL     OW 1006   4.892   0.890   3.894
   36SOL    HW1 1007   4.957   0.934   3.831
   36SOL    HW2 1008   4.833   0.828   3.842
   37SOL     OW 1009   1.977   1.252   3.876
   37SOL    HW1 1010   1.941   1.176   3.929
   37SOL    HW2 1011   1.998   1.329   3.936
   38SOL     OW 1012   1.313   5.284   2.168
   38SOL    HW1 1013   1.290   5.257   2.074
   38SOL    HW2 1014   1.404   5.249   2.191
   39SOL     OW 1015   5.790   5.092   6.483
   39SOL    HW1 1016   5.830   5.138   6.562
   39SOL    HW2 1017   5.831   5.001   6.473
   40SOL     OW 1018   3.178   0.952   6.061
   40SOL    HW1 1019   3.217   0.972   5.971
   40SOL    HW2 1020   3.114   0.877   6.054
   41SOL     OW 1021   6.058   4.369   2.005
   41SOL    HW1 1022   5.996   4.357   1.928
   41SOL    HW2 1023   6.057   4.286   2.061
   42SOL     OW 1024   2.471   5.908   5.108
   42SOL    HW1 1025   2.501   5.851   5.031
   42SOL    HW2 1026   2.516   5.877   5.192
   43SOL     OW 1027   5.009   6.653   5.024
   43SOL    HW1 1028   4.954   6.658   4.941
   43SOL    HW2 1029   5.074   6.577   5.016
   44SOL     OW 1030   5.422   2.666   5.119
   44SOL    HW1 1031   5.516   2.652   5.090
   44SOL    HW2 1032   5.421   2.721   5.203
   45SOL     OW 1033   3.913   5.288   0.392
   45SOL    HW1 1034   3.938   5.359   0.458
   45SOL    HW2 1035   3.868   5.330   0.313
   46SOL     OW 1036   0.565   3.025   4.467
   46SOL    HW1 1037   0.570   3.087   4.389
   46SOL    HW2 1038   0.470   3.018   4.498
   47SOL     OW 1039   5.438   3.153   1.708
   47SOL    HW1 1040   5.433   3.171   1.806
   47SOL    HW2 1041   5.346   3.137   1.673
   48SOL     OW 1042   6.633   3.922   6.892
   48SOL    HW1 1043   6.665   3.980   6.817
   48SOL    HW2 1044   6.570   3.852   6.856
   49SOL     OW 1045   4.951   3.165   0.217
   49SOL    HW1 1046   4.881   3.137   0.152
   49SOL    HW2 1047   5.022   3.095   0.223
   50SOL     OW 1048   6.298   2.324   6.602
   50SOL    HW1 1049   6.373   2.279   6.651
   50SOL    HW2 1050   6.280   2.275   6.517
   51SOL     OW 1051   1.888   4.827   3.381
   51SOL    HW1 1052   1.799   4.862   3.410
   51SOL    HW2 1053   1.936   4.897   3.328
   52SOL     OW 1054   5.681   3.008   1.710
   52SOL    HW1 1055   5.720   3.027   1.800
   52SOL    HW2 1056   5.592   3.051   1.702
   53SOL     OW 1057   4.642   0.804   3.012
   53SOL    HW1 1058   4.626   0.900   2.990
   53SOL    HW2 1059   4.592   0.781   3.096
   54SOL     OW 1060   5.420   6.162   0.084
   54SOL    HW1 1061   5.412   6.150   7.004
   54SOL    HW2 1062   5.511   6.199   0.105
   55SOL     OW 1063   1.964   2.636   6.359
   55SOL    HW1 1064   1.895   2.707   6.372
   55SOL    HW2 1065   2.022   2.631   6.441
   56SOL     OW 1066   1.673   2.145   6.785
   56SOL    HW1 1067   1.667   2.046   6.776
   56SOL    HW2 1068   1.708   2.184   6.700
   57SOL     OW 1069   3.995   0.854   0.581
   57SOL    HW1 1070   3.907   0.901   0.577
   57SOL    HW2 1071   4.068   0.921   0.586
   58SOL     OW 1072   0.945   0.750   6.351
   58SOL    HW1 1073   1.019   0.683   6.359
   58SOL    HW2 1074   0.950   0.795   6.261
   59SOL     OW 1075   6.165   3.712   6.218
   59SOL    HW1 1076   6.225   3.672   6.149
   59SOL    HW2 1077   6.083   3.748   6.173
   60SOL     OW 1078   5.397   0.820   2.847
   60SOL    HW1 1079   5.409   0.721   2.853
   60SOL    HW2 1080   5.462   0.865   2.909
   61SOL     OW 1081   0.283   0.829   5.080
   61SOL    HW1 1082   0.215   0.759   5.097
   61SOL    HW2 1083   0.245   0.919   5.101
   62SOL     OW 1084   0.182   1.904   2.354
   62SOL    HW1 1085   0.228   1.966   2.417
   62SOL    HW2 1086   0.223   1.912   2.263
   63SOL     OW 1087   4.049   6.536   4.824
   63SOL    HW1 1088   4.062   6.470   4.751
   63SOL    HW2 1089   4.079   6.627   4.794
   64SOL     OW 1090   1.570   4.083   6.505
   64SOL    HW1 1091   1.489   4.061   6.451
   64SOL    HW2 1092   1.585   4.011   6.572
   65SOL     OW 1093   0.559   0.330   5.421
   65SOL    HW1 1094   0.538   0.313   5.325
   65SOL    HW2 1095   0.656   0.351   5.431
   66SOL     OW 1096   3.915   0.009   2.180
   66SOL    HW1 1097   3.844   6.990   2.121
   66SOL    HW2 1098   4.000   0.019   2.127
   67SOL     OW 1099   0.433   2.311   1.341
   67SOL    HW1 1100   0.402   2.393   1.292
   67SOL    HW2 1101   0.364   2.240   1.335
   68SOL     OW 1102   6.917   2.405   5.663
   68SOL    HW1 1103   7.009   2.434   5.636
   68SOL    HW2 1104   6.868   2.482   5.704
   69SOL     OW 1105   0.853   5.142   5.569
   69SOL    HW1 1106   0.829   5.045   5.568
   69SOL    HW2 1107   0.944   5.154   5.528
   70SOL     OW 1108   5.580   3.811   4.902
   70SOL    HW1 1109   5.632   3.818   4.987
   70SOL    HW2 1110   5.554   3.716   4.886
   71SOL     OW 1111   4.435   1.989   4.776
   71SOL    HW1 1112   4.467   2.047   4.851
   71SOL    HW2 1113   4.502   1.991   4.702
   72SOL     OW 1114   6.674   0.275   3.706
   72SOL    HW1 1115   6.752   0.249   3.762
   72SOL    HW2 1116   6.677   0.374   3.688
   73SOL     OW 1117   2.870   0.548   0.914
   73SOL    HW1 1118   2.907   0.457   0.934
   73SOL    HW2 1119   2.945   0.611   0.895
   74SOL     OW 1120   1.936   1.907   6.802
   74SOL    HW1 1121   1.859   1.901   6.737
   74SOL    HW2 1122   1.968   1.816   6.825
   75SOL     OW 1123   4.515   1.504   1.037
   75SOL    HW1 1124   4.428   1.496   0.987
   75SOL    HW2 1125   4.518   1.591   1.085
   76SOL     OW 1126   2.963   4.404   5.333
   76SOL    HW1 1127   3.063   4.398   5.333
   76SOL    HW2 1128   2.934   4.483   5.279
   77SOL     OW 1129   1.952   5.184   4.519
   77SOL    HW1 1130   2.043   5.226   4.519
   77SOL    HW2 1131   1.944   5.122   4.596
   78SOL     OW 1132   4.214   1.358   1.313
   78SOL    HW1 1133   4.303   1.367   1.358
   78SOL    HW2 1134   4.161   1.442   1.327
   79SOL     OW 1135   1.960   5.192   1.953
   79SOL    HW1 1136   1.901   5.136   1.895
   79SOL    HW2 1137   1.985   5.276   1.904
   80SOL     OW 1138   4.930   1.919   5.390
   80SOL    HW1 1139   4.879   1.838   5.361
   80SOL    HW2 1140   4.912   1.994   5.327
   81SOL     OW 1141   2.827   5.971   1.415
   81SOL    HW1 1142   2.795   5.887   1.457
   81SOL    HW2 1143   2.927   5.973   1.414
   82SOL     OW 1144   1.187   6.012   1.433
   82SOL    HW1 1145   1.188   6.045   1.528
   82SOL    HW2 1146   1.187   5.912   1.433
   83SOL     OW 1147   5.536   2.017   5.602
   83SOL    HW1 1148   5.498   2.100   5.642
   83SOL    HW2 1149   5.466   1.945   5.601
   84SOL     OW 1150   6.230   3.089   3.622
   84SOL    HW1 1151   6.218   3.086   3.522
   84SOL    HW2 1152   6.246   2.997   3.656
   85SOL     OW 1153   2.177   7.016   4.238
   85SOL    HW1 1154   2.134   0.073   4.286
   85SOL    HW2 1155   2.134   6.930   4.266
   86SOL     OW 1156   5.537   1.518   6.243
   86SOL    HW1 1157   5.526   1.533   6.341
   86SOL    HW2 1158   5.457   1.471   6.207
   87SOL     OW 1159   3.932   4.145   6.507
   87SOL    HW1 1160   3.921   4.138   6.606
   87SOL    HW2 1161   3.943   4.240   6.481
   88SOL     OW 1162   3.038   3.342   6.601
   88SOL    HW1 1163   3.019   3.244   6.607
   88SOL    HW2 1164   3.014   3.375   6.509
   89SOL     OW 1165   2.964   3.226   3.030
   89SOL    HW1 1166   2.883   3.182   3.067
   89SOL    HW2 1167   2.946   3.254   2.936
   90SOL     OW 1168   4.857   3.473   2.723
   90SOL    HW1 1169   4.924   3.452   2.652
   90SOL    HW2 1170   4.879   3.561   2.765
   91SOL     OW 1171   5.390   5.096   5.785
   91SOL    HW1 1172   5.434   5.138   5.706
   91SOL    HW2 1173   5.373   4.999   5.768
   92SOL     OW 1174   5.327   4.478   6.904
   92SOL    HW1 1175   5.425   4.458   6.904
   92SOL    HW2 1176   5.276   4.397   6.876
   93SOL     OW 1177   2.436   2.868   1.119
   93SOL    HW1 1178   2.404   2.870   1.214
   93SOL    HW2 1179   2.535   2.852   1.118
   94SOL     OW 1180   3.141   0.724   5.673
   94SOL    HW1 1181   3.088   0.640   5.671
   94SOL    HW2 1182   3.164   0.751   5.580
   95SOL     OW 1183   0.159   0.445   4.185
   95SOL    HW1 1184   0.201   0.444   4.094
   95SOL    HW2 1185   0.085   0.513   4.186
   96SOL     OW 1186   4.728   4.849   6.862
   96SOL    HW1 1187   4.782   4.793   6.800
   96SOL    HW2 1188   4.761   4.837   6.956
   97SOL     OW 1189   2.076   5.517   5.551
   97SOL    HW1 1190   2.004   5.450   5.534
   97SOL    HW2 1191   2.163   5.470   5.564
   98SOL     OW 1192   1.137   2.847   2.357
   98SOL    HW1 1193   1.132   2.794   2.441
   98SOL    HW2 1194   1.230   2.844   2.321
   99SOL     OW 1195   3.426   2.869   4.084
   99SOL    HW1 1196   3.446   2.780   4.123
   99SOL    HW2 1197   3.500   2.933   4.106
  100SOL     OW 1198   6.780   6.762   3.927
  100SOL    HW1 1199   6.727   6.688   3.885
  100SOL    HW2 1200   6.871   6.728   3.952
  101SOL     OW 1201   1.155   4.161   3.039
  101SOL    HW1 1202   1.135   4.153   3.136
  101SOL    HW2 1203   1.116   4.083   2.990
  102SOL     OW 1204   2.707   6.383   1.381
  102SOL    HW1 1205   2.661   6.301   1.415
  102SOL    HW2 1206   2.757   6.360   1.297
  103SOL     OW 1207   1.864   0.941   2.108
  103SOL    HW1 1208   1.785   1.002   2.115
  103SOL    HW2 1209   1.945   0.989   2.141
  104SOL     OW 1210   1.446   4.563   1.767
  104SOL    HW1 1211   1.490   4.585   1.855
  104SOL    HW2 1212   1.384   4.486   1.780
  105SOL     OW 1213   4.825   1.645   6.497
  105SOL    HW1 1214   4.847   1.575   6.429
  105SOL    HW2 1215   4.764   1.606   6.566
  106SOL     OW 1216   5.251   5.192   2.357
  106SOL    HW1 1217   5.286   5.167   2.267
  106SOL    HW2 1218   5.325   5.232   2.412
  107SOL     OW 1219   5.943   1.260   0.497
  107SOL    HW1 1220   5.862   1.243   0.552
  107SOL    HW2 1221   5.972   1.175   0.452
  108SOL     OW 1222   1.465   0.494   5.280
  108SOL    HW1 1223   1.412   0.426   5.230
  108SOL    HW2 1224   1.403   0.561   5.321
  109SOL     OW 1225   3.075   1.112   3.216
  109SOL    HW1 1226   3.033   1.065   3.294
  109SOL    HW2 1227   3.086   1.209   3.237
  110SOL     OW 1228   2.832   4.764   5.614
  110SOL    HW1 1229   2.750   4.734   5.565
  110SOL    HW2 1230   2.899   4.799   5.548
  111SOL     OW 1231   6.159   1.548   2.466
  111SOL    HW1 1232   6.147   1.499   2.552
  111SOL    HW2 1233   6.097   1.509   2.397
  112SOL     OW 1234   4.026   6.966   6.770
  112SOL    HW1 1235   3.983   0.005   6.839
  112SOL    HW2 1236   3.956   6.913   6.723
  113SOL     OW 1237   6.460   5.664   2.993
  113SOL    HW1 1238   6.405   5.719   2.929
  113SOL    HW2 1239   6.541   5.716   3.020
  114SOL     OW 1240   1.456   4.060   4.197
  114SOL    HW1 1241   1.399   3.999   4.142
  114SOL    HW2 1242   1.510   4.119   4.136
  115SOL     OW 1243   5.748   1.055   3.436
  115SOL    HW1 1244   5.763   1.143   3.392
  115SOL    HW2 1245   5.759   1.065   3.535
  116SOL     OW 1246   1.015   5.471   0.743
  116SOL    HW1 1247   1.051   5.548   0.690
  116SOL    HW2 1248   1.038   5.484   0.840
  117SOL     OW 1249   2.434   1.400   6.850
  117SOL    HW1 1250   2.436   1.339   6.929
  117SOL    HW2 1251   2.342   1.439   6.840
  118SOL     OW 1252   1.189   1.926   4.358
  118SOL    HW1 1253   1.275   1.970   4.334
  118SOL    HW2 1254   1.143   1.977   4.430
  119SOL     OW 1255   6.942   6.719   6.213
  119SOL    HW1 1256   6.985   6.706   6.302
  119SOL    HW2 1257   6.843   6.731   6.225
  120SOL     OW 1258   4.410   1.395   4.588
  120SOL    HW1 1259   4.344   1.445   4.534
  120SOL    HW2 1260   4.475   1.458   4.629
  121SOL     OW 1261   1.294   3.427   6.228
  121SOL    HW1 1262   1.221   3.470   6.176
  121SOL    HW2 1263   1.294   3.329   6.209
  122SOL     OW 1264   0.729   4.417   6.974
  122SOL    HW1 1265   0.635   4.445   6.994
  122SOL    HW2 1266   0.789   4.496   6.979
  123SOL     OW 1267   1.072   1.590   1.819
  123SOL    HW1 1268   0.986   1.555   1.856
  123SOL    HW2 1269   1.088   1.682   1.855
  124SOL     OW 1270   3.028   2.324   1.032
  124SOL    HW1 1271   3.026   2.328   1.132
  124SOL    HW2 1272   3.087   2.249   1.003
  125SOL     OW 1273   3.526   2.186   0.051
  125SOL    HW1 1274   3.449   2.237   0.013
  125SOL    HW2 1275   3.576   2.142   6.995
  126SOL     OW 1276   4.099   3.199   4.194
  126SOL    HW1 1277   4.093   3.204   4.294
  126SOL    HW2 1278   4.104   3.103   4.166
  127SOL     OW 1279   0.339   6.016   6.397
  127SOL    HW1 1280   0.433   6.049   6.385
  127SOL    HW2 1281   0.276   6.086   6.364
  128SOL     OW 1282   4.555   3.422   1.214
  128SOL    HW1 1283   4.456   3.429   1.218
  128SOL    HW2 1284   4.592   3.499   1.161
  129SOL     OW 1285   2.112   6.144   1.050
  129SOL    HW1 1286   2.188   6.200   1.017
  129SOL    HW2 1287   2.109   6.059   0.998
  130SOL     OW 1288   5.581   2.413   4.371
  130SOL    HW1 1289   5.649   2.400   4.443
  130SOL    HW2 1290   5.512   2.341   4.377
  131SOL     OW 1291   6.968   2.264   3.824
  131SOL    HW1 1292   6.955   2.349   3.875
  131SOL    HW2 1293   0.046   2.253   3.803
  132SOL     OW 1294   3.583   4.202   1.870
  132SOL    HW1 1295   3.504   4.244   1.826
  132SOL    HW2 1296   3.666   4.251   1.844
  133SOL     OW 1297   5.207   6.950   5.045
  133SOL    HW1 1298   5.169   6.907   4.964
  133SOL    HW2 1299   5.249   0.018   5.020
  134SOL     OW 1300   5.597   1.041   2.083
  134SOL    HW1 1301   5.606   1.064   2.180
  134SOL    HW2 1302   5.517   1.088   2.045
  135SOL     OW 1303   4.955   3.389   4.462
  135SOL    HW1 1304   4.915   3.476   4.492
  135SOL    HW2 1305   4.947   3.382   4.363
  136SOL     OW 1306   3.108   6.682   5.171
  136SOL    HW1 1307   3.194   6.732   5.164
  136SOL    HW2 1308   3.047   6.728   5.235
  137SOL     OW 1309   3.490   1.936   4.854
  137SOL    HW1 1310   3.533   1.940   4.764
  137SOL    HW2 1311   3.436   2.020   4.868
  138SOL     OW 1312   0.495   5.546   4.847
  138SOL    HW1 1313   0.407   5.573   4.888
  138SOL    HW2 1314   0.489   5.452   4.816
  139SOL     OW 1315   1.959   6.409   6.379
  139SOL    HW1 1316   1.881   6.379   6.323
  139SOL    HW2 1317   2.021   6.463   6.323
  140SOL     OW 1318   2.079   1.129   3.225
  140SOL    HW1 1319   2.048   1.218   3.258
  140SOL    HW2 1320   2.140   1.142   3.146
  141SOL     OW 1321   6.839   4.271   0.448
  141SOL    HW1 1322   6.767   4.232   0.504
  141SOL    HW2 1323   6.817   4.366   0.425
  142SOL     OW 1324   1.220   4.361   1.797
  142SOL    HW1 1325   1.288   4.367   1.870
  142SOL    HW2 1326   1.211   4.265   1.768
  143SOL     OW 1327   5.258   6.726   1.775
  143SOL    HW1 1328   5.330   6.694   1.837
  143SOL    HW2 1329   5.243   6.823   1.788
  144SOL     OW 1330   3.230   5.050   2.993
  144SOL    HW1 1331   3.295   4.976   3.006
  144SOL    HW2 1332   3.262   5.132   3.042
  145SOL     OW 1333   6.725   4.604   2.804
  145SOL    HW1 1334   6.636   4.646   2.820
  145SOL    HW2 1335   6.783   4.667   2.753
  146SOL     OW 1336   6.084   1.728   5.865
  146SOL    HW1 1337   6.071   1.773   5.953
  146SOL    HW2 1338   6.019   1.652   5.856
  147SOL     OW 1339   4.786   1.351   5.979
  147SOL    HW1 1340   4.718   1.283   5.950
  147SOL    HW2 1341   4.741   1.422   6.033
  148SOL     OW 1342   1.406   4.868   1.367
  148SOL    HW1 1343   1.361   4.784   1.400
  148SOL    HW2 1344   1.378   4.885   1.272
  149SOL     OW 1345   2.227   2.250   5.639
  149SOL    HW1 1346   2.156   2.246   5.569
  149SOL    HW2 1347   2.276   2.337   5.631
  150SOL     OW 1348   4.438   1.173   5.103
  150SOL    HW1 1349   4.461   1.179   5.005
  150SOL    HW2 1350   4.506   1.223   5.156
  151SOL     OW 1351   4.118   1.741   0.940
  151SOL    HW1 1352   4.083   1.701   1.025
  151SOL    HW2 1353   4.158   1.831   0.960
  152SOL     OW 1354   0.928   0.827   7.002
  152SOL    HW1 1355   0.972   0.828   0.073
  152SOL    HW2 1356   0.906   0.733   6.977
  153SOL     OW 1357   2.482   1.100   3.837
  153SOL    HW1 1358   2.536   1.021   3.808
  153SOL    HW2 1359   2.543   1.173   3.865
  154SOL     OW 1360   5.981   2.169   1.501
  154SOL    HW1 1361   5.995   2.118   1.416
  154SOL    HW2 1362   6.017   2.262   1.489
  155SOL     OW 1363   0.586   6.961   1.504
  155SOL    HW1 1364   0.507   7.011   1.541
  155SOL    HW2 1365   0.670   7.001   1.540
  156SOL     OW 1366   4.632   1.263   0.558
  156SOL    HW1 1367   4.731   1.271   0.569
  156SOL    HW2 1368   4.588   1.349   0.585
  157SOL     OW 1369   5.199   4.408   1.064
  157SOL    HW1 1370   5.152   4.392   0.977
  157SOL    HW2 1371   5.176   4.498   1.099
  158SOL     OW 1372   0.673   2.721   3.289
  158SOL    HW1 1373   0.587   2.713   3.341
  158SOL    HW2 1374   0.747   2.745   3.351
  159SOL     OW 1375   5.510   5.619   0.414
  159SOL    HW1 1376   5.585   5.633   0.349
  159SOL    HW2 1377   5.481   5.707   0.452
  160SOL     OW 1378   6.086   6.779   0.551
  160SOL    HW1 1379   6.172   6.738   0.581
  160SOL    HW2 1380   6.092   6.879   0.561
  161SOL     OW 1381   0.876   0.264   0.369
  161SOL    HW1 1382   0.831   0.310   0.445
  161SOL    HW2 1383   0.846   0.169   0.365
  162SOL     OW 1384   2.784   6.188   0.150
  162SOL    HW1 1385   2.727   6.266   0.174
  162SOL    HW2 1386   2.879   6.206   0.179
  163SOL     OW 1387   0.038   3.820   3.955
  163SOL    HW1 1388   0.034   3.831   3.856
  163SOL    HW2 1389   0.047   3.723   3.977
  164SOL     OW 1390   1.997   1.836   2.880
  164SOL    HW1 1391   1.981   1.889   2.964
  164SOL    HW2 1392   2.091   1.801   2.880
  165SOL     OW 1393   0.967   5.418   2.417
  165SOL    HW1 1394   0.979   5.332   2.368
  165SOL    HW2 1395   1.044   5.433   2.479
  166SOL     OW 1396   6.485   4.270   2.551
  166SOL    HW1 1397   6.512   4.287   2.456
  166SOL    HW2 1398   6.426   4.189   2.554
  167SOL     OW 1399   4.876   1.844   0.311
  167SOL    HW1 1400   4.819   1.763   0.295
  167SOL    HW2 1401   4.818   1.926   0.309
  168SOL     OW 1402   5.093   4.019   2.059
  168SOL    HW1 1403   5.024   4.080   2.021
  168SOL    HW2 1404   5.152   3.985   1.986
  169SOL     OW 1405   5.990   2.409   1.212
  169SOL    HW1 1406   6.047   2.345   1.160
  169SOL    HW2 1407   6.037   2.435   1.296
  170SOL     OW 1408   0.804   5.118   2.127
  170SOL    HW1 1409   0.704   5.120   2.127
  170SOL    HW2 1410   0.839   5.211   2.116
  171SOL     OW 1411   2.554   4.133   0.645
  171SOL    HW1 1412   2.546   4.052   0.704
  171SOL    HW2 1413   2.571   4.214   0.701
  172SOL     OW 1414   6.051   2.015   1.746
  172SOL    HW1 1415   6.042   2.072   1.665
  172SOL    HW2 1416   6.145   1.981   1.753
  173SOL     OW 1417   6.753   1.275   5.749
  173SOL    HW1 1418   6.783   1.338   5.678
  173SOL    HW2 1419   6.828   1.256   5.812
  174SOL     OW 1420   5.678   5.316   5.320
  174SOL    HW1 1421   5.778   5.318   5.322
  174SOL    HW2 1422   5.647   5.289   5.228
  175SOL     OW 1423   1.078   0.378   0.243
  175SOL    HW1 1424   1.080   0.326   0.157
  175SOL    HW2 1425   0.998   0.349   0.297
  176SOL     OW 1426   5.234   5.010   2.811
  176SOL    HW1 1427   5.245   4.975   2.717
  176SOL    HW2 1428   5.287   4.953   2.873
  177SOL     OW 1429   5.730   2.132   4.438
  177SOL    HW1 1430   5.671   2.117   4.518
  177SOL    HW2 1431   5.697   2.075   4.362
  178SOL     OW 1432   1.691   6.467   5.148
  178SOL    HW1 1433   1.646   6.549   5.184
  178SOL    HW2 1434   1.787   6.467   5.176
  179SOL     OW 1435   4.242   5.280   0.642
  179SOL    HW1 1436   4.154   5.278   0.689
  179SOL    HW2 1437   4.264   5.188   0.608
  180SOL     OW 1438   4.268   0.853   1.139
  180SOL    HW1 1439   4.333   0.881   1.209
  180SOL    HW2 1440   4.244   0.931   1.081
  181SOL     OW 1441   3.439   2.777   5.168
  181SOL    HW1 1442   3.459   2.837   5.246
  181SOL    HW2 1443   3.426   2.683   5.201
  182SOL     OW 1444   5.049   2.519   6.673
  182SOL    HW1 1445   5.060   2.513   6.772
  182SOL    HW2 1446   5.137   2.538   6.630
  183SOL     OW 1447   3.374   1.416   4.061
  183SOL    HW1 1448   3.403   1.507   4.031
  183SOL    HW2 1449   3.277   1.418   4.084
  184SOL     OW 1450   0.066   6.061   3.109
  184SOL    HW1 1451   0.014   6.038   3.191
  184SOL    HW2 1452   0.107   6.151   3.119
  185SOL     OW 1453   0.592   1.462   4.072
  185SOL    HW1 1454   0.610   1.456   3.973
  185SOL    HW2 1455   0.514   1.406   4.095
  186SOL     OW 1456   4.332   5.317   4.418
  186SOL    HW1 1457   4.299   5.385   4.353
  186SOL    HW2 1458   4.275   5.316   4.500
  187SOL     OW 1459   4.077   5.667   2.506
  187SOL    HW1 1460   4.070   5.737   2.577
  187SOL    HW2 1461   3.985   5.646   2.471
  188SOL     OW 1462   2.383   2.587   2.740
  188SOL    HW1 1463   2.430   2.561   2.656
  188SOL    HW2 1464   2.446   2.579   2.818
  189SOL     OW 1465   6.416   5.694   6.529
  189SOL    HW1 1466   6.415   5.662   6.624
  189SOL    HW2 1467   6.427   5.794   6.528
  190SOL     OW 1468   5.827   5.960   0.320
  190SOL    HW1 1469   5.852   5.868   0.351
  190SOL    HW2 1470   5.764   6.000   0.387
  191SOL     OW 1471   5.896   0.866   6.026
  191SOL    HW1 1472   5.941   0.815   6.099
  191SOL    HW2 1473   5.952   0.946   6.002
  192SOL     OW 1474   0.049   5.441   1.059
  192SOL    HW1 1475   0.062   5.538   1.041
  192SOL    HW2 1476   0.136   5.393   1.053
  193SOL     OW 1477   3.133   5.153   6.394
  193SOL    HW1 1478   3.117   5.099   6.311
  193SOL    HW2 1479   3.198   5.226   6.373
  194SOL     OW 1480   4.082   6.684   2.058
  194SOL    HW1 1481   4.089   6.628   1.975
  194SOL    HW2 1482   4.055   6.777   2.033
  195SOL     OW 1483   3.172   0.846   1.427
  195SOL    HW1 1484   3.090   0.865   1.481
  195SOL    HW2 1485   3.191   0.748   1.429
  196SOL     OW 1486   2.329   0.800   6.143
  196SOL    HW1 1487   2.378   0.829   6.226
  196SOL    HW2 1488   2.320   0.878   6.081
  197SOL     OW 1489   2.738   5.466   0.341
  197SOL    HW1 1490   2.755   5.470   0.243
  197SOL    HW2 1491   2.777   5.381   0.378
  198SOL     OW 1492   4.100   6.533   0.343
  198SOL    HW1 1493   4.087   6.499   0.436
  198SOL    HW2 1494   4.190   6.506   0.309
  199SOL     OW 1495   5.825   6.754   2.610
  199SOL    HW1 1496   5.727   6.746   2.591
  199SOL    HW2 1497   5.837   6.787   2.704
  200SOL     OW 1498   1.277   4.225   2.795
  200SOL    HW1 1499   1.237   4.201   2.884
  200SOL    HW2 1500   1.223   4.298   2.753
  201SOL     OW 1501   2.728   0.840   6.648
  201SOL    HW1 1502   2.710   0.795   6.736
  201SOL    HW2 1503   2.735   0.939   6.663
  202SOL     OW 1504   3.954   6.967   3.887
  202SOL    HW1 1505   3.860   6.950   3.859
  202SOL    HW2 1506   3.955   7.011   3.977
  203SOL     OW 1507   5.519   3.348   6.383
  203SOL    HW1 1508   5.601   3.400   6.356
  203SOL    HW2 1509   5.438   3.391   6.343
  204SOL     OW 1510   1.869   6.967   0.200
  204SOL    HW1 1511   1.820   0.016   0.145
  204SOL    HW2 1512   1.958   7.003   0.226
  205SOL     OW 1513   5.732   1.664   1.369
  205SOL    HW1 1514   5.792   1.737   1.402
  205SOL    HW2 1515   5.645   1.704   1.339
  206SOL     OW 1516   0.413   4.764   1.395
  206SOL    HW1 1517   0.376   4.675   1.425
  206SOL    HW2 1518   0.509   4.770   1.420
  207SOL     OW 1519   4.654   0.606   5.938
  207SOL    HW1 1520   4.602   0.666   5.998
  207SOL    HW2 1521   4.749   0.637   5.933
  208SOL     OW 1522   5.121   4.957   6.144
  208SOL    HW1 1523   5.121   5.044   6.096
  208SOL    HW2 1524   5.027   4.934   6.170
  209SOL     OW 1525   7.014   6.182   5.843
  209SOL    HW1 1526   0.018   6.106   5.782
  209SOL    HW2 1527   0.013   6.268   5.797
  210SOL     OW 1528   3.746   1.847   1.824
  210SOL    HW1 1529   3.730   1.795   1.908
  210SOL    HW2 1530   3.666   1.904   1.804
  211SOL     OW 1531   1.046   1.255   1.283
  211SOL    HW1 1532   0.956   1.258   1.326
  211SOL    HW2 1533   1.069   1.345   1.246
  212SOL     OW 1534   0.722   5.032   3.204
  212SOL    HW1 1535   0.776   4.977   3.142
  212SOL    HW2 1536   0.780   5.066   3.278
  213SOL     OW 1537   5.145   1.302   0.185
  213SOL    HW1 1538   5.167   1.205   0.176
  213SOL    HW2 1539   5.127   1.324   0.281
  214SOL     OW 1540   0.759   6.300   2.572
  214SOL    HW1 1541   0.709   6.322   2.488
  214SOL    HW2 1542   0.730   6.362   2.644
  215SOL     OW 1543   3.990   3.241   2.144
  215SOL    HW1 1544   3.913   3.220   2.084
  215SOL    HW2 1545   4.076   3.217   2.098
  216SOL     OW 1546   0.974   0.269   4.950
  216SOL    HW1 1547   0.896   0.293   4.892
  216SOL    HW2 1548   1.045   0.340   4.941
  217SOL     OW 1549   1.797   2.620   3.827
  217SOL    HW1 1550   1.807   2.684   3.751
  217SOL    HW2 1551   1.848   2.536   3.808
  218SOL     OW 1552   1.109   2.911   4.856
  218SOL    HW1 1553   1.085   2.818   4.884
  218SOL    HW2 1554   1.043   2.975   4.896
  219SOL     OW 1555   4.099   3.833   0.500
  219SOL    HW1 1556   4.186   3.838   0.452
  219SOL    HW2 1557   4.057   3.743   0.484
  220SOL     OW 1558   2.819   5.429   0.090
  220SOL    HW1 1559   2.915   5.457   0.095
  220SOL    HW2 1560   2.798   5.397   7.017
  221SOL     OW 1561   5.325   3.205   3.830
  221SOL    HW1 1562   5.252   3.214   3.899
  221SOL    HW2 1563   5.334   3.291   3.780
  222SOL     OW 1564   1.231   6.060   5.525
  222SOL    HW1 1565   1.148   6.009   5.548
  222SOL    HW2 1566   1.218   6.157   5.543
  223SOL     OW 1567   0.155   3.496   2.143
  223SOL    HW1 1568   0.139   3.579   2.089
  223SOL    HW2 1569   0.241   3.454   2.115
  224SOL     OW 1570   2.684   2.242   1.993
  224SOL    HW1 1571   2.769   2.288   1.966
  224SOL    HW2 1572   2.703   2.178   2.067
  225SOL     OW 1573   5.959   0.635   6.883
  225SOL    HW1 1574   6.036   0.573   6.898
  225SOL    HW2 1575   5.876   0.596   6.924
  226SOL     OW 1576   0.901   6.110   0.258
  226SOL    HW1 1577   0.950   6.063   0.185
  226SOL    HW2 1578   0.943   6.199   0.276
  227SOL     OW 1579   2.156   3.868   3.806
  227SOL    HW1 1580   2.248   3.909   3.809
  227SOL    HW2 1581   2.164   3.768   3.805
  228SOL     OW 1582   4.109   6.814   4.249
  228SOL    HW1 1583   4.045   6.804   4.173
  228SOL    HW2 1584   4.203   6.808   4.215
  229SOL     OW 1585   6.142   5.812   1.903
  229SOL    HW1 1586   6.240   5.831   1.893
  229SOL    HW2 1587   6.108   5.770   1.819
  230SOL     OW 1588   2.188   4.031   4.811
  230SOL    HW1 1589   2.230   3.970   4.745
  230SOL    HW2 1590   2.215   4.004   4.904
  231SOL     OW 1591   6.919   3.265   6.910
  231SOL    HW1 1592   6.850   3.264   6.838
  231SOL    HW2 1593   6.880   3.305   6.993
  232SOL     OW 1594   1.366   3.770   6.453
  232SOL    HW1 1595   1.308   3.833   6.400
  232SOL    HW2 1596   1.445   3.743   6.398
  233SOL     OW 1597   2.548   1.504   5.580
  233SOL    HW1 1598   2.514   1.528   5.671
  233SOL    HW2 1599   2.580   1.586   5.534
  234SOL     OW 1600   3.000   5.007   0.014
  234SOL    HW1 1601   2.972   4.911   0.004
  234SOL    HW2 1602   2.972   5.058   6.952
  235SOL     OW 1603   3.159   3.040   4.128
  235SOL    HW1 1604   3.256   3.016   4.136
  235SOL    HW2 1605   3.136   3.109   4.197
  236SOL     OW 1606   6.834   2.758   5.544
  236SOL    HW1 1607   6.852   2.709   5.629
  236SOL    HW2 1608   6.735   2.773   5.535
  237SOL     OW 1609   0.045   6.834   1.275
  237SOL    HW1 1610   0.130   6.828   1.222
  237SOL    HW2 1611   0.057   6.897   1.351
  238SOL     OW 1612   5.967   3.537   1.833
  238SOL    HW1 1613   6.061   3.518   1.861
  238SOL    HW2 1614   5.915   3.571   1.912
  239SOL     OW 1615   7.017   5.272   6.605
  239SOL    HW1 1616   0.037   5.337   6.539
  239SOL    HW2 1617   0.056   5.268   6.686
  240SOL     OW 1618   0.610   3.668   6.282
  240SOL    HW1 1619   0.643   3.597   6.344
  240SOL    HW2 1620   0.624   3.758   6.324
  241SOL     OW 1621   0.262   1.116   3.557
  241SOL    HW1 1622   0.334   1.052   3.584
  241SOL    HW2 1623   0.248   1.184   3.629
  242SOL     OW 1624   1.512   3.841   4.878
  242SOL    HW1 1625   1.478   3.888   4.960
  242SOL    HW2 1626   1.437   3.794   4.833
  243SOL     OW 1627   5.652   0.379   5.465
  243SOL    HW1 1628   5.559   0.347   5.482
  243SOL    HW2 1629   5.690   0.420   5.548
  244SOL     OW 1630   5.596   2.109   5.118
  244SOL    HW1 1631   5.599   2.046   5.041
  244SOL    HW2 1632   5.643   2.194   5.093
  245SOL     OW 1633   6.319   2.415   4.749
  245SOL    HW1 1634   6.417   2.414   4.731
  245SOL    HW2 1635   6.291   2.329   4.791
  246SOL     OW 1636   4.966   3.885   3.381
  246SOL    HW1 1637   5.062   3.872   3.406
  246SOL    HW2 1638   4.945   3.827   3.302
  247SOL     OW 1639   1.934   1.469   4.075
  247SOL    HW1 1640   2.019   1.521   4.063
  247SOL    HW2 1641   1.861   1.531   4.101
  248SOL     OW 1642   4.934   1.958   4.248
  248SOL    HW1 1643   4.958   2.032   4.312
  248SOL    HW2 1644   4.961   1.984   4.155
  249SOL     OW 1645   3.265   6.809   4.875
  249SOL    HW1 1646   3.204   6.865   4.818
  249SOL    HW2 1647   3.217   6.725   4.902
  250SOL     OW 1648   5.242   3.780   5.657
  250SOL    HW1 1649   5.247   3.771   5.557
  250SOL    HW2 1650   5.226   3.691   5.698
  251SOL     OW 1651   4.500   2.961   6.766
  251SOL    HW1 1652   4.484   3.018   6.685
  251SOL    HW2 1653   4.447   2.996   6.842
  252SOL     OW 1654   6.487   1.102   6.016
  252SOL    HW1 1655   6.482   1.098   6.115
  252SOL    HW2 1656   6.500   1.197   5.987
  253SOL     OW 1657   2.845   3.177   0.603
  253SOL    HW1 1658   2.751   3.188   0.570
  253SOL    HW2 1659   2.909   3.199   0.530
  254SOL     OW 1660   6.684   3.158   4.549
  254SOL    HW1 1661   6.633   3.191   4.469
  254SOL    HW2 1662   6.781   3.154   4.526
  255SOL     OW 1663   2.738   2.341   3.277
  255SOL    HW1 1664   2.819   2.310   3.227
  255SOL    HW2 1665   2.752   2.326   3.375
  256SOL     OW 1666   6.246   5.420   6.925
  256SOL    HW1 1667   6.270   5.324   6.917
  256SOL    HW2 1668   6.304   5.463   6.994
  257SOL     OW 1669   3.140   5.541   6.053
  257SOL    HW1 1670   3.135   5.576   6.147
  257SOL    HW2 1671   3.202   5.598   5.999
  258SOL     OW 1672   5.640   4.003   4.355
  258SOL    HW1 1673   5.588   3.939   4.300
  258SOL    HW2 1674   5.584   4.084   4.373
  259SOL     OW 1675   1.429   3.050   2.638
  259SOL    HW1 1676   1.499   3.082   2.575
  259SOL    HW2 1677   1.339   3.062   2.596
  260SOL     OW 1678   5.373   0.448   6.200
  260SOL    HW1 1679   5.443   0.490   6.258
  260SOL    HW2 1680   5.416   0.405   6.121
  261SOL     OW 1681   1.028   3.781   1.954
  261SOL    HW1 1682   0.977   3.703   1.918
  261SOL    HW2 1683   1.031   3.777   2.053
  262SOL     OW 1684   1.054   3.280   1.960
  262SOL    HW1 1685   1.069   3.293   1.862
  262SOL    HW2 1686   1.073   3.365   2.009
  263SOL     OW 1687   0.612   2.335   4.955
  263SOL    HW1 1688   0.579   2.404   5.020
  263SOL    HW2 1689   0.605   2.244   4.997
  264SOL     OW 1690   1.510   4.411   5.990
  264SOL    HW1 1691   1.492   4.359   6.074
  264SOL    HW2 1692   1.540   4.349   5.918
  265SOL     OW 1693   4.929   4.634   4.020
  265SOL    HW1 1694   4.882   4.582   3.949
  265SOL    HW2 1695   4.904   4.731   4.012
  266SOL     OW 1696   4.042   1.423   1.004
  266SOL    HW1 1697   4.059   1.334   1.045
  266SOL    HW2 1698   3.968   1.416   0.937
  267SOL     OW 1699   1.808   2.190   6.187
  267SOL    HW1 1700   1.855   2.278   6.179
  267SOL    HW2 1701   1.871   2.123   6.228
  268SOL     OW 1702   4.165   4.758   4.407
  268SOL    HW1 1703   4.110   4.742   4.490
  268SOL    HW2 1704   4.258   4.722   4.422
  269SOL     OW 1705   1.111   2.173   6.320
  269SOL    HW1 1706   1.090   2.266   6.291
  269SOL    HW2 1707   1.033   2.136   6.371
  270SOL     OW 1708   4.995   0.760   2.051
  270SOL    HW1 1709   5.081   0.723   2.015
  270SOL    HW2 1710   5.015   0.845   2.101
  271SOL     OW 1711   1.521   0.254   0.032
  271SOL    HW1 1712   1.478   0.169   0.002
  271SOL    HW2 1713   1.619   0.240   0.044
  272SOL     OW 1714   3.283   5.517   3.246
  272SOL    HW1 1715   3.224   5.551   3.319
  272SOL    HW2 1716   3.376   5.508   3.280
  273SOL     OW 1717   1.706   5.903   4.966
  273SOL    HW1 1718   1.671   5.858   4.884
  273SOL    HW2 1719   1.784   5.851   5.002
  274SOL     OW 1720   6.236   2.713   2.625
  274SOL    HW1 1721   6.144   2.690   2.594
  274SOL    HW2 1722   6.233   2.738   2.722
  275SOL     OW 1723   6.603   6.491   5.557
  275SOL    HW1 1724   6.701   6.482   5.574
  275SOL    HW2 1725   6.586   6.568   5.496
  276SOL     OW 1726   6.379   6.030   4.023
  276SOL    HW1 1727   6.435   5.984   4.092
  276SOL    HW2 1728   6.392   5.986   3.934
  277SOL     OW 1729   3.380   1.834   5.372
  277SOL    HW1 1730   3.473   1.866   5.390
  277SOL    HW2 1731   3.343   1.881   5.292
  278SOL     OW 1732   5.601   3.586   2.367
  278SOL    HW1 1733   5.597   3.678   2.407
  278SOL    HW2 1734   5.559   3.587   2.277
  279SOL     OW 1735   6.867   2.769   3.057
  279SOL    HW1 1736   6.832   2.700   3.120
  279SOL    HW2 1737   6.951   2.735   3.015
  280SOL     OW 1738   4.800   0.159   4.129
  280SOL    HW1 1739   4.864   0.204   4.191
  280SOL    HW2 1740   4.824   0.182   4.034
  281SOL     OW 1741   4.777   6.038   4.171
  281SOL    HW1 1742   4.689   5.998   4.146
  281SOL    HW2 1743   4.810   6.096   4.096
  282SOL     OW 1744   4.529   2.019   6.720
  282SOL    HW1 1745   4.452   2.082   6.731
  282SOL    HW2 1746   4.502   1.942   6.664
  283SOL     OW 1747   6.458   0.997   4.770
  283SOL    HW1 1748   6.526   1.038   4.709
  283SOL    HW2 1749   6.368   1.034   4.749
  284SOL     OW 1750   6.682   4.756   4.651
  284SOL    HW1 1751   6.732   4.670   4.662
  284SOL    HW2 1752   6.590   4.746   4.690
  285SOL     OW 1753   4.148   0.587   6.859
  285SOL    HW1 1754   4.111   0.496   6.879
  285SOL    HW2 1755   4.083   0.638   6.804
  286SOL     OW 1756   3.747   4.932   4.632
  286SOL    HW1 1757   3.719   4.974   4.545
  286SOL    HW2 1758   3.816   4.861   4.613
  287SOL     OW 1759   2.956   6.301   5.981
  287SOL    HW1 1760   2.948   6.373   5.912
  287SOL    HW2 1761   3.050   6.266   5.982
  288SOL     OW 1762   3.594   0.892   0.968
  288SOL    HW1 1763   3.635   0.838   0.895
  288SOL    HW2 1764   3.508   0.932   0.936
  289SOL     OW 1765   0.290   6.598   4.524
  289SOL    HW1 1766   0.244   6.625   4.439
  289SOL    HW2 1767   0.221   6.581   4.595
  290SOL     OW 1768   3.891   0.844   3.707
  290SOL    HW1 1769   3.949   0.912   3.662
  290SOL    HW2 1770   3.810   0.890   3.745
  291SOL     OW 1771   4.984   0.522   4.130
  291SOL    HW1 1772   4.951   0.480   4.045
  291SOL    HW2 1773   4.932   0.606   4.148
  292SOL     OW 1774   3.690   0.149   3.547
  292SOL    HW1 1775   3.748   0.091   3.490
  292SOL    HW2 1776   3.737   0.171   3.632
  293SOL     OW 1777   5.631   6.537   2.995
  293SOL    HW1 1778   5.623   6.442   3.026
  293SOL    HW2 1779   5.712   6.547   2.938
  294SOL     OW 1780   5.753   1.305   5.504
  294SOL    HW1 1781   5.686   1.262   5.443
  294SOL    HW2 1782   5.842   1.260   5.493
  295SOL     OW 1783   1.153   1.934   5.430
  295SOL    HW1 1784   1.093   2.008   5.399
  295SOL    HW2 1785   1.248   1.964   5.422
  296SOL     OW 1786   6.630   1.201   1.528
  296SOL    HW1 1787   6.613   1.285   1.580
  296SOL    HW2 1788   6.642   1.125   1.592
  297SOL     OW 1789   5.385   4.196   3.467
  297SOL    HW1 1790   5.289   4.186   3.495
  297SOL    HW2 1791   5.392   4.267   3.397
  298SOL     OW 1792   4.183   0.238   0.508
  298SOL    HW1 1793   4.161   0.317   0.451
  298SOL    HW2 1794   4.172   0.262   0.604
  299SOL     OW 1795   2.945   1.457   6.646
  299SOL    HW1 1796   2.846   1.461   6.661
  299SOL    HW2 1797   2.975   1.362   6.650
  300SOL     OW 1798   3.241   1.204   2.605
  300SOL    HW1 1799   3.162   1.260   2.628
  300SOL    HW2 1800   3.287   1.174   2.689
  301SOL     OW 1801   5.907   6.133   1.891
  301SOL    HW1 1802   6.002   6.123   1.859
  301SOL    HW2 1803   5.906   6.131   1.991
  302SOL     OW 1804   6.983   6.363   1.850
  302SOL    HW1 1805   6.894   6.391   1.886
  302SOL    HW2 1806   6.988   6.263   1.848
  303SOL     OW 1807   6.545   5.843   2.480
  303SOL    HW1 1808   6.587   5.888   2.401
  303SOL    HW2 1809   6.612   5.835   2.554
  304SOL     OW 1810   1.187   0.102   5.039
  304SOL    HW1 1811   1.193   0.031   5.108
  304SOL    HW2 1812   1.099   0.148   5.045
  305SOL     OW 1813   1.861   2.757   1.607
  305SOL    HW1 1814   1.938   2.817   1.584
  305SOL    HW2 1815   1.892   2.662   1.606
  306SOL     OW 1816   6.485   0.707   3.352
  306SOL    HW1 1817   6.545   0.635   3.316
  306SOL    HW2 1818   6.535   0.794   3.354
  307SOL     OW 1819   3.154   3.557   1.862
  307SOL    HW1 1820   3.071   3.568   1.916
  307SOL    HW2 1821   3.219   3.499   1.911
  308SOL     OW 1822   5.358   0.795   4.189
  308SOL    HW1 1823   5.340   0.707   4.234
  308SOL    HW2 1824   5.349   0.868   4.256
  309SOL     OW 1825   0.886   6.572   6.397
  309SOL    HW1 1826   0.875   6.658   6.448
  309SOL    HW2 1827   0.831   6.576   6.314
  310SOL     OW 1828   5.112   5.546   4.803
  310SOL    HW1 1829   5.132   5.537   4.705
  310SOL    HW2 1830   5.196   5.536   4.855
  311SOL     OW 1831   1.357   5.577   2.933
  311SOL    HW1 1832   1.414   5.571   2.851
  311SOL    HW2 1833   1.310   5.665   2.936
  312SOL     OW 1834   4.884   2.225   3.281
  312SOL    HW1 1835   4.817   2.238   3.209
  312SOL    HW2 1836   4.906   2.313   3.323
  313SOL     OW 1837   3.818   3.739   2.789
  313SOL    HW1 1838   3.813   3.639   2.793
  313SOL    HW2 1839   3.738   3.774   2.739
  314SOL     OW 1840   1.627   6.461   4.897
  314SOL    HW1 1841   1.650   6.448   4.994
  314SOL    HW2 1842   1.652   6.554   4.869
  315SOL     OW 1843   6.537   0.968   3.306
  315SOL    HW1 1844   6.515   1.024   3.386
  315SOL    HW2 1845   6.452   0.933   3.266
  316SOL     OW 1846   4.215   1.336   5.249
  316SOL    HW1 1847   4.256   1.262   5.196
  316SOL    HW2 1848   4.235   1.322   5.346
  317SOL     OW 1849   1.476   1.548   1.498
  317SOL    HW1 1850   1.510   1.464   1.542
  317SOL    HW2 1851   1.385   1.569   1.534
  318SOL     OW 1852   6.643   0.529   5.683
  318SOL    HW1 1853   6.573   0.600   5.672
  318SOL    HW2 1854   6.635   0.488   5.774
  319SOL     OW 1855   1.171   2.281   2.791
  319SOL    HW1 1856   1.157   2.246   2.699
  319SOL    HW2 1857   1.235   2.357   2.789
  320SOL     OW 1858   5.401   2.119   6.752
  320SOL    HW1 1859   5.319   2.171   6.775
  320SOL    HW2 1860   5.473   2.182   6.723
  321SOL     OW 1861   3.895   3.366   0.772
  321SOL    HW1 1862   3.827   3.316   0.720
  321SOL    HW2 1863   3.896   3.334   0.867
  322SOL     OW 1864   4.415   3.451   6.899
  322SOL    HW1 1865   4.414   3.467   6.801
  322SOL    HW2 1866   4.500   3.488   6.938
  323SOL     OW 1867   0.178   2.779   3.479
  323SOL    HW1 1868   0.220   2.829   3.556
  323SOL    HW2 1869   0.079   2.780   3.489
  324SOL     OW 1870   1.366   0.423   2.879
  324SOL    HW1 1871   1.463   0.420   2.852
  324SOL    HW2 1872   1.359   0.459   2.972
  325SOL     OW 1873   1.328   3.561   2.414
  325SOL    HW1 1874   1.334   3.485   2.479
  325SOL    HW2 1875   1.397   3.548   2.342
  326SOL     OW 1876   2.241   5.533   6.297
  326SOL    HW1 1877   2.235   5.624   6.257
  326SOL    HW2 1878   2.211   5.465   6.230
  327SOL     OW 1879   3.412   5.762   3.219
  327SOL    HW1 1880   3.354   5.708   3.158
  327SOL    HW2 1881   3.356   5.828   3.269
  328SOL     OW 1882   1.725   4.369   1.706
  328SOL    HW1 1883   1.643   4.324   1.740
  328SOL    HW2 1884   1.703   4.421   1.623
  329SOL     OW 1885   3.139   3.966   1.883
  329SOL    HW1 1886   3.100   4.052   1.850
  329SOL    HW2 1887   3.190   3.921   1.809
  330SOL     OW 1888   3.782   4.836   0.117
  330SOL    HW1 1889   3.728   4.766   0.163
  330SOL    HW2 1890   3.724   4.886   0.053
  331SOL     OW 1891   4.937   5.241   0.994
  331SOL    HW1 1892   4.993   5.320   0.967
  331SOL    HW2 1893   4.866   5.226   0.926
  332SOL     OW 1894   5.640   2.013   3.498
  332SOL    HW1 1895   5.713   2.044   3.437
  332SOL    HW2 1896   5.655   2.050   3.590
  333SOL     OW 1897   3.730   0.784   5.412
  333SOL    HW1 1898   3.821   0.798   5.452
  333SOL    HW2 1899   3.716   0.850   5.338
  334SOL     OW 1900   4.095   3.329   2.979
  334SOL    HW1 1901   4.106   3.421   3.016
  334SOL    HW2 1902   4.075   3.265   3.054
  335SOL     OW 1903   3.449   6.783   0.142
  335SOL    HW1 1904   3.405   6.718   0.204
  335SOL    HW2 1905   3.389   6.861   0.127
  336SOL     OW 1906   2.322   1.151   3.476
  336SOL    HW1 1907   2.290   1.134   3.569
  336SOL    HW2 1908   2.306   1.070   3.420
  337SOL     OW 1909   1.626   1.497   5.928
  337SOL    HW1 1910   1.599   1.580   5.977
  337SOL    HW2 1911   1.633   1.517   5.830
  338SOL     OW 1912   4.288   2.833   1.697
  338SOL    HW1 1913   4.357   2.904   1.687
  338SOL    HW2 1914   4.239   2.821   1.610
  339SOL     OW 1915   4.026   4.838   4.619
  339SOL    HW1 1916   3.993   4.930   4.597
  339SOL    HW2 1917   4.072   4.840   4.708
  340SOL     OW 1918   4.834   2.531   5.059
  340SOL    HW1 1919   4.912   2.592   5.073
  340SOL    HW2 1920   4.779   2.565   4.983
  341SOL     OW 1921   5.683   6.179   3.960
  341SOL    HW1 1922   5.684   6.258   4.021
  341SOL    HW2 1923   5.751   6.192   3.887
  342SOL     OW 1924   4.882   3.458   0.845
  342SOL    HW1 1925   4.817   3.389   0.813
  342SOL    HW2 1926   4.848   3.501   0.928
  343SOL     OW 1927   1.055   5.480   2.753
  343SOL    HW1 1928   1.109   5.484   2.669
  343SOL    HW2 1929   0.980   5.415   2.741
  344SOL     OW 1930   1.219   1.622   1.568
  344SOL    HW1 1931   1.247   1.717   1.554
  344SOL    HW2 1932   1.163   1.616   1.650
  345SOL     OW 1933   6.886   2.460   4.432
  345SOL    HW1 1934   6.911   2.364   4.444
  345SOL    HW2 1935   6.786   2.467   4.421
  346SOL     OW 1936   1.759   0.228   2.765
  346SOL    HW1 1937   1.797   0.190   2.849
  346SOL    HW2 1938   1.662   0.204   2.758
  347SOL     OW 1939   2.516   5.849   0.439
  347SOL    HW1 1940   2.606   5.890   0.438
  347SOL    HW2 1941   2.489   5.825   0.346
  348SOL     OW 1942   4.735   5.106   2.603
  348SOL    HW1 1943   4.815   5.117   2.545
  348SOL    HW2 1944   4.731   5.182   2.669
  349SOL     OW 1945   6.913   4.188   1.231
  349SOL    HW1 1946   6.963   4.107   1.262
  349SOL    HW2 1947   6.970   4.239   1.166
  350SOL     OW 1948   3.823   3.103   0.185
  350SOL    HW1 1949   3.833   3.151   0.098
  350SOL    HW2 1950   3.914   3.087   0.225
  351SOL     OW 1951   3.282   3.988   0.732
  351SOL    HW1 1952   3.248   3.895   0.747
  351SOL    HW2 1953   3.269   4.013   0.636
  352SOL     OW 1954   4.218   5.940   3.797
  352SOL    HW1 1955   4.218   5.978   3.704
  352SOL    HW2 1956   4.285   5.989   3.853
  353SOL     OW 1957   2.789   6.811   5.925
  353SOL    HW1 1958   2.795   6.910   5.926
  353SOL    HW2 1959   2.758   6.778   6.015
  354SOL     OW 1960   5.697   2.803   1.041
  354SOL    HW1 1961   5.762   2.756   1.100
  354SOL    HW2 1962   5.643   2.736   0.990
  355SOL     OW 1963   2.115   3.539   2.868
  355SOL    HW1 1964   2.178   3.608   2.831
  355SOL    HW2 1965   2.022   3.574   2.868
  356SOL     OW 1966   1.676   0.314   5.355
  356SOL    HW1 1967   1.601   0.380   5.355
  356SOL    HW2 1968   1.710   0.303   5.448
  357SOL     OW 1969   6.132   6.887   4.483
  357SOL    HW1 1970   6.043   6.852   4.454
  357SOL    HW2 1971   6.148   6.977   4.441
  358SOL     OW 1972   5.226   5.897   0.780
  358SOL    HW1 1973   5.150   5.860   0.833
  358SOL    HW2 1974   5.196   5.979   0.731
  359SOL     OW 1975   3.207   1.301   2.306
  359SOL    HW1 1976   3.110   1.298   2.329
  359SOL    HW2 1977   3.218   1.314   2.208
  360SOL     OW 1978   0.832   5.036   4.392
  360SOL    HW1 1979   0.897   5.107   4.419
  360SOL    HW2 1980   0.882   4.951   4.373
  361SOL     OW 1981   6.503   5.941   3.123
  361SOL    HW1 1982   6.539   5.852   3.150
  361SOL    HW2 1983   6.575   6.010   3.127
  362SOL     OW 1984   3.698   4.042   0.679
  362SOL    HW1 1985   3.650   3.971   0.730
  362SOL    HW2 1986   3.718   4.119   0.740
  363SOL     OW 1987   6.369   4.855   2.533
  363SOL    HW1 1988   6.389   4.769   2.580
  363SOL    HW2 1989   6.403   4.850   2.439
  364SOL     OW 1990   0.113   4.366   6.658
  364SOL    HW1 1991   0.072   4.394   6.745
  364SOL    HW2 1992   0.079   4.425   6.585
  365SOL     OW 1993   3.619   0.736   1.944
  365SOL    HW1 1994   3.599   0.757   1.848
  365SOL    HW2 1995   3.647   0.640   1.952
  366SOL     OW 1996   6.097   3.419   6.807
  366SOL    HW1 1997   6.105   3.393   6.903
  366SOL    HW2 1998   6.047   3.506   6.799
  367SOL     OW 1999   5.029   2.361   5.873
  367SOL    HW1 2000   4.948   2.406   5.836
  367SOL    HW2 2001   5.093   2.429   5.909
  368SOL     OW 2002   6.764   2.059   6.245
  368SOL    HW1 2003   6.731   2.095   6.158
  368SOL    HW2 2004   6.695   2.072   6.316
  369SOL     OW 2005   6.101   4.301   3.041
  369SOL    HW1 2006   6.068   4.300   3.135
  369SOL    HW2 2007   6.083   4.212   2.998
  370SOL     OW 2008   1.854   2.273   4.081
  370SOL    HW1 2009   1.856   2.274   4.181
  370SOL    HW2 2010   1.841   2.179   4.049
  371SOL     OW 2011   2.163   4.027   6.851
  371SOL    HW1 2012   2.166   3.928   6.844
  371SOL    HW2 2013   2.156   4.054   6.947
  372SOL     OW 2014   1.993   6.807   5.165
  372SOL    HW1 2015   1.981   6.756   5.080
  372SOL    HW2 2016   1.952   6.898   5.155
  373SOL     OW 2017   6.011   6.449   5.072
  373SOL    HW1 2018   6.032   6.366   5.123
  373SOL    HW2 2019   6.096   6.496   5.048
  374SOL     OW 2020   1.926   1.624   2.686
  374SOL    HW1 2021   1.862   1.559   2.728
  374SOL    HW2 2022   1.928   1.708   2.741
  375SOL     OW 2023   0.413   5.601   5.226
  375SOL    HW1 2024   0.485   5.645   5.280
  375SOL    HW2 2025   0.445   5.512   5.193
  376SOL     OW 2026   2.377   1.186   4.752
  376SOL    HW1 2027   2.448   1.179   4.822
  376SOL    HW2 2028   2.414   1.231   4.671
  377SOL     OW 2029   1.670   2.454   0.107
  377SOL    HW1 2030   1.713   2.369   0.075
  377SOL    HW2 2031   1.732   2.531   0.092
  378SOL     OW 2032   3.551   1.223   6.685
  378SOL    HW1 2033   3.575   1.177   6.599
  378SOL    HW2 2034   3.630   1.271   6.721
  379SOL     OW 2035   5.478   2.419   6.939
  379SOL    HW1 2036   5.537   2.371   6.874
  379SOL    HW2 2037   5.527   2.436   0.005
  380SOL     OW 2038   3.000   1.251   1.406
  380SOL    HW1 2039   3.096   1.225   1.418
  380SOL    HW2 2040   2.981   1.332   1.462
  381SOL     OW 2041   2.066   4.437   4.471
  381SOL    HW1 2042   2.007   4.356   4.464
  381SOL    HW2 2043   2.144   4.416   4.531
  382SOL     OW 2044   6.410   0.248   0.462
  382SOL    HW1 2045   6.349   0.240   0.541
  382SOL    HW2 2046   6.356   0.243   0.378
  383SOL     OW 2047   4.284   2.996   0.420
  383SOL    HW1 2048   4.284   3.080   0.474
  383SOL    HW2 2049   4.280   2.917   0.481
  384SOL     OW 2050   0.335   3.518   4.124
  384SOL    HW1 2051   0.267   3.530   4.052
  384SOL    HW2 2052   0.426   3.537   4.087
  385SOL     OW 2053   3.842   5.438   6.412
  385SOL    HW1 2054   3.908   5.444   6.487
  385SOL    HW2 2055   3.871   5.368   6.347
  386SOL     OW 2056   4.304   0.545   3.783
  386SOL    HW1 2057   4.238   0.621   3.785
  386SOL    HW2 2058   4.269   0.468   3.836
  387SOL     OW 2059   1.592   4.954   2.572
  387SOL    HW1 2060   1.608   4.903   2.657
  387SOL    HW2 2061   1.615   5.050   2.586
  388SOL     OW 2062   2.349   2.316   6.989
  388SOL    HW1 2063   2.310   2.326   6.898
  388SOL    HW2 2064   2.313   2.233   0.014
  389SOL     OW 2065   3.570   3.509   2.888
  389SOL    HW1 2066   3.622   3.442   2.941
  389SOL    HW2 2067   3.518   3.461   2.817
  390SOL     OW 2068   2.672   0.739   3.483
  390SOL    HW1 2069   2.681   0.688   3.568
  390SOL    HW2 2070   2.581   0.723   3.444
  391SOL     OW 2071   1.931   3.205   6.601
  391SOL    HW1 2072   1.872   3.279   6.635
  391SOL    HW2 2073   1.976   3.234   6.517
  392SOL     OW 2074   2.030   5.013   1.353
  392SOL    HW1 2075   1.957   5.077   1.327
  392SOL    HW2 2076   2.001   4.959   1.432
  393SOL     OW 2077   6.158   4.418   5.500
  393SOL    HW1 2078   6.118   4.474   5.427
  393SOL    HW2 2079   6.248   4.454   5.524
  394SOL     OW 2080   0.642   6.942   0.122
  394SOL    HW1 2081   0.617   6.859   0.173
  394SOL    HW2 2082   0.560   6.996   0.105
  395SOL     OW 2083   5.064   3.969   2.336
  395SOL    HW1 2084   5.118   4.002   2.258
  395SOL    HW2 2085   5.003   4.042   2.367
  396SOL     OW 2086   3.978   3.903   2.639
  396SOL    HW1 2087   3.935   3.870   2.724
  396SOL    HW2 2088   3.984   3.827   2.574
  397SOL     OW 2089   4.112   3.017   5.827
  397SOL    HW1 2090   4.102   2.925   5.866
  397SOL    HW2 2091   4.058   3.023   5.743
  398SOL     OW 2092   1.264   5.726   1.944
  398SOL    HW1 2093   1.285   5.670   2.024
  398SOL    HW2 2094   1.270   5.669   1.862
  399SOL     OW 2095   5.438   5.951   2.814
  399SOL    HW1 2096   5.506   5.883   2.840
  399SOL    HW2 2097   5.447   6.031   2.873
  400SOL     OW 2098   0.378   0.240   6.173
  400SOL    HW1 2099   0.335   0.330   6.178
  400SOL    HW2 2100   0.371   0.205   6.080
  401SOL     OW 2101   4.607   0.847   6.122
  401SOL    HW1 2102   4.697   0.834   6.164
  401SOL    HW2 2103   4.537   0.805   6.179
  402SOL     OW 2104   6.262   6.546   3.111
  402SOL    HW1 2105   6.282   6.612   3.038
  402SOL    HW2 2106   6.168   6.513   3.101
  403SOL     OW 2107   4.201   2.704   6.145
  403SOL    HW1 2108   4.236   2.621   6.102
  403SOL    HW2 2109   4.188   2.689   6.242
  404SOL     OW 2110   1.645   6.670   3.420
  404SOL    HW1 2111   1.682   6.577   3.414
  404SOL    HW2 2112   1.565   6.670   3.479
  405SOL     OW 2113   2.054   2.187   1.394
  405SOL    HW1 2114   2.151   2.191   1.414
  405SOL    HW2 2115   2.034   2.105   1.340
  406SOL     OW 2116   1.328   2.576   4.032
  406SOL    HW1 2117   1.406   2.575   3.970
  406SOL    HW2 2118   1.347   2.519   4.111
  407SOL     OW 2119   2.537   0.266   3.981
  407SOL    HW1 2120   2.528   0.356   4.022
  407SOL    HW2 2121   2.504   0.197   4.045
  408SOL     OW 2122   1.271   0.848   3.241
  408SOL    HW1 2123   1.341   0.861   3.311
  408SOL    HW2 2124   1.280   0.919   3.172
  409SOL     OW 2125   5.969   2.927   2.184
  409SOL    HW1 2126   5.888   2.940   2.242
  409SOL    HW2 2127   5.997   3.016   2.146
  410SOL     OW 2128   2.487   0.274   7.009
  410SOL    HW1 2129   2.486   0.198   0.055
  410SOL    HW2 2130   2.506   0.239   6.917
  411SOL     OW 2131   5.970   6.392   6.648
  411SOL    HW1 2132   5.889   6.400   6.706
  411SOL    HW2 2133   6.008   6.483   6.630
  412SOL     OW 2134   4.566   0.077   3.255
  412SOL    HW1 2135   4.630   0.109   3.325
  412SOL    HW2 2136   4.609   0.084   3.165
  413SOL     OW 2137   4.194   4.466   1.319
  413SOL    HW1 2138   4.124   4.508   1.377
  413SOL    HW2 2139   4.275   4.446   1.375
  414SOL     OW 2140   4.210   5.339   2.843
  414SOL    HW1 2141   4.196   5.384   2.755
  414SOL    HW2 2142   4.217   5.240   2.829
  415SOL     OW 2143   1.213   6.047   0.539
  415SOL    HW1 2144   1.164   5.982   0.482
  415SOL    HW2 2145   1.186   6.140   0.515
  416SOL     OW 2146   4.257   5.913   5.123
  416SOL    HW1 2147   4.222   5.875   5.209
  416SOL    HW2 2148   4.181   5.952   5.072
  417SOL     OW 2149   2.639   6.623   0.720
  417SOL    HW1 2150   2.539   6.615   0.719
  417SOL    HW2 2151   2.665   6.713   0.753
  418SOL     OW 2152   4.849   6.206   0.537
  418SOL    HW1 2153   4.911   6.189   0.461
  418SOL    HW2 2154   4.848   6.304   0.557
  419SOL     OW 2155   1.236   0.392   1.256
  419SOL    HW1 2156   1.177   0.320   1.220
  419SOL    HW2 2157   1.316   0.352   1.301
  420SOL     OW 2158   6.340   3.465   1.223
  420SOL    HW1 2159   6.323   3.507   1.134
  420SOL    HW2 2160   6.275   3.501   1.290
  421SOL     OW 2161   0.751   4.936   6.187
  421SOL    HW1 2162   0.764   5.033   6.165
  421SOL    HW2 2163   0.780   4.881   6.109
  422SOL     OW 2164   6.227   5.830   0.720
  422SOL    HW1 2165   6.211   5.751   0.779
  422SOL    HW2 2166   6.268   5.801   0.634
  423SOL     OW 2167   6.825   3.398   0.115
  423SOL    HW1 2168   6.912   3.445   0.119
  423SOL    HW2 2169   6.757   3.448   0.168
  424SOL     OW 2170   2.933   3.485   1.266
  424SOL    HW1 2171   3.009   3.549   1.257
  424SOL    HW2 2172   2.917   3.439   1.179
  425SOL     OW 2173   5.372   1.170   1.979
  425SOL    HW1 2174   5.280   1.179   2.016
  425SOL    HW2 2175   5.368   1.147   1.882
  426SOL     OW 2176   5.790   2.282   4.742
  426SOL    HW1 2177   5.782   2.245   4.650
  426SOL    HW2 2178   5.857   2.229   4.794
  427SOL     OW 2179   5.436   5.235   2.573
  427SOL    HW1 2180   5.494   5.305   2.615
  427SOL    HW2 2181   5.354   5.222   2.629
  428SOL     OW 2182   4.612   0.018   5.109
  428SOL    HW1 2183   4.695   7.008   5.061
  428SOL    HW2 2184   4.598   0.116   5.094
  429SOL     OW 2185   2.792   4.723   1.393
  429SOL    HW1 2186   2.851   4.650   1.427
  429SOL    HW2 2187   2.791   4.722   1.293
  430SOL     OW 2188   0.568   6.822   3.984
  430SOL    HW1 2189   0.497   6.832   3.915
  430SOL    HW2 2190   0.573   6.905   4.040
  431SOL     OW 2191   3.877   0.412   0.561
  431SOL    HW1 2192   3.893   0.314   0.565
  431SOL    HW2 2193   3.928   0.458   0.634
  432SOL     OW 2194   6.639   2.358   1.365
  432SOL    HW1 2195   6.613   2.262   1.375
  432SOL    HW2 2196   6.648   2.381   1.268
  433SOL     OW 2197   3.076   6.737   3.571
  433SOL    HW1 2198   3.155   6.692   3.530
  433SOL    HW2 2199   2.992   6.695   3.537
  434SOL     OW 2200   4.994   5.220   1.715
  434SOL    HW1 2201   4.923   5.207   1.646
  434SOL    HW2 2202   5.082   5.190   1.678
  435SOL     OW 2203   3.641   2.561   5.355
  435SOL    HW1 2204   3.601   2.593   5.441
  435SOL    HW2 2205   3.731   2.602   5.342
  436SOL     OW 2206   2.623   6.662   1.329
  436SOL    HW1 2207   2.603   6.566   1.312
  436SOL    HW2 2208   2.551   6.703   1.384
  437SOL     OW 2209   0.763   6.947   6.212
  437SOL    HW1 2210   0.819   6.923   6.292
  437SOL    HW2 2211   0.673   6.906   6.221
  438SOL     OW 2212   2.017   3.261   2.502
  438SOL    HW1 2213   2.085   3.188   2.508
  438SOL    HW2 2214   1.940   3.240   2.563
  439SOL     OW 2215   6.175   4.128   3.395
  439SOL    HW1 2216   6.255   4.072   3.374
  439SOL    HW2 2217   6.198   4.192   3.468
  440SOL     OW 2218   0.953   1.923   4.751
  440SOL    HW1 2219   0.941   1.995   4.820
  440SOL    HW2 2220   1.034   1.870   4.773
  441SOL     OW 2221   0.455   2.081   3.167
  441SOL    HW1 2222   0.429   2.143   3.093
  441SOL    HW2 2223   0.515   2.009   3.131
  442SOL     OW 2224   2.047   5.135   6.904
  442SOL    HW1 2225   2.107   5.063   6.869
  442SOL    HW2 2226   2.085   5.225   6.880
  443SOL     OW 2227   1.042   3.876   4.829
  443SOL    HW1 2228   0.956   3.920   4.855
  443SOL    HW2 2229   1.109   3.946   4.804
  444SOL     OW 2230   5.467   2.630   6.086
  444SOL    HW1 2231   5.475   2.531   6.074
  444SOL    HW2 2232   5.371   2.656   6.086
  445SOL     OW 2233   1.749   5.504   3.199
  445SOL    HW1 2234   1.840   5.535   3.226
  445SOL    HW2 2235   1.754   5.411   3.163
  446SOL     OW 2236   3.936   4.994   3.306
  446SOL    HW1 2237   4.019   5.011   3.359
  446SOL    HW2 2238   3.957   5.001   3.208
  447SOL     OW 2239   0.422   3.436   0.115
  447SOL    HW1 2240   0.414   3.382   0.031
  447SOL    HW2 2241   0.498   3.401   0.170
  448SOL     OW 2242   3.259   0.433   4.895
  448SOL    HW1 2243   3.169   0.425   4.852
  448SOL    HW2 2244   3.321   0.481   4.833
  449SOL     OW 2245   4.550   0.739   5.208
  449SOL    HW1 2246   4.548   0.660   5.270
  449SOL    HW2 2247   4.635   0.790   5.224
  450SOL     OW 2248   1.006   5.822   3.501
  450SOL    HW1 2249   1.001   5.725   3.477
  450SOL    HW2 2250   0.917   5.852   3.535
  451SOL     OW 2251   1.978   1.962   3.146
  451SOL    HW1 2252   2.002   2.052   3.111
  451SOL    HW2 2253   1.887   1.965   3.188
  452SOL     OW 2254   6.319   5.883   1.211
  452SOL    HW1 2255   6.247   5.911   1.275
  452SOL    HW2 2256   6.317   5.943   1.131
  453SOL     OW 2257   3.263   0.096   4.633
  453SOL    HW1 2258   3.179   0.044   4.622
  453SOL    HW2 2259   3.284   0.107   4.730
  454SOL     OW 2260   0.431   5.136   6.218
  454SOL    HW1 2261   0.382   5.212   6.176
  454SOL    HW2 2262   0.528   5.157   6.225
  455SOL     OW 2263   6.954   0.836   4.137
  455SOL    HW1 2264   0.026   0.848   4.176
  455SOL    HW2 2265   6.891   0.803   4.207
  456SOL     OW 2266   4.548   5.621   4.176
  456SOL    HW1 2267   4.545   5.533   4.127
  456SOL    HW2 2268   4.589   5.690   4.116
  457SOL     OW 2269   2.170   3.350   3.724
  457SOL    HW1 2270   2.169   3.435   3.777
  457SOL    HW2 2271   2.142   3.370   3.630
  458SOL     OW 2272   5.034   6.172   4.641
  458SOL    HW1 2273   4.937   6.151   4.648
  458SOL    HW2 2274   5.076   6.116   4.570
  459SOL     OW 2275   1.508   6.997   3.867
  459SOL    HW1 2276   1.437   6.935   3.901
  459SOL    HW2 2277   1.542   0.034   3.942
  460SOL     OW 2278   1.448   0.816   2.622
  460SOL    HW1 2279   1.414   0.909   2.636
  460SOL    HW2 2280   1.546   0.813   2.639
  461SOL     OW 2281   5.927   6.396   4.630
  461SOL    HW1 2282   5.952   6.341   4.710
  461SOL    HW2 2283   5.831   6.424   4.638
  462SOL     OW 2284   3.915   2.378   5.945
  462SOL    HW1 2285   4.010   2.348   5.935
  462SOL    HW2 2286   3.867   2.317   6.008
  463SOL     OW 2287   6.100   6.117   3.614
  463SOL    HW1 2288   6.049   6.034   3.592
  463SOL    HW2 2289   6.068   6.154   3.701
  464SOL     OW 2290   2.801   1.727   6.443
  464SOL    HW1 2291   2.842   1.813   6.473
  464SOL    HW2 2292   2.873   1.664   6.413
  465SOL     OW 2293   1.449   2.426   4.676
  465SOL    HW1 2294   1.388   2.505   4.682
  465SOL    HW2 2295   1.398   2.347   4.642
  466SOL     OW 2296   1.004   5.337   3.150
  466SOL    HW1 2297   0.919   5.330   3.097
  466SOL    HW2 2298   1.075   5.282   3.105
  467SOL     OW 2299   1.081   0.755   6.069
  467SOL    HW1 2300   1.151   0.820   6.098
  467SOL    HW2 2301   1.007   0.804   6.023
  468SOL     OW 2302   3.206   6.540   6.678
  468SOL    HW1 2303   3.117   6.552   6.635
  468SOL    HW2 2304   3.206   6.457   6.734
  469SOL     OW 2305   2.698   4.518   0.502
  469SOL    HW1 2306   2.733   4.543   0.592
  469SOL    HW2 2307   2.646   4.595   0.463
  470SOL     OW 2308   3.988   0.585   2.363
  470SOL    HW1 2309   3.967   0.627   2.451
  470SOL    HW2 2310   4.013   0.489   2.377
  471SOL     OW 2311   1.850   2.288   4.365
  471SOL    HW1 2312   1.908   2.369   4.366
  471SOL    HW2 2313   1.886   2.221   4.430
  472SOL     OW 2314   4.889   3.877   6.809
  472SOL    HW1 2315   4.887   3.805   6.878
  472SOL    HW2 2316   4.960   3.944   6.833
  473SOL     OW 2317   0.588   3.189   1.704
  473SOL    HW1 2318   0.639   3.193   1.790
  473SOL    HW2 2319   0.518   3.261   1.704
  474SOL     OW 2320   4.529   5.119   3.822
  474SOL    HW1 2321   4.442   5.164   3.842
  474SOL    HW2 2322   4.536   5.101   3.723
  475SOL     OW 2323   6.109   1.369   6.115
  475SOL    HW1 2324   6.078   1.366   6.020
  475SOL    HW2 2325   6.030   1.368   6.176
  476SOL     OW 2326   0.456   3.862   2.079
  476SOL    HW1 2327   0.523   3.935   2.090
  476SOL    HW2 2328   0.476   3.787   2.142
  477SOL     OW 2329   2.413   4.803   5.474
  477SOL    HW1 2330   2.372   4.760   5.393
  477SOL    HW2 2331   2.405   4.902   5.466
  478SOL     OW 2332   3.066   6.740   2.804
  478SOL    HW1 2333   3.062   6.794   2.720
  478SOL    HW2 2334   2.973   6.725   2.839
  479SOL     OW 2335   4.632   1.957   6.958
  479SOL    HW1 2336   4.605   1.955   6.862
  479SOL    HW2 2337   4.653   1.865   6.989
  480SOL     OW 2338   2.368   0.948   0.065
  480SOL    HW1 2339   2.347   0.888   7.006
  480SOL    HW2 2340   2.409   0.894   0.138
  481SOL     OW 2341   2.218   0.384   6.437
  481SOL    HW1 2342   2.207   0.400   6.535
  481SOL    HW2 2343   2.284   0.450   6.400
  482SOL     OW 2344   4.278   4.643   3.076
  482SOL    HW1 2345   4.282   4.594   3.163
  482SOL    HW2 2346   4.334   4.595   3.008
  483SOL     OW 2347   6.707   1.676   2.216
  483SOL    HW1 2348   6.806   1.680   2.226
  483SOL    HW2 2349   6.683   1.692   2.120
  484SOL     OW 2350   0.773   2.903   5.136
  484SOL    HW1 2351   0.756   2.988   5.085
  484SOL    HW2 2352   0.804   2.832   5.073
  485SOL     OW 2353   4.386   5.583   2.347
  485SOL    HW1 2354   4.405   5.485   2.340
  485SOL    HW2 2355   4.435   5.632   2.274
  486SOL     OW 2356   6.877   1.613   1.424
  486SOL    HW1 2357   6.942   1.634   1.351
  486SOL    HW2 2358   6.832   1.527   1.404
  487SOL     OW 2359   0.964   1.963   0.552
  487SOL    HW1 2360   1.049   1.962   0.500
  487SOL    HW2 2361   0.911   2.045   0.529
  488SOL     OW 2362   0.342   1.679   1.226
  488SOL    HW1 2363   0.413   1.706   1.291
  488SOL    HW2 2364   0.374   1.602   1.172
  489SOL     OW 2365   3.461   6.437   6.223
  489SOL    HW1 2366   3.488   6.365   6.159
  489SOL    HW2 2367   3.497   6.525   6.192
  490SOL     OW 2368   6.857   5.783   3.609
  490SOL    HW1 2369   6.827   5.695   3.646
  490SOL    HW2 2370   6.956   5.793   3.625
  491SOL     OW 2371   0.157   3.210   1.992
  491SOL    HW1 2372   0.153   3.193   2.091
  491SOL    HW2 2373   0.221   3.286   1.974
  492SOL     OW 2374   2.968   0.552   4.489
  492SOL    HW1 2375   3.002   0.558   4.583
  492SOL    HW2 2376   2.929   0.461   4.474
  493SOL     OW 2377   5.573   6.372   5.218
  493SOL    HW1 2378   5.563   6.286   5.168
  493SOL    HW2 2379   5.501   6.378   5.288
  494SOL     OW 2380   0.222   0.210   6.850
  494SOL    HW1 2381   0.228   0.278   6.923
  494SOL    HW2 2382   0.265   0.246   6.768
  495SOL     OW 2383   4.601   5.933   3.015
  495SOL    HW1 2384   4.541   6.008   2.986
  495SOL    HW2 2385   4.694   5.949   2.982
  496SOL     OW 2386   5.176   3.586   2.789
  496SOL    HW1 2387   5.151   3.491   2.772
  496SOL    HW2 2388   5.276   3.594   2.789
  497SOL     OW 2389   3.442   1.060   4.837
  497SOL    HW1 2390   3.470   0.970   4.870
  497SOL    HW2 2391   3.427   1.056   4.738
  498SOL     OW 2392   1.476   3.968   1.471
  498SOL    HW1 2393   1.480   4.039   1.542
  498SOL    HW2 2394   1.525   3.887   1.502
  499SOL     OW 2395   3.305   0.250   4.006
  499SOL    HW1 2396   3.331   0.255   3.910
  499SOL    HW2 2397   3.230   0.315   4.024
  500SOL     OW 2398   1.310   3.368   2.612
  500SOL    HW1 2399   1.384   3.341   2.674
  500SOL    HW2 2400   1.290   3.293   2.550
  501SOL     OW 2401   2.943   6.543   0.320
  501SOL    HW1 2402   2.887   6.461   0.320
  501SOL    HW2 2403   2.913   6.604   0.393
  502SOL     OW 2404   6.797   4.528   6.407
  502SOL    HW1 2405   6.792   4.508   6.505
  502SOL    HW2 2406   6.715   4.492   6.361
  503SOL     OW 2407   5.316   5.869   6.002
  503SOL    HW1 2408   5.365   5.827   5.926
  503SOL    HW2 2409   5.328   5.814   6.085
  504SOL     OW 2410   2.358   5.223   2.975
  504SOL    HW1 2411   2.312   5.282   2.909
  504SOL    HW2 2412   2.407   5.280   3.041
  505SOL     OW 2413   3.535   6.329   5.224
  505SOL    HW1 2414   3.535   6.232   5.248
  505SOL    HW2 2415   3.452   6.351   5.172
  506SOL     OW 2416   1.267   5.121   4.761
  506SOL    HW1 2417   1.217   5.193   4.810
  506SOL    HW2 2418   1.363   5.147   4.752
  507SOL     OW 2419   2.928   0.734   3.405
  507SOL    HW1 2420   2.975   0.817   3.434
  507SOL    HW2 2421   2.836   0.732   3.444
  508SOL     OW 2422   6.342   3.560   2.363
  508SOL    HW1 2423   6.278   3.599   2.429
  508SOL    HW2 2424   6.435   3.570   2.399
  509SOL     OW 2425   2.729   1.216   1.398
  509SOL    HW1 2426   2.826   1.232   1.416
  509SOL    HW2 2427   2.715   1.202   1.300
  510SOL     OW 2428   6.644   4.726   6.202
  510SOL    HW1 2429   6.607   4.633   6.194
  510SOL    HW2 2430   6.732   4.731   6.156
  511SOL     OW 2431   7.017   6.961   6.716
  511SOL    HW1 2432   0.054   6.893   6.764
  511SOL    HW2 2433   0.046   6.991   6.633
  512SOL     OW 2434   0.466   3.201   0.428
  512SOL    HW1 2435   0.468   3.180   0.526
  512SOL    HW2 2436   0.379   3.171   0.389
  513SOL     OW 2437   5.617   6.238   2.968
  513SOL    HW1 2438   5.665   6.213   3.052
  513SOL    HW2 2439   5.522   6.206   2.974
  514SOL     OW 2440   6.934   2.677   3.589
  514SOL    HW1 2441   6.845   2.696   3.548
  514SOL    HW2 2442   6.952   2.579   3.586
  515SOL     OW 2443   2.116   1.093   6.252
  515SOL    HW1 2444   2.117   1.116   6.349
  515SOL    HW2 2445   2.042   1.142   6.207
  516SOL     OW 2446   2.657   4.274   1.691
  516SOL    HW1 2447   2.558   4.291   1.698
  516SOL    HW2 2448   2.704   4.328   1.761
  517SOL     OW 2449   4.865   5.870   1.903
  517SOL    HW1 2450   4.897   5.962   1.880
  517SOL    HW2 2451   4.890   5.848   1.997
  518SOL     OW 2452   2.828   2.326   2.508
  518SOL    HW1 2453   2.915   2.360   2.545
  518SOL    HW2 2454   2.846   2.270   2.427
  519SOL     OW 2455   0.830   1.134   4.454
  519SOL    HW1 2456   0.794   1.044   4.430
  519SOL    HW2 2457   0.863   1.133   4.549
  520SOL     OW 2458   6.161   4.911   0.006
  520SOL    HW1 2459   6.088   4.861   0.053
  520SOL    HW2 2460   6.249   4.884   0.045
  521SOL     OW 2461   6.433   3.515   6.479
  521SOL    HW1 2462   6.420   3.507   6.578
  521SOL    HW2 2463   6.352   3.479   6.432
  522SOL     OW 2464   3.538   3.706   5.508
  522SOL    HW1 2465   3.505   3.630   5.451
  522SOL    HW2 2466   3.498   3.791   5.475
  523SOL     OW 2467   0.741   4.714   2.140
  523SOL    HW1 2468   0.805   4.787   2.163
  523SOL    HW2 2469   0.695   4.736   2.054
  524SOL     OW 2470   1.694   0.769   6.783
  524SOL    HW1 2471   1.753   0.805   6.711
  524SOL    HW2 2472   1.599   0.793   6.764
  525SOL     OW 2473   2.805   4.018   6.956
  525SOL    HW1 2474   2.709   4.004   6.979
  525SOL    HW2 2475   2.845   3.931   6.924
  526SOL     OW 2476   3.658   0.018   3.985
  526SOL    HW1 2477   3.600   6.979   4.042
  526SOL    HW2 2478   3.669   6.993   3.895
  527SOL     OW 2479   6.105   3.236   6.165
  527SOL    HW1 2480   6.149   3.149   6.188
  527SOL    HW2 2481   6.035   3.221   6.096
  528SOL     OW 2482   0.861   2.031   4.216
  528SOL    HW1 2483   0.908   1.953   4.260
  528SOL    HW2 2484   0.922   2.110   4.216
  529SOL     OW 2485   0.904   6.159   4.464
  529SOL    HW1 2486   0.993   6.159   4.509
  529SOL    HW2 2487   0.842   6.221   4.513
  530SOL     OW 2488   2.443   2.973   5.455
  530SOL    HW1 2489   2.440   2.988   5.356
  530SOL    HW2 2490   2.454   2.875   5.474
  531SOL     OW 2491   0.083   0.449   1.561
  531SOL    HW1 2492   0.106   0.359   1.523
  531SOL    HW2 2493   0.057   0.511   1.488
  532SOL     OW 2494   1.156   2.361   6.781
  532SOL    HW1 2495   1.202   2.272   6.788
  532SOL    HW2 2496   1.218   2.433   6.814
  533SOL     OW 2497   3.816   6.398   4.046
  533SOL    HW1 2498   3.770   6.480   4.013
  533SOL    HW2 2499   3.775   6.317   4.005
  534SOL     OW 2500   5.492   5.071   3.261
  534SOL    HW1 2501   5.537   5.082   3.172
  534SOL    HW2 2502   5.468   4.975   3.274
  535SOL     OW 2503   0.726   3.632   4.676
  535SOL    HW1 2504   0.698   3.645   4.581
  535SOL    HW2 2505   0.813   3.679   4.691
  536SOL     OW 2506   0.444   4.701   2.191
  536SOL    HW1 2507   0.543   4.714   2.200
  536SOL    HW2 2508   0.426   4.631   2.122
  537SOL     OW 2509   1.631   6.096   3.575
  537SOL    HW1 2510   1.541   6.133   3.600
  537SOL    HW2 2511   1.699   6.169   3.578
  538SOL     OW 2512   2.035   4.704   3.590
  538SOL    HW1 2513   2.085   4.783   3.627
  538SOL    HW2 2514   1.998   4.728   3.500
  539SOL     OW 2515   0.661   6.026   0.348
  539SOL    HW1 2516   0.743   6.069   0.311
  539SOL    HW2 2517   0.583   6.048   0.289
  540SOL     OW 2518   6.708   0.993   1.692
  540SOL    HW1 2519   6.680   1.055   1.766
  540SOL    HW2 2520   6.701   0.898   1.724
  541SOL     OW 2521   2.862   6.541   4.449
  541SOL    HW1 2522   2.961   6.539   4.436
  541SOL    HW2 2523   2.828   6.448   4.463
  542SOL     OW 2524   6.697   0.403   0.088
  542SOL    HW1 2525   6.730   0.321   0.135
  542SOL    HW2 2526   6.603   0.423   0.116
  543SOL     OW 2527   0.990   5.518   4.860
  543SOL    HW1 2528   0.991   5.575   4.943
  543SOL    HW2 2529   0.908   5.539   4.807
  544SOL     OW 2530   2.010   4.137   0.815
  544SOL    HW1 2531   1.954   4.205   0.863
  544SOL    HW2 2532   2.103   4.173   0.803
  545SOL     OW 2533   3.360   1.309   3.480
  545SOL    HW1 2534   3.435   1.344   3.535
  545SOL    HW2 2535   3.302   1.385   3.450
  546SOL     OW 2536   1.628   3.188   0.331
  546SOL    HW1 2537   1.643   3.277   0.374
  546SOL    HW2 2538   1.710   3.132   0.339
  547SOL     OW 2539   2.702   1.395   6.295
  547SOL    HW1 2540   2.792   1.430   6.270
  547SOL    HW2 2541   2.643   1.470   6.323
  548SOL     OW 2542   3.795   3.050   2.529
  548SOL    HW1 2543   3.859   3.087   2.596
  548SOL    HW2 2544   3.843   3.035   2.442
  549SOL     OW 2545   4.619   3.203   1.462
  549SOL    HW1 2546   4.677   3.180   1.383
  549SOL    HW2 2547   4.533   3.243   1.430
  550SOL     OW 2548   6.973   4.462   3.364
  550SOL    HW1 2549   0.047   4.450   3.328
  550SOL    HW2 2550   6.931   4.543   3.323
  551SOL     OW 2551   0.061   1.278   1.188
  551SOL    HW1 2552   0.114   1.236   1.115
  551SOL    HW2 2553   0.120   1.296   1.267
  552SOL     OW 2554   4.736   5.192   0.794
  552SOL    HW1 2555   4.664   5.255   0.763
  552SOL    HW2 2556   4.710   5.098   0.772
  553SOL     OW 2557   2.222   0.178   1.882
  553SOL    HW1 2558   2.130   0.137   1.883
  553SOL    HW2 2559   2.291   0.106   1.888
  554SOL     OW 2560   4.960   6.405   6.060
  554SOL    HW1 2561   4.880   6.463   6.050
  554SOL    HW2 2562   4.938   6.328   6.121
  555SOL     OW 2563   2.060   5.492   4.308
  555SOL    HW1 2564   2.121   5.554   4.358
  555SOL    HW2 2565   2.112   5.413   4.276
  556SOL     OW 2566   6.083   2.416   4.273
  556SOL    HW1 2567   5.999   2.431   4.221
  556SOL    HW2 2568   6.127   2.503   4.293
  557SOL     OW 2569   0.651   5.305   6.685
  557SOL    HW1 2570   0.631   5.393   6.642
  557SOL    HW2 2571   0.663   5.318   6.783
  558SOL     OW 2572   3.283   3.835   4.306
  558SOL    HW1 2573   3.355   3.855   4.373
  558SOL    HW2 2574   3.318   3.850   4.214
  559SOL     OW 2575   6.133   6.612   6.911
  559SOL    HW1 2576   6.040   6.598   6.879
  559SOL    HW2 2577   6.197   6.569   6.847
  560SOL     OW 2578   4.035   6.431   0.580
  560SOL    HW1 2579   4.029   6.464   0.675
  560SOL    HW2 2580   4.001   6.337   0.576
  561SOL     OW 2581   6.690   0.263   6.658
  561SOL    HW1 2582   6.611   0.313   6.624
  561SOL    HW2 2583   6.761   0.327   6.688
  562SOL     OW 2584   4.758   0.399   6.596
  562SOL    HW1 2585   4.805   0.440   6.517
  562SOL    HW2 2586   4.663   0.428   6.596
  563SOL     OW 2587   2.585   0.425   3.317
  563SOL    HW1 2588   2.572   0.326   3.321
  563SOL    HW2 2589   2.569   0.457   3.224
  564SOL     OW 2590   2.621   2.346   6.169
  564SOL    HW1 2591   2.590   2.433   6.207
  564SOL    HW2 2592   2.591   2.339   6.073
  565SOL     OW 2593   4.326   3.240   5.414
  565SOL    HW1 2594   4.241   3.219   5.462
  565SOL    HW2 2595   4.304   3.287   5.329
  566SOL     OW 2596   5.259   3.903   3.446
  566SOL    HW1 2597   5.214   3.936   3.529
  566SOL    HW2 2598   5.357   3.921   3.453
  567SOL     OW 2599   2.897   3.515   3.104
  567SOL    HW1 2600   2.942   3.532   3.191
  567SOL    HW2 2601   2.902   3.417   3.082
  568SOL     OW 2602   3.570   2.756   1.143
  568SOL    HW1 2603   3.565   2.741   1.242
  568SOL    HW2 2604   3.544   2.671   1.096
  569SOL     OW 2605   2.067   3.041   0.330
  569SOL    HW1 2606   2.024   3.120   0.285
  569SOL    HW2 2607   2.003   2.964   0.330
  570SOL     OW 2608   2.060   6.270   5.777
  570SOL    HW1 2609   2.080   6.367   5.764
  570SOL    HW2 2610   1.967   6.250   5.746
  571SOL     OW 2611   3.597   0.022   2.718
  571SOL    HW1 2612   3.550   0.108   2.736
  571SOL    HW2 2613   3.625   7.000   2.805
  572SOL     OW 2614   2.852   5.072   6.003
  572SOL    HW1 2615   2.790   5.114   6.070
  572SOL    HW2 2616   2.849   5.124   5.918
  573SOL     OW 2617   4.027   2.044   5.176
  573SOL    HW1 2618   4.075   2.122   5.217
  573SOL    HW2 2619   4.009   2.064   5.080
  574SOL     OW 2620   2.270   2.181   3.679
  574SOL    HW1 2621   2.266   2.230   3.766
  574SOL    HW2 2622   2.254   2.244   3.604
  575SOL     OW 2623   6.009   3.989   6.064
  575SOL    HW1 2624   6.024   4.072   6.010
  575SOL    HW2 2625   5.978   3.916   6.004
  576SOL     OW 2626   1.431   2.275   1.868
  576SOL    HW1 2627   1.353   2.287   1.929
  576SOL    HW2 2628   1.484   2.360   1.864
  577SOL     OW 2629   2.109   1.385   3.379
  577SOL    HW1 2630   2.207   1.372   3.398
  577SOL    HW2 2631   2.058   1.384   3.465
  578SOL     OW 2632   6.721   3.085   3.560
  578SOL    HW1 2633   6.754   3.042   3.645
  578SOL    HW2 2634   6.628   3.052   3.541
  579SOL     OW 2635   3.257   2.190   0.960
  579SOL    HW1 2636   3.259   2.186   1.060
  579SOL    HW2 2637   3.350   2.198   0.925
  580SOL     OW 2638   0.744   4.520   6.636
  580SOL    HW1 2639   0.706   4.474   6.555
  580SOL    HW2 2640   0.670   4.552   6.695
  581SOL     OW 2641   3.186   3.441   2.958
  581SOL    HW1 2642   3.159   3.526   2.912
  581SOL    HW2 2643   3.125   3.424   3.035
  582SOL     OW 2644   5.152   5.234   2.670
  582SOL    HW1 2645   5.079   5.218   2.602
  582SOL    HW2 2646   5.151   5.160   2.737
  583SOL     OW 2647   2.978   4.929   6.581
  583SOL    HW1 2648   3.020   4.839   6.564
  583SOL    HW2 2649   3.035   5.000   6.539
  584SOL     OW 2650   0.986   5.548   5.562
  584SOL    HW1 2651   0.990   5.631   5.618
  584SOL    HW2 2652   0.893   5.512   5.563
  585SOL     OW 2653   6.687   2.725   6.194
  585SOL    HW1 2654   6.728   2.808   6.158
  585SOL    HW2 2655   6.587   2.734   6.193
  586SOL     OW 2656   3.606   0.108   0.333
  586SOL    HW1 2657   3.646   0.158   0.410
  586SOL    HW2 2658   3.581   0.172   0.261
  587SOL     OW 2659   2.011   2.294   5.451
  587SOL    HW1 2660   1.945   2.364   5.480
  587SOL    HW2 2661   1.962   2.221   5.404
  588SOL     OW 2662   3.162   6.396   1.008
  588SOL    HW1 2663   3.098   6.364   0.938
  588SOL    HW2 2664   3.195   6.318   1.061
  589SOL     OW 2665   3.790   5.171   2.204
  589SOL    HW1 2666   3.876   5.196   2.250
  589SOL    HW2 2667   3.753   5.088   2.247
  590SOL     OW 2668   6.726   3.024   1.731
  590SOL    HW1 2669   6.826   3.036   1.729
  590SOL    HW2 2670   6.690   3.034   1.638
  591SOL     OW 2671   3.721   6.881   3.760
  591SOL    HW1 2672   3.677   6.901   3.672
  591SOL    HW2 2673   3.770   6.794   3.754
  592SOL     OW 2674   4.093   0.549   0.861
  592SOL    HW1 2675   4.120   0.455   0.844
  592SOL    HW2 2676   4.087   0.599   0.775
  593SOL     OW 2677   4.554   2.111   3.540
  593SOL    HW1 2678   4.630   2.164   3.578
  593SOL    HW2 2679   4.581   2.015   3.534
  594SOL     OW 2680   4.210   3.247   6.718
  594SOL    HW1 2681   4.296   3.214   6.677
  594SOL    HW2 2682   4.188   3.190   6.797
  595SOL     OW 2683   4.595   6.455   4.118
  595SOL    HW1 2684   4.614   6.455   4.216
  595SOL    HW2 2685   4.680   6.476   4.068
  596SOL     OW 2686   1.173   4.080   1.421
  596SOL    HW1 2687   1.193   4.156   1.359
  596SOL    HW2 2688   1.216   3.996   1.387
  597SOL     OW 2689   4.669   6.993   5.707
  597SOL    HW1 2690   4.578   6.954   5.719
  597SOL    HW2 2691   4.661   0.064   5.664
  598SOL     OW 2692   3.529   4.119   0.483
  598SOL    HW1 2693   3.508   4.207   0.525
  598SOL    HW2 2694   3.579   4.061   0.547
  599SOL     OW 2695   0.476   0.835   3.065
  599SOL    HW1 2696   0.558   0.782   3.045
  599SOL    HW2 2697   0.421   0.845   2.982
  600SOL     OW 2698   0.758   0.019   0.828
  600SOL    HW1 2699   0.758   6.941   0.851
  600SOL    HW2 2700   0.847   0.045   0.792
  601SOL     OW 2701   3.176   6.269   3.146
  601SOL    HW1 2702   3.212   6.358   3.119
  601SOL    HW2 2703   3.178   6.206   3.068
  602SOL     OW 2704   0.549   1.209   0.523
  602SOL    HW1 2705   0.633   1.169   0.486
  602SOL    HW2 2706   0.471   1.183   0.467
  603SOL     OW 2707   3.995   1.897   4.037
  603SOL    HW1 2708   4.063   1.850   3.982
  603SOL    HW2 2709   4.001   1.865   4.132
  604SOL     OW 2710   0.697   3.326   0.733
  604SOL    HW1 2711   0.739   3.237   0.750
  604SOL    HW2 2712   0.601   3.313   0.706
  605SOL     OW 2713   6.863   5.482   3.195
  605SOL    HW1 2714   6.858   5.428   3.112
  605SOL    HW2 2715   6.956   5.479   3.232
  606SOL     OW 2716   5.060   0.809   5.727
  606SOL    HW1 2717   5.013   0.749   5.661
  606SOL    HW2 2718   5.153   0.777   5.740
  607SOL     OW 2719   5.585   0.957   4.304
  607SOL    HW1 2720   5.628   0.915   4.384
  607SOL    HW2 2721   5.565   0.885   4.237
  608SOL     OW 2722   3.150   6.770   0.534
  608SOL    HW1 2723   3.195   6.703   0.476
  608SOL    HW2 2724   3.122   6.848   0.479
  609SOL     OW 2725   3.744   3.267   4.586
  609SOL    HW1 2726   3.695   3.194   4.633
  609SOL    HW2 2727   3.840   3.267   4.614
  610SOL     OW 2728   5.772   2.103   2.931
  610SOL    HW1 2729   5.841   2.082   2.862
  610SOL    HW2 2730   5.810   2.168   2.996
  611SOL     OW 2731   0.847   0.231   6.799
  611SOL    HW1 2732   0.822   0.325   6.776
  611SOL    HW2 2733   0.769   0.186   6.843
  612SOL     OW 2734   3.299   5.749   5.951
  612SOL    HW1 2735   3.388   5.750   5.907
  612SOL    HW2 2736   3.258   5.841   5.947
  613SOL     OW 2737   4.585   1.074   5.446
  613SOL    HW1 2738   4.669   1.092   5.498
  613SOL    HW2 2739   4.512   1.133   5.480
  614SOL     OW 2740   5.744   5.002   1.115
  614SOL    HW1 2741   5.828   4.965   1.076
  614SOL    HW2 2742   5.750   5.102   1.119
  615SOL     OW 2743   1.066   0.581   6.706
  615SOL    HW1 2744   0.985   0.541   6.749
  615SOL    HW2 2745   1.062   0.681   6.712
  616SOL     OW 2746   5.979   1.751   3.867
  616SOL    HW1 2747   5.958   1.706   3.780
  616SOL    HW2 2748   5.979   1.850   3.854
  617SOL     OW 2749   0.354   4.257   6.848
  617SOL    HW1 2750   0.419   4.182   6.835
  617SOL    HW2 2751   0.272   4.241   6.793
  618SOL     OW 2752   5.765   3.650   1.193
  618SOL    HW1 2753   5.741   3.743   1.219
  618SOL    HW2 2754   5.728   3.586   1.261
  619SOL     OW 2755   3.502   6.879   6.708
  619SOL    HW1 2756   3.600   6.871   6.690
  619SOL    HW2 2757   3.460   6.789   6.705
  620SOL     OW 2758   5.786   3.431   1.522
  620SOL    HW1 2759   5.707   3.408   1.578
  620SOL    HW2 2760   5.828   3.515   1.555
  621SOL     OW 2761   2.582   0.066   5.056
  621SOL    HW1 2762   2.676   0.053   5.087
  621SOL    HW2 2763   2.529   0.113   5.127
  622SOL     OW 2764   0.847   2.408   5.283
  622SOL    HW1 2765   0.803   2.492   5.314
  622SOL    HW2 2766   0.850   2.407   5.183
  623SOL     OW 2767   6.309   6.716   5.240
  623SOL    HW1 2768   6.380   6.774   5.199
  623SOL    HW2 2769   6.219   6.750   5.214
  624SOL     OW 2770   6.690   1.468   6.804
  624SOL    HW1 2771   6.774   1.418   6.821
  624SOL    HW2 2772   6.624   1.449   6.876
  625SOL     OW 2773   1.940   0.939   0.131
  625SOL    HW1 2774   1.968   0.900   0.219
  625SOL    HW2 2775   1.973   1.033   0.125
  626SOL     OW 2776   1.185   5.326   2.944
  626SOL    HW1 2777   1.257   5.383   2.982
  626SOL    HW2 2778   1.149   5.368   2.861
  627SOL     OW 2779   6.638   5.931   0.049
  627SOL    HW1 2780   6.596   5.902   6.982
  627SOL    HW2 2781   6.738   5.935   0.038
  628SOL     OW 2782   5.786   3.942   4.759
  628SOL    HW1 2783   5.714   3.904   4.817
  628SOL    HW2 2784   5.776   3.907   4.666
  629SOL     OW 2785   0.331   1.195   0.394
  629SOL    HW1 2786   0.247   1.141   0.405
  629SOL    HW2 2787   0.317   1.264   0.323
  630SOL     OW 2788   6.315   1.310   0.653
  630SOL    HW1 2789   6.328   1.230   0.711
  630SOL    HW2 2790   6.219   1.337   0.654
  631SOL     OW 2791   2.920   2.100   4.704
  631SOL    HW1 2792   2.948   2.077   4.797
  631SOL    HW2 2793   2.873   2.021   4.663
  632SOL     OW 2794   4.610   2.713   0.286
  632SOL    HW1 2795   4.647   2.624   0.314
  632SOL    HW2 2796   4.669   2.786   0.322
  633SOL     OW 2797   2.210   4.917   0.979
  633SOL    HW1 2798   2.258   4.925   1.066
  633SOL    HW2 2799   2.116   4.946   0.990
  634SOL     OW 2800   3.417   3.375   3.194
  634SOL    HW1 2801   3.516   3.370   3.186
  634SOL    HW2 2802   3.374   3.322   3.121
  635SOL     OW 2803   4.728   0.341   6.839
  635SOL    HW1 2804   4.660   0.271   6.860
  635SOL    HW2 2805   4.740   0.348   6.740
  636SOL     OW 2806   3.666   0.412   5.016
  636SOL    HW1 2807   3.601   0.484   5.038
  636SOL    HW2 2808   3.669   0.397   4.918
  637SOL     OW 2809   5.894   1.655   2.625
  637SOL    HW1 2810   5.863   1.564   2.601
  637SOL    HW2 2811   5.890   1.714   2.545
  638SOL     OW 2812   5.773   3.548   3.860
  638SOL    HW1 2813   5.863   3.506   3.872
  638SOL    HW2 2814   5.782   3.647   3.852
  639SOL     OW 2815   5.325   4.554   3.375
  639SOL    HW1 2816   5.370   4.480   3.325
  639SOL    HW2 2817   5.365   4.642   3.348
  640SOL     OW 2818   0.253   3.665   3.580
  640SOL    HW1 2819   0.174   3.703   3.532
  640SOL    HW2 2820   0.336   3.687   3.529
  641SOL     OW 2821   1.378   4.824   5.401
  641SOL    HW1 2822   1.348   4.839   5.496
  641SOL    HW2 2823   1.458   4.765   5.400
  642SOL     OW 2824   1.370   3.106   4.477
  642SOL    HW1 2825   1.469   3.102   4.463
  642SOL    HW2 2826   1.332   3.184   4.427
  643SOL     OW 2827   6.911   6.682   6.957
  643SOL    HW1 2828   6.999   6.676   7.005
  643SOL    HW2 2829   6.881   6.591   6.930
  644SOL     OW 2830   0.906   0.636   4.488
  644SOL    HW1 2831   0.913   0.622   4.389
  644SOL    HW2 2832   0.829   0.696   4.509
  645SOL     OW 2833   3.437   4.880   3.062
  645SOL    HW1 2834   3.392   4.794   3.084
  645SOL    HW2 2835   3.462   4.928   3.146
  646SOL     OW 2836   4.100   0.808   4.709
  646SOL    HW1 2837   4.094   0.793   4.610
  646SOL    HW2 2838   4.018   0.855   4.740
  647SOL     OW 2839   5.072   1.856   4.915
  647SOL    HW1 2840   5.000   1.904   4.964
  647SOL    HW2 2841   5.074   1.887   4.819
  648SOL     OW 2842   6.467   2.890   3.217
  648SOL    HW1 2843   6.504   2.899   3.124
  648SOL    HW2 2844   6.372   2.858   3.212
  649SOL     OW 2845   2.063   4.713   6.915
  649SOL    HW1 2846   2.027   4.626   6.880
  649SOL    HW2 2847   2.010   4.742   6.994
  650SOL     OW 2848   6.678   5.415   0.528
  650SOL    HW1 2849   6.667   5.514   0.521
  650SOL    HW2 2850   6.776   5.392   0.527
  651SOL     OW 2851   1.985   0.672   5.872
  651SOL    HW1 2852   2.045   0.609   5.920
  651SOL    HW2 2853   1.948   0.739   5.936
  652SOL     OW 2854   4.106   6.548   1.789
  652SOL    HW1 2855   4.040   6.619   1.762
  652SOL    HW2 2856   4.075   6.459   1.757
  653SOL     OW 2857   0.650   6.691   0.284
  653SOL    HW1 2858   0.704   6.607   0.298
  653SOL    HW2 2859   0.557   6.666   0.259
  654SOL     OW 2860   6.961   6.501   5.985
  654SOL    HW1 2861   6.904   6.554   5.922
  654SOL    HW2 2862   6.919   6.412   6.002
  655SOL     OW 2863   7.004   5.486   1.904
  655SOL    HW1 2864   7.012   5.398   1.858
  655SOL    HW2 2865   0.075   5.528   1.912
  656SOL     OW 2866   2.325   6.295   0.973
  656SOL    HW1 2867   2.415   6.324   1.006
  656SOL    HW2 2868   2.271   6.374   0.946
  657SOL     OW 2869   2.990   3.299   1.501
  657SOL    HW1 2870   2.917   3.317   1.567
  657SOL    HW2 2871   3.008   3.382   1.448
  658SOL     OW 2872   1.700   4.246   4.849
  658SOL    HW1 2873   1.732   4.335   4.882
  658SOL    HW2 2874   1.778   4.186   4.833
  659SOL     OW 2875   3.185   5.481   4.991
  659SOL    HW1 2876   3.129   5.415   4.941
  659SOL    HW2 2877   3.219   5.439   5.075
  660SOL     OW 2878   4.859   5.476   2.328
  660SOL    HW1 2879   4.813   5.477   2.417
  660SOL    HW2 2880   4.948   5.522   2.336
  661SOL     OW 2881   4.969   4.020   4.755
  661SOL    HW1 2882   5.006   3.936   4.794
  661SOL    HW2 2883   4.890   3.998   4.698
  662SOL     OW 2884   4.153   2.223   6.500
  662SOL    HW1 2885   4.053   2.225   6.495
  662SOL    HW2 2886   4.182   2.134   6.535
  663SOL     OW 2887   0.492   4.815   6.690
  663SOL    HW1 2888   0.501   4.909   6.655
  663SOL    HW2 2889   0.508   4.815   6.789
  664SOL     OW 2890   1.779   5.354   0.095
  664SOL    HW1 2891   1.789   5.313   0.004
  664SOL    HW2 2892   1.685   5.342   0.126
  665SOL     OW 2893   4.456   5.657   1.383
  665SOL    HW1 2894   4.431   5.683   1.476
  665SOL    HW2 2895   4.461   5.557   1.376
  666SOL     OW 2896   3.454   1.515   0.341
  666SOL    HW1 2897   3.516   1.591   0.360
  666SOL    HW2 2898   3.417   1.525   0.249
  667SOL     OW 2899   0.512   2.789   4.056
  667SOL    HW1 2900   0.584   2.724   4.033
  667SOL    HW2 2901   0.465   2.818   3.973
  668SOL     OW 2902   4.356   5.755   6.758
  668SOL    HW1 2903   4.310   5.692   6.821
  668SOL    HW2 2904   4.296   5.833   6.739
  669SOL     OW 2905   1.479   6.671   3.048
  669SOL    HW1 2906   1.396   6.638   3.094
  669SOL    HW2 2907   1.552   6.604   3.058
  670SOL     OW 2908   2.913   3.691   2.913
  670SOL    HW1 2909   2.932   3.635   2.832
  670SOL    HW2 2910   2.897   3.631   2.991
  671SOL     OW 2911   2.413   5.928   5.872
  671SOL    HW1 2912   2.493   5.960   5.822
  671SOL    HW2 2913   2.394   5.833   5.847
  672SOL     OW 2914   1.396   3.527   3.765
  672SOL    HW1 2915   1.450   3.611   3.766
  672SOL    HW2 2916   1.402   3.484   3.675
  673SOL     OW 2917   4.450   6.981   6.667
  673SOL    HW1 2918   4.427   0.058   6.649
  673SOL    HW2 2919   4.540   6.961   6.627
  674SOL     OW 2920   0.321   2.967   4.151
  674SOL    HW1 2921   0.260   2.960   4.230
  674SOL    HW2 2922   0.387   2.892   4.152
  675SOL     OW 2923   1.012   2.101   5.036
  675SOL    HW1 2924   1.100   2.143   5.058
  675SOL    HW2 2925   0.956   2.166   4.985
  676SOL     OW 2926   3.176   4.846   4.332
  676SOL    HW1 2927   3.208   4.797   4.251
  676SOL    HW2 2928   3.078   4.834   4.343
  677SOL     OW 2929   5.842   0.661   0.204
  677SOL    HW1 2930   5.806   0.706   0.123
  677SOL    HW2 2931   5.792   0.693   0.285
  678SOL     OW 2932   2.699   1.595   5.150
  678SOL    HW1 2933   2.609   1.625   5.181
  678SOL    HW2 2934   2.760   1.586   5.229
  679SOL     OW 2935   4.176   1.502   4.432
  679SOL    HW1 2936   4.115   1.488   4.509
  679SOL    HW2 2937   4.141   1.454   4.352
  680SOL     OW 2938   5.836   4.598   5.764
  680SOL    HW1 2939   5.906   4.638   5.823
  680SOL    HW2 2940   5.751   4.651   5.773
  681SOL     OW 2941   6.586   6.671   0.993
  681SOL    HW1 2942   6.670   6.654   1.046
  681SOL    HW2 2943   6.605   6.656   0.896
  682SOL     OW 2944   2.317   6.865   6.303
  682SOL    HW1 2945   2.375   6.789   6.275
  682SOL    HW2 2946   2.296   6.857   6.400
  683SOL     OW 2947   3.390   0.344   5.843
  683SOL    HW1 2948   3.432   0.434   5.830
  683SOL    HW2 2949   3.330   0.324   5.765
  684SOL     OW 2950   6.612   1.328   6.207
  684SOL    HW1 2951   6.615   1.419   6.248
  684SOL    HW2 2952   6.614   1.336   6.107
  685SOL     OW 2953   4.850   0.681   5.565
  685SOL    HW1 2954   4.844   0.586   5.534
  685SOL    HW2 2955   4.777   0.699   5.631
  686SOL     OW 2956   5.969   3.243   3.490
  686SOL    HW1 2957   5.952   3.273   3.583
  686SOL    HW2 2958   6.067   3.231   3.476
  687SOL     OW 2959   6.781   3.258   6.542
  687SOL    HW1 2960   6.813   3.167   6.569
  687SOL    HW2 2961   6.729   3.299   6.617
  688SOL     OW 2962   2.116   3.506   0.160
  688SOL    HW1 2963   2.153   3.423   0.119
  688SOL    HW2 2964   2.189   3.558   0.203
  689SOL     OW 2965   1.276   4.517   5.505
  689SOL    HW1 2966   1.244   4.608   5.481
  689SOL    HW2 2967   1.199   4.453   5.507
  690SOL     OW 2968   0.901   3.248   3.103
  690SOL    HW1 2969   0.938   3.206   3.186
  690SOL    HW2 2970   0.952   3.215   3.023
  691SOL     OW 2971   2.241   2.078   6.456
  691SOL    HW1 2972   2.220   2.110   6.548
  691SOL    HW2 2973   2.293   2.149   6.407
  692SOL     OW 2974   3.054   0.041   3.485
  692SOL    HW1 2975   3.003   0.043   3.399
  692SOL    HW2 2976   2.998   0.077   3.559
  693SOL     OW 2977   6.671   1.395   3.619
  693SOL    HW1 2978   6.664   1.416   3.522
  693SOL    HW2 2979   6.752   1.440   3.657
  694SOL     OW 2980   3.874   5.729   1.935
  694SOL    HW1 2981   3.918   5.747   1.847
  694SOL    HW2 2982   3.944   5.713   2.004
  695SOL     OW 2983   4.427   5.060   4.813
  695SOL    HW1 2984   4.518   5.041   4.777
  695SOL    HW2 2985   4.435   5.110   4.899
  696SOL     OW 2986   2.858   5.131   2.296
  696SOL    HW1 2987   2.896   5.161   2.383
  696SOL    HW2 2988   2.890   5.191   2.223
  697SOL     OW 2989   1.324   2.730   5.951
  697SOL    HW1 2990   1.254   2.793   5.918
  697SOL    HW2 2991   1.288   2.677   6.027
  698SOL     OW 2992   5.811   0.171   4.526
  698SOL    HW1 2993   5.744   0.197   4.595
  698SOL    HW2 2994   5.778   0.091   4.476
  699SOL     OW 2995   1.389   4.640   0.380
  699SOL    HW1 2996   1.442   4.561   0.410
  699SOL    HW2 2997   1.326   4.612   0.308
  700SOL     OW 2998   2.859   2.052   3.474
  700SOL    HW1 2999   2.904   2.132   3.434
  700SOL    HW2 3000   2.886   2.044   3.570
  701SOL     OW 3001   1.295   4.803   6.741
  701SOL    HW1 3002   1.308   4.767   6.649
  701SOL    HW2 3003   1.199   4.832   6.752
  702SOL     OW 3004   5.660   6.187   5.785
  702SOL    HW1 3005   5.701   6.268   5.743
  702SOL    HW2 3006   5.619   6.212   5.873
  703SOL     OW 3007   4.241   3.407   0.103
  703SOL    HW1 3008   4.298   3.413   0.185
  703SOL    HW2 3009   4.298   3.385   0.024
  704SOL     OW 3010   1.488   1.097   6.141
  704SOL    HW1 3011   1.554   1.069   6.210
  704SOL    HW2 3012   1.504   1.192   6.116
  705SOL     OW 3013   4.550   0.080   3.740
  705SOL    HW1 3014   4.645   0.049   3.745
  705SOL    HW2 3015   4.542   0.170   3.781
  706SOL     OW 3016   4.267   1.640   3.625
  706SOL    HW1 3017   4.199   1.590   3.678
  706SOL    HW2 3018   4.283   1.594   3.538
  707SOL     OW 3019   4.439   0.081   2.201
  707SOL    HW1 3020   4.461   0.037   2.289
  707SOL    HW2 3021   4.521   0.082   2.143
  708SOL     OW 3022   4.496   7.004   1.094
  708SOL    HW1 3023   4.556   7.008   1.013
  708SOL    HW2 3024   4.404   6.977   1.066
  709SOL     OW 3025   1.386   5.187   0.749
  709SOL    HW1 3026   1.306   5.208   0.693
  709SOL    HW2 3027   1.359   5.131   0.827
  710SOL     OW 3028   3.546   3.985   2.913
  710SOL    HW1 3029   3.627   4.013   2.863
  710SOL    HW2 3030   3.510   4.063   2.965
  711SOL     OW 3031   0.366   2.268   5.994
  711SOL    HW1 3032   0.304   2.248   5.918
  711SOL    HW2 3033   0.313   2.298   6.073
  712SOL     OW 3034   1.394   4.244   1.013
  712SOL    HW1 3035   1.412   4.198   0.926
  712SOL    HW2 3036   1.412   4.181   1.089
  713SOL     OW 3037   3.317   4.152   1.157
  713SOL    HW1 3038   3.260   4.202   1.222
  713SOL    HW2 3039   3.298   4.054   1.165
  714SOL     OW 3040   5.871   4.105   5.707
  714SOL    HW1 3041   5.773   4.116   5.724
  714SOL    HW2 3042   5.911   4.194   5.683
  715SOL     OW 3043   5.037   5.961   0.011
  715SOL    HW1 3044   5.114   5.947   6.969
  715SOL    HW2 3045   5.016   6.059   0.017
  716SOL     OW 3046   1.006   5.463   1.262
  716SOL    HW1 3047   0.910   5.481   1.285
  716SOL    HW2 3048   1.054   5.430   1.342
  717SOL     OW 3049   6.287   4.953   6.366
  717SOL    HW1 3050   6.252   4.860   6.382
  717SOL    HW2 3051   6.352   4.951   6.290
  718SOL     OW 3052   3.822   2.453   6.569
  718SOL    HW1 3053   3.762   2.403   6.632
  718SOL    HW2 3054   3.839   2.396   6.488
  719SOL     OW 3055   6.458   2.275   1.869
  719SOL    HW1 3056   6.481   2.307   1.777
  719SOL    HW2 3057   6.542   2.252   1.918
  720SOL     OW 3058   2.468   1.955   5.415
  720SOL    HW1 3059   2.436   1.952   5.510
  720SOL    HW2 3060   2.392   1.933   5.354
  721SOL     OW 3061   1.777   0.782   4.695
  721SOL    HW1 3062   1.773   0.875   4.731
  721SOL    HW2 3063   1.794   0.718   4.771
  722SOL     OW 3064   4.250   6.708   5.043
  722SOL    HW1 3065   4.325   6.736   5.102
  722SOL    HW2 3066   4.268   6.739   4.949
  723SOL     OW 3067   2.195   2.808   1.958
  723SOL    HW1 3068   2.096   2.797   1.966
  723SOL    HW2 3069   2.240   2.779   2.043
  724SOL     OW 3070   1.679   1.860   5.358
  724SOL    HW1 3071   1.582   1.860   5.381
  724SOL    HW2 3072   1.702   1.944   5.310
  725SOL     OW 3073   2.562   4.935   1.951
  725SOL    HW1 3074   2.615   4.987   2.017
  725SOL    HW2 3075   2.541   4.844   1.988
  726SOL     OW 3076   3.869   4.580   0.319
  726SOL    HW1 3077   3.951   4.569   0.263
  726SOL    HW2 3078   3.856   4.676   0.341
  727SOL     OW 3079   4.114   6.125   4.312
  727SOL    HW1 3080   4.187   6.180   4.271
  727SOL    HW2 3081   4.025   6.162   4.283
  728SOL     OW 3082   6.877   3.974   5.226
  728SOL    HW1 3083   6.904   3.890   5.180
  728SOL    HW2 3084   6.955   4.010   5.279
  729SOL     OW 3085   2.416   0.404   0.427
  729SOL    HW1 3086   2.463   0.417   0.340
  729SOL    HW2 3087   2.318   0.412   0.414
  730SOL     OW 3088   5.774   0.631   3.518
  730SOL    HW1 3089   5.724   0.713   3.489
  730SOL    HW2 3090   5.726   0.588   3.594
  731SOL     OW 3091   5.526   3.309   5.961
  731SOL    HW1 3092   5.487   3.387   6.011
  731SOL    HW2 3093   5.511   3.225   6.012
  732SOL     OW 3094   0.657   3.767   0.825
  732SOL    HW1 3095   0.641   3.684   0.878
  732SOL    HW2 3096   0.696   3.743   0.736
  733SOL     OW 3097   5.862   4.171   4.405
  733SOL    HW1 3098   5.785   4.117   4.371
  733SOL    HW2 3099   5.899   4.226   4.331
  734SOL     OW 3100   6.886   4.999   2.340
  734SOL    HW1 3101   6.863   5.057   2.418
  734SOL    HW2 3102   6.907   4.907   2.371
  735SOL     OW 3103   2.920   2.710   0.837
  735SOL    HW1 3104   2.906   2.611   0.836
  735SOL    HW2 3105   2.889   2.749   0.750
  736SOL     OW 3106   6.808   6.772   2.954
  736SOL    HW1 3107   6.800   6.857   2.903
  736SOL    HW2 3108   6.891   6.723   2.925
  737SOL     OW 3109   4.927   3.306   1.100
  737SOL    HW1 3110   4.934   3.349   1.010
  737SOL    HW2 3111   4.902   3.375   1.168
  738SOL     OW 3112   1.622   4.838   4.181
  738SOL    HW1 3113   1.688   4.912   4.172
  738SOL    HW2 3114   1.628   4.778   4.101
  739SOL     OW 3115   4.967   6.304   5.812
  739SOL    HW1 3116   4.962   6.330   5.908
  739SOL    HW2 3117   5.009   6.378   5.759
  740SOL     OW 3118   5.362   0.442   0.581
  740SOL    HW1 3119   5.311   0.359   0.602
  740SOL    HW2 3120   5.313   0.496   0.512
  741SOL     OW 3121   1.712   6.381   3.457
  741SOL    HW1 3122   1.790   6.335   3.414
  741SOL    HW2 3123   1.627   6.342   3.421
  742SOL     OW 3124   2.372   0.184   2.166
  742SOL    HW1 3125   2.393   0.212   2.072
  742SOL    HW2 3126   2.358   0.085   2.168
  743SOL     OW 3127   1.847   4.298   4.464
  743SOL    HW1 3128   1.846   4.207   4.422
  743SOL    HW2 3129   1.757   4.317   4.503
  744SOL     OW 3130   6.806   6.820   6.477
  744SOL    HW1 3131   6.774   6.814   6.382
  744SOL    HW2 3132   6.768   6.902   6.519
  745SOL     OW 3133   1.142   6.510   3.851
  745SOL    HW1 3134   1.227   6.505   3.798
  745SOL    HW2 3135   1.133   6.428   3.908
  746SOL     OW 3136   0.134   6.757   5.060
  746SOL    HW1 3137   0.101   6.830   5.001
  746SOL    HW2 3138   0.063   6.733   5.126
  747SOL     OW 3139   4.264   5.027   4.108
  747SOL    HW1 3140   4.265   4.945   4.050
  747SOL    HW2 3141   4.181   5.026   4.164
  748SOL     OW 3142   4.332   5.078   2.562
  748SOL    HW1 3143   4.261   5.144   2.535
  748SOL    HW2 3144   4.421   5.109   2.528
  749SOL     OW 3145   6.968   3.281   5.028
  749SOL    HW1 3146   6.975   3.191   4.985
  749SOL    HW2 3147   6.993   3.352   4.961
  750SOL     OW 3148   1.918   3.049   0.616
  750SOL    HW1 3149   1.938   3.057   0.518
  750SOL    HW2 3150   1.839   3.106   0.639
  751SOL     OW 3151   3.890   1.823   6.223
  751SOL    HW1 3152   3.813   1.885   6.236
  751SOL    HW2 3153   3.864   1.750   6.160
  752SOL     OW 3154   4.701   2.404   2.064
  752SOL    HW1 3155   4.620   2.373   2.015
  752SOL    HW2 3156   4.679   2.488   2.115
  753SOL     OW 3157   2.053   3.177   4.271
  753SOL    HW1 3158   2.068   3.186   4.173
  753SOL    HW2 3159   1.960   3.207   4.294
  754SOL     OW 3160   5.718   3.481   6.720
  754SOL    HW1 3161   5.714   3.558   6.784
  754SOL    HW2 3162   5.626   3.462   6.686
  755SOL     OW 3163   1.079   5.842   6.868
  755SOL    HW1 3164   1.152   5.894   6.822
  755SOL    HW2 3165   1.076   5.749   6.831
  756SOL     OW 3166   4.856   6.895   1.007
  756SOL    HW1 3167   4.844   6.992   0.986
  756SOL    HW2 3168   4.938   6.883   1.063
  757SOL     OW 3169   0.780   6.098   3.399
  757SOL    HW1 3170   0.739   6.089   3.490
  757SOL    HW2 3171   0.717   6.062   3.330
  758SOL     OW 3172   3.945   1.116   1.667
  758SOL    HW1 3173   3.959   1.051   1.592
  758SOL    HW2 3174   3.850   1.149   1.664
  759SOL     OW 3175   6.931   1.312   0.458
  759SOL    HW1 3176   6.838   1.281   0.437
  759SOL    HW2 3177   6.929   1.409   0.481
  760SOL     OW 3178   4.296   1.469   6.610
  760SOL    HW1 3179   4.325   1.502   6.520
  760SOL    HW2 3180   4.308   1.541   6.678
  761SOL     OW 3181   5.121   3.604   6.916
  761SOL    HW1 3182   5.028   3.631   6.943
  761SOL    HW2 3183   5.164   3.679   6.866
  762SOL     OW 3184   2.280   5.788   3.325
  762SOL    HW1 3185   2.282   5.731   3.243
  762SOL    HW2 3186   2.221   5.867   3.310
  763SOL     OW 3187   4.036   5.447   6.643
  763SOL    HW1 3188   4.132   5.446   6.615
  763SOL    HW2 3189   4.014   5.534   6.685
  764SOL     OW 3190   4.417   0.027   4.165
  764SOL    HW1 3191   4.436   7.007   4.075
  764SOL    HW2 3192   4.494   0.084   4.194
  765SOL     OW 3193   1.507   6.315   1.123
  765SOL    HW1 3194   1.481   6.260   1.201
  765SOL    HW2 3195   1.514   6.257   1.042
  766SOL     OW 3196   0.163   1.863   6.866
  766SOL    HW1 3197   0.075   1.841   6.826
  766SOL    HW2 3198   0.181   1.802   6.943
  767SOL     OW 3199   1.280   6.370   2.074
  767SOL    HW1 3200   1.192   6.402   2.040
  767SOL    HW2 3201   1.330   6.325   2.000
  768SOL     OW 3202   1.899   0.711   2.493
  768SOL    HW1 3203   1.869   0.624   2.533
  768SOL    HW2 3204   1.892   0.707   2.394
  769SOL     OW 3205   3.016   6.502   4.185
  769SOL    HW1 3206   3.097   6.446   4.202
  769SOL    HW2 3207   3.037   6.571   4.117
  770SOL     OW 3208   2.021   4.344   3.180
  770SOL    HW1 3209   2.103   4.291   3.158
  770SOL    HW2 3210   1.984   4.313   3.267
  771SOL     OW 3211   1.950   5.440   2.534
  771SOL    HW1 3212   1.979   5.445   2.438
  771SOL    HW2 3213   1.986   5.357   2.576
  772SOL     OW 3214   6.436   5.045   0.758
  772SOL    HW1 3215   6.388   5.117   0.808
  772SOL    HW2 3216   6.374   5.000   0.694
  773SOL     OW 3217   0.590   3.477   3.704
  773SOL    HW1 3218   0.562   3.498   3.610
  773SOL    HW2 3219   0.662   3.407   3.703
  774SOL     OW 3220   1.053   1.820   1.957
  774SOL    HW1 3221   1.019   1.903   1.914
  774SOL    HW2 3222   1.136   1.840   2.008
  775SOL     OW 3223   1.371   2.451   3.686
  775SOL    HW1 3224   1.389   2.391   3.765
  775SOL    HW2 3225   1.416   2.539   3.701
  776SOL     OW 3226   6.788   0.676   6.404
  776SOL    HW1 3227   6.887   0.659   6.394
  776SOL    HW2 3228   6.770   0.714   6.494
  777SOL     OW 3229   3.430   0.086   1.011
  777SOL    HW1 3230   3.431   0.116   0.915
  777SOL    HW2 3231   3.345   0.037   1.030
  778SOL     OW 3232   3.585   1.382   3.591
  778SOL    HW1 3233   3.659   1.323   3.559
  778SOL    HW2 3234   3.623   1.470   3.619
  779SOL     OW 3235   0.871   1.853   2.947
  779SOL    HW1 3236   0.956   1.888   2.909
  779SOL    HW2 3237   0.871   1.753   2.944
  780SOL     OW 3238   6.037   3.342   4.738
  780SOL    HW1 3239   5.962   3.370   4.796
  780SOL    HW2 3240   6.036   3.396   4.653
  781SOL     OW 3241   6.055   1.074   5.959
  781SOL    HW1 3242   6.113   1.074   5.878
  781SOL    HW2 3243   6.094   1.134   6.028
  782SOL     OW 3244   1.463   4.173   0.211
  782SOL    HW1 3245   1.507   4.098   0.161
  782SOL    HW2 3246   1.385   4.207   0.159
  783SOL     OW 3247   3.939   4.375   0.678
  783SOL    HW1 3248   3.864   4.390   0.613
  783SOL    HW2 3249   3.937   4.446   0.749
  784SOL     OW 3250   5.446   0.171   5.564
  784SOL    HW1 3251   5.500   0.139   5.641
  784SOL    HW2 3252   5.354   0.195   5.595
  785SOL     OW 3253   6.539   2.070   3.166
  785SOL    HW1 3254   6.579   1.988   3.208
  785SOL    HW2 3255   6.554   2.067   3.067
  786SOL     OW 3256   0.752   0.355   0.650
  786SOL    HW1 3257   0.697   0.324   0.728
  786SOL    HW2 3258   0.701   0.425   0.600
  787SOL     OW 3259   3.028   1.418   6.106
  787SOL    HW1 3260   2.991   1.328   6.080
  787SOL    HW2 3261   3.093   1.448   6.035
  788SOL     OW 3262   2.443   2.620   4.871
  788SOL    HW1 3263   2.476   2.545   4.814
  788SOL    HW2 3264   2.519   2.658   4.924
  789SOL     OW 3265   5.810   4.261   1.563
  789SOL    HW1 3266   5.756   4.316   1.499
  789SOL    HW2 3267   5.804   4.164   1.537
  790SOL     OW 3268   2.313   1.468   4.189
  790SOL    HW1 3269   2.334   1.378   4.226
  790SOL    HW2 3270   2.260   1.520   4.256
  791SOL     OW 3271   3.637   0.363   3.780
  791SOL    HW1 3272   3.685   0.446   3.750
  791SOL    HW2 3273   3.647   0.353   3.879
  792SOL     OW 3274   6.865   0.021   1.263
  792SOL    HW1 3275   6.924   6.973   1.217
  792SOL    HW2 3276   6.899   0.113   1.246
  793SOL     OW 3277   4.456   6.581   2.283
  793SOL    HW1 3278   4.473   6.502   2.226
  793SOL    HW2 3279   4.440   6.662   2.226
  794SOL     OW 3280   2.261   3.816   5.316
  794SOL    HW1 3281   2.299   3.843   5.404
  794SOL    HW2 3282   2.309   3.862   5.242
  795SOL     OW 3283   2.759   5.336   4.925
  795SOL    HW1 3284   2.755   5.239   4.902
  795SOL    HW2 3285   2.840   5.353   4.981
  796SOL     OW 3286   0.504   2.537   6.303
  796SOL    HW1 3287   0.588   2.520   6.252
  796SOL    HW2 3288   0.466   2.450   6.335
  797SOL     OW 3289   5.357   2.822   2.401
  797SOL    HW1 3290   5.428   2.888   2.428
  797SOL    HW2 3291   5.320   2.848   2.312
  798SOL     OW 3292   4.870   0.152   0.990
  798SOL    HW1 3293   4.795   0.213   0.965
  798SOL    HW2 3294   4.945   0.162   0.925
  799SOL     OW 3295   6.608   0.999   3.805
  799SOL    HW1 3296   6.700   0.998   3.844
  799SOL    HW2 3297   6.601   1.072   3.737
  800SOL     OW 3298   5.649   0.746   2.319
  800SOL    HW1 3299   5.659   0.710   2.411
  800SOL    HW2 3300   5.629   0.844   2.323
  801SOL     OW 3301   1.360   3.918   2.988
  801SOL    HW1 3302   1.426   3.974   3.039
  801SOL    HW2 3303   1.409   3.856   2.927
  802SOL     OW 3304   4.199   1.024   0.540
  802SOL    HW1 3305   4.235   1.112   0.570
  802SOL    HW2 3306   4.163   1.032   0.447
  803SOL     OW 3307   0.030   5.855   5.189
  803SOL    HW1 3308   7.000   5.773   5.219
  803SOL    HW2 3309   0.091   5.886   5.262
  804SOL     OW 3310   6.270   6.474   6.747
  804SOL    HW1 3311   6.220   6.389   6.730
  804SOL    HW2 3312   6.335   6.489   6.673
  805SOL     OW 3313   4.151   2.232   5.954
  805SOL    HW1 3314   4.143   2.195   5.861
  805SOL    HW2 3315   4.106   2.171   6.019
  806SOL     OW 3316   3.985   1.863   4.836
  806SOL    HW1 3317   4.069   1.852   4.782
  806SOL    HW2 3318   3.961   1.960   4.839
  807SOL     OW 3319   0.649   2.461   3.473
  807SOL    HW1 3320   0.630   2.478   3.376
  807SOL    HW2 3321   0.742   2.425   3.483
  808SOL     OW 3322   5.167   3.310   6.490
  808SOL    HW1 3323   5.189   3.407   6.486
  808SOL    HW2 3324   5.200   3.265   6.407
  809SOL     OW 3325   1.331   4.999   1.598
  809SOL    HW1 3326   1.236   4.972   1.610
  809SOL    HW2 3327   1.362   4.972   1.507
  810SOL     OW 3328   4.242   2.536   0.737
  810SOL    HW1 3329   4.189   2.454   0.757
  810SOL    HW2 3330   4.272   2.533   0.641
  811SOL     OW 3331   4.495   5.110   3.537
  811SOL    HW1 3332   4.399   5.120   3.510
  811SOL    HW2 3333   4.554   5.139   3.461
  812SOL     OW 3334   0.032   0.755   1.807
  812SOL    HW1 3335   0.035   0.847   1.766
  812SOL    HW2 3336   7.003   0.760   1.895
  813SOL     OW 3337   4.008   5.175   3.831
  813SOL    HW1 3338   3.948   5.240   3.877
  813SOL    HW2 3339   3.954   5.113   3.775
  814SOL     OW 3340   4.923   6.374   3.744
  814SOL    HW1 3341   5.010   6.418   3.767
  814SOL    HW2 3342   4.935   6.318   3.662
  815SOL     OW 3343   6.389   2.997   2.099
  815SOL    HW1 3344   6.436   3.051   2.170
  815SOL    HW2 3345   6.406   3.039   2.010
  816SOL     OW 3346   0.142   6.682   0.068
  816SOL    HW1 3347   0.233   6.643   0.054
  816SOL    HW2 3348   0.122   6.688   0.166
  817SOL     OW 3349   1.751   3.936   2.411
  817SOL    HW1 3350   1.839   3.965   2.374
  817SOL    HW2 3351   1.754   3.939   2.511
  818SOL     OW 3352   6.737   2.902   0.687
  818SOL    HW1 3353   6.753   2.896   0.785
  818SOL    HW2 3354   6.804   2.845   0.639
  819SOL     OW 3355   6.153   3.225   4.043
  819SOL    HW1 3356   6.230   3.209   4.106
  819SOL    HW2 3357   6.187   3.268   3.960
  820SOL     OW 3358   1.500   2.913   6.063
  820SOL    HW1 3359   1.443   2.839   6.100
  820SOL    HW2 3360   1.455   2.953   5.984
  821SOL     OW 3361   2.644   4.414   0.049
  821SOL    HW1 3362   2.616   4.507   0.069
  821SOL    HW2 3363   2.610   4.388   6.977
  822SOL     OW 3364   0.782   5.422   4.542
  822SOL    HW1 3365   0.747   5.490   4.607
  822SOL    HW2 3366   0.802   5.466   4.455
  823SOL     OW 3367   4.377   4.352   0.041
  823SOL    HW1 3368   4.317   4.276   0.015
  823SOL    HW2 3369   4.472   4.330   0.019
  824SOL     OW 3370   5.141   1.361   5.611
  824SOL    HW1 3371   5.202   1.283   5.599
  824SOL    HW2 3372   5.166   1.434   5.548
  825SOL     OW 3373   1.929   3.140   1.821
  825SOL    HW1 3374   2.023   3.174   1.830
  825SOL    HW2 3375   1.866   3.209   1.856
  826SOL     OW 3376   5.821   4.483   0.899
  826SOL    HW1 3377   5.790   4.400   0.944
  826SOL    HW2 3378   5.797   4.479   0.801
  827SOL     OW 3379   3.120   5.435   5.495
  827SOL    HW1 3380   3.052   5.505   5.472
  827SOL    HW2 3381   3.073   5.351   5.522
  828SOL     OW 3382   6.627   0.392   5.180
  828SOL    HW1 3383   6.581   0.461   5.126
  828SOL    HW2 3384   6.667   0.434   5.262
  829SOL     OW 3385   3.131   3.411   4.637
  829SOL    HW1 3386   3.095   3.347   4.705
  829SOL    HW2 3387   3.065   3.485   4.622
  830SOL     OW 3388   4.849   4.421   5.956
  830SOL    HW1 3389   4.864   4.520   5.950
  830SOL    HW2 3390   4.931   4.373   5.923
  831SOL     OW 3391   0.153   0.227   4.642
  831SOL    HW1 3392   0.135   0.219   4.544
  831SOL    HW2 3393   0.225   0.295   4.657
  832SOL     OW 3394   2.072   1.340   0.187
  832SOL    HW1 3395   2.128   1.326   0.269
  832SOL    HW2 3396   2.110   1.287   0.111
  833SOL     OW 3397   0.639   5.381   6.021
  833SOL    HW1 3398   0.638   5.329   5.935
  833SOL    HW2 3399   0.596   5.470   6.005
  834SOL     OW 3400   3.819   3.713   1.676
  834SOL    HW1 3401   3.793   3.801   1.716
  834SOL    HW2 3402   3.889   3.727   1.606
  835SOL     OW 3403   4.040   6.718   4.493
  835SOL    HW1 3404   4.078   6.631   4.462
  835SOL    HW2 3405   4.030   6.780   4.414
  836SOL     OW 3406   3.265   6.101   6.730
  836SOL    HW1 3407   3.194   6.150   6.780
  836SOL    HW2 3408   3.349   6.100   6.784
  837SOL     OW 3409   5.072   0.173   6.759
  837SOL    HW1 3410   5.007   0.134   6.824
  837SOL    HW2 3411   5.066   0.272   6.760
  838SOL     OW 3412   0.722   0.302   4.832
  838SOL    HW1 3413   0.685   0.323   4.742
  838SOL    HW2 3414   0.665   0.345   4.903
  839SOL     OW 3415   2.715   1.620   2.061
  839SOL    HW1 3416   2.714   1.560   1.981
  839SOL    HW2 3417   2.809   1.641   2.086
  840SOL     OW 3418   6.201   1.010   5.275
  840SOL    HW1 3419   6.158   0.951   5.207
  840SOL    HW2 3420   6.245   1.087   5.229
  841SOL     OW 3421   5.875   4.588   0.327
  841SOL    HW1 3422   5.776   4.603   0.337
  841SOL    HW2 3423   5.920   4.597   0.415
  842SOL     OW 3424   4.251   5.244   3.464
  842SOL    HW1 3425   4.308   5.293   3.398
  842SOL    HW2 3426   4.156   5.272   3.452
  843SOL     OW 3427   5.328   2.112   0.349
  843SOL    HW1 3428   5.340   2.021   0.387
  843SOL    HW2 3429   5.306   2.105   0.251
  844SOL     OW 3430   4.606   6.452   0.723
  844SOL    HW1 3431   4.600   6.440   0.822
  844SOL    HW2 3432   4.575   6.368   0.678
  845SOL     OW 3433   5.960   3.152   4.200
  845SOL    HW1 3434   5.989   3.065   4.241
  845SOL    HW2 3435   6.030   3.183   4.136
  846SOL     OW 3436   5.218   1.415   6.456
  846SOL    HW1 3437   5.206   1.318   6.478
  846SOL    HW2 3438   5.137   1.449   6.409
  847SOL     OW 3439   6.244   3.506   0.968
  847SOL    HW1 3440   6.166   3.561   0.997
  847SOL    HW2 3441   6.214   3.412   0.949
  848SOL     OW 3442   5.607   1.188   6.638
  848SOL    HW1 3443   5.666   1.221   6.564
  848SOL    HW2 3444   5.651   1.208   6.726
  849SOL     OW 3445   0.308   5.658   5.489
  849SOL    HW1 3446   0.321   5.643   5.392
  849SOL    HW2 3447   0.378   5.610   5.541
  850SOL     OW 3448   4.542   0.840   3.311
  850SOL    HW1 3449   4.516   0.909   3.379
  850SOL    HW2 3450   4.573   0.757   3.358
  851SOL     OW 3451   0.261   1.363   0.632
  851SOL    HW1 3452   0.320   1.302   0.579
  851SOL    HW2 3453   0.194   1.308   0.683
  852SOL     OW 3454   2.507   2.611   6.975
  852SOL    HW1 3455   2.525   2.706   6.951
  852SOL    HW2 3456   2.431   2.576   6.920
  853SOL     OW 3457   1.075   3.567   3.663
  853SOL    HW1 3458   1.151   3.630   3.679
  853SOL    HW2 3459   0.994   3.597   3.714
  854SOL     OW 3460   5.364   6.189   2.446
  854SOL    HW1 3461   5.281   6.241   2.466
  854SOL    HW2 3462   5.354   6.096   2.481
  855SOL     OW 3463   5.933   6.931   0.973
  855SOL    HW1 3464   5.886   6.880   1.045
  855SOL    HW2 3465   5.943   0.007   1.000
  856SOL     OW 3466   1.879   0.672   4.939
  856SOL    HW1 3467   1.782   0.660   4.961
  856SOL    HW2 3468   1.935   0.623   5.007
  857SOL     OW 3469   5.918   5.277   1.681
  857SOL    HW1 3470   5.909   5.231   1.593
  857SOL    HW2 3471   5.950   5.213   1.750
  858SOL     OW 3472   2.548   4.576   1.921
  858SOL    HW1 3473   2.497   4.569   2.007
  858SOL    HW2 3474   2.645   4.583   1.940
  859SOL     OW 3475   5.726   5.482   6.404
  859SOL    HW1 3476   5.797   5.412   6.395
  859SOL    HW2 3477   5.769   5.572   6.411
  860SOL     OW 3478   4.934   4.176   0.403
  860SOL    HW1 3479   4.872   4.098   0.413
  860SOL    HW2 3480   4.884   4.260   0.427
  861SOL     OW 3481   2.125   6.976   4.625
  861SOL    HW1 3482   2.117   6.966   4.725
  861SOL    HW2 3483   2.135   0.053   4.602
  862SOL     OW 3484   6.155   4.016   4.962
  862SOL    HW1 3485   6.243   3.969   4.960
  862SOL    HW2 3486   6.155   4.091   4.895
  863SOL     OW 3487   1.077   6.816   0.501
  863SOL    HW1 3488   1.104   6.733   0.451
  863SOL    HW2 3489   1.107   6.896   0.450
  864SOL     OW 3490   5.134   4.400   3.552
  864SOL    HW1 3491   5.181   4.472   3.502
  864SOL    HW2 3492   5.083   4.343   3.487
  865SOL     OW 3493   0.372   6.931   4.673
  865SOL    HW1 3494   0.425   7.015   4.684
  865SOL    HW2 3495   0.434   6.853   4.664
  866SOL     OW 3496   2.067   1.473   2.080
  866SOL    HW1 3497   2.090   1.443   2.173
  866SOL    HW2 3498   2.018   1.560   2.085
  867SOL     OW 3499   3.247   2.631   0.948
  867SOL    HW1 3500   3.197   2.660   0.867
  867SOL    HW2 3501   3.190   2.647   1.029
  868SOL     OW 3502   6.190   6.806   1.478
  868SOL    HW1 3503   6.272   6.826   1.533
  868SOL    HW2 3504   6.169   6.884   1.419
  869SOL     OW 3505   6.328   5.244   3.049
  869SOL    HW1 3506   6.232   5.253   3.076
  869SOL    HW2 3507   6.386   5.295   3.112
  870SOL     OW 3508   6.318   4.044   1.688
  870SOL    HW1 3509   6.324   4.047   1.788
  870SOL    HW2 3510   6.409   4.054   1.648
  871SOL     OW 3511   0.387   3.375   1.661
  871SOL    HW1 3512   0.337   3.425   1.590
  871SOL    HW2 3513   0.343   3.287   1.677
  872SOL     OW 3514   6.511   3.262   4.379
  872SOL    HW1 3515   6.503   3.223   4.287
  872SOL    HW2 3516   6.430   3.317   4.398
  873SOL     OW 3517   4.462   0.937   2.737
  873SOL    HW1 3518   4.477   0.900   2.645
  873SOL    HW2 3519   4.546   0.980   2.769
  874SOL     OW 3520   1.535   4.456   5.258
  874SOL    HW1 3521   1.552   4.408   5.344
  874SOL    HW2 3522   1.437   4.452   5.236
  875SOL     OW 3523   5.004   4.386   0.824
  875SOL    HW1 3524   4.995   4.464   0.762
  875SOL    HW2 3525   4.963   4.306   0.783
  876SOL     OW 3526   6.693   4.401   3.341
  876SOL    HW1 3527   6.662   4.377   3.249
  876SOL    HW2 3528   6.781   4.358   3.360
  877SOL     OW 3529   4.651   4.906   0.249
  877SOL    HW1 3530   4.727   4.902   0.185
  877SOL    HW2 3531   4.643   4.999   0.286
  878SOL     OW 3532   3.444   5.197   0.057
  878SOL    HW1 3533   3.470   5.268   7.011
  878SOL    HW2 3534   3.345   5.192   0.064
  879SOL     OW 3535   4.369   1.845   2.340
  879SOL    HW1 3536   4.449   1.903   2.325
  879SOL    HW2 3537   4.396   1.749   2.339
  880SOL     OW 3538   3.226   4.227   0.099
  880SOL    HW1 3539   3.207   4.287   0.021
  880SOL    HW2 3540   3.150   4.232   0.164
  881SOL     OW 3541   4.142   4.847   4.888
  881SOL    HW1 3542   4.125   4.937   4.928
  881SOL    HW2 3543   4.115   4.776   4.953
  882SOL     OW 3544   1.892   1.573   4.393
  882SOL    HW1 3545   1.907   1.644   4.463
  882SOL    HW2 3546   1.795   1.572   4.368
  883SOL     OW 3547   4.363   5.027   5.413
  883SOL    HW1 3548   4.280   5.054   5.461
  883SOL    HW2 3549   4.345   4.948   5.355
  884SOL     OW 3550   6.940   3.363   2.002
  884SOL    HW1 3551   0.010   3.318   1.995
  884SOL    HW2 3552   6.883   3.338   1.923
  885SOL     OW 3553   5.911   6.483   0.091
  885SOL    HW1 3554   5.883   6.540   0.014
  885SOL    HW2 3555   6.011   6.476   0.093
  886SOL     OW 3556   4.072   1.050   0.274
  886SOL    HW1 3557   4.043   0.982   0.207
  886SOL    HW2 3558   3.992   1.084   0.324
  887SOL     OW 3559   4.208   6.369   6.043
  887SOL    HW1 3560   4.211   6.389   6.141
  887SOL    HW2 3561   4.263   6.436   5.994
  888SOL     OW 3562   6.751   6.344   3.620
  888SOL    HW1 3563   6.847   6.362   3.598
  888SOL    HW2 3564   6.693   6.393   3.554
  889SOL     OW 3565   0.266   6.853   5.885
  889SOL    HW1 3566   0.179   6.880   5.842
  889SOL    HW2 3567   0.247   6.791   5.961
  890SOL     OW 3568   2.757   4.723   2.257
  890SOL    HW1 3569   2.806   4.809   2.262
  890SOL    HW2 3570   2.784   4.674   2.174
  891SOL     OW 3571   5.486   3.850   1.653
  891SOL    HW1 3572   5.405   3.875   1.600
  891SOL    HW2 3573   5.547   3.929   1.659
  892SOL     OW 3574   3.626   3.672   0.283
  892SOL    HW1 3575   3.560   3.623   0.226
  892SOL    HW2 3576   3.577   3.722   0.355
  893SOL     OW 3577   1.412   0.781   0.384
  893SOL    HW1 3578   1.359   0.813   0.462
  893SOL    HW2 3579   1.350   0.753   0.311
  894SOL     OW 3580   1.674   4.698   4.409
  894SOL    HW1 3581   1.647   4.752   4.330
  894SOL    HW2 3582   1.729   4.620   4.380
  895SOL     OW 3583   2.364   6.841   4.538
  895SOL    HW1 3584   2.370   6.742   4.552
  895SOL    HW2 3585   2.274   6.874   4.567
  896SOL     OW 3586   5.821   6.354   4.137
  896SOL    HW1 3587   5.822   6.263   4.177
  896SOL    HW2 3588   5.914   6.389   4.132
  897SOL     OW 3589   4.903   1.304   0.586
  897SOL    HW1 3590   4.960   1.252   0.523
  897SOL    HW2 3591   4.955   1.325   0.668
  898SOL     OW 3592   5.311   6.137   3.922
  898SOL    HW1 3593   5.342   6.042   3.933
  898SOL    HW2 3594   5.248   6.160   3.997
  899SOL     OW 3595   0.223   5.189   0.268
  899SOL    HW1 3596   0.280   5.258   0.312
  899SOL    HW2 3597   0.194   5.121   0.335
  900SOL     OW 3598   6.429   5.870   1.929
  900SOL    HW1 3599   6.406   5.874   2.026
  900SOL    HW2 3600   6.528   5.876   1.918
  901SOL     OW 3601   0.072   1.526   4.156
  901SOL    HW1 3602   0.027   1.474   4.229
  901SOL    HW2 3603   0.166   1.547   4.183
  902SOL     OW 3604   6.988   0.479   6.665
  902SOL    HW1 3605   7.007   0.406   6.600
  902SOL    HW2 3606   6.938   0.442   6.744
  903SOL     OW 3607   6.392   4.775   0.574
  903SOL    HW1 3608   6.378   4.695   0.515
  903SOL    HW2 3609   6.472   4.759   0.632
  904SOL     OW 3610   1.537   1.873   3.730
  904SOL    HW1 3611   1.588   1.886   3.645
  904SOL    HW2 3612   1.444   1.907   3.719
  905SOL     OW 3613   5.160   2.224   6.826
  905SOL    HW1 3614   5.144   2.311   6.781
  905SOL    HW2 3615   5.078   2.167   6.820
  906SOL     OW 3616   0.166   4.775   7.017
  906SOL    HW1 3617   0.106   4.855   0.004
  906SOL    HW2 3618   0.162   4.724   0.083
  907SOL     OW 3619   5.805   1.794   2.836
  907SOL    HW1 3620   5.846   1.752   2.755
  907SOL    HW2 3621   5.707   1.772   2.839
  908SOL     OW 3622   0.891   0.003   4.225
  908SOL    HW1 3623   0.909   0.089   4.272
  908SOL    HW2 3624   0.895   6.946   4.290
  909SOL     OW 3625   2.538   1.102   0.348
  909SOL    HW1 3626   2.531   1.002   0.344
  909SOL    HW2 3627   2.533   1.132   0.444
  910SOL     OW 3628   1.866   0.474   0.654
  910SOL    HW1 3629   1.962   0.495   0.669
  910SOL    HW2 3630   1.857   0.382   0.615
  911SOL     OW 3631   0.116   5.184   1.287
  911SOL    HW1 3632   0.151   5.097   1.254
  911SOL    HW2 3633   0.104   5.180   1.386
  912SOL     OW 3634   0.083   1.597   5.315
  912SOL    HW1 3635   0.001   1.652   5.298
  912SOL    HW2 3636   0.068   1.503   5.284
  913SOL     OW 3637   2.194   0.523   3.874
  913SOL    HW1 3638   2.168   0.429   3.897
  913SOL    HW2 3639   2.118   0.569   3.829
  914SOL     OW 3640   2.508   5.733   4.619
  914SOL    HW1 3641   2.598   5.759   4.586
  914SOL    HW2 3642   2.482   5.644   4.582
  915SOL     OW 3643   0.608   3.375   0.308
  915SOL    HW1 3644   0.700   3.338   0.318
  915SOL    HW2 3645   0.542   3.312   0.350
  916SOL     OW 3646   2.138   2.068   2.430
  916SOL    HW1 3647   2.144   1.974   2.396
  916SOL    HW2 3648   2.073   2.072   2.505
  917SOL     OW 3649   3.882   0.832   1.389
  917SOL    HW1 3650   3.824   0.789   1.320
  917SOL    HW2 3651   3.883   0.931   1.375
  918SOL     OW 3652   3.174   6.115   6.454
  918SOL    HW1 3653   3.187   6.105   6.552
  918SOL    HW2 3654   3.195   6.209   6.427
  919SOL     OW 3655   1.599   6.104   2.026
  919SOL    HW1 3656   1.526   6.158   2.069
  919SOL    HW2 3657   1.559   6.028   1.975
  920SOL     OW 3658   2.484   0.506   3.038
  920SOL    HW1 3659   2.427   0.424   3.034
  920SOL    HW2 3660   2.455   0.571   2.967
  921SOL     OW 3661   6.090   4.522   4.433
  921SOL    HW1 3662   6.118   4.486   4.344
  921SOL    HW2 3663   5.999   4.489   4.455
  922SOL     OW 3664   3.212   3.896   0.162
  922SOL    HW1 3665   3.302   3.908   0.205
  922SOL    HW2 3666   3.206   3.956   0.081
  923SOL     OW 3667   2.842   5.672   0.474
  923SOL    HW1 3668   2.792   5.592   0.441
  923SOL    HW2 3669   2.922   5.687   0.415
  924SOL     OW 3670   5.525   3.016   2.535
  924SOL    HW1 3671   5.571   3.028   2.622
  924SOL    HW2 3672   5.490   3.104   2.502
  925SOL     OW 3673   0.113   1.760   6.152
  925SOL    HW1 3674   0.068   1.835   6.200
  925SOL    HW2 3675   0.207   1.751   6.185
  926SOL     OW 3676   5.818   6.829   0.483
  926SOL    HW1 3677   5.786   6.857   0.574
  926SOL    HW2 3678   5.912   6.796   0.489
  927SOL     OW 3679   4.725   4.238   3.949
  927SOL    HW1 3680   4.725   4.235   3.849
  927SOL    HW2 3681   4.819   4.244   3.982
  928SOL     OW 3682   1.455   0.011   0.547
  928SOL    HW1 3683   1.438   6.989   0.457
  928SOL    HW2 3684   1.507   0.096   0.536
  929SOL     OW 3685   0.169   2.897   2.036
  929SOL    HW1 3686   0.170   2.958   2.115
  929SOL    HW2 3687   0.142   2.805   2.065
  930SOL     OW 3688   5.911   4.958   3.985
  930SOL    HW1 3689   5.851   5.029   3.948
  930SOL    HW2 3690   5.894   4.872   3.938
  931SOL     OW 3691   0.638   3.135   3.021
  931SOL    HW1 3692   0.610   3.196   2.947
  931SOL    HW2 3693   0.737   3.142   3.035
  932SOL     OW 3694   3.933   6.163   2.130
  932SOL    HW1 3695   3.861   6.136   2.066
  932SOL    HW2 3696   4.016   6.188   2.079
  933SOL     OW 3697   0.921   4.322   3.343
  933SOL    HW1 3698   0.990   4.269   3.393
  933SOL    HW2 3699   0.898   4.404   3.396
  934SOL     OW 3700   2.722   1.012   4.777
  934SOL    HW1 3701   2.691   1.106   4.789
  934SOL    HW2 3702   2.676   0.971   4.698
  935SOL     OW 3703   4.759   3.707   6.408
  935SOL    HW1 3704   4.761   3.801   6.375
  935SOL    HW2 3705   4.852   3.678   6.433
  936SOL     OW 3706   0.546   6.847   1.222
  936SOL    HW1 3707   0.580   6.849   1.316
  936SOL    HW2 3708   0.603   6.785   1.168
  937SOL     OW 3709   5.274   1.473   4.376
  937SOL    HW1 3710   5.311   1.409   4.309
  937SOL    HW2 3711   5.174   1.470   4.372
  938SOL     OW 3712   0.333   4.125   6.132
  938SOL    HW1 3713   0.346   4.195   6.202
  938SOL    HW2 3714   0.342   4.034   6.174
  939SOL     OW 3715   4.723   1.290   6.343
  939SOL    HW1 3716   4.682   1.376   6.313
  939SOL    HW2 3717   4.652   1.222   6.358
  940SOL     OW 3718   0.276   1.277   2.600
  940SOL    HW1 3719   0.251   1.365   2.560
  940SOL    HW2 3720   0.362   1.286   2.651
  941SOL     OW 3721   5.453   1.137   3.575
  941SOL    HW1 3722   5.358   1.113   3.558
  941SOL    HW2 3723   5.475   1.221   3.525
  942SOL     OW 3724   5.093   0.066   5.257
  942SOL    HW1 3725   5.129   0.024   5.173
  942SOL    HW2 3726   5.139   0.024   5.336
  943SOL     OW 3727   6.610   3.570   2.389
  943SOL    HW1 3728   6.667   3.633   2.441
  943SOL    HW2 3729   6.665   3.528   2.316
  944SOL     OW 3730   6.260   3.234   4.639
  944SOL    HW1 3731   6.264   3.245   4.540
  944SOL    HW2 3732   6.174   3.271   4.674
  945SOL     OW 3733   4.523   4.665   4.290
  945SOL    HW1 3734   4.470   4.650   4.374
  945SOL    HW2 3735   4.542   4.576   4.247
  946SOL     OW 3736   5.853   2.402   6.499
  946SOL    HW1 3737   5.949   2.399   6.471
  946SOL    HW2 3738   5.798   2.445   6.427
  947SOL     OW 3739   3.047   3.640   6.283
  947SOL    HW1 3740   3.022   3.736   6.267
  947SOL    HW2 3741   3.132   3.636   6.335
  948SOL     OW 3742   3.391   0.900   0.236
  948SOL    HW1 3743   3.307   0.871   0.191
  948SOL    HW2 3744   3.383   0.997   0.261
  949SOL     OW 3745   6.730   5.457   6.184
  949SOL    HW1 3746   6.790   5.497   6.253
  949SOL    HW2 3747   6.640   5.500   6.189
  950SOL     OW 3748   4.075   5.121   2.363
  950SOL    HW1 3749   4.081   5.025   2.335
  950SOL    HW2 3750   4.041   5.126   2.457
  951SOL     OW 3751   0.615   0.604   1.517
  951SOL    HW1 3752   0.686   0.610   1.588
  951SOL    HW2 3753   0.638   0.530   1.454
  952SOL     OW 3754   5.456   1.427   2.479
  952SOL    HW1 3755   5.474   1.330   2.494
  952SOL    HW2 3756   5.380   1.438   2.416
  953SOL     OW 3757   4.191   5.843   5.378
  953SOL    HW1 3758   4.223   5.779   5.448
  953SOL    HW2 3759   4.200   5.937   5.411
  954SOL     OW 3760   6.287   0.229   1.503
  954SOL    HW1 3761   6.211   0.239   1.438
  954SOL    HW2 3762   6.326   0.319   1.523
  955SOL     OW 3763   1.126   4.849   3.876
  955SOL    HW1 3764   1.079   4.934   3.856
  955SOL    HW2 3765   1.219   4.868   3.909
  956SOL     OW 3766   1.243   1.374   1.759
  956SOL    HW1 3767   1.203   1.449   1.811
  956SOL    HW2 3768   1.333   1.351   1.796
  957SOL     OW 3769   1.748   5.163   5.684
  957SOL    HW1 3770   1.676   5.161   5.753
  957SOL    HW2 3771   1.835   5.190   5.726
  958SOL     OW 3772   4.836   2.193   0.929
  958SOL    HW1 3773   4.752   2.213   0.980
  958SOL    HW2 3774   4.834   2.241   0.841
  959SOL     OW 3775   2.965   4.894   3.133
  959SOL    HW1 3776   2.971   4.863   3.228
  959SOL    HW2 3777   3.046   4.949   3.111
  960SOL     OW 3778   1.337   6.281   3.917
  960SOL    HW1 3779   1.255   6.258   3.969
  960SOL    HW2 3780   1.418   6.274   3.975
  961SOL     OW 3781   4.500   6.917   2.419
  961SOL    HW1 3782   4.489   6.990   2.487
  961SOL    HW2 3783   4.413   6.869   2.408
  962SOL     OW 3784   1.476   0.934   3.404
  962SOL    HW1 3785   1.574   0.953   3.400
  962SOL    HW2 3786   1.431   1.003   3.460
  963SOL     OW 3787   6.207   0.191   0.689
  963SOL    HW1 3788   6.181   0.283   0.718
  963SOL    HW2 3789   6.272   0.153   0.755
  964SOL     OW 3790   5.506   3.045   1.030
  964SOL    HW1 3791   5.567   2.985   1.082
  964SOL    HW2 3792   5.542   3.139   1.032
  965SOL     OW 3793   6.119   1.553   1.261
  965SOL    HW1 3794   6.027   1.516   1.275
  965SOL    HW2 3795   6.183   1.478   1.248
  966SOL     OW 3796   6.249   1.799   2.997
  966SOL    HW1 3797   6.174   1.740   2.968
  966SOL    HW2 3798   6.278   1.856   2.920
  967SOL     OW 3799   1.253   5.605   0.605
  967SOL    HW1 3800   1.337   5.659   0.598
  967SOL    HW2 3801   1.272   5.510   0.582
  968SOL     OW 3802   5.209   2.813   2.637
  968SOL    HW1 3803   5.245   2.811   2.544
  968SOL    HW2 3804   5.240   2.896   2.683
  969SOL     OW 3805   3.624   5.954   5.812
  969SOL    HW1 3806   3.680   5.901   5.747
  969SOL    HW2 3807   3.661   6.047   5.819
  970SOL     OW 3808   4.225   1.974   5.389
  970SOL    HW1 3809   4.176   1.985   5.302
  970SOL    HW2 3810   4.286   2.052   5.402
  971SOL     OW 3811   6.849   1.067   2.709
  971SOL    HW1 3812   6.873   1.007   2.632
  971SOL    HW2 3813   6.750   1.065   2.723
  972SOL     OW 3814   6.080   5.071   0.834
  972SOL    HW1 3815   5.999   5.102   0.784
  972SOL    HW2 3816   6.153   5.052   0.769
  973SOL     OW 3817   0.723   4.272   6.237
  973SOL    HW1 3818   0.728   4.368   6.264
  973SOL    HW2 3819   0.628   4.240   6.244
  974SOL     OW 3820   3.391   0.770   2.582
  974SOL    HW1 3821   3.438   0.825   2.650
  974SOL    HW2 3822   3.350   0.690   2.626
  975SOL     OW 3823   3.232   6.368   6.318
  975SOL    HW1 3824   3.326   6.396   6.305
  975SOL    HW2 3825   3.179   6.444   6.356
  976SOL     OW 3826   7.005   2.903   2.354
  976SOL    HW1 3827   6.933   2.852   2.305
  976SOL    HW2 3828   6.966   2.944   2.436
  977SOL     OW 3829   1.905   1.209   4.163
  977SOL    HW1 3830   1.931   1.299   4.130
  977SOL    HW2 3831   1.892   1.212   4.262
  978SOL     OW 3832   5.412   3.967   4.716
  978SOL    HW1 3833   5.335   3.909   4.688
  978SOL    HW2 3834   5.470   3.917   4.780
  979SOL     OW 3835   6.435   1.255   3.466
  979SOL    HW1 3836   6.402   1.297   3.382
  979SOL    HW2 3837   6.514   1.305   3.501
  980SOL     OW 3838   5.444   2.224   3.683
  980SOL    HW1 3839   5.445   2.301   3.746
  980SOL    HW2 3840   5.531   2.176   3.688
  981SOL     OW 3841   1.197   1.814   4.796
  981SOL    HW1 3842   1.273   1.868   4.831
  981SOL    HW2 3843   1.233   1.736   4.745
  982SOL     OW 3844   1.868   2.941   2.411
  982SOL    HW1 3845   1.799   2.886   2.364
  982SOL    HW2 3846   1.823   3.004   2.474
  983SOL     OW 3847   5.965   2.349   3.588
  983SOL    HW1 3848   5.993   2.334   3.493
  983SOL    HW2 3849   5.898   2.423   3.592
  984SOL     OW 3850   3.848   0.592   5.259
  984SOL    HW1 3851   3.865   0.623   5.165
  984SOL    HW2 3852   3.778   0.649   5.301
  985SOL     OW 3853   4.277   5.025   0.041
  985SOL    HW1 3854   4.350   4.960   0.024
  985SOL    HW2 3855   4.216   4.989   0.111
  986SOL     OW 3856   5.303   5.686   6.210
  986SOL    HW1 3857   5.362   5.751   6.260
  986SOL    HW2 3858   5.306   5.597   6.256
  987SOL     OW 3859   3.504   6.760   1.648
  987SOL    HW1 3860   3.584   6.734   1.703
  987SOL    HW2 3861   3.492   6.859   1.653
  988SOL     OW 3862   3.739   2.316   0.935
  988SOL    HW1 3863   3.791   2.345   0.855
  988SOL    HW2 3864   3.746   2.217   0.945
  989SOL     OW 3865   0.402   0.991   6.218
  989SOL    HW1 3866   0.389   1.074   6.272
  989SOL    HW2 3867   0.435   0.918   6.277
  990SOL     OW 3868   4.850   6.732   3.753
  990SOL    HW1 3869   4.829   6.723   3.655
  990SOL    HW2 3870   4.819   6.822   3.785
  991SOL     OW 3871   1.818   1.906   5.035
  991SOL    HW1 3872   1.911   1.922   5.068
  991SOL    HW2 3873   1.806   1.809   5.013
  992SOL     OW 3874   0.317   2.929   6.793
  992SOL    HW1 3875   0.237   2.984   6.767
  992SOL    HW2 3876   0.346   2.874   6.714
  993SOL     OW 3877   2.279   5.534   2.281
  993SOL    HW1 3878   2.196   5.523   2.228
  993SOL    HW2 3879   2.290   5.455   2.342
  994SOL     OW 3880   3.741   4.064   2.467
  994SOL    HW1 3881   3.741   3.985   2.406
  994SOL    HW2 3882   3.807   4.048   2.541
  995SOL     OW 3883   1.951   2.419   6.188
  995SOL    HW1 3884   2.044   2.384   6.199
  995SOL    HW2 3885   1.946   2.512   6.225
  996SOL     OW 3886   1.864   3.531   3.975
  996SOL    HW1 3887   1.884   3.463   3.904
  996SOL    HW2 3888   1.923   3.515   4.054
  997SOL     OW 3889   0.387   0.076   1.626
  997SOL    HW1 3890   0.302   0.126   1.606
  997SOL    HW2 3891   0.396   0.064   1.724
  998SOL     OW 3892   4.675   0.100   2.983
  998SOL    HW1 3893   4.603   0.086   2.915
  998SOL    HW2 3894   4.712   0.012   3.011
  999SOL     OW 3895   5.326   6.145   1.428
  999SOL    HW1 3896   5.340   6.084   1.350
  999SOL    HW2 3897   5.337   6.093   1.513
 1000SOL     OW 3898   1.015   1.991   2.545
 1000SOL    HW1 3899   1.111   1.965   2.548
 1000SOL    HW2 3900   0.971   1.950   2.465
 1001SOL     OW 3901   4.273   6.353   6.331
 1001SOL    HW1 3902   4.180   6.374   6.358
 1001SOL    HW2 3903   4.331   6.434   6.344
 1002SOL     OW 3904   5.504   1.609   6.507
 1002SOL    HW1 3905   5.406   1.625   6.494
 1002SOL    HW2 3906   5.524   1.602   6.605
 1003SOL     OW 3907   2.470   6.747   1.794
 1003SOL    HW1 3908   2.561   6.750   1.753
 1003SOL    HW2 3909   2.414   6.681   1.745
 1004SOL     OW 3910   6.480   0.715   0.625
 1004SOL    HW1 3911   6.436   0.687   0.539
 1004SOL    HW2 3912   6.493   0.814   0.625
 1005SOL     OW 3913   6.951   0.848   3.263
 1005SOL    HW1 3914   6.939   0.861   3.164
 1005SOL    HW2 3915   6.936   0.935   3.310
 1006SOL     OW 3916   2.477   5.837   1.511
 1006SOL    HW1 3917   2.468   5.819   1.413
 1006SOL    HW2 3918   2.434   5.924   1.533
 1007SOL     OW 3919   5.988   0.055   3.365
 1007SOL    HW1 3920   5.997   0.047   3.464
 1007SOL    HW2 3921   5.984   6.982   3.325
 1008SOL     OW 3922   1.156   2.800   4.322
 1008SOL    HW1 3923   1.126   2.871   4.385
 1008SOL    HW2 3924   1.234   2.751   4.361
 1009SOL     OW 3925   6.538   5.327   3.763
 1009SOL    HW1 3926   6.479   5.279   3.828
 1009SOL    HW2 3927   6.549   5.272   3.680
 1010SOL     OW 3928   4.356   2.074   0.088
 1010SOL    HW1 3929   4.454   2.056   0.074
 1010SOL    HW2 3930   4.317   2.113   0.005
 1011SOL     OW 3931   3.103   5.296   3.193
 1011SOL    HW1 3932   3.063   5.225   3.250
 1011SOL    HW2 3933   3.137   5.370   3.252
 1012SOL     OW 3934   6.474   5.482   0.059
 1012SOL    HW1 3935   6.512   5.498   6.987
 1012SOL    HW2 3936   6.510   5.551   0.122
 1013SOL     OW 3937   0.529   1.390   6.708
 1013SOL    HW1 3938   0.616   1.383   6.756
 1013SOL    HW2 3939   0.484   1.476   6.731
 1014SOL     OW 3940   5.349   5.545   6.458
 1014SOL    HW1 3941   5.315   5.463   6.505
 1014SOL    HW2 3942   5.445   5.532   6.435
 1015SOL     OW 3943   3.751   6.615   5.171
 1015SOL    HW1 3944   3.658   6.648   5.189
 1015SOL    HW2 3945   3.764   6.603   5.073
 1016SOL     OW 3946   2.315   2.836   0.864
 1016SOL    HW1 3947   2.313   2.892   0.946
 1016SOL    HW2 3948   2.223   2.801   0.845
 1017SOL     OW 3949   4.795   2.905   0.879
 1017SOL    HW1 3950   4.784   2.827   0.940
 1017SOL    HW2 3951   4.719   2.969   0.893
 1018SOL     OW 3952   1.796   3.305   4.318
 1018SOL    HW1 3953   1.710   3.265   4.285
 1018SOL    HW2 3954   1.787   3.329   4.414
 1019SOL     OW 3955   0.460   0.994   0.679
 1019SOL    HW1 3956   0.490   1.080   0.640
 1019SOL    HW2 3957   0.418   0.938   0.607
 1020SOL     OW 3958   0.856   6.781   0.876
 1020SOL    HW1 3959   0.858   6.777   0.776
 1020SOL    HW2 3960   0.949   6.771   0.912
 1021SOL     OW 3961   5.689   1.215   1.748
 1021SOL    HW1 3962   5.675   1.310   1.718
 1021SOL    HW2 3963   5.768   1.211   1.809
 1022SOL     OW 3964   4.159   5.046   6.485
 1022SOL    HW1 3965   4.124   4.972   6.427
 1022SOL    HW2 3966   4.107   5.050   6.570
 1023SOL     OW 3967   6.822   0.425   2.623
 1023SOL    HW1 3968   6.829   0.452   2.719
 1023SOL    HW2 3969   6.890   0.354   2.603
 1024SOL     OW 3970   6.725   2.781   4.263
 1024SOL    HW1 3971   6.819   2.747   4.270
 1024SOL    HW2 3972   6.662   2.703   4.261
 1025SOL     OW 3973   3.729   4.423   0.489
 1025SOL    HW1 3974   3.639   4.394   0.458
 1025SOL    HW2 3975   3.781   4.461   0.413
 1026SOL     OW 3976   1.009   0.907   0.711
 1026SOL    HW1 3977   1.019   0.890   0.809
 1026SOL    HW2 3978   0.947   0.985   0.697
 1027SOL     OW 3979   3.091   5.675   1.496
 1027SOL    HW1 3980   3.109   5.766   1.459
 1027SOL    HW2 3981   3.004   5.675   1.544
 1028SOL     OW 3982   2.983   6.175   0.502
 1028SOL    HW1 3983   3.070   6.216   0.471
 1028SOL    HW2 3984   3.000   6.082   0.535
 1029SOL     OW 3985   2.033   0.621   0.430
 1029SOL    HW1 3986   2.040   0.720   0.444
 1029SOL    HW2 3987   1.937   0.596   0.417
 1030SOL     OW 3988   3.719   2.988   3.285
 1030SOL    HW1 3989   3.749   2.984   3.380
 1030SOL    HW2 3990   3.620   2.973   3.281
 1031SOL     OW 3991   4.720   5.594   1.116
 1031SOL    HW1 3992   4.688   5.543   1.036
 1031SOL    HW2 3993   4.682   5.554   1.199
 1032SOL     OW 3994   1.999   1.720   5.210
 1032SOL    HW1 3995   1.929   1.775   5.255
 1032SOL    HW2 3996   1.957   1.661   5.142
 1033SOL     OW 3997   1.753   6.853   1.206
 1033SOL    HW1 3998   1.656   6.871   1.190
 1033SOL    HW2 3999   1.775   6.871   1.301
 1034SOL     OW 4000   1.772   6.062   4.490
 1034SOL    HW1 4001   1.800   5.967   4.503
 1034SOL    HW2 4002   1.777   6.085   4.393
 1035SOL     OW 4003   2.503   1.776   3.625
 1035SOL    HW1 4004   2.557   1.700   3.590
 1035SOL    HW2 4005   2.432   1.800   3.559
 1036SOL     OW 4006   3.818   0.530   1.091
 1036SOL    HW1 4007   3.911   0.501   1.113
 1036SOL    HW2 4008   3.787   0.482   1.009
 1037SOL     OW 4009   1.261   0.828   1.442
 1037SOL    HW1 4010   1.189   0.775   1.396
 1037SOL    HW2 4011   1.300   0.773   1.516
 1038SOL     OW 4012   0.507   1.231   5.637
 1038SOL    HW1 4013   0.501   1.249   5.736
 1038SOL    HW2 4014   0.420   1.256   5.594
 1039SOL     OW 4015   4.566   1.708   5.430
 1039SOL    HW1 4016   4.629   1.727   5.506
 1039SOL    HW2 4017   4.602   1.750   5.347
 1040SOL     OW 4018   5.695   3.264   2.982
 1040SOL    HW1 4019   5.683   3.258   3.081
 1040SOL    HW2 4020   5.708   3.172   2.945
 1041SOL     OW 4021   6.471   0.101   4.361
 1041SOL    HW1 4022   6.412   0.078   4.283
 1041SOL    HW2 4023   6.425   0.170   4.417
 1042SOL     OW 4024   4.016   5.145   2.659
 1042SOL    HW1 4025   4.064   5.059   2.678
 1042SOL    HW2 4026   3.919   5.133   2.677
 1043SOL     OW 4027   4.049   1.185   6.445
 1043SOL    HW1 4028   4.003   1.114   6.498
 1043SOL    HW2 4029   4.082   1.146   6.359
 1044SOL     OW 4030   3.866   2.670   1.504
 1044SOL    HW1 4031   3.801   2.743   1.484
 1044SOL    HW2 4032   3.827   2.609   1.573
 1045SOL     OW 4033   3.306   0.459   1.870
 1045SOL    HW1 4034   3.267   0.519   1.940
 1045SOL    HW2 4035   3.349   0.515   1.799
 1046SOL     OW 4036   2.458   7.016   6.123
 1046SOL    HW1 4037   2.416   6.968   6.200
 1046SOL    HW2 4038   2.389   0.049   6.073
 1047SOL     OW 4039   1.465   5.553   2.671
 1047SOL    HW1 4040   1.554   5.557   2.628
 1047SOL    HW2 4041   1.405   5.624   2.632
 1048SOL     OW 4042   4.978   5.612   5.369
 1048SOL    HW1 4043   4.951   5.701   5.333
 1048SOL    HW2 4044   5.047   5.624   5.441
 1049SOL     OW 4045   0.460   3.971   4.813
 1049SOL    HW1 4046   0.519   3.893   4.836
 1049SOL    HW2 4047   0.494   4.014   4.729
 1050SOL     OW 4048   3.552   5.827   0.541
 1050SOL    HW1 4049   3.466   5.820   0.490
 1050SOL    HW2 4050   3.609   5.747   0.522
 1051SOL     OW 4051   4.015   4.280   0.392
 1051SOL    HW1 4052   4.013   4.303   0.489
 1051SOL    HW2 4053   3.927   4.240   0.365
 1052SOL     OW 4054   4.226   1.068   4.028
 1052SOL    HW1 4055   4.130   1.094   4.020
 1052SOL    HW2 4056   4.233   0.969   4.039
 1053SOL     OW 4057   5.978   5.880   3.569
 1053SOL    HW1 4058   5.999   5.808   3.502
 1053SOL    HW2 4059   6.005   5.850   3.660
 1054SOL     OW 4060   2.355   5.068   5.653
 1054SOL    HW1 4061   2.265   5.072   5.611
 1054SOL    HW2 4062   2.360   4.990   5.715
 1055SOL     OW 4063   5.645   5.984   4.584
 1055SOL    HW1 4064   5.738   5.955   4.607
 1055SOL    HW2 4065   5.587   5.903   4.570
 1056SOL     OW 4066   1.604   6.429   5.433
 1056SOL    HW1 4067   1.659   6.415   5.516
 1056SOL    HW2 4068   1.583   6.341   5.392
 1057SOL     OW 4069   3.308   4.071   3.288
 1057SOL    HW1 4070   3.336   3.982   3.251
 1057SOL    HW2 4071   3.229   4.059   3.348
 1058SOL     OW 4072   4.901   1.334   2.202
 1058SOL    HW1 4073   4.884   1.248   2.250
 1058SOL    HW2 4074   4.928   1.404   2.267
 1059SOL     OW 4075   3.581   0.868   1.693
 1059SOL    HW1 4076   3.543   0.912   1.612
 1059SOL    HW2 4077   3.679   0.852   1.680
 1060SOL     OW 4078   6.699   3.416   5.922
 1060SOL    HW1 4079   6.676   3.341   5.983
 1060SOL    HW2 4080   6.707   3.501   5.974
 1061SOL     OW 4081   4.127   4.291   0.976
 1061SOL    HW1 4082   4.060   4.266   1.046
 1061SOL    HW2 4083   4.092   4.266   0.885
 1062SOL     OW 4084   6.626   6.021   5.836
 1062SOL    HW1 4085   6.533   5.990   5.821
 1062SOL    HW2 4086   6.677   5.951   5.886
 1063SOL     OW 4087   1.393   4.193   0.536
 1063SOL    HW1 4088   1.474   4.250   0.529
 1063SOL    HW2 4089   1.406   4.110   0.481
 1064SOL     OW 4090   0.998   3.801   2.781
 1064SOL    HW1 4091   1.028   3.715   2.740
 1064SOL    HW2 4092   1.018   3.876   2.718
 1065SOL     OW 4093   4.972   0.535   3.851
 1065SOL    HW1 4094   5.025   0.504   3.772
 1065SOL    HW2 4095   4.996   0.630   3.870
 1066SOL     OW 4096   5.239   0.420   4.076
 1066SOL    HW1 4097   5.226   0.326   4.045
 1066SOL    HW2 4098   5.152   0.458   4.106
 1067SOL     OW 4099   0.903   2.820   0.522
 1067SOL    HW1 4100   0.947   2.909   0.531
 1067SOL    HW2 4101   0.972   2.751   0.499
 1068SOL     OW 4102   6.830   3.758   1.934
 1068SOL    HW1 4103   6.818   3.851   1.968
 1068SOL    HW2 4104   6.786   3.693   1.997
 1069SOL     OW 4105   4.639   4.453   1.353
 1069SOL    HW1 4106   4.730   4.412   1.344
 1069SOL    HW2 4107   4.601   4.471   1.263
 1070SOL     OW 4108   1.828   0.861   6.582
 1070SOL    HW1 4109   1.849   0.807   6.501
 1070SOL    HW2 4110   1.876   0.949   6.577
 1071SOL     OW 4111   3.672   0.465   3.122
 1071SOL    HW1 4112   3.668   0.408   3.204
 1071SOL    HW2 4113   3.650   0.559   3.146
 1072SOL     OW 4114   2.225   6.091   2.221
 1072SOL    HW1 4115   2.128   6.105   2.239
 1072SOL    HW2 4116   2.267   6.043   2.298
 1073SOL     OW 4117   3.722   5.743   2.389
 1073SOL    HW1 4118   3.690   5.802   2.314
 1073SOL    HW2 4119   3.743   5.799   2.469
 1074SOL     OW 4120   1.847   5.815   1.715
 1074SOL    HW1 4121   1.882   5.799   1.807
 1074SOL    HW2 4122   1.851   5.729   1.663
 1075SOL     OW 4123   4.908   5.115   3.356
 1075SOL    HW1 4124   4.946   5.057   3.428
 1075SOL    HW2 4125   4.939   5.081   3.267
 1076SOL     OW 4126   0.455   4.381   5.008
 1076SOL    HW1 4127   0.546   4.403   4.975
 1076SOL    HW2 4128   0.437   4.432   5.093
 1077SOL     OW 4129   6.125   0.056   0.038
 1077SOL    HW1 4130   6.100   0.003   0.120
 1077SOL    HW2 4131   6.062   0.033   6.983
 1078SOL     OW 4132   1.445   1.721   2.278
 1078SOL    HW1 4133   1.380   1.645   2.271
 1078SOL    HW2 4134   1.537   1.685   2.295
 1079SOL     OW 4135   2.245   4.948   3.499
 1079SOL    HW1 4136   2.248   4.871   3.436
 1079SOL    HW2 4137   2.324   5.008   3.484
 1080SOL     OW 4138   2.296   4.998   3.133
 1080SOL    HW1 4139   2.326   5.053   3.056
 1080SOL    HW2 4140   2.337   5.033   3.217
 1081SOL     OW 4141   0.774   1.438   5.503
 1081SOL    HW1 4142   0.694   1.427   5.444
 1081SOL    HW2 4143   0.745   1.436   5.599
 1082SOL     OW 4144   1.437   0.300   5.642
 1082SOL    HW1 4145   1.454   0.250   5.726
 1082SOL    HW2 4146   1.410   0.394   5.664
 1083SOL     OW 4147   4.092   3.725   2.370
 1083SOL    HW1 4148   4.107   3.823   2.379
 1083SOL    HW2 4149   3.995   3.704   2.388
 1084SOL     OW 4150   6.598   5.807   1.284
 1084SOL    HW1 4151   6.503   5.836   1.274
 1084SOL    HW2 4152   6.603   5.728   1.344
 1085SOL     OW 4153   1.956   4.529   3.924
 1085SOL    HW1 4154   1.864   4.513   3.960
 1085SOL    HW2 4155   1.995   4.611   3.965
 1086SOL     OW 4156   6.033   5.655   3.416
 1086SOL    HW1 4157   6.010   5.586   3.347
 1086SOL    HW2 4158   6.103   5.618   3.478
 1087SOL     OW 4159   4.669   2.985   5.766
 1087SOL    HW1 4160   4.710   3.018   5.851
 1087SOL    HW2 4161   4.570   2.987   5.774
 1088SOL     OW 4162   5.661   4.520   3.566
 1088SOL    HW1 4163   5.683   4.613   3.537
 1088SOL    HW2 4164   5.580   4.488   3.517
 1089SOL     OW 4165   0.380   0.660   4.242
 1089SOL    HW1 4166   0.480   0.667   4.237
 1089SOL    HW2 4167   0.355   0.603   4.321
 1090SOL     OW 4168   2.771   1.266   4.555
 1090SOL    HW1 4169   2.676   1.298   4.556
 1090SOL    HW2 4170   2.822   1.314   4.484
 1091SOL     OW 4171   1.552   1.936   4.025
 1091SOL    HW1 4172   1.644   1.960   4.056
 1091SOL    HW2 4173   1.554   1.913   3.928
 1092SOL     OW 4174   2.354   3.895   1.375
 1092SOL    HW1 4175   2.354   3.795   1.372
 1092SOL    HW2 4176   2.443   3.927   1.409
 1093SOL     OW 4177   1.527   1.410   2.580
 1093SOL    HW1 4178   1.525   1.325   2.528
 1093SOL    HW2 4179   1.599   1.469   2.544
 1094SOL     OW 4180   0.240   6.381   1.723
 1094SOL    HW1 4181   0.148   6.379   1.761
 1094SOL    HW2 4182   0.267   6.476   1.707
 1095SOL     OW 4183   6.362   2.265   6.347
 1095SOL    HW1 4184   6.361   2.198   6.272
 1095SOL    HW2 4185   6.273   2.311   6.351
 1096SOL     OW 4186   3.803   5.301   1.463
 1096SOL    HW1 4187   3.891   5.299   1.417
 1096SOL    HW2 4188   3.816   5.305   1.562
 1097SOL     OW 4189   1.262   5.203   5.151
 1097SOL    HW1 4190   1.235   5.248   5.236
 1097SOL    HW2 4191   1.219   5.248   5.073
 1098SOL     OW 4192   5.379   2.477   1.022
 1098SOL    HW1 4193   5.351   2.568   1.053
 1098SOL    HW2 4194   5.337   2.458   0.933
 1099SOL     OW 4195   4.285   1.817   4.435
 1099SOL    HW1 4196   4.297   1.911   4.404
 1099SOL    HW2 4197   4.351   1.758   4.389
 1100SOL     OW 4198   0.708   1.362   6.251
 1100SOL    HW1 4199   0.686   1.278   6.201
 1100SOL    HW2 4200   0.649   1.369   6.332
 1101SOL     OW 4201   5.462   3.594   1.534
 1101SOL    HW1 4202   5.491   3.676   1.582
 1101SOL    HW2 4203   5.491   3.513   1.585
 1102SOL     OW 4204   0.961   4.755   4.192
 1102SOL    HW1 4205   1.020   4.830   4.167
 1102SOL    HW2 4206   0.881   4.754   4.132
 1103SOL     OW 4207   1.900   1.822   1.740
 1103SOL    HW1 4208   1.985   1.860   1.777
 1103SOL    HW2 4209   1.850   1.893   1.690
 1104SOL     OW 4210   1.742   3.772   5.721
 1104SOL    HW1 4211   1.801   3.810   5.650
 1104SOL    HW2 4212   1.795   3.711   5.779
 1105SOL     OW 4213   4.853   4.249   6.691
 1105SOL    HW1 4214   4.785   4.290   6.630
 1105SOL    HW2 4215   4.860   4.151   6.673
 1106SOL     OW 4216   0.609   1.907   6.404
 1106SOL    HW1 4217   0.610   1.808   6.413
 1106SOL    HW2 4218   0.610   1.932   6.307
 1107SOL     OW 4219   0.986   0.156   6.555
 1107SOL    HW1 4220   0.955   0.190   6.644
 1107SOL    HW2 4221   0.939   0.205   6.482
 1108SOL     OW 4222   2.535   0.545   5.037
 1108SOL    HW1 4223   2.446   0.538   5.083
 1108SOL    HW2 4224   2.534   0.622   4.973
 1109SOL     OW 4225   3.663   5.625   4.636
 1109SOL    HW1 4226   3.736   5.557   4.628
 1109SOL    HW2 4227   3.577   5.579   4.660
 1110SOL     OW 4228   2.944   2.024   1.568
 1110SOL    HW1 4229   2.956   2.118   1.601
 1110SOL    HW2 4230   2.950   2.024   1.468
 1111SOL     OW 4231   5.089   6.843   6.631
 1111SOL    HW1 4232   5.001   6.880   6.602
 1111SOL    HW2 4233   5.163   6.899   6.591
 1112SOL     OW 4234   5.791   1.060   3.102
 1112SOL    HW1 4235   5.813   1.130   3.033
 1112SOL    HW2 4236   5.861   1.060   3.173
 1113SOL     OW 4237   6.122   3.340   2.354
 1113SOL    HW1 4238   6.148   3.434   2.375
 1113SOL    HW2 4239   6.092   3.294   2.438
 1114SOL     OW 4240   5.120   0.353   6.232
 1114SOL    HW1 4241   5.069   0.438   6.215
 1114SOL    HW2 4242   5.218   0.369   6.218
 1115SOL     OW 4243   4.116   2.065   0.273
 1115SOL    HW1 4244   4.142   2.157   0.301
 1115SOL    HW2 4245   4.198   2.013   0.248
 1116SOL     OW 4246   5.354   5.329   3.875
 1116SOL    HW1 4247   5.325   5.424   3.875
 1116SOL    HW2 4248   5.283   5.272   3.832
 1117SOL     OW 4249   2.694   2.713   1.385
 1117SOL    HW1 4250   2.772   2.696   1.446
 1117SOL    HW2 4251   2.728   2.732   1.293
 1118SOL     OW 4252   1.450   5.029   3.102
 1118SOL    HW1 4253   1.421   5.006   3.009
 1118SOL    HW2 4254   1.369   5.037   3.160
 1119SOL     OW 4255   4.064   4.264   1.596
 1119SOL    HW1 4256   4.158   4.289   1.621
 1119SOL    HW2 4257   4.063   4.231   1.502
 1120SOL     OW 4258   5.482   6.853   6.041
 1120SOL    HW1 4259   5.425   6.933   6.060
 1120SOL    HW2 4260   5.524   6.863   5.950
 1121SOL     OW 4261   5.040   2.810   2.300
 1121SOL    HW1 4262   5.004   2.788   2.391
 1121SOL    HW2 4263   5.082   2.729   2.260
 1122SOL     OW 4264   5.450   2.911   6.764
 1122SOL    HW1 4265   5.465   3.010   6.768
 1122SOL    HW2 4266   5.373   2.891   6.703
 1123SOL     OW 4267   4.759   1.441   1.723
 1123SOL    HW1 4268   4.846   1.426   1.676
 1123SOL    HW2 4269   4.758   1.391   1.809
 1124SOL     OW 4270   6.679   3.589   4.692
 1124SOL    HW1 4271   6.649   3.530   4.767
 1124SOL    HW2 4272   6.756   3.547   4.645
 1125SOL     OW 4273   3.063   2.033   5.275
 1125SOL    HW1 4274   3.022   2.024   5.184
 1125SOL    HW2 4275   3.001   2.083   5.335
 1126SOL     OW 4276   4.696   6.879   6.570
 1126SOL    HW1 4277   4.772   6.943   6.586
 1126SOL    HW2 4278   4.732   6.786   6.563
 1127SOL     OW 4279   2.901   4.310   5.956
 1127SOL    HW1 4280   2.935   4.272   5.870
 1127SOL    HW2 4281   2.849   4.394   5.938
 1128SOL     OW 4282   4.330   2.298   4.477
 1128SOL    HW1 4283   4.386   2.380   4.467
 1128SOL    HW2 4284   4.247   2.307   4.422
 1129SOL     OW 4285   3.954   0.074   0.245
 1129SOL    HW1 4286   3.891   0.006   0.208
 1129SOL    HW2 4287   3.940   0.081   0.344
 1130SOL     OW 4288   1.749   4.371   1.239
 1130SOL    HW1 4289   1.719   4.278   1.258
 1130SOL    HW2 4290   1.717   4.432   1.312
 1131SOL     OW 4291   0.617   6.039   5.809
 1131SOL    HW1 4292   0.574   5.957   5.772
 1131SOL    HW2 4293   0.706   6.053   5.765
 1132SOL     OW 4294   5.094   0.096   6.323
 1132SOL    HW1 4295   5.082   0.194   6.304
 1132SOL    HW2 4296   5.146   0.086   6.408
 1133SOL     OW 4297   0.048   2.250   1.866
 1133SOL    HW1 4298   0.103   2.280   1.788
 1133SOL    HW2 4299   6.994   2.316   1.884
 1134SOL     OW 4300   5.623   2.283   6.731
 1134SOL    HW1 4301   5.677   2.312   6.653
 1134SOL    HW2 4302   5.683   2.266   6.809
 1135SOL     OW 4303   2.957   2.172   3.224
 1135SOL    HW1 4304   2.972   2.074   3.237
 1135SOL    HW2 4305   2.972   2.195   3.128
 1136SOL     OW 4306   2.740   5.279   4.268
 1136SOL    HW1 4307   2.770   5.281   4.172
 1136SOL    HW2 4308   2.693   5.365   4.290
 1137SOL     OW 4309   0.940   2.245   6.698
 1137SOL    HW1 4310   0.879   2.222   6.774
 1137SOL    HW2 4311   1.007   2.313   6.729
 1138SOL     OW 4312   2.147   2.986   6.006
 1138SOL    HW1 4313   2.211   3.062   5.995
 1138SOL    HW2 4314   2.087   3.004   6.084
 1139SOL     OW 4315   1.908   6.057   3.084
 1139SOL    HW1 4316   1.829   6.055   3.145
 1139SOL    HW2 4317   1.903   5.980   3.020
 1140SOL     OW 4318   3.926   2.186   2.889
 1140SOL    HW1 4319   3.858   2.200   2.817
 1140SOL    HW2 4320   4.015   2.219   2.858
 1141SOL     OW 4321   5.443   5.756   5.814
 1141SOL    HW1 4322   5.476   5.665   5.840
 1141SOL    HW2 4323   5.417   5.755   5.717
 1142SOL     OW 4324   5.335   0.344   4.596
 1142SOL    HW1 4325   5.335   0.349   4.496
 1142SOL    HW2 4326   5.272   0.273   4.626
 1143SOL     OW 4327   4.043   2.195   2.121
 1143SOL    HW1 4328   3.988   2.140   2.058
 1143SOL    HW2 4329   4.021   2.292   2.110
 1144SOL     OW 4330   0.163   4.399   4.322
 1144SOL    HW1 4331   0.138   4.323   4.382
 1144SOL    HW2 4332   0.115   4.390   4.235
 1145SOL     OW 4333   0.160   5.460   3.329
 1145SOL    HW1 4334   0.189   5.364   3.331
 1145SOL    HW2 4335   0.222   5.512   3.270
 1146SOL     OW 4336   5.538   1.448   1.150
 1146SOL    HW1 4337   5.487   1.510   1.091
 1146SOL    HW2 4338   5.563   1.495   1.235
 1147SOL     OW 4339   1.046   3.739   1.478
 1147SOL    HW1 4340   1.036   3.812   1.410
 1147SOL    HW2 4341   0.970   3.744   1.543
 1148SOL     OW 4342   3.366   5.749   6.235
 1148SOL    HW1 4343   3.449   5.696   6.216
 1148SOL    HW2 4344   3.329   5.786   6.150
 1149SOL     OW 4345   5.952   3.541   2.802
 1149SOL    HW1 4346   5.891   3.486   2.746
 1149SOL    HW2 4347   6.036   3.489   2.821
 1150SOL     OW 4348   2.347   4.471   0.902
 1150SOL    HW1 4349   2.326   4.528   0.822
 1150SOL    HW2 4350   2.407   4.522   0.964
 1151SOL     OW 4351   5.693   5.858   6.217
 1151SOL    HW1 4352   5.695   5.851   6.117
 1151SOL    HW2 4353   5.604   5.893   6.246
 1152SOL     OW 4354   1.354   6.879   4.687
 1152SOL    HW1 4355   1.383   6.785   4.703
 1152SOL    HW2 4356   1.265   6.894   4.731
 1153SOL     OW 4357   2.148   6.495   3.146
 1153SOL    HW1 4358   2.134   6.481   3.048
 1153SOL    HW2 4359   2.085   6.565   3.179
 1154SOL     OW 4360   0.295   3.583   1.293
 1154SOL    HW1 4361   0.366   3.633   1.342
 1154SOL    HW2 4362   0.250   3.644   1.227
 1155SOL     OW 4363   3.332   6.064   0.044
 1155SOL    HW1 4364   3.346   5.969   0.069
 1155SOL    HW2 4365   3.417   6.102   0.006
 1156SOL     OW 4366   2.060   0.304   4.011
 1156SOL    HW1 4367   2.094   0.221   3.966
 1156SOL    HW2 4368   1.966   0.321   3.982
 1157SOL     OW 4369   0.156   2.157   5.177
 1157SOL    HW1 4370   0.165   2.238   5.235
 1157SOL    HW2 4371   0.118   2.183   5.089
 1158SOL     OW 4372   6.003   4.796   5.586
 1158SOL    HW1 4373   5.970   4.753   5.502
 1158SOL    HW2 4374   5.968   4.745   5.665
 1159SOL     OW 4375   4.108   0.220   2.651
 1159SOL    HW1 4376   4.021   0.180   2.620
 1159SOL    HW2 4377   4.101   0.320   2.650
 1160SOL     OW 4378   4.059   3.848   2.047
 1160SOL    HW1 4379   4.109   3.908   1.985
 1160SOL    HW2 4380   4.123   3.794   2.101
 1161SOL     OW 4381   5.386   0.359   5.181
 1161SOL    HW1 4382   5.299   0.338   5.224
 1161SOL    HW2 4383   5.440   0.417   5.241
 1162SOL     OW 4384   3.447   2.943   1.009
 1162SOL    HW1 4385   3.487   2.861   1.051
 1162SOL    HW2 4386   3.351   2.950   1.034
 1163SOL     OW 4387   5.143   2.333   2.033
 1163SOL    HW1 4388   5.071   2.264   2.032
 1163SOL    HW2 4389   5.193   2.328   2.120
 1164SOL     OW 4390   5.341   2.488   3.233
 1164SOL    HW1 4391   5.361   2.471   3.137
 1164SOL    HW2 4392   5.322   2.401   3.279
 1165SOL     OW 4393   1.268   3.553   4.023
 1165SOL    HW1 4394   1.290   3.572   3.927
 1165SOL    HW2 4395   1.322   3.476   4.055
 1166SOL     OW 4396   4.374   1.810   6.379
 1166SOL    HW1 4397   4.315   1.885   6.410
 1166SOL    HW2 4398   4.405   1.829   6.286
 1167SOL     OW 4399   3.685   0.405   5.661
 1167SOL    HW1 4400   3.756   0.411   5.592
 1167SOL    HW2 4401   3.634   0.320   5.650
 1168SOL     OW 4402   6.121   6.717   2.654
 1168SOL    HW1 4403   6.128   6.787   2.583
 1168SOL    HW2 4404   6.117   6.626   2.611
 1169SOL     OW 4405   0.205   3.166   0.827
 1169SOL    HW1 4406   0.164   3.257   0.819
 1169SOL    HW2 4407   0.146   3.098   0.782
 1170SOL     OW 4408   3.762   0.901   2.087
 1170SOL    HW1 4409   3.703   0.829   2.049
 1170SOL    HW2 4410   3.722   0.936   2.172
 1171SOL     OW 4411   2.986   6.026   0.933
 1171SOL    HW1 4412   2.990   6.088   0.855
 1171SOL    HW2 4413   2.915   5.957   0.919
 1172SOL     OW 4414   3.223   3.841   3.838
 1172SOL    HW1 4415   3.262   3.802   3.754
 1172SOL    HW2 4416   3.245   3.939   3.842
 1173SOL     OW 4417   3.239   0.308   5.633
 1173SOL    HW1 4418   3.243   0.386   5.570
 1173SOL    HW2 4419   3.210   0.227   5.582
 1174SOL     OW 4420   2.387   5.986   0.634
 1174SOL    HW1 4421   2.403   5.925   0.711
 1174SOL    HW2 4422   2.433   5.950   0.553
 1175SOL     OW 4423   5.824   5.061   0.072
 1175SOL    HW1 4424   5.902   5.117   0.100
 1175SOL    HW2 4425   5.844   4.965   0.091
 1176SOL     OW 4426   5.628   5.436   0.951
 1176SOL    HW1 4427   5.718   5.446   0.993
 1176SOL    HW2 4428   5.579   5.523   0.956
 1177SOL     OW 4429   0.246   2.362   5.359
 1177SOL    HW1 4430   0.324   2.300   5.372
 1177SOL    HW2 4431   0.231   2.414   5.443
 1178SOL     OW 4432   4.708   4.267   2.007
 1178SOL    HW1 4433   4.610   4.281   1.996
 1178SOL    HW2 4434   4.729   4.170   1.995
 1179SOL     OW 4435   1.698   4.353   0.573
 1179SOL    HW1 4436   1.793   4.374   0.553
 1179SOL    HW2 4437   1.645   4.354   0.488
 1180SOL     OW 4438   2.406   0.645   3.740
 1180SOL    HW1 4439   2.358   0.588   3.807
 1180SOL    HW2 4440   2.344   0.715   3.705
 1181SOL     OW 4441   0.992   4.684   4.460
 1181SOL    HW1 4442   0.898   4.652   4.466
 1181SOL    HW2 4443   1.009   4.722   4.369
 1182SOL     OW 4444   1.925   4.269   3.464
 1182SOL    HW1 4445   1.943   4.269   3.562
 1182SOL    HW2 4446   1.866   4.347   3.442
 1183SOL     OW 4447   4.463   5.693   1.671
 1183SOL    HW1 4448   4.451   5.791   1.654
 1183SOL    HW2 4449   4.556   5.677   1.706
 1184SOL     OW 4450   3.341   3.233   5.496
 1184SOL    HW1 4451   3.383   3.153   5.455
 1184SOL    HW2 4452   3.324   3.217   5.593
 1185SOL     OW 4453   2.498   0.570   0.203
 1185SOL    HW1 4454   2.427   0.541   0.138
 1185SOL    HW2 4455   2.588   0.555   0.162
 1186SOL     OW 4456   6.374   0.376   5.420
 1186SOL    HW1 4457   6.442   0.307   5.445
 1186SOL    HW2 4458   6.340   0.357   5.328
 1187SOL     OW 4459   5.347   5.831   4.564
 1187SOL    HW1 4460   5.306   5.897   4.627
 1187SOL    HW2 4461   5.345   5.740   4.603
 1188SOL     OW 4462   2.759   6.731   6.197
 1188SOL    HW1 4463   2.780   6.634   6.201
 1188SOL    HW2 4464   2.828   6.783   6.247
 1189SOL     OW 4465   5.009   1.567   2.354
 1189SOL    HW1 4466   5.015   1.646   2.293
 1189SOL    HW2 4467   5.031   1.595   2.447
 1190SOL     OW 4468   3.770   5.504   3.530
 1190SOL    HW1 4469   3.734   5.461   3.448
 1190SOL    HW2 4470   3.798   5.598   3.509
 1191SOL     OW 4471   3.656   5.346   6.057
 1191SOL    HW1 4472   3.734   5.318   6.113
 1191SOL    HW2 4473   3.581   5.283   6.071
 1192SOL     OW 4474   5.684   4.505   3.096
 1192SOL    HW1 4475   5.692   4.409   3.073
 1192SOL    HW2 4476   5.775   4.542   3.115
 1193SOL     OW 4477   5.459   0.028   4.349
 1193SOL    HW1 4478   5.490   7.005   4.264
 1193SOL    HW2 4479   5.533   0.024   4.417
 1194SOL     OW 4480   6.986   0.858   0.753
 1194SOL    HW1 4481   6.894   0.820   0.755
 1194SOL    HW2 4482   7.002   0.904   0.666
 1195SOL     OW 4483   6.201   1.288   6.537
 1195SOL    HW1 4484   6.128   1.346   6.501
 1195SOL    HW2 4485   6.248   1.243   6.461
 1196SOL     OW 4486   0.107   4.995   2.224
 1196SOL    HW1 4487   0.014   5.024   2.247
 1196SOL    HW2 4488   0.102   4.920   2.158
 1197SOL     OW 4489   4.040   5.814   5.680
 1197SOL    HW1 4490   4.128   5.777   5.650
 1197SOL    HW2 4491   4.055   5.897   5.734
 1198SOL     OW 4492   2.504   2.455   2.504
 1198SOL    HW1 4493   2.453   2.410   2.430
 1198SOL    HW2 4494   2.599   2.427   2.501
 1199SOL     OW 4495   3.756   4.076   2.762
 1199SOL    HW1 4496   3.849   4.107   2.747
 1199SOL    HW2 4497   3.698   4.106   2.686
 1200SOL     OW 4498   4.192   3.928   5.261
 1200SOL    HW1 4499   4.199   4.025   5.239
 1200SOL    HW2 4500   4.174   3.916   5.359
 1201SOL     OW 4501   1.507   1.606   4.957
 1201SOL    HW1 4502   1.489   1.521   5.007
 1201SOL    HW2 4503   1.521   1.586   4.860
 1202SOL     OW 4504   5.601   0.211   6.097
 1202SOL    HW1 4505   5.639   0.216   6.189
 1202SOL    HW2 4506   5.659   0.154   6.039
 1203SOL     OW 4507   5.530   0.223   1.108
 1203SOL    HW1 4508   5.493   0.270   1.029
 1203SOL    HW2 4509   5.622   0.257   1.127
 1204SOL     OW 4510   3.871   1.394   0.781
 1204SOL    HW1 4511   3.933   1.425   0.709
 1204SOL    HW2 4512   3.779   1.383   0.744
 1205SOL     OW 4513   5.731   2.912   6.934
 1205SOL    HW1 4514   5.704   2.861   6.852
 1205SOL    HW2 4515   5.676   2.995   6.942
 1206SOL     OW 4516   1.834   1.595   5.027
 1206SOL    HW1 4517   1.771   1.537   5.078
 1206SOL    HW2 4518   1.844   1.561   4.934
 1207SOL     OW 4519   6.671   6.357   0.490
 1207SOL    HW1 4520   6.687   6.366   0.588
 1207SOL    HW2 4521   6.577   6.327   0.474
 1208SOL     OW 4522   3.189   4.091   2.841
 1208SOL    HW1 4523   3.157   4.021   2.904
 1208SOL    HW2 4524   3.235   4.164   2.892
 1209SOL     OW 4525   6.378   5.679   5.275
 1209SOL    HW1 4526   6.336   5.606   5.329
 1209SOL    HW2 4527   6.359   5.767   5.318
 1210SOL     OW 4528   4.108   0.514   2.718
 1210SOL    HW1 4529   4.050   0.593   2.701
 1210SOL    HW2 4530   4.088   0.476   2.809
 1211SOL     OW 4531   1.534   3.422   3.513
 1211SOL    HW1 4532   1.529   3.331   3.470
 1211SOL    HW2 4533   1.613   3.471   3.478
 1212SOL     OW 4534   1.503   2.854   5.537
 1212SOL    HW1 4535   1.535   2.832   5.629
 1212SOL    HW2 4536   1.509   2.953   5.522
 1213SOL     OW 4537   6.381   2.627   5.015
 1213SOL    HW1 4538   6.462   2.637   4.957
 1213SOL    HW2 4539   6.316   2.700   4.995
 1214SOL     OW 4540   1.821   3.384   4.567
 1214SOL    HW1 4541   1.914   3.348   4.578
 1214SOL    HW2 4542   1.824   3.483   4.566
 1215SOL     OW 4543   2.406   4.450   2.752
 1215SOL    HW1 4544   2.394   4.440   2.653
 1215SOL    HW2 4545   2.493   4.494   2.771
 1216SOL     OW 4546   0.309   6.652   1.797
 1216SOL    HW1 4547   0.270   6.743   1.786
 1216SOL    HW2 4548   0.354   6.646   1.887
 1217SOL     OW 4549   0.930   6.404   0.093
 1217SOL    HW1 4550   1.008   6.461   0.068
 1217SOL    HW2 4551   0.939   6.314   0.050
 1218SOL     OW 4552   1.041   3.061   5.172
 1218SOL    HW1 4553   1.000   3.086   5.085
 1218SOL    HW2 4554   1.090   3.139   5.210
 1219SOL     OW 4555   4.647   4.930   0.714
 1219SOL    HW1 4556   4.707   4.909   0.637
 1219SOL    HW2 4557   4.623   4.845   0.761
 1220SOL     OW 4558   5.746   3.256   2.436
 1220SOL    HW1 4559   5.791   3.168   2.449
 1220SOL    HW2 4560   5.720   3.266   2.340
 1221SOL     OW 4561   5.905   3.790   0.174
 1221SOL    HW1 4562   5.835   3.812   0.105
 1221SOL    HW2 4563   5.956   3.709   0.146
 1222SOL     OW 4564   0.020   6.665   0.765
 1222SOL    HW1 4565   6.986   6.589   0.801
 1222SOL    HW2 4566   6.996   6.752   0.792
 1223SOL     OW 4567   5.879   0.207   6.865
 1223SOL    HW1 4568   5.831   0.123   6.888
 1223SOL    HW2 4569   5.825   0.286   6.897
 1224SOL     OW 4570   4.191   5.965   6.692
 1224SOL    HW1 4571   4.159   5.908   6.617
 1224SOL    HW2 4572   4.197   6.060   6.661
 1225SOL     OW 4573   3.982   1.642   1.152
 1225SOL    HW1 4574   3.902   1.682   1.108
 1225SOL    HW2 4575   3.990   1.546   1.127
 1226SOL     OW 4576   5.595   6.542   1.023
 1226SOL    HW1 4577   5.677   6.531   1.079
 1226SOL    HW2 4578   5.590   6.636   0.989
 1227SOL     OW 4579   5.819   4.534   5.491
 1227SOL    HW1 4580   5.738   4.493   5.450
 1227SOL    HW2 4581   5.803   4.551   5.588
 1228SOL     OW 4582   3.773   2.887   1.725
 1228SOL    HW1 4583   3.771   2.915   1.821
 1228SOL    HW2 4584   3.857   2.920   1.682
 1229SOL     OW 4585   0.734   6.762   2.042
 1229SOL    HW1 4586   0.812   6.729   2.096
 1229SOL    HW2 4587   0.760   6.767   1.946
 1230SOL     OW 4588   5.238   5.476   3.119
 1230SOL    HW1 4589   5.140   5.456   3.113
 1230SOL    HW2 4590   5.261   5.554   3.061
 1231SOL     OW 4591   2.014   2.525   5.872
 1231SOL    HW1 4592   1.968   2.505   5.786
 1231SOL    HW2 4593   1.947   2.551   5.941
 1232SOL     OW 4594   3.955   1.385   4.646
 1232SOL    HW1 4595   3.872   1.378   4.589
 1232SOL    HW2 4596   3.948   1.464   4.706
 1233SOL     OW 4597   1.432   4.631   3.740
 1233SOL    HW1 4598   1.358   4.575   3.704
 1233SOL    HW2 4599   1.468   4.690   3.668
 1234SOL     OW 4600   6.665   3.085   6.876
 1234SOL    HW1 4601   6.601   3.011   6.899
 1234SOL    HW2 4602   6.750   3.072   6.927
 1235SOL     OW 4603   6.206   5.134   0.144
 1235SOL    HW1 4604   6.202   5.060   0.076
 1235SOL    HW2 4605   6.113   5.157   0.173
 1236SOL     OW 4606   3.629   1.345   0.636
 1236SOL    HW1 4607   3.687   1.409   0.585
 1236SOL    HW2 4608   3.538   1.342   0.595
 1237SOL     OW 4609   1.480   0.519   4.654
 1237SOL    HW1 4610   1.579   0.501   4.650
 1237SOL    HW2 4611   1.445   0.533   4.561
 1238SOL     OW 4612   0.348   0.233   2.850
 1238SOL    HW1 4613   0.285   0.299   2.809
 1238SOL    HW2 4614   0.316   0.140   2.831
 1239SOL     OW 4615   6.901   5.015   4.362
 1239SOL    HW1 4616   6.888   5.102   4.409
 1239SOL    HW2 4617   6.812   4.979   4.333
 1240SOL     OW 4618   6.146   5.583   3.047
 1240SOL    HW1 4619   6.153   5.598   2.948
 1240SOL    HW2 4620   6.236   5.566   3.085
 1241SOL     OW 4621   6.848   5.314   4.159
 1241SOL    HW1 4622   6.877   5.251   4.087
 1241SOL    HW2 4623   6.857   5.408   4.128
 1242SOL     OW 4624   1.968   3.726   0.062
 1242SOL    HW1 4625   2.011   3.664   0.128
 1242SOL    HW2 4626   1.959   3.817   0.102
 1243SOL     OW 4627   0.632   3.020   5.762
 1243SOL    HW1 4628   0.619   3.042   5.666
 1243SOL    HW2 4629   0.698   3.084   5.803
 1244SOL     OW 4630   5.832   6.477   5.280
 1244SOL    HW1 4631   5.737   6.456   5.256
 1244SOL    HW2 4632   5.888   6.477   5.198
 1245SOL     OW 4633   5.340   5.947   1.242
 1245SOL    HW1 4634   5.341   5.866   1.301
 1245SOL    HW2 4635   5.315   5.919   1.149
 1246SOL     OW 4636   4.694   0.793   1.068
 1246SOL    HW1 4637   4.747   0.870   1.104
 1246SOL    HW2 4638   4.681   0.805   0.969
 1247SOL     OW 4639   6.835   6.467   4.107
 1247SOL    HW1 4640   6.904   6.539   4.096
 1247SOL    HW2 4641   6.779   6.486   4.187
 1248SOL     OW 4642   0.088   6.477   4.691
 1248SOL    HW1 4643   0.105   6.379   4.697
 1248SOL    HW2 4644   7.008   6.494   4.694
 1249SOL     OW 4645   0.545   4.356   1.500
 1249SOL    HW1 4646   0.627   4.301   1.485
 1249SOL    HW2 4647   0.492   4.361   1.415
 1250SOL     OW 4648   6.118   3.417   5.152
 1250SOL    HW1 4649   6.190   3.351   5.129
 1250SOL    HW2 4650   6.109   3.483   5.077
 1251SOL     OW 4651   2.217   1.683   2.867
 1251SOL    HW1 4652   2.214   1.746   2.789
 1251SOL    HW2 4653   2.269   1.602   2.842
 1252SOL     OW 4654   3.079   5.495   0.050
 1252SOL    HW1 4655   3.066   5.511   6.972
 1252SOL    HW2 4656   3.131   5.571   0.090
 1253SOL     OW 4657   3.040   0.744   0.830
 1253SOL    HW1 4658   3.036   0.756   0.930
 1253SOL    HW2 4659   3.117   0.797   0.794
 1254SOL     OW 4660   5.870   1.536   3.048
 1254SOL    HW1 4661   5.943   1.551   2.981
 1254SOL    HW2 4662   5.790   1.590   3.023
 1255SOL     OW 4663   5.678   2.589   4.829
 1255SOL    HW1 4664   5.658   2.686   4.818
 1255SOL    HW2 4665   5.730   2.557   4.750
 1256SOL     OW 4666   6.613   5.807   3.451
 1256SOL    HW1 4667   6.624   5.787   3.549
 1256SOL    HW2 4668   6.580   5.900   3.440
 1257SOL     OW 4669   0.513   4.756   3.943
 1257SOL    HW1 4670   0.457   4.696   4.001
 1257SOL    HW2 4671   0.460   4.783   3.863
 1258SOL     OW 4672   1.678   5.845   3.681
 1258SOL    HW1 4673   1.590   5.803   3.659
 1258SOL    HW2 4674   1.690   5.927   3.626
 1259SOL     OW 4675   4.440   0.372   5.315
 1259SOL    HW1 4676   4.419   0.280   5.283
 1259SOL    HW2 4677   4.376   0.399   5.386
 1260SOL     OW 4678   2.914   0.896   2.258
 1260SOL    HW1 4679   2.940   0.921   2.352
 1260SOL    HW2 4680   2.820   0.863   2.257
 1261SOL     OW 4681   0.046   4.005   6.947
 1261SOL    HW1 4682   7.015   3.919   6.946
 1261SOL    HW2 4683   0.104   4.011   6.865
 1262SOL     OW 4684   4.659   4.841   1.236
 1262SOL    HW1 4685   4.647   4.922   1.178
 1262SOL    HW2 4686   4.588   4.774   1.215
 1263SOL     OW 4687   6.512   2.153   0.998
 1263SOL    HW1 4688   6.542   2.248   1.005
 1263SOL    HW2 4689   6.523   2.120   0.905
 1264SOL     OW 4690   0.323   4.462   3.645
 1264SOL    HW1 4691   0.307   4.465   3.744
 1264SOL    HW2 4692   0.333   4.367   3.616
 1265SOL     OW 4693   0.675   4.088   3.984
 1265SOL    HW1 4694   0.637   3.996   3.995
 1265SOL    HW2 4695   0.775   4.083   3.986
 1266SOL     OW 4696   2.773   1.649   4.717
 1266SOL    HW1 4697   2.779   1.564   4.769
 1266SOL    HW2 4698   2.796   1.726   4.777
 1267SOL     OW 4699   6.804   5.795   2.585
 1267SOL    HW1 4700   6.875   5.771   2.519
 1267SOL    HW2 4701   6.827   5.881   2.630
 1268SOL     OW 4702   5.677   2.231   0.218
 1268SOL    HW1 4703   5.664   2.224   0.317
 1268SOL    HW2 4704   5.593   2.267   0.176
 1269SOL     OW 4705   6.557   6.728   5.391
 1269SOL    HW1 4706   6.466   6.721   5.351
 1269SOL    HW2 4707   6.624   6.688   5.328
 1270SOL     OW 4708   2.054   4.036   4.499
 1270SOL    HW1 4709   2.117   3.959   4.509
 1270SOL    HW2 4710   1.967   4.014   4.542
 1271SOL     OW 4711   3.428   1.894   3.200
 1271SOL    HW1 4712   3.344   1.878   3.252
 1271SOL    HW2 4713   3.484   1.811   3.200
 1272SOL     OW 4714   0.131   5.947   0.830
 1272SOL    HW1 4715   0.053   6.009   0.827
 1272SOL    HW2 4716   0.216   5.999   0.819
 1273SOL     OW 4717   2.092   4.021   0.424
 1273SOL    HW1 4718   2.190   4.000   0.414
 1273SOL    HW2 4719   2.053   4.040   0.334
 1274SOL     OW 4720   0.430   2.988   1.962
 1274SOL    HW1 4721   0.490   3.009   2.039
 1274SOL    HW2 4722   0.338   2.969   1.995
 1275SOL     OW 4723   4.462   0.891   3.694
 1275SOL    HW1 4724   4.480   0.939   3.779
 1275SOL    HW2 4725   4.364   0.869   3.688
 1276SOL     OW 4726   6.769   0.150   3.024
 1276SOL    HW1 4727   6.673   0.156   2.995
 1276SOL    HW2 4728   6.773   0.143   3.124
 1277SOL     OW 4729   0.532   1.150   4.728
 1277SOL    HW1 4730   0.554   1.247   4.735
 1277SOL    HW2 4731   0.585   1.099   4.795
 1278SOL     OW 4732   2.220   2.153   5.331
 1278SOL    HW1 4733   2.272   2.180   5.250
 1278SOL    HW2 4734   2.161   2.228   5.360
 1279SOL     OW 4735   2.443   0.129   0.844
 1279SOL    HW1 4736   2.367   0.065   0.838
 1279SOL    HW2 4737   2.467   0.144   0.940
 1280SOL     OW 4738   2.341   0.270   2.982
 1280SOL    HW1 4739   2.261   0.296   2.927
 1280SOL    HW2 4740   2.341   0.171   2.996
 1281SOL     OW 4741   1.077   5.606   3.194
 1281SOL    HW1 4742   1.142   5.623   3.268
 1281SOL    HW2 4743   1.063   5.507   3.185
 1282SOL     OW 4744   0.785   1.096   0.891
 1282SOL    HW1 4745   0.825   1.008   0.920
 1282SOL    HW2 4746   0.747   1.087   0.800
 1283SOL     OW 4747   5.769   3.703   5.381
 1283SOL    HW1 4748   5.848   3.706   5.320
 1283SOL    HW2 4749   5.800   3.719   5.475
 1284SOL     OW 4750   3.319   2.581   1.672
 1284SOL    HW1 4751   3.220   2.589   1.685
 1284SOL    HW2 4752   3.339   2.492   1.630
 1285SOL     OW 4753   5.437   3.601   6.685
 1285SOL    HW1 4754   5.417   3.518   6.736
 1285SOL    HW2 4755   5.363   3.667   6.699
 1286SOL     OW 4756   4.658   4.662   2.317
 1286SOL    HW1 4757   4.567   4.621   2.308
 1286SOL    HW2 4758   4.716   4.632   2.242
 1287SOL     OW 4759   5.884   4.655   6.908
 1287SOL    HW1 4760   5.788   4.677   6.887
 1287SOL    HW2 4761   5.910   4.572   6.860
 1288SOL     OW 4762   0.340   2.803   0.464
 1288SOL    HW1 4763   0.272   2.844   0.403
 1288SOL    HW2 4764   0.418   2.864   0.474
 1289SOL     OW 4765   0.293   5.812   1.402
 1289SOL    HW1 4766   0.301   5.823   1.303
 1289SOL    HW2 4767   0.245   5.727   1.423
 1290SOL     OW 4768   0.624   0.708   0.086
 1290SOL    HW1 4769   0.622   0.609   0.071
 1290SOL    HW2 4770   0.685   0.751   0.020
 1291SOL     OW 4771   2.013   5.095   6.264
 1291SOL    HW1 4772   2.078   5.030   6.225
 1291SOL    HW2 4773   2.011   5.178   6.208
 1292SOL     OW 4774   6.834   4.371   2.016
 1292SOL    HW1 4775   6.892   4.410   2.087
 1292SOL    HW2 4776   6.891   4.333   1.943
 1293SOL     OW 4777   2.644   1.304   5.954
 1293SOL    HW1 4778   2.741   1.285   5.937
 1293SOL    HW2 4779   2.605   1.351   5.875
 1294SOL     OW 4780   0.267   3.152   1.699
 1294SOL    HW1 4781   0.349   3.122   1.747
 1294SOL    HW2 4782   0.187   3.137   1.757
 1295SOL     OW 4783   6.221   3.971   2.482
 1295SOL    HW1 4784   6.303   3.961   2.538
 1295SOL    HW2 4785   6.224   4.058   2.434
 1296SOL     OW 4786   3.508   1.595   6.261
 1296SOL    HW1 4787   3.602   1.580   6.231
 1296SOL    HW2 4788   3.452   1.624   6.183
 1297SOL     OW 4789   5.690   1.244   5.999
 1297SOL    HW1 4790   5.754   1.298   5.945
 1297SOL    HW2 4791   5.699   1.147   5.974
 1298SOL     OW 4792   5.674   3.300   3.651
 1298SOL    HW1 4793   5.708   3.270   3.740
 1298SOL    HW2 4794   5.670   3.222   3.589
 1299SOL     OW 4795   1.850   3.922   3.519
 1299SOL    HW1 4796   1.814   3.995   3.578
 1299SOL    HW2 4797   1.795   3.917   3.436
 1300SOL     OW 4798   2.947   3.743   2.427
 1300SOL    HW1 4799   2.946   3.798   2.510
 1300SOL    HW2 4800   2.961   3.802   2.347
 1301SOL     OW 4801   1.150   6.398   2.355
 1301SOL    HW1 4802   1.114   6.360   2.441
 1301SOL    HW2 4803   1.148   6.327   2.284
 1302SOL     OW 4804   2.247   6.535   4.819
 1302SOL    HW1 4805   2.326   6.553   4.761
 1302SOL    HW2 4806   2.241   6.606   4.890
 1303SOL     OW 4807   3.940   0.815   0.995
 1303SOL    HW1 4808   3.920   0.755   0.918
 1303SOL    HW2 4809   3.997   0.891   0.964
 1304SOL     OW 4810   1.772   0.742   6.330
 1304SOL    HW1 4811   1.678   0.776   6.331
 1304SOL    HW2 4812   1.819   0.776   6.249
 1305SOL     OW 4813   5.667   5.613   5.297
 1305SOL    HW1 4814   5.623   5.524   5.316
 1305SOL    HW2 4815   5.654   5.637   5.201
 1306SOL     OW 4816   0.750   4.189   5.272
 1306SOL    HW1 4817   0.792   4.163   5.358
 1306SOL    HW2 4818   0.704   4.110   5.232
 1307SOL     OW 4819   1.595   2.866   4.593
 1307SOL    HW1 4820   1.664   2.909   4.534
 1307SOL    HW2 4821   1.586   2.920   4.677
 1308SOL     OW 4822   4.264   5.930   4.735
 1308SOL    HW1 4823   4.236   5.914   4.830
 1308SOL    HW2 4824   4.198   5.991   4.691
 1309SOL     OW 4825   5.524   3.512   5.394
 1309SOL    HW1 4826   5.609   3.564   5.378
 1309SOL    HW2 4827   5.529   3.425   5.345
 1310SOL     OW 4828   5.952   3.745   5.197
 1310SOL    HW1 4829   6.018   3.678   5.164
 1310SOL    HW2 4830   5.998   3.833   5.213
 1311SOL     OW 4831   6.008   6.659   4.015
 1311SOL    HW1 4832   5.912   6.647   3.988
 1311SOL    HW2 4833   6.032   6.591   4.084
 1312SOL     OW 4834   0.831   0.519   6.817
 1312SOL    HW1 4835   0.851   0.509   6.914
 1312SOL    HW2 4836   0.739   0.556   6.805
 1313SOL     OW 4837   2.575   5.623   5.637
 1313SOL    HW1 4838   2.653   5.673   5.602
 1313SOL    HW2 4839   2.499   5.628   5.571
 1314SOL     OW 4840   1.960   1.389   5.753
 1314SOL    HW1 4841   1.879   1.334   5.775
 1314SOL    HW2 4842   1.937   1.453   5.679
 1315SOL     OW 4843   0.748   1.083   0.384
 1315SOL    HW1 4844   0.716   1.064   0.292
 1315SOL    HW2 4845   0.846   1.101   0.383
 1316SOL     OW 4846   1.807   6.836   2.944
 1316SOL    HW1 4847   1.824   6.738   2.957
 1316SOL    HW2 4848   1.719   6.849   2.898
 1317SOL     OW 4849   0.382   4.453   4.521
 1317SOL    HW1 4850   0.374   4.548   4.494
 1317SOL    HW2 4851   0.299   4.403   4.498
 1318SOL     OW 4852   0.766   1.005   0.649
 1318SOL    HW1 4853   0.796   1.013   0.554
 1318SOL    HW2 4854   0.668   0.985   0.651
 1319SOL     OW 4855   6.114   1.499   6.958
 1319SOL    HW1 4856   6.142   1.513   0.034
 1319SOL    HW2 4857   6.155   1.570   6.900
 1320SOL     OW 4858   5.586   4.488   0.060
 1320SOL    HW1 4859   5.576   4.587   0.061
 1320SOL    HW2 4860   5.569   4.452   0.152
 1321SOL     OW 4861   4.275   2.648   0.216
 1321SOL    HW1 4862   4.263   2.572   0.152
 1321SOL    HW2 4863   4.318   2.725   0.168
 1322SOL     OW 4864   5.164   1.183   3.098
 1322SOL    HW1 4865   5.069   1.180   3.127
 1322SOL    HW2 4866   5.169   1.208   3.002
 1323SOL     OW 4867   5.530   1.650   5.274
 1323SOL    HW1 4868   5.611   1.594   5.294
 1323SOL    HW2 4869   5.486   1.677   5.359
 1324SOL     OW 4870   1.646   2.066   1.884
 1324SOL    HW1 4871   1.710   2.074   1.960
 1324SOL    HW2 4872   1.593   2.151   1.875
 1325SOL     OW 4873   2.274   6.996   3.005
 1325SOL    HW1 4874   2.233   6.948   3.082
 1325SOL    HW2 4875   2.297   6.931   2.933
 1326SOL     OW 4876   4.604   2.721   4.468
 1326SOL    HW1 4877   4.635   2.771   4.387
 1326SOL    HW2 4878   4.652   2.755   4.549
 1327SOL     OW 4879   2.481   5.363   2.672
 1327SOL    HW1 4880   2.537   5.444   2.656
 1327SOL    HW2 4881   2.541   5.284   2.685
 1328SOL     OW 4882   1.033   2.035   0.255
 1328SOL    HW1 4883   0.941   2.070   0.241
 1328SOL    HW2 4884   1.099   2.095   0.209
 1329SOL     OW 4885   6.603   1.837   0.944
 1329SOL    HW1 4886   6.631   1.766   0.879
 1329SOL    HW2 4887   6.548   1.905   0.896
 1330SOL     OW 4888   6.534   6.939   0.997
 1330SOL    HW1 4889   6.550   6.843   0.974
 1330SOL    HW2 4890   6.508   6.946   1.093
 1331SOL     OW 4891   5.131   1.947   3.317
 1331SOL    HW1 4892   5.158   1.983   3.406
 1331SOL    HW2 4893   5.173   1.857   3.303
 1332SOL     OW 4894   3.647   0.207   1.084
 1332SOL    HW1 4895   3.664   0.226   1.180
 1332SOL    HW2 4896   3.558   0.162   1.074
 1333SOL     OW 4897   3.516   4.219   5.119
 1333SOL    HW1 4898   3.603   4.199   5.075
 1333SOL    HW2 4899   3.515   4.315   5.149
 1334SOL     OW 4900   0.639   3.184   4.689
 1334SOL    HW1 4901   0.589   3.128   4.756
 1334SOL    HW2 4902   0.659   3.129   4.608
 1335SOL     OW 4903   2.026   6.488   2.920
 1335SOL    HW1 4904   1.988   6.397   2.938
 1335SOL    HW2 4905   1.977   6.530   2.843
 1336SOL     OW 4906   1.194   1.548   6.473
 1336SOL    HW1 4907   1.225   1.639   6.447
 1336SOL    HW2 4908   1.094   1.544   6.465
 1337SOL     OW 4909   1.094   2.565   5.215
 1337SOL    HW1 4910   1.082   2.660   5.242
 1337SOL    HW2 4911   1.019   2.510   5.251
 1338SOL     OW 4912   4.386   3.916   6.467
 1338SOL    HW1 4913   4.422   3.823   6.461
 1338SOL    HW2 4914   4.457   3.977   6.503
 1339SOL     OW 4915   6.943   4.829   6.441
 1339SOL    HW1 4916   6.925   4.922   6.473
 1339SOL    HW2 4917   6.881   4.766   6.487
 1340SOL     OW 4918   0.954   1.770   1.332
 1340SOL    HW1 4919   0.894   1.703   1.289
 1340SOL    HW2 4920   1.027   1.795   1.268
 1341SOL     OW 4921   4.332   0.889   5.154
 1341SOL    HW1 4922   4.408   0.830   5.183
 1341SOL    HW2 4923   4.368   0.972   5.112
 1342SOL     OW 4924   1.601   5.419   6.140
 1342SOL    HW1 4925   1.535   5.459   6.203
 1342SOL    HW2 4926   1.582   5.322   6.128
 1343SOL     OW 4927   3.684   6.716   2.345
 1343SOL    HW1 4928   3.637   6.796   2.383
 1343SOL    HW2 4929   3.761   6.693   2.404
 1344SOL     OW 4930   6.593   2.388   3.482
 1344SOL    HW1 4931   6.692   2.392   3.479
 1344SOL    HW2 4932   6.563   2.295   3.501
 1345SOL     OW 4933   0.882   1.412   3.649
 1345SOL    HW1 4934   0.950   1.484   3.640
 1345SOL    HW2 4935   0.875   1.385   3.745
 1346SOL     OW 4936   1.250   0.038   2.900
 1346SOL    HW1 4937   1.172   0.029   2.837
 1346SOL    HW2 4938   1.254   6.977   2.960
 1347SOL     OW 4939   6.024   6.502   3.730
 1347SOL    HW1 4940   6.023   6.592   3.685
 1347SOL    HW2 4941   6.109   6.491   3.781
 1348SOL     OW 4942   5.634   5.431   3.453
 1348SOL    HW1 4943   5.599   5.363   3.517
 1348SOL    HW2 4944   5.649   5.389   3.364
 1349SOL     OW 4945   4.753   2.921   6.678
 1349SOL    HW1 4946   4.798   3.010   6.673
 1349SOL    HW2 4947   4.664   2.931   6.721
 1350SOL     OW 4948   3.614   4.948   6.751
 1350SOL    HW1 4949   3.519   4.977   6.756
 1350SOL    HW2 4950   3.662   4.974   6.835
 1351SOL     OW 4951   0.901   0.915   2.997
 1351SOL    HW1 4952   0.842   0.938   2.920
 1351SOL    HW2 4953   0.910   0.994   3.057
 1352SOL     OW 4954   0.025   6.876   3.516
 1352SOL    HW1 4955   6.967   6.816   3.538
 1352SOL    HW2 4956   0.013   6.913   3.424
 1353SOL     OW 4957   6.406   4.535   5.606
 1353SOL    HW1 4958   6.437   4.629   5.622
 1353SOL    HW2 4959   6.472   4.471   5.645
 1354SOL     OW 4960   6.858   1.263   1.059
 1354SOL    HW1 4961   6.926   1.276   1.131
 1354SOL    HW2 4962   6.888   1.310   0.976
 1355SOL     OW 4963   5.242   3.804   0.307
 1355SOL    HW1 4964   5.179   3.872   0.270
 1355SOL    HW2 4965   5.293   3.845   0.383
 1356SOL     OW 4966   3.572   3.873   3.662
 1356SOL    HW1 4967   3.639   3.946   3.653
 1356SOL    HW2 4968   3.545   3.864   3.757
 1357SOL     OW 4969   2.552   3.561   6.050
 1357SOL    HW1 4970   2.594   3.499   5.984
 1357SOL    HW2 4971   2.515   3.640   6.001
 1358SOL     OW 4972   2.469   2.609   5.811
 1358SOL    HW1 4973   2.411   2.650   5.882
 1358SOL    HW2 4974   2.411   2.560   5.745
 1359SOL     OW 4975   6.901   3.722   1.425
 1359SOL    HW1 4976   6.935   3.717   1.519
 1359SOL    HW2 4977   6.805   3.749   1.425
 1360SOL     OW 4978   3.598   3.786   2.529
 1360SOL    HW1 4979   3.572   3.710   2.470
 1360SOL    HW2 4980   3.515   3.833   2.560
 1361SOL     OW 4981   0.611   0.010   5.824
 1361SOL    HW1 4982   0.625   0.053   5.735
 1361SOL    HW2 4983   0.571   6.938   5.812
 1362SOL     OW 4984   3.007   3.368   5.449
 1362SOL    HW1 4985   2.926   3.323   5.412
 1362SOL    HW2 4986   3.003   3.466   5.428
 1363SOL     OW 4987   6.038   5.779   3.813
 1363SOL    HW1 4988   6.037   5.834   3.896
 1363SOL    HW2 4989   6.132   5.750   3.793
 1364SOL     OW 4990   0.114   2.884   0.323
 1364SOL    HW1 4991   0.041   2.952   0.331
 1364SOL    HW2 4992   0.082   2.796   0.357
 1365SOL     OW 4993   0.886   4.051   5.552
 1365SOL    HW1 4994   0.824   4.073   5.628
 1365SOL    HW2 4995   0.940   3.971   5.575
 1366SOL     OW 4996   6.903   3.206   1.051
 1366SOL    HW1 4997   6.984   3.235   1.102
 1366SOL    HW2 4998   6.892   3.265   0.971
 1367SOL     OW 4999   1.361   5.021   3.536
 1367SOL    HW1 5000   1.373   5.014   3.437
 1367SOL    HW2 5001   1.317   4.938   3.571
 1368SOL     OW 5002   6.649   6.540   4.311
 1368SOL    HW1 5003   6.722   6.555   4.378
 1368SOL    HW2 5004   6.633   6.625   4.260
 1369SOL     OW 5005   2.604   6.131   1.464
 1369SOL    HW1 5006   2.680   6.068   1.449
 1369SOL    HW2 5007   2.542   6.093   1.532
 1370SOL     OW 5008   6.804   1.683   4.170
 1370SOL    HW1 5009   6.707   1.684   4.193
 1370SOL    HW2 5010   6.814   1.679   4.070
 1371SOL     OW 5011   5.014   1.103   5.354
 1371SOL    HW1 5012   4.989   1.136   5.445
 1371SOL    HW2 5013   5.012   1.003   5.353
 1372SOL     OW 5014   6.272   2.420   1.001
 1372SOL    HW1 5015   6.260   2.331   0.959
 1372SOL    HW2 5016   6.287   2.410   1.100
 1373SOL     OW 5017   5.052   2.084   0.770
 1373SOL    HW1 5018   5.152   2.090   0.773
 1373SOL    HW2 5019   5.014   2.122   0.854
 1374SOL     OW 5020   5.341   4.172   0.248
 1374SOL    HW1 5021   5.427   4.125   0.268
 1374SOL    HW2 5022   5.278   4.160   0.324
 1375SOL     OW 5023   0.077   6.038   6.107
 1375SOL    HW1 5024   0.066   6.092   6.024
 1375SOL    HW2 5025   0.140   5.962   6.090
 1376SOL     OW 5026   3.125   4.616   6.000
 1376SOL    HW1 5027   3.042   4.611   5.944
 1376SOL    HW2 5028   3.154   4.711   6.009
 1377SOL     OW 5029   1.264   2.274   4.316
 1377SOL    HW1 5030   1.342   2.220   4.283
 1377SOL    HW2 5031   1.262   2.271   4.416
 1378SOL     OW 5032   4.623   2.626   4.886
 1378SOL    HW1 5033   4.552   2.569   4.845
 1378SOL    HW2 5034   4.674   2.674   4.815
 1379SOL     OW 5035   4.883   5.962   2.926
 1379SOL    HW1 5036   4.879   6.062   2.928
 1379SOL    HW2 5037   4.968   5.933   2.882
 1380SOL     OW 5038   6.975   6.310   2.621
 1380SOL    HW1 5039   7.015   6.226   2.658
 1380SOL    HW2 5040   6.975   6.381   2.692
 1381SOL     OW 5041   5.632   1.964   6.755
 1381SOL    HW1 5042   5.561   2.035   6.757
 1381SOL    HW2 5043   5.612   1.895   6.825
 1382SOL     OW 5044   4.894   3.427   1.825
 1382SOL    HW1 5045   4.821   3.373   1.785
 1382SOL    HW2 5046   4.966   3.443   1.756
 1383SOL     OW 5047   0.861   6.717   1.496
 1383SOL    HW1 5048   0.765   6.740   1.479
 1383SOL    HW2 5049   0.898   6.668   1.417
 1384SOL     OW 5050   4.230   6.926   1.050
 1384SOL    HW1 5051   4.180   6.889   0.971
 1384SOL    HW2 5052   4.165   6.956   1.120
 1385SOL     OW 5053   2.154   4.913   3.735
 1385SOL    HW1 5054   2.184   4.928   3.640
 1385SOL    HW2 5055   2.217   4.960   3.797
 1386SOL     OW 5056   3.345   6.962   3.086
 1386SOL    HW1 5057   3.395   0.029   3.092
 1386SOL    HW2 5058   3.317   6.933   3.178
 1387SOL     OW 5059   3.175   5.851   1.966
 1387SOL    HW1 5060   3.091   5.826   2.015
 1387SOL    HW2 5061   3.254   5.814   2.014
 1388SOL     OW 5062   6.413   6.345   1.007
 1388SOL    HW1 5063   6.410   6.259   1.058
 1388SOL    HW2 5064   6.413   6.422   1.071
 1389SOL     OW 5065   5.841   2.056   3.322
 1389SOL    HW1 5066   5.806   1.994   3.251
 1389SOL    HW2 5067   5.935   2.030   3.345
 1390SOL     OW 5068   0.202   4.139   0.142
 1390SOL    HW1 5069   0.211   4.053   0.093
 1390SOL    HW2 5070   0.122   4.136   0.202
 1391SOL     OW 5071   6.494   0.146   3.952
 1391SOL    HW1 5072   6.522   0.157   3.857
 1391SOL    HW2 5073   6.546   0.072   3.994
 1392SOL     OW 5074   5.031   5.729   6.231
 1392SOL    HW1 5075   4.972   5.772   6.162
 1392SOL    HW2 5076   5.127   5.748   6.210
 1393SOL     OW 5077   6.113   4.723   5.186
 1393SOL    HW1 5078   6.198   4.684   5.223
 1393SOL    HW2 5079   6.106   4.699   5.089
 1394SOL     OW 5080   2.912   6.050   5.136
 1394SOL    HW1 5081   2.847   6.123   5.157
 1394SOL    HW2 5082   2.926   6.046   5.037
 1395SOL     OW 5083   2.678   4.076   6.267
 1395SOL    HW1 5084   2.763   4.127   6.259
 1395SOL    HW2 5085   2.606   4.124   6.217
 1396SOL     OW 5086   2.119   0.713   4.795
 1396SOL    HW1 5087   2.027   0.681   4.817
 1396SOL    HW2 5088   2.143   0.685   4.702
 1397SOL     OW 5089   0.300   0.458   3.802
 1397SOL    HW1 5090   0.287   0.525   3.729
 1397SOL    HW2 5091   0.384   0.479   3.851
 1398SOL     OW 5092   2.475   0.953   5.614
 1398SOL    HW1 5093   2.434   1.044   5.616
 1398SOL    HW2 5094   2.405   0.886   5.590
 1399SOL     OW 5095   3.719   6.489   0.840
 1399SOL    HW1 5096   3.639   6.429   0.836
 1399SOL    HW2 5097   3.767   6.476   0.926
 1400SOL     OW 5098   6.609   1.165   2.815
 1400SOL    HW1 5099   6.635   1.261   2.826
 1400SOL    HW2 5100   6.615   1.118   2.903
 1401SOL     OW 5101   6.926   2.027   4.866
 1401SOL    HW1 5102   6.900   2.042   4.962
 1401SOL    HW2 5103   7.003   2.086   4.843
 1402SOL     OW 5104   0.758   4.229   0.349
 1402SOL    HW1 5105   0.773   4.185   0.260
 1402SOL    HW2 5106   0.698   4.308   0.338
 1403SOL     OW 5107   2.953   1.771   1.642
 1403SOL    HW1 5108   3.037   1.717   1.627
 1403SOL    HW2 5109   2.972   1.868   1.626
 1404SOL     OW 5110   5.464   6.816   6.944
 1404SOL    HW1 5111   5.405   6.768   6.879
 1404SOL    HW2 5112   5.536   6.755   6.975
 1405SOL     OW 5113   2.342   3.488   1.120
 1405SOL    HW1 5114   2.265   3.481   1.056
 1405SOL    HW2 5115   2.373   3.396   1.143
 1406SOL     OW 5116   1.463   5.317   1.062
 1406SOL    HW1 5117   1.384   5.354   1.111
 1406SOL    HW2 5118   1.472   5.363   0.974
 1407SOL     OW 5119   0.626   2.303   2.140
 1407SOL    HW1 5120   0.623   2.238   2.064
 1407SOL    HW2 5121   0.533   2.328   2.166
 1408SOL     OW 5122   5.443   1.329   5.832
 1408SOL    HW1 5123   5.540   1.330   5.860
 1408SOL    HW2 5124   5.412   1.235   5.823
 1409SOL     OW 5125   0.525   0.262   5.157
 1409SOL    HW1 5126   0.619   0.226   5.161
 1409SOL    HW2 5127   0.521   0.334   5.089
 1410SOL     OW 5128   2.051   3.399   6.384
 1410SOL    HW1 5129   2.112   3.353   6.320
 1410SOL    HW2 5130   2.103   3.466   6.437
 1411SOL     OW 5131   2.433   6.451   2.045
 1411SOL    HW1 5132   2.416   6.451   2.143
 1411SOL    HW2 5133   2.531   6.459   2.028
 1412SOL     OW 5134   0.157   2.095   1.061
 1412SOL    HW1 5135   0.194   2.173   1.011
 1412SOL    HW2 5136   0.075   2.061   1.015
 1413SOL     OW 5137   1.758   1.253   5.334
 1413SOL    HW1 5138   1.839   1.193   5.332
 1413SOL    HW2 5139   1.725   1.261   5.428
 1414SOL     OW 5140   2.699   1.256   1.664
 1414SOL    HW1 5141   2.693   1.240   1.566
 1414SOL    HW2 5142   2.757   1.186   1.706
 1415SOL     OW 5143   2.399   0.764   4.674
 1415SOL    HW1 5144   2.397   0.771   4.774
 1415SOL    HW2 5145   2.309   0.736   4.641
 1416SOL     OW 5146   4.400   4.636   4.528
 1416SOL    HW1 5147   4.422   4.552   4.577
 1416SOL    HW2 5148   4.397   4.712   4.593
 1417SOL     OW 5149   3.166   1.608   6.941
 1417SOL    HW1 5150   3.247   1.589   6.997
 1417SOL    HW2 5151   3.191   1.610   6.845
 1418SOL     OW 5152   2.891   3.368   3.804
 1418SOL    HW1 5153   2.803   3.393   3.845
 1418SOL    HW2 5154   2.957   3.442   3.820
 1419SOL     OW 5155   2.393   6.475   5.050
 1419SOL    HW1 5156   2.477   6.524   5.026
 1419SOL    HW2 5157   2.335   6.467   4.969
 1420SOL     OW 5158   2.444   0.181   1.547
 1420SOL    HW1 5159   2.384   0.259   1.535
 1420SOL    HW2 5160   2.390   0.098   1.563
 1421SOL     OW 5161   1.917   3.226   3.432
 1421SOL    HW1 5162   1.995   3.288   3.445
 1421SOL    HW2 5163   1.949   3.131   3.436
 1422SOL     OW 5164   2.038   3.675   1.570
 1422SOL    HW1 5165   2.035   3.578   1.595
 1422SOL    HW2 5166   2.077   3.684   1.478
 1423SOL     OW 5167   5.306   6.425   3.205
 1423SOL    HW1 5168   5.238   6.390   3.269
 1423SOL    HW2 5169   5.367   6.488   3.252
 1424SOL     OW 5170   6.752   4.552   5.123
 1424SOL    HW1 5171   6.807   4.597   5.053
 1424SOL    HW2 5172   6.667   4.519   5.083
 1425SOL     OW 5173   0.975   6.615   4.325
 1425SOL    HW1 5174   0.914   6.690   4.350
 1425SOL    HW2 5175   1.052   6.612   4.389
 1426SOL     OW 5176   1.393   2.096   6.300
 1426SOL    HW1 5177   1.415   2.041   6.380
 1426SOL    HW2 5178   1.300   2.132   6.309
 1427SOL     OW 5179   0.084   6.587   3.407
 1427SOL    HW1 5180   0.008   6.549   3.355
 1427SOL    HW2 5181   0.098   6.683   3.381
 1428SOL     OW 5182   5.590   2.637   0.838
 1428SOL    HW1 5183   5.594   2.596   0.747
 1428SOL    HW2 5184   5.523   2.711   0.838
 1429SOL     OW 5185   5.352   1.842   0.421
 1429SOL    HW1 5186   5.296   1.761   0.403
 1429SOL    HW2 5187   5.333   1.876   0.513
 1430SOL     OW 5188   2.055   4.864   4.056
 1430SOL    HW1 5189   2.068   4.812   4.140
 1430SOL    HW2 5190   2.128   4.842   3.992
 1431SOL     OW 5191   2.343   1.736   0.509
 1431SOL    HW1 5192   2.296   1.736   0.420
 1431SOL    HW2 5193   2.287   1.688   0.576
 1432SOL     OW 5194   3.504   1.331   2.961
 1432SOL    HW1 5195   3.568   1.404   2.985
 1432SOL    HW2 5196   3.455   1.356   2.877
 1433SOL     OW 5197   4.167   1.300   4.847
 1433SOL    HW1 5198   4.131   1.359   4.918
 1433SOL    HW2 5199   4.113   1.311   4.763
 1434SOL     OW 5200   6.970   0.768   6.180
 1434SOL    HW1 5201   7.015   0.682   6.203
 1434SOL    HW2 5202   0.019   0.832   6.145
 1435SOL     OW 5203   6.209   0.279   2.319
 1435SOL    HW1 5204   6.180   0.369   2.353
 1435SOL    HW2 5205   6.138   0.211   2.341
 1436SOL     OW 5206   5.709   3.749   0.473
 1436SOL    HW1 5207   5.782   3.818   0.468
 1436SOL    HW2 5208   5.640   3.777   0.539
 1437SOL     OW 5209   2.515   2.543   3.281
 1437SOL    HW1 5210   2.594   2.482   3.276
 1437SOL    HW2 5211   2.468   2.529   3.367
 1438SOL     OW 5212   3.368   6.272   1.303
 1438SOL    HW1 5213   3.348   6.198   1.238
 1438SOL    HW2 5214   3.403   6.351   1.254
 1439SOL     OW 5215   6.860   5.814   1.221
 1439SOL    HW1 5216   6.912   5.870   1.286
 1439SOL    HW2 5217   6.763   5.817   1.245
 1440SOL     OW 5218   3.075   3.600   0.210
 1440SOL    HW1 5219   3.063   3.699   0.201
 1440SOL    HW2 5220   3.065   3.574   0.306
 1441SOL     OW 5221   5.934   0.851   2.970
 1441SOL    HW1 5222   5.877   0.820   2.893
 1441SOL    HW2 5223   5.889   0.927   3.016
 1442SOL     OW 5224   6.910   5.649   6.800
 1442SOL    HW1 5225   6.968   5.613   6.872
 1442SOL    HW2 5226   6.815   5.652   6.831
 1443SOL     OW 5227   0.356   2.990   2.478
 1443SOL    HW1 5228   0.365   2.943   2.390
 1443SOL    HW2 5229   0.294   2.938   2.537
 1444SOL     OW 5230   5.282   6.248   0.751
 1444SOL    HW1 5231   5.230   6.324   0.789
 1444SOL    HW2 5232   5.219   6.177   0.719
 1445SOL     OW 5233   0.756   2.644   2.553
 1445SOL    HW1 5234   0.670   2.628   2.601
 1445SOL    HW2 5235   0.829   2.589   2.594
 1446SOL     OW 5236   5.986   0.963   6.972
 1446SOL    HW1 5237   6.032   0.952   6.884
 1446SOL    HW2 5238   6.021   1.044   0.000
 1447SOL     OW 5239   6.128   5.887   4.251
 1447SOL    HW1 5240   6.164   5.865   4.161
 1447SOL    HW2 5241   6.164   5.975   4.282
 1448SOL     OW 5242   6.552   2.707   5.495
 1448SOL    HW1 5243   6.575   2.630   5.555
 1448SOL    HW2 5244   6.458   2.737   5.515
 1449SOL     OW 5245   1.273   3.772   5.488
 1449SOL    HW1 5246   1.371   3.785   5.503
 1449SOL    HW2 5247   1.224   3.858   5.505
 1450SOL     OW 5248   0.788   1.877   0.220
 1450SOL    HW1 5249   0.741   1.845   0.138
 1450SOL    HW2 5250   0.879   1.909   0.197
 1451SOL     OW 5251   1.448   6.704   2.103
 1451SOL    HW1 5252   1.416   6.722   2.010
 1451SOL    HW2 5253   1.527   6.762   2.123
 1452SOL     OW 5254   4.220   2.678   5.490
 1452SOL    HW1 5255   4.155   2.666   5.565
 1452SOL    HW2 5256   4.254   2.772   5.490
 1453SOL     OW 5257   0.849   4.255   5.995
 1453SOL    HW1 5258   0.947   4.260   6.012
 1453SOL    HW2 5259   0.800   4.245   6.081
 1454SOL     OW 5260   1.389   2.199   1.585
 1454SOL    HW1 5261   1.429   2.225   1.673
 1454SOL    HW2 5262   1.307   2.145   1.601
 1455SOL     OW 5263   2.022   6.921   2.161
 1455SOL    HW1 5264   1.973   6.944   2.245
 1455SOL    HW2 5265   2.015   6.997   2.097
 1456SOL     OW 5266   6.367   0.259   6.328
 1456SOL    HW1 5267   6.346   0.293   6.419
 1456SOL    HW2 5268   6.356   0.333   6.261
 1457SOL     OW 5269   0.997   6.148   0.759
 1457SOL    HW1 5270   0.923   6.135   0.693
 1457SOL    HW2 5271   1.059   6.070   0.756
 1458SOL     OW 5272   5.888   4.742   5.329
 1458SOL    HW1 5273   5.979   4.728   5.289
 1458SOL    HW2 5274   5.861   4.661   5.381
 1459SOL     OW 5275   4.180   6.657   5.472
 1459SOL    HW1 5276   4.115   6.691   5.404
 1459SOL    HW2 5277   4.195   6.727   5.542
 1460SOL     OW 5278   1.616   6.684   5.298
 1460SOL    HW1 5279   1.584   6.776   5.319
 1460SOL    HW2 5280   1.592   6.623   5.374
 1461SOL     OW 5281   6.925   4.064   2.900
 1461SOL    HW1 5282   6.885   4.079   2.990
 1461SOL    HW2 5283   6.852   4.055   2.832
 1462SOL     OW 5284   1.204   1.075   6.718
 1462SOL    HW1 5285   1.271   1.064   6.645
 1462SOL    HW2 5286   1.202   1.171   6.747
 1463SOL     OW 5287   1.121   5.072   5.765
 1463SOL    HW1 5288   1.134   5.153   5.707
 1463SOL    HW2 5289   1.176   4.996   5.729
 1464SOL     OW 5290   6.746   5.358   2.397
 1464SOL    HW1 5291   6.734   5.445   2.350
 1464SOL    HW2 5292   6.690   5.287   2.354
 1465SOL     OW 5293   1.502   1.009   4.063
 1465SOL    HW1 5294   1.537   1.100   4.044
 1465SOL    HW2 5295   1.464   1.006   4.156
 1466SOL     OW 5296   3.679   1.773   2.087
 1466SOL    HW1 5297   3.586   1.802   2.061
 1466SOL    HW2 5298   3.690   1.779   2.186
 1467SOL     OW 5299   1.630   1.261   4.025
 1467SOL    HW1 5300   1.665   1.303   3.941
 1467SOL    HW2 5301   1.704   1.255   4.092
 1468SOL     OW 5302   2.093   5.923   2.033
 1468SOL    HW1 5303   2.145   5.988   2.088
 1468SOL    HW2 5304   2.138   5.910   1.945
 1469SOL     OW 5305   6.865   6.669   2.601
 1469SOL    HW1 5306   6.908   6.749   2.560
 1469SOL    HW2 5307   6.853   6.598   2.532
 1470SOL     OW 5308   0.673   1.515   2.101
 1470SOL    HW1 5309   0.611   1.560   2.036
 1470SOL    HW2 5310   0.690   1.576   2.178
 1471SOL     OW 5311   1.059   7.006   0.105
 1471SOL    HW1 5312   1.086   7.005   0.201
 1471SOL    HW2 5313   1.077   0.078   0.067
 1472SOL     OW 5314   3.324   5.800   0.148
 1472SOL    HW1 5315   3.382   5.721   0.124
 1472SOL    HW2 5316   3.341   5.825   0.243
 1473SOL     OW 5317   3.016   5.796   5.222
 1473SOL    HW1 5318   3.107   5.810   5.260
 1473SOL    HW2 5319   2.975   5.885   5.201
 1474SOL     OW 5320   4.870   4.343   1.298
 1474SOL    HW1 5321   4.899   4.377   1.208
 1474SOL    HW2 5322   4.916   4.394   1.370
 1475SOL     OW 5323   5.450   0.845   0.504
 1475SOL    HW1 5324   5.497   0.761   0.477
 1475SOL    HW2 5325   5.439   0.848   0.603
 1476SOL     OW 5326   2.343   1.676   1.310
 1476SOL    HW1 5327   2.389   1.698   1.396
 1476SOL    HW2 5328   2.380   1.590   1.273
 1477SOL     OW 5329   3.574   6.249   6.665
 1477SOL    HW1 5330   3.510   6.267   6.740
 1477SOL    HW2 5331   3.602   6.153   6.667
 1478SOL     OW 5332   6.246   5.235   5.152
 1478SOL    HW1 5333   6.239   5.310   5.087
 1478SOL    HW2 5334   6.189   5.159   5.121
 1479SOL     OW 5335   3.214   3.554   1.287
 1479SOL    HW1 5336   3.289   3.560   1.352
 1479SOL    HW2 5337   3.245   3.586   1.197
 1480SOL     OW 5338   3.057   6.838   4.425
 1480SOL    HW1 5339   3.054   6.864   4.328
 1480SOL    HW2 5340   2.969   6.859   4.468
 1481SOL     OW 5341   5.851   3.494   6.212
 1481SOL    HW1 5342   5.813   3.584   6.235
 1481SOL    HW2 5343   5.911   3.463   6.285
 1482SOL     OW 5344   4.596   0.500   1.484
 1482SOL    HW1 5345   4.621   0.543   1.397
 1482SOL    HW2 5346   4.552   0.567   1.543
 1483SOL     OW 5347   5.705   2.370   5.091
 1483SOL    HW1 5348   5.704   2.446   5.155
 1483SOL    HW2 5349   5.643   2.390   5.014
 1484SOL     OW 5350   4.596   4.814   3.905
 1484SOL    HW1 5351   4.634   4.785   3.818
 1484SOL    HW2 5352   4.637   4.901   3.932
 1485SOL     OW 5353   5.276   0.599   4.362
 1485SOL    HW1 5354   5.206   0.540   4.403
 1485SOL    HW2 5355   5.337   0.544   4.306
 1486SOL     OW 5356   4.987   0.821   3.230
 1486SOL    HW1 5357   4.985   0.799   3.328
 1486SOL    HW2 5358   5.079   0.849   3.204
 1487SOL     OW 5359   0.158   2.080   0.004
 1487SOL    HW1 5360   0.104   2.035   0.076
 1487SOL    HW2 5361   0.201   2.011   6.966
 1488SOL     OW 5362   4.714   0.163   3.469
 1488SOL    HW1 5363   4.803   0.193   3.505
 1488SOL    HW2 5364   4.642   0.188   3.534
 1489SOL     OW 5365   3.401   4.643   6.211
 1489SOL    HW1 5366   3.380   4.552   6.177
 1489SOL    HW2 5367   3.454   4.693   6.142
 1490SOL     OW 5368   0.331   3.530   0.864
 1490SOL    HW1 5369   0.425   3.510   0.891
 1490SOL    HW2 5370   0.311   3.485   0.776
 1491SOL     OW 5371   6.392   4.038   2.675
 1491SOL    HW1 5372   6.319   4.035   2.744
 1491SOL    HW2 5373   6.466   3.976   2.703
 1492SOL     OW 5374   6.036   0.098   2.350
 1492SOL    HW1 5375   5.969   0.079   2.422
 1492SOL    HW2 5376   6.020   0.036   2.273
 1493SOL     OW 5377   3.760   0.148   6.127
 1493SOL    HW1 5378   3.789   0.239   6.154
 1493SOL    HW2 5379   3.836   0.100   6.082
 1494SOL     OW 5380   6.283   2.598   6.604
 1494SOL    HW1 5381   6.223   2.654   6.662
 1494SOL    HW2 5382   6.265   2.501   6.621
 1495SOL     OW 5383   0.091   4.037   5.387
 1495SOL    HW1 5384   0.075   3.942   5.412
 1495SOL    HW2 5385   0.187   4.061   5.404
 1496SOL     OW 5386   1.247   0.605   0.222
 1496SOL    HW1 5387   1.315   0.591   0.151
 1496SOL    HW2 5388   1.195   0.520   0.235
 1497SOL     OW 5389   5.219   3.016   2.186
 1497SOL    HW1 5390   5.139   2.981   2.235
 1497SOL    HW2 5391   5.199   3.022   2.089
 1498SOL     OW 5392   2.565   4.799   0.988
 1498SOL    HW1 5393   2.486   4.774   0.931
 1498SOL    HW2 5394   2.586   4.896   0.974
 1499SOL     OW 5395   0.130   3.126   5.853
 1499SOL    HW1 5396   0.223   3.140   5.818
 1499SOL    HW2 5397   0.135   3.091   5.946
 1500SOL     OW 5398   0.352   6.943   0.296
 1500SOL    HW1 5399   0.266   6.992   0.310
 1500SOL    HW2 5400   0.333   6.851   0.263
 1501SOL     OW 5401   5.742   1.825   6.219
 1501SOL    HW1 5402   5.643   1.810   6.207
 1501SOL    HW2 5403   5.768   1.800   6.312
 1502SOL     OW 5404   4.778   1.018   0.019
 1502SOL    HW1 5405   4.845   1.016   6.964
 1502SOL    HW2 5406   4.824   1.002   0.106
 1503SOL     OW 5407   1.702   3.414   2.341
 1503SOL    HW1 5408   1.783   3.373   2.299
 1503SOL    HW2 5409   1.727   3.500   2.385
 1504SOL     OW 5410   0.433   0.045   3.520
 1504SOL    HW1 5411   0.489   0.100   3.458
 1504SOL    HW2 5412   0.355   0.099   3.552
 1505SOL     OW 5413   5.253   6.985   5.451
 1505SOL    HW1 5414   5.239   6.933   5.535
 1505SOL    HW2 5415   5.312   0.044   5.468
 1506SOL     OW 5416   1.098   6.614   0.061
 1506SOL    HW1 5417   1.150   6.680   0.006
 1506SOL    HW2 5418   1.004   6.647   0.071
 1507SOL     OW 5419   0.166   2.156   5.652
 1507SOL    HW1 5420   0.223   2.115   5.581
 1507SOL    HW2 5421   0.184   2.255   5.657
 1508SOL     OW 5422   6.224   1.659   1.858
 1508SOL    HW1 5423   6.240   1.560   1.860
 1508SOL    HW2 5424   6.154   1.680   1.790
 1509SOL     OW 5425   4.864   2.016   5.093
 1509SOL    HW1 5426   4.772   1.978   5.106
 1509SOL    HW2 5427   4.859   2.115   5.085
 1510SOL     OW 5428   5.591   0.001   4.711
 1510SOL    HW1 5429   5.550   6.929   4.706
 1510SOL    HW2 5430   5.671   7.017   4.771
 1511SOL     OW 5431   4.053   3.672   3.970
 1511SOL    HW1 5432   4.121   3.694   3.901
 1511SOL    HW2 5433   4.054   3.573   3.987
 1512SOL     OW 5434   6.305   5.660   1.581
 1512SOL    HW1 5435   6.299   5.577   1.637
 1512SOL    HW2 5436   6.401   5.689   1.575
 1513SOL     OW 5437   3.573   0.157   4.532
 1513SOL    HW1 5438   3.639   0.083   4.536
 1513SOL    HW2 5439   3.481   0.120   4.521
 1514SOL     OW 5440   3.785   2.858   6.022
 1514SOL    HW1 5441   3.691   2.827   6.035
 1514SOL    HW2 5442   3.816   2.906   6.104
 1515SOL     OW 5443   5.818   1.382   2.601
 1515SOL    HW1 5444   5.893   1.338   2.649
 1515SOL    HW2 5445   5.735   1.379   2.658
 1516SOL     OW 5446   5.794   5.351   5.738
 1516SOL    HW1 5447   5.840   5.284   5.679
 1516SOL    HW2 5448   5.812   5.329   5.834
 1517SOL     OW 5449   4.081   5.857   2.717
 1517SOL    HW1 5450   4.104   5.938   2.663
 1517SOL    HW2 5451   4.014   5.882   2.788
 1518SOL     OW 5452   6.933   3.038   0.447
 1518SOL    HW1 5453   6.946   3.126   0.401
 1518SOL    HW2 5454   6.836   3.017   0.453
 1519SOL     OW 5455   6.257   4.573   0.936
 1519SOL    HW1 5456   6.254   4.523   1.022
 1519SOL    HW2 5457   6.251   4.671   0.954
 1520SOL     OW 5458   0.524   4.609   1.660
 1520SOL    HW1 5459   0.561   4.525   1.620
 1520SOL    HW2 5460   0.565   4.688   1.616
 1521SOL     OW 5461   2.235   4.551   6.713
 1521SOL    HW1 5462   2.141   4.536   6.682
 1521SOL    HW2 5463   2.234   4.594   6.803
 1522SOL     OW 5464   6.539   5.463   4.961
 1522SOL    HW1 5465   6.447   5.437   4.931
 1522SOL    HW2 5466   6.604   5.450   4.886
 1523SOL     OW 5467   3.817   6.388   6.925
 1523SOL    HW1 5468   3.851   6.466   6.979
 1523SOL    HW2 5469   3.717   6.390   6.924
 1524SOL     OW 5470   2.541   1.741   2.223
 1524SOL    HW1 5471   2.466   1.678   2.202
 1524SOL    HW2 5472   2.625   1.710   2.179
 1525SOL     OW 5473   6.256   2.790   0.557
 1525SOL    HW1 5474   6.224   2.695   0.559
 1525SOL    HW2 5475   6.195   2.845   0.501
 1526SOL     OW 5476   6.922   1.089   0.139
 1526SOL    HW1 5477   7.018   1.065   0.153
 1526SOL    HW2 5478   6.864   1.029   0.194
 1527SOL     OW 5479   3.542   1.000   4.051
 1527SOL    HW1 5480   3.496   0.993   3.963
 1527SOL    HW2 5481   3.626   0.947   4.049
 1528SOL     OW 5482   4.359   4.698   2.366
 1528SOL    HW1 5483   4.401   4.755   2.436
 1528SOL    HW2 5484   4.373   4.740   2.276
 1529SOL     OW 5485   4.550   0.916   6.907
 1529SOL    HW1 5486   4.468   0.940   6.958
 1529SOL    HW2 5487   4.628   0.969   6.941
 1530SOL     OW 5488   3.450   1.365   1.505
 1530SOL    HW1 5489   3.462   1.447   1.562
 1530SOL    HW2 5490   3.527   1.303   1.519
 1531SOL     OW 5491   4.849   0.640   4.651
 1531SOL    HW1 5492   4.813   0.579   4.721
 1531SOL    HW2 5493   4.852   0.734   4.688
 1532SOL     OW 5494   3.907   3.928   5.863
 1532SOL    HW1 5495   3.853   3.933   5.946
 1532SOL    HW2 5496   3.999   3.963   5.881
 1533SOL     OW 5497   6.086   5.564   0.177
 1533SOL    HW1 5498   6.137   5.627   0.235
 1533SOL    HW2 5499   6.065   5.608   0.090
 1534SOL     OW 5500   3.025   6.032   6.219
 1534SOL    HW1 5501   2.953   6.089   6.178
 1534SOL    HW2 5502   3.065   6.081   6.297
 1535SOL     OW 5503   5.063   5.537   4.543
 1535SOL    HW1 5504   5.077   5.606   4.473
 1535SOL    HW2 5505   4.971   5.498   4.534
 1536SOL     OW 5506   4.181   5.252   6.278
 1536SOL    HW1 5507   4.260   5.286   6.228
 1536SOL    HW2 5508   4.211   5.184   6.346
 1537SOL     OW 5509   4.499   5.939   4.157
 1537SOL    HW1 5510   4.528   5.887   4.077
 1537SOL    HW2 5511   4.404   5.919   4.178
 1538SOL     OW 5512   3.456   6.614   6.699
 1538SOL    HW1 5513   3.357   6.601   6.707
 1538SOL    HW2 5514   3.488   6.575   6.612
 1539SOL     OW 5515   4.871   3.695   2.005
 1539SOL    HW1 5516   4.835   3.609   1.970
 1539SOL    HW2 5517   4.950   3.676   2.064
 1540SOL     OW 5518   0.480   6.909   5.408
 1540SOL    HW1 5519   0.515   6.824   5.367
 1540SOL    HW2 5520   0.387   6.925   5.377
 1541SOL     OW 5521   3.424   3.032   4.407
 1541SOL    HW1 5522   3.435   3.087   4.325
 1541SOL    HW2 5523   3.331   3.042   4.443
 1542SOL     OW 5524   6.727   0.370   2.287
 1542SOL    HW1 5525   6.796   0.373   2.215
 1542SOL    HW2 5526   6.693   0.276   2.296
 1543SOL     OW 5527   3.646   4.996   4.873
 1543SOL    HW1 5528   3.692   4.974   4.787
 1543SOL    HW2 5529   3.549   4.970   4.867
 1544SOL     OW 5530   3.420   3.303   3.458
 1544SOL    HW1 5531   3.396   3.206   3.464
 1544SOL    HW2 5532   3.391   3.339   3.369
 1545SOL     OW 5533   4.326   0.650   3.126
 1545SOL    HW1 5534   4.323   0.551   3.143
 1545SOL    HW2 5535   4.340   0.666   3.028
 1546SOL     OW 5536   5.183   6.388   5.157
 1546SOL    HW1 5537   5.227   6.331   5.226
 1546SOL    HW2 5538   5.084   6.376   5.162
 1547SOL     OW 5539   1.601   3.965   1.069
 1547SOL    HW1 5540   1.610   3.866   1.081
 1547SOL    HW2 5541   1.684   4.000   1.024
 1548SOL     OW 5542   5.128   3.998   6.961
 1548SOL    HW1 5543   5.086   3.996   0.033
 1548SOL    HW2 5544   5.222   4.030   6.968
 1549SOL     OW 5545   3.863   1.570   1.561
 1549SOL    HW1 5546   3.867   1.507   1.638
 1549SOL    HW2 5547   3.812   1.529   1.486
 1550SOL     OW 5548   2.711   3.852   0.995
 1550SOL    HW1 5549   2.649   3.781   1.028
 1550SOL    HW2 5550   2.735   3.913   1.069
 1551SOL     OW 5551   2.106   4.479   6.344
 1551SOL    HW1 5552   2.092   4.539   6.423
 1551SOL    HW2 5553   2.121   4.535   6.262
 1552SOL     OW 5554   1.940   5.492   1.104
 1552SOL    HW1 5555   2.020   5.440   1.074
 1552SOL    HW2 5556   1.935   5.578   1.054
 1553SOL     OW 5557   5.939   1.418   6.706
 1553SOL    HW1 5558   5.926   1.364   6.622
 1553SOL    HW2 5559   6.017   1.382   6.756
 1554SOL     OW 5560   3.510   1.918   3.624
 1554SOL    HW1 5561   3.431   1.885   3.677
 1554SOL    HW2 5562   3.498   2.015   3.603
 1555SOL     OW 5563   5.844   3.253   0.065
 1555SOL    HW1 5564   5.793   3.335   0.092
 1555SOL    HW2 5565   5.790   3.202   7.018
 1556SOL     OW 5566   1.967   2.056   0.009
 1556SOL    HW1 5567   1.955   2.016   6.938
 1556SOL    HW2 5568   2.062   2.086   0.020
 1557SOL     OW 5569   1.770   2.529   5.031
 1557SOL    HW1 5570   1.676   2.515   5.062
 1557SOL    HW2 5571   1.780   2.622   4.995
 1558SOL     OW 5572   6.217   0.622   4.702
 1558SOL    HW1 5573   6.302   0.672   4.683
 1558SOL    HW2 5574   6.147   0.686   4.732
 1559SOL     OW 5575   1.829   2.953   6.643
 1559SOL    HW1 5576   1.885   3.036   6.634
 1559SOL    HW2 5577   1.824   2.927   6.739
 1560SOL     OW 5578   0.075   0.527   6.320
 1560SOL    HW1 5579   0.143   0.493   6.255
 1560SOL    HW2 5580   0.121   0.561   6.401
 1561SOL     OW 5581   4.933   6.142   3.950
 1561SOL    HW1 5582   4.913   6.203   3.874
 1561SOL    HW2 5583   4.995   6.187   4.014
 1562SOL     OW 5584   4.870   6.252   2.603
 1562SOL    HW1 5585   4.857   6.182   2.533
 1562SOL    HW2 5586   4.808   6.236   2.680
 1563SOL     OW 5587   2.496   0.271   4.893
 1563SOL    HW1 5588   2.527   0.359   4.929
 1563SOL    HW2 5589   2.524   0.198   4.956
 1564SOL     OW 5590   1.448   1.554   3.239
 1564SOL    HW1 5591   1.377   1.616   3.205
 1564SOL    HW2 5592   1.414   1.460   3.238
 1565SOL     OW 5593   5.058   4.283   3.290
 1565SOL    HW1 5594   5.027   4.367   3.247
 1565SOL    HW2 5595   5.131   4.242   3.235
 1566SOL     OW 5596   5.780   4.344   2.740
 1566SOL    HW1 5597   5.851   4.413   2.747
 1566SOL    HW2 5598   5.773   4.294   2.827
 1567SOL     OW 5599   6.595   6.072   0.827
 1567SOL    HW1 5600   6.599   6.021   0.741
 1567SOL    HW2 5601   6.583   6.170   0.808
 1568SOL     OW 5602   1.526   6.613   6.903
 1568SOL    HW1 5603   1.474   6.660   6.831
 1568SOL    HW2 5604   1.573   6.534   6.864
 1569SOL     OW 5605   4.283   6.075   3.573
 1569SOL    HW1 5606   4.187   6.074   3.545
 1569SOL    HW2 5607   4.314   6.170   3.582
 1570SOL     OW 5608   1.728   0.227   0.588
 1570SOL    HW1 5609   1.683   0.247   0.675
 1570SOL    HW2 5610   1.766   0.134   0.591
 1571SOL     OW 5611   5.843   2.424   0.844
 1571SOL    HW1 5612   5.762   2.473   0.813
 1571SOL    HW2 5613   5.910   2.490   0.878
 1572SOL     OW 5614   0.411   0.316   1.330
 1572SOL    HW1 5615   0.349   0.261   1.385
 1572SOL    HW2 5616   0.481   0.257   1.288
 1573SOL     OW 5617   5.238   1.724   2.155
 1573SOL    HW1 5618   5.222   1.789   2.081
 1573SOL    HW2 5619   5.310   1.660   2.128
 1574SOL     OW 5620   6.240   1.086   2.210
 1574SOL    HW1 5621   6.255   0.997   2.167
 1574SOL    HW2 5622   6.328   1.126   2.236
 1575SOL     OW 5623   3.090   1.289   0.393
 1575SOL    HW1 5624   3.003   1.244   0.376
 1575SOL    HW2 5625   3.074   1.375   0.442
 1576SOL     OW 5626   6.610   6.076   4.344
 1576SOL    HW1 5627   6.552   6.154   4.322
 1576SOL    HW2 5628   6.704   6.096   4.315
 1577SOL     OW 5629   3.112   1.689   4.174
 1577SOL    HW1 5630   3.193   1.684   4.232
 1577SOL    HW2 5631   3.137   1.728   4.085
 1578SOL     OW 5632   6.161   3.575   5.893
 1578SOL    HW1 5633   6.223   3.642   5.852
 1578SOL    HW2 5634   6.212   3.512   5.950
 1579SOL     OW 5635   0.106   1.548   3.297
 1579SOL    HW1 5636   0.132   1.451   3.304
 1579SOL    HW2 5637   0.178   1.605   3.338
 1580SOL     OW 5638   2.687   3.643   5.666
 1580SOL    HW1 5639   2.624   3.694   5.608
 1580SOL    HW2 5640   2.710   3.696   5.747
 1581SOL     OW 5641   0.106   4.559   4.826
 1581SOL    HW1 5642   0.169   4.482   4.833
 1581SOL    HW2 5643   0.089   4.596   4.917
 1582SOL     OW 5644   1.581   6.811   4.268
 1582SOL    HW1 5645   1.487   6.846   4.271
 1582SOL    HW2 5646   1.580   6.719   4.229
 1583SOL     OW 5647   0.927   3.071   3.823
 1583SOL    HW1 5648   0.983   3.143   3.864
 1583SOL    HW2 5649   0.967   2.982   3.843
 1584SOL     OW 5650   1.618   6.487   4.557
 1584SOL    HW1 5651   1.682   6.553   4.597
 1584SOL    HW2 5652   1.626   6.400   4.606
 1585SOL     OW 5653   5.832   1.653   3.392
 1585SOL    HW1 5654   5.894   1.717   3.347
 1585SOL    HW2 5655   5.749   1.641   3.337
 1586SOL     OW 5656   3.600   4.283   1.468
 1586SOL    HW1 5657   3.611   4.255   1.372
 1586SOL    HW2 5658   3.690   4.297   1.509
 1587SOL     OW 5659   3.225   4.922   0.227
 1587SOL    HW1 5660   3.178   4.989   0.169
 1587SOL    HW2 5661   3.278   4.860   0.169
 1588SOL     OW 5662   4.652   1.489   3.056
 1588SOL    HW1 5663   4.744   1.493   3.019
 1588SOL    HW2 5664   4.656   1.493   3.156
 1589SOL     OW 5665   5.765   4.207   3.339
 1589SOL    HW1 5666   5.667   4.207   3.323
 1589SOL    HW2 5667   5.799   4.113   3.341
 1590SOL     OW 5668   2.323   6.863   5.803
 1590SOL    HW1 5669   2.229   6.832   5.814
 1590SOL    HW2 5670   2.333   6.954   5.843
 1591SOL     OW 5671   0.885   4.916   3.024
 1591SOL    HW1 5672   0.930   4.828   3.009
 1591SOL    HW2 5673   0.954   4.987   3.038
 1592SOL     OW 5674   2.775   4.452   1.523
 1592SOL    HW1 5675   2.775   4.530   1.586
 1592SOL    HW2 5676   2.723   4.376   1.563
 1593SOL     OW 5677   1.170   6.490   3.445
 1593SOL    HW1 5678   1.157   6.392   3.459
 1593SOL    HW2 5679   1.082   6.537   3.448
 1594SOL     OW 5680   0.351   5.058   2.934
 1594SOL    HW1 5681   0.346   4.959   2.945
 1594SOL    HW2 5682   0.291   5.086   2.859
 1595SOL     OW 5683   0.663   4.549   6.331
 1595SOL    HW1 5684   0.578   4.564   6.381
 1595SOL    HW2 5685   0.709   4.637   6.315
 1596SOL     OW 5686   0.854   2.859   5.710
 1596SOL    HW1 5687   0.881   2.854   5.613
 1596SOL    HW2 5688   0.771   2.914   5.719
 1597SOL     OW 5689   2.849   5.673   0.783
 1597SOL    HW1 5690   2.813   5.677   0.689
 1597SOL    HW2 5691   2.803   5.743   0.838
 1598SOL     OW 5692   0.773   4.137   0.094
 1598SOL    HW1 5693   0.675   4.142   0.111
 1598SOL    HW2 5694   0.790   4.085   0.010
 1599SOL     OW 5695   4.816   3.898   6.025
 1599SOL    HW1 5696   4.868   3.947   6.095
 1599SOL    HW2 5697   4.828   3.800   6.037
 1600SOL     OW 5698   5.226   2.030   5.131
 1600SOL    HW1 5699   5.293   1.956   5.120
 1600SOL    HW2 5700   5.135   1.996   5.112
 1601SOL     OW 5701   0.263   5.508   4.686
 1601SOL    HW1 5702   0.176   5.461   4.695
 1601SOL    HW2 5703   0.265   5.559   4.600
 1602SOL     OW 5704   1.964   5.524   4.056
 1602SOL    HW1 5705   1.981   5.507   4.153
 1602SOL    HW2 5706   1.881   5.476   4.028
 1603SOL     OW 5707   0.699   6.109   2.087
 1603SOL    HW1 5708   0.612   6.076   2.122
 1603SOL    HW2 5709   0.771   6.088   2.153
 1604SOL     OW 5710   5.944   4.778   0.115
 1604SOL    HW1 5711   5.915   4.724   0.193
 1604SOL    HW2 5712   5.937   4.723   0.031
 1605SOL     OW 5713   6.248   6.964   1.971
 1605SOL    HW1 5714   6.340   6.956   2.009
 1605SOL    HW2 5715   6.252   7.007   1.880
 1606SOL     OW 5716   4.111   0.554   5.348
 1606SOL    HW1 5717   4.015   0.579   5.338
 1606SOL    HW2 5718   4.160   0.579   5.264
 1607SOL     OW 5719   4.876   2.701   0.707
 1607SOL    HW1 5720   4.834   2.774   0.761
 1607SOL    HW2 5721   4.810   2.670   0.638
 1608SOL     OW 5722   1.401   0.583   5.674
 1608SOL    HW1 5723   1.348   0.662   5.704
 1608SOL    HW2 5724   1.497   0.609   5.664
 1609SOL     OW 5725   4.147   0.955   6.699
 1609SOL    HW1 5726   4.179   0.905   6.780
 1609SOL    HW2 5727   4.184   1.048   6.699
 1610SOL     OW 5728   6.196   3.806   5.443
 1610SOL    HW1 5729   6.181   3.887   5.386
 1610SOL    HW2 5730   6.256   3.742   5.395
 1611SOL     OW 5731   3.343   3.406   1.975
 1611SOL    HW1 5732   3.363   3.397   2.073
 1611SOL    HW2 5733   3.429   3.419   1.925
 1612SOL     OW 5734   3.169   1.197   5.476
 1612SOL    HW1 5735   3.105   1.122   5.489
 1612SOL    HW2 5736   3.260   1.170   5.507
 1613SOL     OW 5737   1.727   6.075   1.259
 1613SOL    HW1 5738   1.816   6.058   1.301
 1613SOL    HW2 5739   1.706   6.173   1.264
 1614SOL     OW 5740   6.557   4.214   0.599
 1614SOL    HW1 5741   6.586   4.301   0.638
 1614SOL    HW2 5742   6.597   4.139   0.651
 1615SOL     OW 5743   6.359   4.889   0.983
 1615SOL    HW1 5744   6.417   4.888   0.901
 1615SOL    HW2 5745   6.275   4.939   0.964
 1616SOL     OW 5746   4.294   2.477   6.015
 1616SOL    HW1 5747   4.368   2.473   5.947
 1616SOL    HW2 5748   4.245   2.390   6.016
 1617SOL     OW 5749   5.553   6.941   1.150
 1617SOL    HW1 5750   5.561   0.006   1.096
 1617SOL    HW2 5751   5.506   6.871   1.096
 1618SOL     OW 5752   0.579   3.936   1.037
 1618SOL    HW1 5753   0.626   3.866   0.983
 1618SOL    HW2 5754   0.615   3.936   1.130
 1619SOL     OW 5755   1.542   1.980   4.696
 1619SOL    HW1 5756   1.597   2.064   4.700
 1619SOL    HW2 5757   1.501   1.963   4.786
 1620SOL     OW 5758   1.927   5.740   1.001
 1620SOL    HW1 5759   2.020   5.776   0.999
 1620SOL    HW2 5760   1.861   5.815   1.005
 1621SOL     OW 5761   0.375   0.792   0.505
 1621SOL    HW1 5762   0.443   0.779   0.433
 1621SOL    HW2 5763   0.319   0.709   0.514
 1622SOL     OW 5764   1.620   2.167   4.427
 1622SOL    HW1 5765   1.615   2.179   4.526
 1622SOL    HW2 5766   1.708   2.202   4.393
 1623SOL     OW 5767   2.525   2.961   5.877
 1623SOL    HW1 5768   2.503   2.866   5.854
 1623SOL    HW2 5769   2.509   3.019   5.798
 1624SOL     OW 5770   3.281   0.932   5.813
 1624SOL    HW1 5771   3.377   0.921   5.787
 1624SOL    HW2 5772   3.228   0.856   5.775
 1625SOL     OW 5773   1.318   5.556   2.172
 1625SOL    HW1 5774   1.415   5.576   2.155
 1625SOL    HW2 5775   1.302   5.458   2.159
 1626SOL     OW 5776   2.633   1.580   6.611
 1626SOL    HW1 5777   2.691   1.635   6.551
 1626SOL    HW2 5778   2.614   1.632   6.695
 1627SOL     OW 5779   6.853   2.756   4.749
 1627SOL    HW1 5780   6.809   2.796   4.669
 1627SOL    HW2 5781   6.949   2.783   4.751
 1628SOL     OW 5782   4.548   5.249   6.823
 1628SOL    HW1 5783   4.596   5.163   6.805
 1628SOL    HW2 5784   4.489   5.237   6.903
 1629SOL     OW 5785   3.225   2.094   4.007
 1629SOL    HW1 5786   3.314   2.138   4.020
 1629SOL    HW2 5787   3.163   2.156   3.960
 1630SOL     OW 5788   0.993   6.029   5.820
 1630SOL    HW1 5789   1.085   6.066   5.812
 1630SOL    HW2 5790   0.931   6.101   5.851
 1631SOL     OW 5791   6.724   0.941   6.244
 1631SOL    HW1 5792   6.796   0.879   6.276
 1631SOL    HW2 5793   6.759   0.998   6.170
 1632SOL     OW 5794   0.194   1.658   0.024
 1632SOL    HW1 5795   0.237   1.568   0.018
 1632SOL    HW2 5796   0.098   1.651   7.016
 1633SOL     OW 5797   5.166   2.152   3.727
 1633SOL    HW1 5798   5.096   2.156   3.656
 1633SOL    HW2 5799   5.256   2.148   3.684
 1634SOL     OW 5800   4.212   5.390   5.363
 1634SOL    HW1 5801   4.305   5.418   5.385
 1634SOL    HW2 5802   4.166   5.356   5.445
 1635SOL     OW 5803   6.494   4.874   5.010
 1635SOL    HW1 5804   6.502   4.793   4.953
 1635SOL    HW2 5805   6.580   4.888   5.060
 1636SOL     OW 5806   2.148   4.165   1.104
 1636SOL    HW1 5807   2.197   4.114   1.033
 1636SOL    HW2 5808   2.063   4.202   1.067
 1637SOL     OW 5809   6.263   1.158   2.776
 1637SOL    HW1 5810   6.338   1.167   2.711
 1637SOL    HW2 5811   6.262   1.065   2.813
 1638SOL     OW 5812   1.180   4.265   3.919
 1638SOL    HW1 5813   1.129   4.232   3.998
 1638SOL    HW2 5814   1.207   4.360   3.934
 1639SOL     OW 5815   4.897   6.605   2.457
 1639SOL    HW1 5816   4.901   6.573   2.363
 1639SOL    HW2 5817   4.802   6.615   2.484
 1640SOL     OW 5818   5.906   1.894   1.008
 1640SOL    HW1 5819   5.925   1.985   0.971
 1640SOL    HW2 5820   5.990   1.854   1.043
 1641SOL     OW 5821   5.764   2.510   3.873
 1641SOL    HW1 5822   5.699   2.580   3.903
 1641SOL    HW2 5823   5.762   2.503   3.773
 1642SOL     OW 5824   6.948   3.496   0.425
 1642SOL    HW1 5825   0.007   3.480   0.365
 1642SOL    HW2 5826   6.967   3.459   0.516
 1643SOL     OW 5827   3.104   6.251   4.072
 1643SOL    HW1 5828   3.200   6.280   4.065
 1643SOL    HW2 5829   3.045   6.331   4.061
 1644SOL     OW 5830   1.751   2.296   0.919
 1644SOL    HW1 5831   1.790   2.340   0.839
 1644SOL    HW2 5832   1.814   2.226   0.953
 1645SOL     OW 5833   3.104   6.243   5.349
 1645SOL    HW1 5834   3.143   6.161   5.308
 1645SOL    HW2 5835   3.048   6.217   5.428
 1646SOL     OW 5836   2.696   5.203   1.313
 1646SOL    HW1 5837   2.670   5.108   1.332
 1646SOL    HW2 5838   2.614   5.261   1.312
 1647SOL     OW 5839   5.413   2.644   4.292
 1647SOL    HW1 5840   5.489   2.682   4.240
 1647SOL    HW2 5841   5.447   2.575   4.357
 1648SOL     OW 5842   6.136   6.269   1.761
 1648SOL    HW1 5843   6.167   6.233   1.849
 1648SOL    HW2 5844   6.047   6.312   1.772
 1649SOL     OW 5845   3.201   0.315   3.299
 1649SOL    HW1 5846   3.222   0.269   3.385
 1649SOL    HW2 5847   3.177   0.411   3.318
 1650SOL     OW 5848   2.742   6.785   4.195
 1650SOL    HW1 5849   2.712   6.689   4.197
 1650SOL    HW2 5850   2.841   6.789   4.200
 1651SOL     OW 5851   0.861   0.831   1.041
 1651SOL    HW1 5852   0.860   0.792   1.133
 1651SOL    HW2 5853   0.956   0.843   1.012
 1652SOL     OW 5854   1.841   2.456   1.714
 1652SOL    HW1 5855   1.840   2.447   1.614
 1652SOL    HW2 5856   1.899   2.384   1.753
 1653SOL     OW 5857   0.970   6.200   1.686
 1653SOL    HW1 5858   0.981   6.124   1.749
 1653SOL    HW2 5859   0.884   6.190   1.636
 1654SOL     OW 5860   6.934   3.027   1.952
 1654SOL    HW1 5861   0.002   3.007   1.998
 1654SOL    HW2 5862   6.949   3.030   1.853
 1655SOL     OW 5863   5.570   3.871   6.096
 1655SOL    HW1 5864   5.630   3.949   6.115
 1655SOL    HW2 5865   5.539   3.875   6.000
 1656SOL     OW 5866   1.658   4.239   3.301
 1656SOL    HW1 5867   1.751   4.202   3.304
 1656SOL    HW2 5868   1.661   4.337   3.322
 1657SOL     OW 5869   7.009   1.543   4.495
 1657SOL    HW1 5870   0.001   1.625   4.439
 1657SOL    HW2 5871   6.922   1.549   4.545
 1658SOL     OW 5872   0.011   0.286   3.086
 1658SOL    HW1 5873   6.965   0.258   3.157
 1658SOL    HW2 5874   0.022   0.212   3.020
 1659SOL     OW 5875   4.122   2.000   6.195
 1659SOL    HW1 5876   4.117   2.077   6.258
 1659SOL    HW2 5877   4.061   1.927   6.227
 1660SOL     OW 5878   1.509   5.259   4.179
 1660SOL    HW1 5879   1.510   5.298   4.272
 1660SOL    HW2 5880   1.414   5.240   4.153
 1661SOL     OW 5881   3.383   1.863   1.666
 1661SOL    HW1 5882   3.461   1.908   1.709
 1661SOL    HW2 5883   3.363   1.909   1.579
 1662SOL     OW 5884   6.158   0.847   3.664
 1662SOL    HW1 5885   6.244   0.851   3.715
 1662SOL    HW2 5886   6.161   0.911   3.588
 1663SOL     OW 5887   2.437   1.096   3.174
 1663SOL    HW1 5888   2.441   1.193   3.197
 1663SOL    HW2 5889   2.515   1.048   3.215
 1664SOL     OW 5890   1.421   0.376   3.850
 1664SOL    HW1 5891   1.334   0.352   3.893
 1664SOL    HW2 5892   1.478   0.426   3.915
 1665SOL     OW 5893   6.938   1.810   2.762
 1665SOL    HW1 5894   6.922   1.731   2.704
 1665SOL    HW2 5895   7.007   1.788   2.831
 1666SOL     OW 5896   6.114   3.065   0.673
 1666SOL    HW1 5897   6.014   3.059   0.676
 1666SOL    HW2 5898   6.149   2.994   0.611
 1667SOL     OW 5899   5.580   6.726   0.377
 1667SOL    HW1 5900   5.519   6.785   0.430
 1667SOL    HW2 5901   5.675   6.744   0.402
 1668SOL     OW 5902   4.863   6.454   5.480
 1668SOL    HW1 5903   4.805   6.528   5.513
 1668SOL    HW2 5904   4.827   6.366   5.513
 1669SOL     OW 5905   6.296   6.554   0.537
 1669SOL    HW1 5906   6.343   6.632   0.578
 1669SOL    HW2 5907   6.268   6.490   0.609
 1670SOL     OW 5908   0.398   5.612   6.082
 1670SOL    HW1 5909   0.473   5.611   6.017
 1670SOL    HW2 5910   0.433   5.598   6.174
 1671SOL     OW 5911   4.293   2.195   1.154
 1671SOL    HW1 5912   4.197   2.222   1.149
 1671SOL    HW2 5913   4.348   2.272   1.185
 1672SOL     OW 5914   1.940   3.947   3.058
 1672SOL    HW1 5915   2.013   3.949   3.126
 1672SOL    HW2 5916   1.956   4.018   2.990
 1673SOL     OW 5917   0.666   2.321   4.463
 1673SOL    HW1 5918   0.570   2.344   4.453
 1673SOL    HW2 5919   0.719   2.367   4.391
 1674SOL     OW 5920   1.606   3.743   1.558
 1674SOL    HW1 5921   1.675   3.735   1.486
 1674SOL    HW2 5922   1.576   3.652   1.587
 1675SOL     OW 5923   4.320   0.052   6.016
 1675SOL    HW1 5924   4.273   0.134   6.051
 1675SOL    HW2 5925   4.330   7.004   6.089
 1676SOL     OW 5926   2.964   1.582   2.495
 1676SOL    HW1 5927   2.959   1.483   2.500
 1676SOL    HW2 5928   2.974   1.611   2.400
 1677SOL     OW 5929   4.776   2.422   5.808
 1677SOL    HW1 5930   4.738   2.335   5.776
 1677SOL    HW2 5931   4.736   2.497   5.757
 1678SOL     OW 5932   5.424   4.704   4.565
 1678SOL    HW1 5933   5.389   4.709   4.658
 1678SOL    HW2 5934   5.439   4.796   4.530
 1679SOL     OW 5935   1.955   3.851   5.548
 1679SOL    HW1 5936   2.045   3.814   5.571
 1679SOL    HW2 5937   1.951   3.870   5.450
 1680SOL     OW 5938   1.095   1.837   4.132
 1680SOL    HW1 5939   1.145   1.793   4.057
 1680SOL    HW2 5940   1.152   1.835   4.214
 1681SOL     OW 5941   6.800   5.645   0.921
 1681SOL    HW1 5942   6.849   5.702   0.988
 1681SOL    HW2 5943   6.859   5.629   0.842
 1682SOL     OW 5944   0.191   3.074   4.862
 1682SOL    HW1 5945   0.205   3.172   4.844
 1682SOL    HW2 5946   0.093   3.057   4.875
 1683SOL     OW 5947   4.412   5.192   1.146
 1683SOL    HW1 5948   4.326   5.151   1.112
 1683SOL    HW2 5949   4.489   5.141   1.109
 1684SOL     OW 5950   1.045   6.645   3.118
 1684SOL    HW1 5951   1.028   6.718   3.184
 1684SOL    HW2 5952   0.958   6.600   3.095
 1685SOL     OW 5953   2.104   1.193   6.522
 1685SOL    HW1 5954   2.178   1.259   6.532
 1685SOL    HW2 5955   2.101   1.133   6.602
 1686SOL     OW 5956   2.305   5.407   5.608
 1686SOL    HW1 5957   2.323   5.386   5.704
 1686SOL    HW2 5958   2.389   5.396   5.555
 1687SOL     OW 5959   1.698   3.248   1.515
 1687SOL    HW1 5960   1.727   3.233   1.421
 1687SOL    HW2 5961   1.750   3.187   1.576
 1688SOL     OW 5962   1.907   2.048   3.731
 1688SOL    HW1 5963   1.877   2.128   3.680
 1688SOL    HW2 5964   1.944   1.980   3.668
 1689SOL     OW 5965   3.452   0.976   1.941
 1689SOL    HW1 5966   3.540   0.935   1.915
 1689SOL    HW2 5967   3.466   1.038   2.018
 1690SOL     OW 5968   1.356   2.824   2.772
 1690SOL    HW1 5969   1.408   2.904   2.742
 1690SOL    HW2 5970   1.420   2.750   2.796
 1691SOL     OW 5971   5.129   4.055   3.019
 1691SOL    HW1 5972   5.153   3.960   3.041
 1691SOL    HW2 5973   5.030   4.067   3.029
 1692SOL     OW 5974   6.850   6.669   1.339
 1692SOL    HW1 5975   6.842   6.629   1.431
 1692SOL    HW2 5976   6.936   6.719   1.332
 1693SOL     OW 5977   1.682   2.647   2.618
 1693SOL    HW1 5978   1.731   2.567   2.583
 1693SOL    HW2 5979   1.626   2.686   2.544
 1694SOL     OW 5980   4.377   6.626   4.216
 1694SOL    HW1 5981   4.297   6.570   4.198
 1694SOL    HW2 5982   4.458   6.585   4.173
 1695SOL     OW 5983   2.443   0.815   4.953
 1695SOL    HW1 5984   2.521   0.868   4.920
 1695SOL    HW2 5985   2.377   0.876   4.998
 1696SOL     OW 5986   5.174   5.358   0.703
 1696SOL    HW1 5987   5.247   5.306   0.658
 1696SOL    HW2 5988   5.211   5.404   0.784
 1697SOL     OW 5989   6.802   6.616   1.620
 1697SOL    HW1 5990   6.740   6.543   1.590
 1697SOL    HW2 5991   6.869   6.579   1.683
 1698SOL     OW 5992   4.524   1.684   1.242
 1698SOL    HW1 5993   4.617   1.699   1.273
 1698SOL    HW2 5994   4.466   1.662   1.321
 1699SOL     OW 5995   2.951   1.712   2.227
 1699SOL    HW1 5996   3.034   1.763   2.251
 1699SOL    HW2 5997   2.940   1.710   2.128
 1700SOL     OW 5998   6.350   2.179   3.513
 1700SOL    HW1 5999   6.369   2.226   3.600
 1700SOL    HW2 6000   6.252   2.183   3.494
 1701SOL     OW 6001   5.098   3.207   5.279
 1701SOL    HW1 6002   5.030   3.250   5.219
 1701SOL    HW2 6003   5.149   3.278   5.327
 1702SOL     OW 6004   6.682   3.830   0.536
 1702SOL    HW1 6005   6.673   3.917   0.584
 1702SOL    HW2 6006   6.665   3.755   0.599
 1703SOL     OW 6007   3.433   4.188   3.064
 1703SOL    HW1 6008   3.487   4.270   3.083
 1703SOL    HW2 6009   3.388   4.157   3.148
 1704SOL     OW 6010   0.442   1.473   1.049
 1704SOL    HW1 6011   0.416   1.485   0.953
 1704SOL    HW2 6012   0.541   1.463   1.055
 1705SOL     OW 6013   3.397   2.074   2.143
 1705SOL    HW1 6014   3.477   2.123   2.106
 1705SOL    HW2 6015   3.394   2.085   2.242
 1706SOL     OW 6016   4.116   6.487   1.144
 1706SOL    HW1 6017   4.167   6.563   1.184
 1706SOL    HW2 6018   4.152   6.400   1.179
 1707SOL     OW 6019   4.162   1.592   2.142
 1707SOL    HW1 6020   4.244   1.554   2.183
 1707SOL    HW2 6021   4.109   1.520   2.097
 1708SOL     OW 6022   5.883   5.875   2.715
 1708SOL    HW1 6023   5.948   5.814   2.670
 1708SOL    HW2 6024   5.797   5.826   2.732
 1709SOL     OW 6025   2.828   6.183   2.077
 1709SOL    HW1 6026   2.786   6.116   2.017
 1709SOL    HW2 6027   2.898   6.138   2.134
 1710SOL     OW 6028   6.176   4.515   3.675
 1710SOL    HW1 6029   6.220   4.426   3.661
 1710SOL    HW2 6030   6.086   4.515   3.632
 1711SOL     OW 6031   1.742   4.426   5.092
 1711SOL    HW1 6032   1.654   4.439   5.136
 1711SOL    HW2 6033   1.779   4.336   5.117
 1712SOL     OW 6034   0.589   3.178   6.507
 1712SOL    HW1 6035   0.536   3.248   6.459
 1712SOL    HW2 6036   0.681   3.175   6.469
 1713SOL     OW 6037   2.733   2.166   0.934
 1713SOL    HW1 6038   2.808   2.191   0.995
 1713SOL    HW2 6039   2.765   2.098   0.868
 1714SOL     OW 6040   4.046   1.824   6.433
 1714SOL    HW1 6041   4.032   1.744   6.492
 1714SOL    HW2 6042   3.974   1.826   6.364
 1715SOL     OW 6043   6.779   3.666   2.859
 1715SOL    HW1 6044   6.866   3.702   2.891
 1715SOL    HW2 6045   6.780   3.566   2.865
 1716SOL     OW 6046   5.435   6.334   1.678
 1716SOL    HW1 6047   5.508   6.359   1.614
 1716SOL    HW2 6048   5.433   6.399   1.754
 1717SOL     OW 6049   2.364   6.392   6.455
 1717SOL    HW1 6050   2.384   6.483   6.418
 1717SOL    HW2 6051   2.330   6.333   6.382
 1718SOL     OW 6052   2.038   2.116   0.686
 1718SOL    HW1 6053   2.103   2.062   0.738
 1718SOL    HW2 6054   2.027   2.206   0.728
 1719SOL     OW 6055   2.865   4.125   1.584
 1719SOL    HW1 6056   2.786   4.186   1.592
 1719SOL    HW2 6057   2.881   4.104   1.487
 1720SOL     OW 6058   6.492   1.685   1.580
 1720SOL    HW1 6059   6.472   1.719   1.671
 1720SOL    HW2 6060   6.410   1.691   1.523
 1721SOL     OW 6061   1.298   6.673   2.337
 1721SOL    HW1 6062   1.352   6.683   2.253
 1721SOL    HW2 6063   1.253   6.584   2.337
 1722SOL     OW 6064   4.992   1.211   3.605
 1722SOL    HW1 6065   4.899   1.217   3.569
 1722SOL    HW2 6066   5.032   1.302   3.610
 1723SOL     OW 6067   6.697   2.097   3.471
 1723SOL    HW1 6068   6.771   2.134   3.415
 1723SOL    HW2 6069   6.621   2.070   3.413
 1724SOL     OW 6070   5.823   1.330   0.774
 1724SOL    HW1 6071   5.907   1.276   0.777
 1724SOL    HW2 6072   5.751   1.276   0.729
 1725SOL     OW 6073   3.022   4.189   0.299
 1725SOL    HW1 6074   2.965   4.162   0.377
 1725SOL    HW2 6075   2.969   4.246   0.237
 1726SOL     OW 6076   0.195   4.712   5.285
 1726SOL    HW1 6077   0.203   4.734   5.188
 1726SOL    HW2 6078   0.115   4.758   5.323
 1727SOL     OW 6079   3.633   2.852   4.311
 1727SOL    HW1 6080   3.594   2.928   4.362
 1727SOL    HW2 6081   3.662   2.780   4.375
 1728SOL     OW 6082   5.191   4.855   4.690
 1728SOL    HW1 6083   5.160   4.918   4.619
 1728SOL    HW2 6084   5.111   4.818   4.738
 1729SOL     OW 6085   2.000   4.124   3.885
 1729SOL    HW1 6086   1.930   4.056   3.904
 1729SOL    HW2 6087   2.089   4.079   3.875
 1730SOL     OW 6088   6.486   0.759   4.652
 1730SOL    HW1 6089   6.483   0.832   4.720
 1730SOL    HW2 6090   6.571   0.707   4.662
 1731SOL     OW 6091   0.965   4.926   2.180
 1731SOL    HW1 6092   0.915   5.010   2.160
 1731SOL    HW2 6093   1.039   4.915   2.114
 1732SOL     OW 6094   2.533   4.258   6.152
 1732SOL    HW1 6095   2.446   4.263   6.200
 1732SOL    HW2 6096   2.566   4.350   6.131
 1733SOL     OW 6097   1.153   3.588   2.695
 1733SOL    HW1 6098   1.212   3.669   2.697
 1733SOL    HW2 6099   1.206   3.511   2.659
 1734SOL     OW 6100   4.868   3.063   1.558
 1734SOL    HW1 6101   4.862   3.010   1.642
 1734SOL    HW2 6102   4.799   3.135   1.559
 1735SOL     OW 6103   5.602   5.675   1.468
 1735SOL    HW1 6104   5.594   5.774   1.452
 1735SOL    HW2 6105   5.523   5.644   1.521
 1736SOL     OW 6106   4.821   1.427   0.125
 1736SOL    HW1 6107   4.752   1.380   0.071
 1736SOL    HW2 6108   4.912   1.398   0.095
 1737SOL     OW 6109   2.987   0.326   4.055
 1737SOL    HW1 6110   2.992   0.423   4.035
 1737SOL    HW2 6111   3.031   0.273   3.982
 1738SOL     OW 6112   2.565   2.353   3.684
 1738SOL    HW1 6113   2.573   2.253   3.680
 1738SOL    HW2 6114   2.565   2.382   3.779
 1739SOL     OW 6115   4.914   2.814   5.510
 1739SOL    HW1 6116   4.815   2.823   5.513
 1739SOL    HW2 6117   4.942   2.737   5.568
 1740SOL     OW 6118   6.968   1.586   6.960
 1740SOL    HW1 6119   6.911   1.646   7.017
 1740SOL    HW2 6120   6.949   1.491   6.983
 1741SOL     OW 6121   2.476   0.957   2.217
 1741SOL    HW1 6122   2.402   0.898   2.248
 1741SOL    HW2 6123   2.479   0.956   2.117
 1742SOL     OW 6124   3.969   6.059   5.810
 1742SOL    HW1 6125   3.912   6.054   5.727
 1742SOL    HW2 6126   3.933   6.130   5.870
 1743SOL     OW 6127   2.115   1.334   2.302
 1743SOL    HW1 6128   2.168   1.250   2.312
 1743SOL    HW2 6129   2.116   1.385   2.388
 1744SOL     OW 6130   0.806   6.784   1.777
 1744SOL    HW1 6131   0.867   6.859   1.804
 1744SOL    HW2 6132   0.811   6.772   1.677
 1745SOL     OW 6133   7.007   1.123   4.625
 1745SOL    HW1 6134   0.000   1.034   4.669
 1745SOL    HW2 6135   0.072   1.177   4.633
 1746SOL     OW 6136   2.008   5.939   5.882
 1746SOL    HW1 6137   1.912   5.933   5.856
 1746SOL    HW2 6138   2.015   5.962   5.979
 1747SOL     OW 6139   5.090   6.746   2.595
 1747SOL    HW1 6140   5.160   6.733   2.525
 1747SOL    HW2 6141   5.006   6.701   2.566
 1748SOL     OW 6142   6.977   0.581   3.673
 1748SOL    HW1 6143   6.984   0.675   3.706
 1748SOL    HW2 6144   6.963   0.520   3.751
 1749SOL     OW 6145   3.242   6.475   5.306
 1749SOL    HW1 6146   3.175   6.533   5.258
 1749SOL    HW2 6147   3.199   6.387   5.329
 1750SOL     OW 6148   5.548   0.858   3.582
 1750SOL    HW1 6149   5.546   0.957   3.575
 1750SOL    HW2 6150   5.481   0.828   3.650
 1751SOL     OW 6151   3.047   5.292   4.854
 1751SOL    HW1 6152   2.994   5.276   4.938
 1751SOL    HW2 6153   2.995   5.259   4.776
 1752SOL     OW 6154   6.208   2.205   2.026
 1752SOL    HW1 6155   6.268   2.276   1.989
 1752SOL    HW2 6156   6.249   2.115   2.013
 1753SOL     OW 6157   0.515   1.533   0.437
 1753SOL    HW1 6158   0.476   1.510   0.526
 1753SOL    HW2 6159   0.542   1.450   0.389
 1754SOL     OW 6160   3.537   3.195   1.115
 1754SOL    HW1 6161   3.444   3.171   1.144
 1754SOL    HW2 6162   3.566   3.133   1.042
 1755SOL     OW 6163   5.886   5.029   1.990
 1755SOL    HW1 6164   5.896   4.968   1.911
 1755SOL    HW2 6165   5.873   4.975   2.073
 1756SOL     OW 6166   4.578   4.482   5.714
 1756SOL    HW1 6167   4.478   4.477   5.711
 1756SOL    HW2 6168   4.610   4.553   5.652
 1757SOL     OW 6169   2.253   6.272   4.656
 1757SOL    HW1 6170   2.191   6.337   4.701
 1757SOL    HW2 6171   2.208   6.184   4.646
 1758SOL     OW 6172   2.819   0.428   3.426
 1758SOL    HW1 6173   2.727   0.434   3.388
 1758SOL    HW2 6174   2.874   0.366   3.370
 1759SOL     OW 6175   1.163   5.154   6.731
 1759SOL    HW1 6176   1.092   5.198   6.676
 1759SOL    HW2 6177   1.125   5.073   6.777
 1760SOL     OW 6178   6.227   1.367   1.908
 1760SOL    HW1 6179   6.254   1.302   1.836
 1760SOL    HW2 6180   6.309   1.400   1.955
 1761SOL     OW 6181   6.944   6.954   0.524
 1761SOL    HW1 6182   0.014   6.919   0.552
 1761SOL    HW2 6183   6.886   6.967   0.605
 1762SOL     OW 6184   6.388   1.236   5.148
 1762SOL    HW1 6185   6.438   1.257   5.232
 1762SOL    HW2 6186   6.395   1.314   5.086
 1763SOL     OW 6187   1.845   3.648   4.574
 1763SOL    HW1 6188   1.937   3.644   4.613
 1763SOL    HW2 6189   1.848   3.699   4.488
 1764SOL     OW 6190   1.732   3.845   3.236
 1764SOL    HW1 6191   1.640   3.885   3.237
 1764SOL    HW2 6192   1.784   3.884   3.160
 1765SOL     OW 6193   3.716   2.050   6.904
 1765SOL    HW1 6194   3.709   1.950   6.906
 1765SOL    HW2 6195   3.813   2.076   6.900
 1766SOL     OW 6196   5.015   2.838   4.308
 1766SOL    HW1 6197   5.089   2.875   4.251
 1766SOL    HW2 6198   5.050   2.762   4.363
 1767SOL     OW 6199   5.699   3.987   2.714
 1767SOL    HW1 6200   5.642   4.018   2.789
 1767SOL    HW2 6201   5.713   4.063   2.649
 1768SOL     OW 6202   3.967   1.112   4.571
 1768SOL    HW1 6203   4.066   1.099   4.563
 1768SOL    HW2 6204   3.948   1.202   4.609
 1769SOL     OW 6205   4.431   2.462   4.777
 1769SOL    HW1 6206   4.331   2.461   4.788
 1769SOL    HW2 6207   4.471   2.389   4.832
 1770SOL     OW 6208   1.450   5.685   4.757
 1770SOL    HW1 6209   1.392   5.749   4.807
 1770SOL    HW2 6210   1.527   5.735   4.717
 1771SOL     OW 6211   2.946   5.165   6.825
 1771SOL    HW1 6212   2.996   5.187   6.741
 1771SOL    HW2 6213   2.890   5.243   6.852
 1772SOL     OW 6214   3.324   6.462   3.664
 1772SOL    HW1 6215   3.269   6.424   3.591
 1772SOL    HW2 6216   3.358   6.552   3.637
 1773SOL     OW 6217   2.093   5.177   5.773
 1773SOL    HW1 6218   2.049   5.266   5.781
 1773SOL    HW2 6219   2.192   5.188   5.769
 1774SOL     OW 6220   4.587   6.049   1.376
 1774SOL    HW1 6221   4.667   6.099   1.343
 1774SOL    HW2 6222   4.546   5.997   1.300
 1775SOL     OW 6223   1.877   4.209   4.147
 1775SOL    HW1 6224   1.922   4.192   4.059
 1775SOL    HW2 6225   1.791   4.258   4.131
 1776SOL     OW 6226   3.426   0.186   3.772
 1776SOL    HW1 6227   3.402   0.092   3.797
 1776SOL    HW2 6228   3.526   0.196   3.773
 1777SOL     OW 6229   3.517   5.202   5.796
 1777SOL    HW1 6230   3.473   5.290   5.778
 1777SOL    HW2 6231   3.535   5.194   5.894
 1778SOL     OW 6232   4.314   3.474   5.226
 1778SOL    HW1 6233   4.372   3.555   5.237
 1778SOL    HW2 6234   4.270   3.476   5.137
 1779SOL     OW 6235   4.229   1.084   4.535
 1779SOL    HW1 6236   4.263   1.128   4.453
 1779SOL    HW2 6237   4.305   1.041   4.584
 1780SOL     OW 6238   3.340   2.991   6.876
 1780SOL    HW1 6239   3.333   2.917   6.809
 1780SOL    HW2 6240   3.362   3.076   6.829
 1781SOL     OW 6241   4.648   5.810   3.962
 1781SOL    HW1 6242   4.600   5.809   3.874
 1781SOL    HW2 6243   4.746   5.805   3.947
 1782SOL     OW 6244   2.916   2.006   2.863
 1782SOL    HW1 6245   2.919   1.954   2.778
 1782SOL    HW2 6246   2.833   1.983   2.914
 1783SOL     OW 6247   1.386   4.807   6.164
 1783SOL    HW1 6248   1.458   4.798   6.232
 1783SOL    HW2 6249   1.305   4.755   6.193
 1784SOL     OW 6250   3.841   1.048   6.237
 1784SOL    HW1 6251   3.808   1.037   6.144
 1784SOL    HW2 6252   3.814   0.969   6.292
 1785SOL     OW 6253   6.352   4.410   3.099
 1785SOL    HW1 6254   6.353   4.504   3.133
 1785SOL    HW2 6255   6.258   4.383   3.077
 1786SOL     OW 6256   1.836   2.585   0.428
 1786SOL    HW1 6257   1.890   2.521   0.373
 1786SOL    HW2 6258   1.895   2.658   0.462
 1787SOL     OW 6259   2.988   0.862   4.673
 1787SOL    HW1 6260   3.034   0.937   4.720
 1787SOL    HW2 6261   2.895   0.890   4.650
 1788SOL     OW 6262   3.317   2.949   0.500
 1788SOL    HW1 6263   3.362   2.931   0.588
 1788SOL    HW2 6264   3.380   2.927   0.426
 1789SOL     OW 6265   6.044   2.354   3.334
 1789SOL    HW1 6266   6.139   2.350   3.304
 1789SOL    HW2 6267   5.983   2.342   3.256
 1790SOL     OW 6268   4.006   5.884   4.433
 1790SOL    HW1 6269   4.060   5.948   4.377
 1790SOL    HW2 6270   3.981   5.929   4.519
 1791SOL     OW 6271   6.091   0.588   3.544
 1791SOL    HW1 6272   6.000   0.550   3.531
 1791SOL    HW2 6273   6.086   0.687   3.551
 1792SOL     OW 6274   6.874   2.772   5.030
 1792SOL    HW1 6275   6.845   2.774   4.934
 1792SOL    HW2 6276   6.973   2.786   5.035
 1793SOL     OW 6277   6.817   6.735   3.555
 1793SOL    HW1 6278   6.803   6.831   3.579
 1793SOL    HW2 6279   6.740   6.702   3.502
 1794SOL     OW 6280   5.566   6.313   6.041
 1794SOL    HW1 6281   5.472   6.338   6.019
 1794SOL    HW2 6282   5.580   6.316   6.140
 1795SOL     OW 6283   1.520   2.639   0.550
 1795SOL    HW1 6284   1.549   2.734   0.550
 1795SOL    HW2 6285   1.514   2.605   0.456
 1796SOL     OW 6286   2.521   0.464   4.194
 1796SOL    HW1 6287   2.435   0.502   4.159
 1796SOL    HW2 6288   2.598   0.514   4.155
 1797SOL     OW 6289   1.709   6.984   6.674
 1797SOL    HW1 6290   1.737   6.995   6.578
 1797SOL    HW2 6291   1.614   7.013   6.684
 1798SOL     OW 6292   5.417   2.453   3.830
 1798SOL    HW1 6293   5.463   2.536   3.799
 1798SOL    HW2 6294   5.318   2.465   3.823
 1799SOL     OW 6295   6.799   1.541   5.905
 1799SOL    HW1 6296   6.867   1.497   5.963
 1799SOL    HW2 6297   6.802   1.640   5.920
 1800SOL     OW 6298   3.997   5.087   2.025
 1800SOL    HW1 6299   4.091   5.096   2.058
 1800SOL    HW2 6300   3.934   5.124   2.094
 1801SOL     OW 6301   0.422   0.615   2.313
 1801SOL    HW1 6302   0.378   0.688   2.261
 1801SOL    HW2 6303   0.417   0.530   2.261
 1802SOL     OW 6304   5.803   5.231   3.005
 1802SOL    HW1 6305   5.707   5.203   3.013
 1802SOL    HW2 6306   5.823   5.253   2.910
 1803SOL     OW 6307   0.729   6.159   6.968
 1803SOL    HW1 6308   0.723   6.067   7.006
 1803SOL    HW2 6309   0.824   6.189   6.968
 1804SOL     OW 6310   2.652   3.916   5.366
 1804SOL    HW1 6311   2.609   3.913   5.456
 1804SOL    HW2 6312   2.583   3.941   5.298
 1805SOL     OW 6313   6.278   3.990   5.645
 1805SOL    HW1 6314   6.247   4.074   5.599
 1805SOL    HW2 6315   6.258   3.911   5.587
 1806SOL     OW 6316   0.243   0.564   0.280
 1806SOL    HW1 6317   0.277   0.470   0.286
 1806SOL    HW2 6318   0.151   0.570   0.318
 1807SOL     OW 6319   5.065   2.941   5.280
 1807SOL    HW1 6320   4.996   2.906   5.343
 1807SOL    HW2 6321   5.068   3.040   5.285
 1808SOL     OW 6322   0.532   4.236   6.560
 1808SOL    HW1 6323   0.535   4.175   6.481
 1808SOL    HW2 6324   0.623   4.241   6.601
 1809SOL     OW 6325   2.305   2.334   4.495
 1809SOL    HW1 6326   2.352   2.415   4.459
 1809SOL    HW2 6327   2.236   2.361   4.561
 1810SOL     OW 6328   3.277   6.935   3.378
 1810SOL    HW1 6329   3.352   6.995   3.406
 1810SOL    HW2 6330   3.196   6.956   3.434
 1811SOL     OW 6331   5.845   5.239   3.290
 1811SOL    HW1 6332   5.820   5.246   3.193
 1811SOL    HW2 6333   5.872   5.145   3.311
 1812SOL     OW 6334   4.483   6.362   5.337
 1812SOL    HW1 6335   4.542   6.436   5.306
 1812SOL    HW2 6336   4.536   6.278   5.346
 1813SOL     OW 6337   6.476   5.307   1.187
 1813SOL    HW1 6338   6.488   5.232   1.252
 1813SOL    HW2 6339   6.497   5.394   1.231
 1814SOL     OW 6340   6.005   1.122   0.811
 1814SOL    HW1 6341   6.003   1.033   0.857
 1814SOL    HW2 6342   6.087   1.172   0.838
 1815SOL     OW 6343   0.024   2.426   2.283
 1815SOL    HW1 6344   0.045   2.516   2.245
 1815SOL    HW2 6345   0.062   2.419   2.375
 1816SOL     OW 6346   2.899   3.429   1.000
 1816SOL    HW1 6347   2.818   3.374   1.019
 1816SOL    HW2 6348   2.944   3.395   0.917
 1817SOL     OW 6349   3.179   7.002   2.634
 1817SOL    HW1 6350   3.268   6.972   2.599
 1817SOL    HW2 6351   3.191   0.023   2.725
 1818SOL     OW 6352   1.577   6.582   2.806
 1818SOL    HW1 6353   1.671   6.582   2.839
 1818SOL    HW2 6354   1.522   6.642   2.863
 1819SOL     OW 6355   1.532   4.878   1.756
 1819SOL    HW1 6356   1.455   4.922   1.710
 1819SOL    HW2 6357   1.519   4.778   1.754
 1820SOL     OW 6358   4.886   0.888   2.315
 1820SOL    HW1 6359   4.925   0.839   2.393
 1820SOL    HW2 6360   4.808   0.837   2.279
 1821SOL     OW 6361   0.633   1.242   2.150
 1821SOL    HW1 6362   0.698   1.216   2.078
 1821SOL    HW2 6363   0.618   1.341   2.147
 1822SOL     OW 6364   2.765   3.109   0.950
 1822SOL    HW1 6365   2.769   3.061   0.862
 1822SOL    HW2 6366   2.685   3.168   0.952
 1823SOL     OW 6367   3.147   5.742   2.920
 1823SOL    HW1 6368   3.076   5.719   2.854
 1823SOL    HW2 6369   3.236   5.747   2.874
 1824SOL     OW 6370   3.322   2.544   1.233
 1824SOL    HW1 6371   3.355   2.536   1.139
 1824SOL    HW2 6372   3.399   2.545   1.296
 1825SOL     OW 6373   1.596   1.716   2.916
 1825SOL    HW1 6374   1.669   1.649   2.904
 1825SOL    HW2 6375   1.572   1.723   3.013
 1826SOL     OW 6376   3.352   0.499   1.327
 1826SOL    HW1 6377   3.285   0.519   1.399
 1826SOL    HW2 6378   3.412   0.578   1.314
 1827SOL     OW 6379   0.342   5.406   2.311
 1827SOL    HW1 6380   0.253   5.406   2.356
 1827SOL    HW2 6381   0.405   5.346   2.361
 1828SOL     OW 6382   1.405   1.991   0.271
 1828SOL    HW1 6383   1.458   1.915   0.232
 1828SOL    HW2 6384   1.326   1.956   0.320
 1829SOL     OW 6385   3.965   0.383   3.480
 1829SOL    HW1 6386   3.979   0.393   3.579
 1829SOL    HW2 6387   4.044   0.336   3.440
 1830SOL     OW 6388   5.728   5.646   4.015
 1830SOL    HW1 6389   5.801   5.631   4.082
 1830SOL    HW2 6390   5.669   5.720   4.047
 1831SOL     OW 6391   6.057   0.579   2.643
 1831SOL    HW1 6392   6.046   0.564   2.545
 1831SOL    HW2 6393   6.130   0.646   2.658
 1832SOL     OW 6394   5.291   1.497   0.707
 1832SOL    HW1 6395   5.376   1.536   0.742
 1832SOL    HW2 6396   5.215   1.556   0.732
 1833SOL     OW 6397   5.395   0.814   5.218
 1833SOL    HW1 6398   5.467   0.753   5.186
 1833SOL    HW2 6399   5.307   0.766   5.216
 1834SOL     OW 6400   2.865   3.542   0.725
 1834SOL    HW1 6401   2.777   3.494   0.722
 1834SOL    HW2 6402   2.848   3.640   0.737
 1835SOL     OW 6403   1.392   4.630   1.514
 1835SOL    HW1 6404   1.416   4.630   1.611
 1835SOL    HW2 6405   1.296   4.601   1.505
 1836SOL     OW 6406   5.595   1.208   1.041
 1836SOL    HW1 6407   5.653   1.225   0.961
 1836SOL    HW2 6408   5.575   1.294   1.087
 1837SOL     OW 6409   0.688   2.417   4.015
 1837SOL    HW1 6410   0.668   2.332   3.967
 1837SOL    HW2 6411   0.727   2.395   4.105
 1838SOL     OW 6412   0.140   2.276   4.155
 1838SOL    HW1 6413   0.202   2.220   4.211
 1838SOL    HW2 6414   0.053   2.229   4.144
 1839SOL     OW 6415   4.466   2.626   5.103
 1839SOL    HW1 6416   4.385   2.572   5.080
 1839SOL    HW2 6417   4.525   2.634   5.022
 1840SOL     OW 6418   3.796   5.853   1.350
 1840SOL    HW1 6419   3.813   5.759   1.382
 1840SOL    HW2 6420   3.871   5.882   1.292
 1841SOL     OW 6421   2.360   2.549   4.328
 1841SOL    HW1 6422   2.359   2.603   4.412
 1841SOL    HW2 6423   2.319   2.602   4.254
 1842SOL     OW 6424   0.759   5.736   0.667
 1842SOL    HW1 6425   0.788   5.724   0.572
 1842SOL    HW2 6426   0.763   5.833   0.691
 1843SOL     OW 6427   0.525   1.901   4.793
 1843SOL    HW1 6428   0.457   1.829   4.780
 1843SOL    HW2 6429   0.615   1.866   4.767
 1844SOL     OW 6430   3.421   1.098   5.523
 1844SOL    HW1 6431   3.438   1.179   5.578
 1844SOL    HW2 6432   3.480   1.023   5.554
 1845SOL     OW 6433   2.009   6.504   5.209
 1845SOL    HW1 6434   1.999   6.595   5.168
 1845SOL    HW2 6435   2.070   6.510   5.288
 1846SOL     OW 6436   4.308   1.927   0.665
 1846SOL    HW1 6437   4.324   1.925   0.763
 1846SOL    HW2 6438   4.257   2.010   0.641
 1847SOL     OW 6439   1.490   0.825   6.270
 1847SOL    HW1 6440   1.512   0.812   6.174
 1847SOL    HW2 6441   1.439   0.746   6.304
 1848SOL     OW 6442   0.988   0.030   2.346
 1848SOL    HW1 6443   0.914   6.997   2.388
 1848SOL    HW2 6444   1.040   6.989   2.285
 1849SOL     OW 6445   3.338   1.665   0.738
 1849SOL    HW1 6446   3.414   1.638   0.680
 1849SOL    HW2 6447   3.268   1.594   0.736
 1850SOL     OW 6448   6.394   3.014   2.502
 1850SOL    HW1 6449   6.316   2.975   2.452
 1850SOL    HW2 6450   6.456   3.059   2.438
 1851SOL     OW 6451   0.587   1.734   1.313
 1851SOL    HW1 6452   0.618   1.765   1.403
 1851SOL    HW2 6453   0.666   1.723   1.254
 1852SOL     OW 6454   5.927   3.655   1.594
 1852SOL    HW1 6455   5.972   3.744   1.595
 1852SOL    HW2 6456   5.941   3.610   1.682
 1853SOL     OW 6457   0.138   3.203   3.015
 1853SOL    HW1 6458   0.162   3.107   3.006
 1853SOL    HW2 6459   0.186   3.256   2.945
 1854SOL     OW 6460   2.547   6.049   2.713
 1854SOL    HW1 6461   2.646   6.044   2.706
 1854SOL    HW2 6462   2.512   5.966   2.756
 1855SOL     OW 6463   4.453   4.052   0.032
 1855SOL    HW1 6464   4.483   4.040   6.956
 1855SOL    HW2 6465   4.520   4.108   0.081
 1856SOL     OW 6466   6.550   3.725   5.130
 1856SOL    HW1 6467   6.551   3.726   5.030
 1856SOL    HW2 6468   6.634   3.682   5.164
 1857SOL     OW 6469   3.652   0.623   6.344
 1857SOL    HW1 6470   3.606   0.676   6.273
 1857SOL    HW2 6471   3.697   0.544   6.304
 1858SOL     OW 6472   6.064   2.632   3.941
 1858SOL    HW1 6473   5.982   2.577   3.957
 1858SOL    HW2 6474   6.134   2.575   3.899
 1859SOL     OW 6475   4.387   1.610   3.115
 1859SOL    HW1 6476   4.293   1.615   3.083
 1859SOL    HW2 6477   4.447   1.586   3.038
 1860SOL     OW 6478   6.324   0.449   3.490
 1860SOL    HW1 6479   6.245   0.487   3.537
 1860SOL    HW2 6480   6.348   0.508   3.412
 1861SOL     OW 6481   5.474   6.991   2.664
 1861SOL    HW1 6482   5.385   6.960   2.698
 1861SOL    HW2 6483   5.511   0.040   2.727
 1862SOL     OW 6484   2.508   0.334   6.207
 1862SOL    HW1 6485   2.516   0.408   6.273
 1862SOL    HW2 6486   2.547   0.250   6.246
 1863SOL     OW 6487   1.795   1.929   0.183
 1863SOL    HW1 6488   1.745   1.982   0.252
 1863SOL    HW2 6489   1.842   1.991   0.120
 1864SOL     OW 6490   0.903   6.856   5.407
 1864SOL    HW1 6491   0.939   6.771   5.368
 1864SOL    HW2 6492   0.967   6.890   5.477
 1865SOL     OW 6493   3.448   6.932   6.018
 1865SOL    HW1 6494   3.447   0.009   6.044
 1865SOL    HW2 6495   3.368   6.912   5.961
 1866SOL     OW 6496   4.525   4.848   3.158
 1866SOL    HW1 6497   4.438   4.893   3.136
 1866SOL    HW2 6498   4.510   4.749   3.166
 1867SOL     OW 6499   1.133   4.479   0.226
 1867SOL    HW1 6500   1.034   4.492   0.218
 1867SOL    HW2 6501   1.152   4.402   0.286
 1868SOL     OW 6502   5.090   3.767   0.705
 1868SOL    HW1 6503   5.130   3.677   0.725
 1868SOL    HW2 6504   5.002   3.776   0.752
 1869SOL     OW 6505   6.278   2.580   5.736
 1869SOL    HW1 6506   6.363   2.537   5.707
 1869SOL    HW2 6507   6.296   2.673   5.768
 1870SOL     OW 6508   1.977   2.983   5.771
 1870SOL    HW1 6509   2.031   3.012   5.850
 1870SOL    HW2 6510   1.925   2.901   5.795
 1871SOL     OW 6511   0.274   0.606   6.527
 1871SOL    HW1 6512   0.281   0.664   6.608
 1871SOL    HW2 6513   0.354   0.621   6.468
 1872SOL     OW 6514   3.755   2.863   0.336
 1872SOL    HW1 6515   3.780   2.952   0.300
 1872SOL    HW2 6516   3.838   2.816   0.369
 1873SOL     OW 6517   4.839   1.474   5.416
 1873SOL    HW1 6518   4.924   1.525   5.419
 1873SOL    HW2 6519   4.841   1.401   5.484
 1874SOL     OW 6520   3.030   1.145   1.158
 1874SOL    HW1 6521   3.103   1.076   1.158
 1874SOL    HW2 6522   3.029   1.192   1.246
 1875SOL     OW 6523   0.472   1.533   0.082
 1875SOL    HW1 6524   0.547   1.483   0.126
 1875SOL    HW2 6525   0.459   1.621   0.129
 1876SOL     OW 6526   3.683   6.935   5.883
 1876SOL    HW1 6527   3.585   6.939   5.904
 1876SOL    HW2 6528   3.728   7.018   5.918
 1877SOL     OW 6529   0.549   0.410   2.740
 1877SOL    HW1 6530   0.478   0.350   2.774
 1877SOL    HW2 6531   0.638   0.378   2.771
 1878SOL     OW 6532   6.518   1.810   3.795
 1878SOL    HW1 6533   6.583   1.853   3.733
 1878SOL    HW2 6534   6.425   1.826   3.763
 1879SOL     OW 6535   1.047   4.425   4.165
 1879SOL    HW1 6536   1.027   4.523   4.164
 1879SOL    HW2 6537   1.116   4.405   4.235
 1880SOL     OW 6538   6.796   1.758   4.809
 1880SOL    HW1 6539   6.844   1.840   4.777
 1880SOL    HW2 6540   6.698   1.777   4.815
 1881SOL     OW 6541   5.812   1.882   3.115
 1881SOL    HW1 6542   5.816   1.934   3.029
 1881SOL    HW2 6543   5.887   1.816   3.117
 1882SOL     OW 6544   1.698   3.939   6.216
 1882SOL    HW1 6545   1.699   3.941   6.116
 1882SOL    HW2 6546   1.661   4.025   6.251
 1883SOL     OW 6547   6.634   1.844   3.298
 1883SOL    HW1 6548   6.563   1.802   3.355
 1883SOL    HW2 6549   6.717   1.788   3.300
 1884SOL     OW 6550   0.059   1.854   0.615
 1884SOL    HW1 6551   0.031   1.945   0.587
 1884SOL    HW2 6552   6.998   1.798   0.633
 1885SOL     OW 6553   1.916   1.550   6.117
 1885SOL    HW1 6554   1.834   1.497   6.140
 1885SOL    HW2 6555   1.907   1.585   6.023
 1886SOL     OW 6556   1.485   0.270   1.674
 1886SOL    HW1 6557   1.513   0.366   1.679
 1886SOL    HW2 6558   1.471   0.244   1.578
 1887SOL     OW 6559   1.165   5.569   5.343
 1887SOL    HW1 6560   1.080   5.556   5.395
 1887SOL    HW2 6561   1.234   5.506   5.376
 1888SOL     OW 6562   2.849   2.613   6.794
 1888SOL    HW1 6563   2.804   2.623   6.883
 1888SOL    HW2 6564   2.789   2.562   6.732
 1889SOL     OW 6565   0.540   3.461   5.242
 1889SOL    HW1 6566   0.457   3.435   5.192
 1889SOL    HW2 6567   0.518   3.470   5.339
 1890SOL     OW 6568   1.486   5.964   3.897
 1890SOL    HW1 6569   1.584   5.976   3.915
 1890SOL    HW2 6570   1.461   6.014   3.814
 1891SOL     OW 6571   4.997   2.719   1.619
 1891SOL    HW1 6572   5.089   2.752   1.641
 1891SOL    HW2 6573   4.957   2.677   1.700
 1892SOL     OW 6574   1.492   0.516   2.528
 1892SOL    HW1 6575   1.454   0.484   2.614
 1892SOL    HW2 6576   1.592   0.514   2.532
 1893SOL     OW 6577   3.132   3.652   1.609
 1893SOL    HW1 6578   3.112   3.597   1.690
 1893SOL    HW2 6579   3.185   3.598   1.544
 1894SOL     OW 6580   4.024   3.943   3.579
 1894SOL    HW1 6581   4.115   3.913   3.607
 1894SOL    HW2 6582   4.002   3.904   3.489
 1895SOL     OW 6583   4.280   0.249   1.213
 1895SOL    HW1 6584   4.365   0.298   1.193
 1895SOL    HW2 6585   4.299   0.171   1.272
 1896SOL     OW 6586   5.686   1.439   1.571
 1896SOL    HW1 6587   5.642   1.522   1.537
 1896SOL    HW2 6588   5.782   1.438   1.543
 1897SOL     OW 6589   2.182   5.295   1.376
 1897SOL    HW1 6590   2.183   5.268   1.473
 1897SOL    HW2 6591   2.139   5.223   1.322
 1898SOL     OW 6592   2.269   5.217   3.962
 1898SOL    HW1 6593   2.226   5.226   4.052
 1898SOL    HW2 6594   2.275   5.120   3.937
 1899SOL     OW 6595   0.452   1.279   1.261
 1899SOL    HW1 6596   0.444   1.184   1.232
 1899SOL    HW2 6597   0.436   1.339   1.182
 1900SOL     OW 6598   2.194   0.610   6.951
 1900SOL    HW1 6599   2.114   0.667   6.933
 1900SOL    HW2 6600   2.277   0.660   6.925
 1901SOL     OW 6601   1.784   2.013   0.630
 1901SOL    HW1 6602   1.727   2.091   0.652
 1901SOL    HW2 6603   1.879   2.032   0.657
 1902SOL     OW 6604   1.994   0.419   5.055
 1902SOL    HW1 6605   1.971   0.362   5.134
 1902SOL    HW2 6606   1.951   0.381   4.973
 1903SOL     OW 6607   0.382   3.760   3.351
 1903SOL    HW1 6608   0.457   3.823   3.369
 1903SOL    HW2 6609   0.379   3.738   3.254
 1904SOL     OW 6610   6.307   5.275   3.927
 1904SOL    HW1 6611   6.290   5.187   3.971
 1904SOL    HW2 6612   6.245   5.287   3.850
 1905SOL     OW 6613   0.617   0.173   3.365
 1905SOL    HW1 6614   0.627   0.213   3.274
 1905SOL    HW2 6615   0.649   0.238   3.434
 1906SOL     OW 6616   2.835   6.976   5.152
 1906SOL    HW1 6617   2.873   0.050   5.148
 1906SOL    HW2 6618   2.890   6.921   5.215
 1907SOL     OW 6619   4.351   1.985   1.730
 1907SOL    HW1 6620   4.432   2.018   1.682
 1907SOL    HW2 6621   4.274   1.981   1.666
 1908SOL     OW 6622   3.494   6.211   6.064
 1908SOL    HW1 6623   3.535   6.135   6.114
 1908SOL    HW2 6624   3.555   6.239   5.989
 1909SOL     OW 6625   0.997   3.313   3.649
 1909SOL    HW1 6626   1.040   3.404   3.647
 1909SOL    HW2 6627   0.903   3.322   3.683
 1910SOL     OW 6628   0.278   5.355   6.111
 1910SOL    HW1 6629   0.294   5.454   6.108
 1910SOL    HW2 6630   0.181   5.336   6.096
 1911SOL     OW 6631   0.283   3.669   4.542
 1911SOL    HW1 6632   0.339   3.724   4.481
 1911SOL    HW2 6633   0.299   3.572   4.525
 1912SOL     OW 6634   3.104   5.922   1.706
 1912SOL    HW1 6635   3.161   5.999   1.677
 1912SOL    HW2 6636   3.136   5.889   1.795
 1913SOL     OW 6637   3.001   0.725   4.286
 1913SOL    HW1 6638   3.048   0.795   4.338
 1913SOL    HW2 6639   2.980   0.647   4.345
 1914SOL     OW 6640   3.304   2.781   6.657
 1914SOL    HW1 6641   3.215   2.778   6.611
 1914SOL    HW2 6642   3.365   2.842   6.606
 1915SOL     OW 6643   3.895   2.337   5.669
 1915SOL    HW1 6644   3.881   2.411   5.603
 1915SOL    HW2 6645   3.888   2.373   5.762
 1916SOL     OW 6646   3.966   5.886   1.127
 1916SOL    HW1 6647   3.985   5.814   1.060
 1916SOL    HW2 6648   3.966   5.975   1.081
 1917SOL     OW 6649   2.261   3.397   6.884
 1917SOL    HW1 6650   2.294   3.491   6.895
 1917SOL    HW2 6651   2.294   3.341   6.960
 1918SOL     OW 6652   1.265   1.557   4.663
 1918SOL    HW1 6653   1.232   1.467   4.692
 1918SOL    HW2 6654   1.363   1.552   4.645
 1919SOL     OW 6655   1.344   1.854   1.579
 1919SOL    HW1 6656   1.383   1.847   1.670
 1919SOL    HW2 6657   1.412   1.892   1.516
 1920SOL     OW 6658   6.633   4.372   3.099
 1920SOL    HW1 6659   6.533   4.374   3.104
 1920SOL    HW2 6660   6.664   4.428   3.023
 1921SOL     OW 6661   2.012   3.278   6.949
 1921SOL    HW1 6662   2.095   3.324   6.918
 1921SOL    HW2 6663   1.933   3.315   6.901
 1922SOL     OW 6664   2.921   3.605   2.010
 1922SOL    HW1 6665   2.932   3.700   2.040
 1922SOL    HW2 6666   2.871   3.554   2.079
 1923SOL     OW 6667   4.239   1.963   6.553
 1923SOL    HW1 6668   4.166   1.918   6.500
 1923SOL    HW2 6669   4.218   1.954   6.650
 1924SOL     OW 6670   4.537   6.665   0.312
 1924SOL    HW1 6671   4.447   6.693   0.343
 1924SOL    HW2 6672   4.607   6.716   0.361
 1925SOL     OW 6673   1.204   5.280   1.146
 1925SOL    HW1 6674   1.185   5.224   1.065
 1925SOL    HW2 6675   1.133   5.351   1.153
 1926SOL     OW 6676   3.274   0.120   2.217
 1926SOL    HW1 6677   3.185   0.156   2.190
 1926SOL    HW2 6678   3.345   0.162   2.161
 1927SOL     OW 6679   2.164   4.443   0.298
 1927SOL    HW1 6680   2.191   4.387   0.220
 1927SOL    HW2 6681   2.194   4.399   0.383
 1928SOL     OW 6682   5.778   4.192   4.915
 1928SOL    HW1 6683   5.819   4.116   4.865
 1928SOL    HW2 6684   5.833   4.274   4.901
 1929SOL     OW 6685   2.116   0.627   1.686
 1929SOL    HW1 6686   2.187   0.612   1.617
 1929SOL    HW2 6687   2.093   0.724   1.690
 1930SOL     OW 6688   5.253   3.134   6.681
 1930SOL    HW1 6689   5.187   3.060   6.688
 1930SOL    HW2 6690   5.222   3.199   6.611
 1931SOL     OW 6691   1.108   1.809   0.054
 1931SOL    HW1 6692   1.112   1.860   0.139
 1931SOL    HW2 6693   1.025   1.754   0.052
 1932SOL     OW 6694   4.772   2.681   3.377
 1932SOL    HW1 6695   4.696   2.674   3.311
 1932SOL    HW2 6696   4.740   2.652   3.467
 1933SOL     OW 6697   1.239   2.761   0.581
 1933SOL    HW1 6698   1.332   2.727   0.597
 1933SOL    HW2 6699   1.195   2.705   0.510
 1934SOL     OW 6700   0.156   1.097   4.917
 1934SOL    HW1 6701   0.171   1.151   4.999
 1934SOL    HW2 6702   0.098   1.019   4.938
 1935SOL     OW 6703   4.233   4.786   3.971
 1935SOL    HW1 6704   4.282   4.701   3.991
 1935SOL    HW2 6705   4.249   4.811   3.875
 1936SOL     OW 6706   4.903   3.703   4.040
 1936SOL    HW1 6707   4.880   3.656   3.955
 1936SOL    HW2 6708   4.834   3.773   4.059
 1937SOL     OW 6709   4.433   6.233   0.137
 1937SOL    HW1 6710   4.522   6.190   0.156
 1937SOL    HW2 6711   4.406   6.215   0.043
 1938SOL     OW 6712   1.790   1.811   1.005
 1938SOL    HW1 6713   1.782   1.786   1.102
 1938SOL    HW2 6714   1.717   1.876   0.982
 1939SOL     OW 6715   0.086   6.370   4.282
 1939SOL    HW1 6716   0.176   6.389   4.242
 1939SOL    HW2 6717   0.019   6.358   4.208
 1940SOL     OW 6718   6.281   4.377   1.128
 1940SOL    HW1 6719   6.355   4.323   1.086
 1940SOL    HW2 6720   6.195   4.356   1.081
 1941SOL     OW 6721   1.706   2.785   3.630
 1941SOL    HW1 6722   1.632   2.802   3.695
 1941SOL    HW2 6723   1.779   2.852   3.643
 1942SOL     OW 6724   5.449   3.569   2.796
 1942SOL    HW1 6725   5.532   3.555   2.850
 1942SOL    HW2 6726   5.464   3.537   2.702
 1943SOL     OW 6727   0.686   1.017   2.456
 1943SOL    HW1 6728   0.779   1.032   2.424
 1943SOL    HW2 6729   0.685   0.938   2.518
 1944SOL     OW 6730   5.944   4.350   0.225
 1944SOL    HW1 6731   5.918   4.437   0.267
 1944SOL    HW2 6732   6.005   4.367   0.147
 1945SOL     OW 6733   3.849   6.258   0.692
 1945SOL    HW1 6734   3.790   6.193   0.644
 1945SOL    HW2 6735   3.873   6.221   0.782
 1946SOL     OW 6736   5.792   6.661   1.370
 1946SOL    HW1 6737   5.862   6.619   1.427
 1946SOL    HW2 6738   5.792   6.618   1.280
 1947SOL     OW 6739   5.948   5.494   4.238
 1947SOL    HW1 6740   5.918   5.406   4.201
 1947SOL    HW2 6741   6.032   5.523   4.192
 1948SOL     OW 6742   5.822   5.299   2.741
 1948SOL    HW1 6743   5.765   5.226   2.703
 1948SOL    HW2 6744   5.887   5.330   2.671
 1949SOL     OW 6745   4.056   3.558   0.416
 1949SOL    HW1 6746   4.038   3.461   0.434
 1949SOL    HW2 6747   4.008   3.586   0.333
 1950SOL     OW 6748   4.107   3.301   3.435
 1950SOL    HW1 6749   4.106   3.395   3.403
 1950SOL    HW2 6750   4.180   3.251   3.387
 1951SOL     OW 6751   6.994   4.197   6.276
 1951SOL    HW1 6752   6.993   4.278   6.334
 1951SOL    HW2 6753   0.043   4.132   6.311
 1952SOL     OW 6754   5.777   5.285   1.180
 1952SOL    HW1 6755   5.846   5.353   1.156
 1952SOL    HW2 6756   5.690   5.331   1.197
 1953SOL     OW 6757   6.708   1.568   6.330
 1953SOL    HW1 6758   6.805   1.551   6.315
 1953SOL    HW2 6759   6.678   1.518   6.412
 1954SOL     OW 6760   5.469   6.813   1.379
 1954SOL    HW1 6761   5.550   6.790   1.433
 1954SOL    HW2 6762   5.495   6.872   1.303
 1955SOL     OW 6763   0.408   1.061   1.612
 1955SOL    HW1 6764   0.329   1.107   1.572
 1955SOL    HW2 6765   0.390   0.963   1.618
 1956SOL     OW 6766   4.549   6.837   2.771
 1956SOL    HW1 6767   4.586   6.753   2.810
 1956SOL    HW2 6768   4.623   6.897   2.742
 1957SOL     OW 6769   5.200   4.074   3.653
 1957SOL    HW1 6770   5.130   4.129   3.698
 1957SOL    HW2 6771   5.283   4.074   3.709
 1958SOL     OW 6772   4.852   1.163   1.764
 1958SOL    HW1 6773   4.822   1.069   1.745
 1958SOL    HW2 6774   4.800   1.200   1.840
 1959SOL     OW 6775   0.072   6.269   3.765
 1959SOL    HW1 6776   0.111   6.270   3.673
 1959SOL    HW2 6777   0.020   6.352   3.780
 1960SOL     OW 6778   0.182   3.488   2.588
 1960SOL    HW1 6779   0.134   3.555   2.644
 1960SOL    HW2 6780   0.130   3.472   2.503
 1961SOL     OW 6781   6.370   4.392   4.681
 1961SOL    HW1 6782   6.301   4.463   4.696
 1961SOL    HW2 6783   6.422   4.414   4.599
 1962SOL     OW 6784   1.095   5.843   2.420
 1962SOL    HW1 6785   1.161   5.835   2.346
 1962SOL    HW2 6786   1.131   5.903   2.491
 1963SOL     OW 6787   1.501   2.113   1.160
 1963SOL    HW1 6788   1.543   2.063   1.084
 1963SOL    HW2 6789   1.522   2.066   1.246
 1964SOL     OW 6790   4.979   4.993   1.871
 1964SOL    HW1 6791   5.062   4.995   1.927
 1964SOL    HW2 6792   4.984   5.065   1.802
 1965SOL     OW 6793   1.728   2.743   4.065
 1965SOL    HW1 6794   1.764   2.684   4.138
 1965SOL    HW2 6795   1.767   2.714   3.977
 1966SOL     OW 6796   1.733   5.250   1.026
 1966SOL    HW1 6797   1.642   5.212   1.041
 1966SOL    HW2 6798   1.725   5.335   0.974
 1967SOL     OW 6799   6.265   2.620   4.405
 1967SOL    HW1 6800   6.197   2.649   4.472
 1967SOL    HW2 6801   6.357   2.639   4.441
 1968SOL     OW 6802   2.703   1.119   5.155
 1968SOL    HW1 6803   2.672   1.214   5.145
 1968SOL    HW2 6804   2.623   1.058   5.153
 1969SOL     OW 6805   3.343   0.660   1.679
 1969SOL    HW1 6806   3.417   0.720   1.708
 1969SOL    HW2 6807   3.261   0.714   1.660
 1970SOL     OW 6808   6.980   0.284   5.560
 1970SOL    HW1 6809   6.902   0.243   5.512
 1970SOL    HW2 6810   6.966   0.275   5.659
 1971SOL     OW 6811   0.503   0.790   5.553
 1971SOL    HW1 6812   0.513   0.792   5.653
 1971SOL    HW2 6813   0.409   0.765   5.530
 1972SOL     OW 6814   5.875   2.665   1.532
 1972SOL    HW1 6815   5.794   2.696   1.483
 1972SOL    HW2 6816   5.848   2.622   1.618
 1973SOL     OW 6817   2.537   4.068   1.527
 1973SOL    HW1 6818   2.491   4.120   1.455
 1973SOL    HW2 6819   2.603   4.127   1.574
 1974SOL     OW 6820   4.526   6.879   4.759
 1974SOL    HW1 6821   4.581   6.920   4.686
 1974SOL    HW2 6822   4.478   6.799   4.723
 1975SOL     OW 6823   2.146   2.221   4.232
 1975SOL    HW1 6824   2.103   2.290   4.290
 1975SOL    HW2 6825   2.242   2.245   4.218
 1976SOL     OW 6826   5.110   6.377   6.488
 1976SOL    HW1 6827   5.118   6.469   6.449
 1976SOL    HW2 6828   5.193   6.324   6.466
 1977SOL     OW 6829   2.178   3.221   5.549
 1977SOL    HW1 6830   2.216   3.217   5.457
 1977SOL    HW2 6831   2.252   3.223   5.616
 1978SOL     OW 6832   1.684   6.013   2.483
 1978SOL    HW1 6833   1.722   6.006   2.576
 1978SOL    HW2 6834   1.626   6.094   2.478
 1979SOL     OW 6835   5.475   5.290   0.017
 1979SOL    HW1 6836   5.566   5.301   6.998
 1979SOL    HW2 6837   5.413   5.254   6.966
 1980SOL     OW 6838   3.678   0.574   2.771
 1980SOL    HW1 6839   3.589   0.532   2.789
 1980SOL    HW2 6840   3.743   0.546   2.841
 1981SOL     OW 6841   5.601   2.713   2.253
 1981SOL    HW1 6842   5.516   2.705   2.305
 1981SOL    HW2 6843   5.636   2.622   2.231
 1982SOL     OW 6844   6.829   4.240   3.576
 1982SOL    HW1 6845   6.768   4.173   3.534
 1982SOL    HW2 6846   6.922   4.224   3.545
 1983SOL     OW 6847   0.878   0.301   1.507
 1983SOL    HW1 6848   0.925   0.346   1.583
 1983SOL    HW2 6849   0.824   0.369   1.457
 1984SOL     OW 6850   4.808   2.533   5.469
 1984SOL    HW1 6851   4.775   2.441   5.448
 1984SOL    HW2 6852   4.730   2.594   5.482
 1985SOL     OW 6853   6.750   5.600   2.281
 1985SOL    HW1 6854   6.698   5.655   2.215
 1985SOL    HW2 6855   6.833   5.650   2.307
 1986SOL     OW 6856   2.717   1.568   6.044
 1986SOL    HW1 6857   2.796   1.569   5.984
 1986SOL    HW2 6858   2.682   1.474   6.052
 1987SOL     OW 6859   1.943   1.648   3.762
 1987SOL    HW1 6860   1.937   1.711   3.839
 1987SOL    HW2 6861   1.937   1.699   3.676
 1988SOL     OW 6862   6.984   1.713   1.026
 1988SOL    HW1 6863   6.899   1.730   1.075
 1988SOL    HW2 6864   0.038   1.694   1.092
 1989SOL     OW 6865   2.308   5.839   4.106
 1989SOL    HW1 6866   2.285   5.906   4.036
 1989SOL    HW2 6867   2.277   5.748   4.078
 1990SOL     OW 6868   3.436   0.093   0.718
 1990SOL    HW1 6869   3.478   0.008   0.749
 1990SOL    HW2 6870   3.424   0.091   0.619
 1991SOL     OW 6871   2.399   5.019   0.128
 1991SOL    HW1 6872   2.449   5.092   0.175
 1991SOL    HW2 6873   2.310   5.054   0.098
 1992SOL     OW 6874   6.682   0.243   0.659
 1992SOL    HW1 6875   6.727   0.161   0.694
 1992SOL    HW2 6876   6.598   0.260   0.710
 1993SOL     OW 6877   3.559   2.104   4.516
 1993SOL    HW1 6878   3.622   2.038   4.557
 1993SOL    HW2 6879   3.596   2.196   4.525
 1994SOL     OW 6880   4.750   1.942   1.024
 1994SOL    HW1 6881   4.804   2.015   0.983
 1994SOL    HW2 6882   4.799   1.903   1.102
 1995SOL     OW 6883   5.648   3.543   4.105
 1995SOL    HW1 6884   5.611   3.452   4.121
 1995SOL    HW2 6885   5.700   3.544   4.020
 1996SOL     OW 6886   2.419   1.438   1.160
 1996SOL    HW1 6887   2.451   1.482   1.076
 1996SOL    HW2 6888   2.343   1.377   1.138
 1997SOL     OW 6889   3.077   1.382   3.857
 1997SOL    HW1 6890   2.985   1.420   3.864
 1997SOL    HW2 6891   3.091   1.312   3.928
 1998SOL     OW 6892   1.541   3.701   0.570
 1998SOL    HW1 6893   1.547   3.801   0.576
 1998SOL    HW2 6894   1.584   3.660   0.650
 1999SOL     OW 6895   0.361   0.602   4.600
 1999SOL    HW1 6896   0.452   0.566   4.580
 1999SOL    HW2 6897   0.363   0.652   4.687
 2000SOL     OW 6898   4.223   3.637   6.364
 2000SOL    HW1 6899   4.142   3.675   6.410
 2000SOL    HW2 6900   4.227   3.670   6.270
 2001SOL     OW 6901   1.539   1.781   0.133
 2001SOL    HW1 6902   1.627   1.820   0.162
 2001SOL    HW2 6903   1.544   1.758   0.035
 2002SOL     OW 6904   0.921   5.831   0.981
 2002SOL    HW1 6905   0.825   5.861   0.985
 2002SOL    HW2 6906   0.925   5.733   0.965
 2003SOL     OW 6907   6.776   5.274   1.791
 2003SOL    HW1 6908   6.778   5.265   1.890
 2003SOL    HW2 6909   6.856   5.229   1.752
 2004SOL     OW 6910   4.484   0.959   4.644
 2004SOL    HW1 6911   4.463   1.041   4.697
 2004SOL    HW2 6912   4.539   0.984   4.564
 2005SOL     OW 6913   6.794   5.051   6.789
 2005SOL    HW1 6914   6.857   5.015   6.721
 2005SOL    HW2 6915   6.845   5.108   6.855
 2006SOL     OW 6916   5.564   6.913   4.061
 2006SOL    HW1 6917   5.576   6.832   4.118
 2006SOL    HW2 6918   5.485   6.900   4.000
 2007SOL     OW 6919   5.482   3.954   1.272
 2007SOL    HW1 6920   5.409   3.897   1.308
 2007SOL    HW2 6921   5.460   4.050   1.285
 2008SOL     OW 6922   2.141   3.386   4.053
 2008SOL    HW1 6923   2.084   3.367   4.133
 2008SOL    HW2 6924   2.182   3.301   4.020
 2009SOL     OW 6925   5.280   6.458   2.087
 2009SOL    HW1 6926   5.219   6.497   2.017
 2009SOL    HW2 6927   5.228   6.439   2.170
 2010SOL     OW 6928   1.532   2.008   1.434
 2010SOL    HW1 6929   1.622   1.996   1.478
 2010SOL    HW2 6930   1.494   2.097   1.460
 2011SOL     OW 6931   0.034   0.639   5.074
 2011SOL    HW1 6932   0.030   0.596   5.164
 2011SOL    HW2 6933   7.013   0.578   5.006
 2012SOL     OW 6934   1.280   3.619   1.990
 2012SOL    HW1 6935   1.374   3.629   2.020
 2012SOL    HW2 6936   1.274   3.638   1.891
 2013SOL     OW 6937   6.795   3.137   3.299
 2013SOL    HW1 6938   6.883   3.104   3.264
 2013SOL    HW2 6939   6.780   3.099   3.390
 2014SOL     OW 6940   2.937   0.351   2.969
 2014SOL    HW1 6941   2.869   0.424   2.975
 2014SOL    HW2 6942   3.009   0.378   2.905
 2015SOL     OW 6943   3.469   6.512   1.187
 2015SOL    HW1 6944   3.472   6.554   1.278
 2015SOL    HW2 6945   3.507   6.576   1.120
 2016SOL     OW 6946   1.569   5.463   5.343
 2016SOL    HW1 6947   1.628   5.383   5.347
 2016SOL    HW2 6948   1.562   5.495   5.249
 2017SOL     OW 6949   4.199   0.617   3.481
 2017SOL    HW1 6950   4.267   0.591   3.412
 2017SOL    HW2 6951   4.179   0.538   3.539
 2018SOL     OW 6952   6.876   2.527   3.958
 2018SOL    HW1 6953   6.812   2.592   3.917
 2018SOL    HW2 6954   6.948   2.577   4.007
 2019SOL     OW 6955   6.092   4.389   6.406
 2019SOL    HW1 6956   6.026   4.329   6.452
 2019SOL    HW2 6957   6.174   4.336   6.383
 2020SOL     OW 6958   1.780   6.262   6.069
 2020SOL    HW1 6959   1.727   6.179   6.050
 2020SOL    HW2 6960   1.718   6.336   6.093
 2021SOL     OW 6961   5.992   6.726   3.578
 2021SOL    HW1 6962   5.920   6.781   3.619
 2021SOL    HW2 6963   5.972   6.712   3.480
 2022SOL     OW 6964   1.869   4.605   4.925
 2022SOL    HW1 6965   1.825   4.550   4.997
 2022SOL    HW2 6966   1.801   4.667   4.885
 2023SOL     OW 6967   0.159   0.030   6.485
 2023SOL    HW1 6968   0.207   0.078   6.558
 2023SOL    HW2 6969   0.223   0.012   6.410
 2024SOL     OW 6970   6.993   5.783   4.049
 2024SOL    HW1 6971   0.020   5.821   4.129
 2024SOL    HW2 6972   6.996   5.850   3.975
 2025SOL     OW 6973   3.148   0.585   3.302
 2025SOL    HW1 6974   3.159   0.634   3.216
 2025SOL    HW2 6975   3.074   0.627   3.355
 2026SOL     OW 6976   6.512   2.148   6.755
 2026SOL    HW1 6977   6.595   2.131   6.808
 2026SOL    HW2 6978   6.477   2.061   6.720
 2027SOL     OW 6979   0.666   6.435   1.609
 2027SOL    HW1 6980   0.658   6.531   1.585
 2027SOL    HW2 6981   0.695   6.427   1.705
 2028SOL     OW 6982   3.390   6.050   2.882
 2028SOL    HW1 6983   3.392   5.954   2.853
 2028SOL    HW2 6984   3.338   6.103   2.815
 2029SOL     OW 6985   6.733   2.056   0.166
 2029SOL    HW1 6986   6.726   2.121   0.091
 2029SOL    HW2 6987   6.648   2.055   0.218
 2030SOL     OW 6988   3.043   6.709   2.271
 2030SOL    HW1 6989   3.122   6.660   2.234
 2030SOL    HW2 6990   3.021   6.787   2.212
 2031SOL     OW 6991   6.949   6.022   2.466
 2031SOL    HW1 6992   0.019   6.058   2.493
 2031SOL    HW2 6993   6.878   6.059   2.525
 2032SOL     OW 6994   3.318   1.273   0.777
 2032SOL    HW1 6995   3.270   1.344   0.829
 2032SOL    HW2 6996   3.331   1.304   0.682
 2033SOL     OW 6997   1.623   1.256   0.712
 2033SOL    HW1 6998   1.532   1.214   0.708
 2033SOL    HW2 6999   1.651   1.265   0.807
 2034SOL     OW 7000   1.681   5.220   5.417
 2034SOL    HW1 7001   1.682   5.179   5.508
 2034SOL    HW2 7002   1.683   5.148   5.348
 2035SOL     OW 7003   6.371   6.599   2.218
 2035SOL    HW1 7004   6.308   6.525   2.244
 2035SOL    HW2 7005   6.385   6.598   2.119
 2036SOL     OW 7006   1.471   3.420   3.074
 2036SOL    HW1 7007   1.571   3.416   3.064
 2036SOL    HW2 7008   1.444   3.513   3.101
 2037SOL     OW 7009   6.777   2.461   6.158
 2037SOL    HW1 7010   6.749   2.557   6.161
 2037SOL    HW2 7011   6.707   2.406   6.114
 2038SOL     OW 7012   2.831   1.157   6.936
 2038SOL    HW1 7013   2.785   1.242   6.911
 2038SOL    HW2 7014   2.763   1.084   6.944
 2039SOL     OW 7015   6.981   5.695   2.410
 2039SOL    HW1 7016   0.027   5.746   2.354
 2039SOL    HW2 7017   6.995   5.596   2.397
 2040SOL     OW 7018   1.751   2.197   0.029
 2040SOL    HW1 7019   1.840   2.153   0.037
 2040SOL    HW2 7020   1.711   2.177   6.959
 2041SOL     OW 7021   1.507   6.924   5.376
 2041SOL    HW1 7022   1.578   6.962   5.436
 2041SOL    HW2 7023   1.509   6.973   5.289
 2042SOL     OW 7024   4.719   6.900   6.100
 2042SOL    HW1 7025   4.812   6.882   6.134
 2042SOL    HW2 7026   4.656   6.906   6.177
 2043SOL     OW 7027   6.191   2.423   2.316
 2043SOL    HW1 7028   6.136   2.506   2.331
 2043SOL    HW2 7029   6.265   2.444   2.252
 2044SOL     OW 7030   6.064   1.044   1.817
 2044SOL    HW1 7031   6.058   0.945   1.805
 2044SOL    HW2 7032   5.978   1.078   1.856
 2045SOL     OW 7033   1.682   5.828   4.693
 2045SOL    HW1 7034   1.687   5.917   4.648
 2045SOL    HW2 7035   1.721   5.758   4.633
 2046SOL     OW 7036   6.653   2.042   5.652
 2046SOL    HW1 7037   6.671   1.945   5.638
 2046SOL    HW2 7038   6.723   2.096   5.606
 2047SOL     OW 7039   6.242   2.092   1.283
 2047SOL    HW1 7040   6.245   2.142   1.370
 2047SOL    HW2 7041   6.335   2.063   1.259
 2048SOL     OW 7042   0.342   1.683   4.858
 2048SOL    HW1 7043   0.290   1.634   4.788
 2048SOL    HW2 7044   0.424   1.631   4.882
 2049SOL     OW 7045   4.905   1.530   4.600
 2049SOL    HW1 7046   4.889   1.613   4.547
 2049SOL    HW2 7047   5.002   1.506   4.595
 2050SOL     OW 7048   7.001   2.028   5.409
 2050SOL    HW1 7049   0.080   2.037   5.393
 2050SOL    HW2 7050   6.969   1.941   5.372
 2051SOL     OW 7051   2.122   5.930   7.016
 2051SOL    HW1 7052   2.143   5.984   0.079
 2051SOL    HW2 7053   2.183   5.851   7.012
 2052SOL     OW 7054   1.292   3.175   0.938
 2052SOL    HW1 7055   1.238   3.254   0.966
 2052SOL    HW2 7056   1.323   3.125   1.019
 2053SOL     OW 7057   0.177   5.572   4.378
 2053SOL    HW1 7058   0.208   5.490   4.330
 2053SOL    HW2 7059   0.253   5.611   4.430
 2054SOL     OW 7060   3.488   3.026   2.796
 2054SOL    HW1 7061   3.562   3.012   2.862
 2054SOL    HW2 7062   3.457   3.121   2.800
 2055SOL     OW 7063   6.820   2.630   5.297
 2055SOL    HW1 7064   6.804   2.639   5.395
 2055SOL    HW2 7065   6.859   2.715   5.261
 2056SOL     OW 7066   4.415   4.691   1.178
 2056SOL    HW1 7067   4.337   4.752   1.164
 2056SOL    HW2 7068   4.381   4.598   1.197
 2057SOL     OW 7069   5.276   2.956   4.548
 2057SOL    HW1 7070   5.324   2.930   4.465
 2057SOL    HW2 7071   5.203   3.020   4.526
 2058SOL     OW 7072   0.408   6.825   2.692
 2058SOL    HW1 7073   0.463   6.856   2.770
 2058SOL    HW2 7074   0.448   6.860   2.607
 2059SOL     OW 7075   2.536   0.897   5.228
 2059SOL    HW1 7076   2.453   0.842   5.233
 2059SOL    HW2 7077   2.615   0.840   5.250
 2060SOL     OW 7078   0.781   3.082   0.906
 2060SOL    HW1 7079   0.844   3.115   0.835
 2060SOL    HW2 7080   0.765   3.154   0.973
 2061SOL     OW 7081   1.914   2.716   2.190
 2061SOL    HW1 7082   2.003   2.684   2.222
 2061SOL    HW2 7083   1.925   2.804   2.143
 2062SOL     OW 7084   6.783   5.041   5.572
 2062SOL    HW1 7085   6.843   5.091   5.635
 2062SOL    HW2 7086   6.688   5.047   5.605
 2063SOL     OW 7087   1.622   6.236   4.752
 2063SOL    HW1 7088   1.603   6.322   4.799
 2063SOL    HW2 7089   1.719   6.212   4.764
 2064SOL     OW 7090   1.194   3.684   4.261
 2064SOL    HW1 7091   1.203   3.654   4.166
 2064SOL    HW2 7092   1.190   3.604   4.321
 2065SOL     OW 7093   5.455   3.076   6.095
 2065SOL    HW1 7094   5.492   2.983   6.093
 2065SOL    HW2 7095   5.371   3.079   6.042
 2066SOL     OW 7096   6.770   3.768   5.748
 2066SOL    HW1 7097   6.777   3.743   5.651
 2066SOL    HW2 7098   6.681   3.808   5.766
 2067SOL     OW 7099   6.120   4.791   1.864
 2067SOL    HW1 7100   6.033   4.839   1.864
 2067SOL    HW2 7101   6.130   4.738   1.780
 2068SOL     OW 7102   3.596   1.358   3.900
 2068SOL    HW1 7103   3.514   1.368   3.956
 2068SOL    HW2 7104   3.575   1.385   3.806
 2069SOL     OW 7105   0.124   2.001   4.473
 2069SOL    HW1 7106   0.040   1.963   4.435
 2069SOL    HW2 7107   0.176   1.928   4.518
 2070SOL     OW 7108   1.428   2.980   1.070
 2070SOL    HW1 7109   1.443   2.944   0.978
 2070SOL    HW2 7110   1.492   2.938   1.133
 2071SOL     OW 7111   6.174   1.676   6.270
 2071SOL    HW1 7112   6.125   1.626   6.341
 2071SOL    HW2 7113   6.226   1.612   6.213
 2072SOL     OW 7114   3.839   4.778   5.592
 2072SOL    HW1 7115   3.843   4.803   5.495
 2072SOL    HW2 7116   3.772   4.704   5.604
 2073SOL     OW 7117   3.622   6.075   6.321
 2073SOL    HW1 7118   3.702   6.015   6.326
 2073SOL    HW2 7119   3.551   6.042   6.384
 2074SOL     OW 7120   1.767   2.813   5.877
 2074SOL    HW1 7121   1.702   2.740   5.856
 2074SOL    HW2 7122   1.779   2.819   5.976
 2075SOL     OW 7123   6.454   2.154   2.656
 2075SOL    HW1 7124   6.534   2.213   2.645
 2075SOL    HW2 7125   6.412   2.140   2.566
 2076SOL     OW 7126   6.121   0.015   4.996
 2076SOL    HW1 7127   6.080   7.007   4.909
 2076SOL    HW2 7128   6.191   0.084   4.980
 2077SOL     OW 7129   6.812   2.399   1.882
 2077SOL    HW1 7130   6.790   2.479   1.938
 2077SOL    HW2 7131   6.780   2.316   1.928
 2078SOL     OW 7132   1.667   4.907   6.061
 2078SOL    HW1 7133   1.766   4.902   6.079
 2078SOL    HW2 7134   1.622   4.827   6.100
 2079SOL     OW 7135   5.326   0.878   2.116
 2079SOL    HW1 7136   5.402   0.943   2.120
 2079SOL    HW2 7137   5.240   0.928   2.110
 2080SOL     OW 7138   3.120   2.173   4.542
 2080SOL    HW1 7139   3.077   2.221   4.465
 2080SOL    HW2 7140   3.049   2.132   4.599
 2081SOL     OW 7141   0.603   6.460   3.230
 2081SOL    HW1 7142   0.547   6.377   3.232
 2081SOL    HW2 7143   0.571   6.523   3.302
 2082SOL     OW 7144   0.758   6.086   2.774
 2082SOL    HW1 7145   0.692   6.019   2.738
 2082SOL    HW2 7146   0.761   6.165   2.713
 2083SOL     OW 7147   0.562   5.680   3.754
 2083SOL    HW1 7148   0.600   5.708   3.843
 2083SOL    HW2 7149   0.492   5.611   3.768
 2084SOL     OW 7150   1.600   1.993   0.919
 2084SOL    HW1 7151   1.525   1.931   0.894
 2084SOL    HW2 7152   1.599   2.072   0.859
 2085SOL     OW 7153   4.829   5.640   0.475
 2085SOL    HW1 7154   4.842   5.699   0.555
 2085SOL    HW2 7155   4.907   5.579   0.465
 2086SOL     OW 7156   3.302   6.476   0.082
 2086SOL    HW1 7157   3.235   6.546   0.106
 2086SOL    HW2 7158   3.386   6.520   0.051
 2087SOL     OW 7159   4.306   2.191   6.788
 2087SOL    HW1 7160   4.306   2.282   6.747
 2087SOL    HW2 7161   4.211   2.161   6.802
 2088SOL     OW 7162   0.966   5.797   5.674
 2088SOL    HW1 7163   0.984   5.881   5.726
 2088SOL    HW2 7164   0.954   5.820   5.577
 2089SOL     OW 7165   3.888   2.663   5.301
 2089SOL    HW1 7166   3.966   2.602   5.283
 2089SOL    HW2 7167   3.899   2.748   5.250
 2090SOL     OW 7168   4.468   3.308   5.746
 2090SOL    HW1 7169   4.384   3.351   5.780
 2090SOL    HW2 7170   4.468   3.211   5.770
 2091SOL     OW 7171   6.929   6.006   1.419
 2091SOL    HW1 7172   6.857   6.061   1.463
 2091SOL    HW2 7173   6.962   6.054   1.337
 2092SOL     OW 7174   5.131   3.689   1.021
 2092SOL    HW1 7175   5.188   3.768   1.003
 2092SOL    HW2 7176   5.136   3.626   0.943
 2093SOL     OW 7177   3.687   2.091   2.274
 2093SOL    HW1 7178   3.699   2.120   2.179
 2093SOL    HW2 7179   3.599   2.124   2.308
 2094SOL     OW 7180   5.990   2.636   0.347
 2094SOL    HW1 7181   5.975   2.705   0.277
 2094SOL    HW2 7182   5.998   2.679   0.437
 2095SOL     OW 7183   5.804   6.237   3.177
 2095SOL    HW1 7184   5.749   6.284   3.246
 2095SOL    HW2 7185   5.823   6.144   3.208
 2096SOL     OW 7186   4.457   6.181   2.980
 2096SOL    HW1 7187   4.446   6.274   2.944
 2096SOL    HW2 7188   4.453   6.183   3.080
 2097SOL     OW 7189   2.714   4.504   6.384
 2097SOL    HW1 7190   2.670   4.421   6.419
 2097SOL    HW2 7191   2.813   4.497   6.398
 2098SOL     OW 7192   3.923   6.230   3.456
 2098SOL    HW1 7193   3.925   6.241   3.357
 2098SOL    HW2 7194   3.921   6.320   3.499
 2099SOL     OW 7195   4.174   1.783   0.114
 2099SOL    HW1 7196   4.191   1.829   0.201
 2099SOL    HW2 7197   4.102   1.831   0.064
 2100SOL     OW 7198   5.089   1.147   0.452
 2100SOL    HW1 7199   5.152   1.220   0.479
 2100SOL    HW2 7200   5.121   1.060   0.490
 2101SOL     OW 7201   0.341   6.139   0.825
 2101SOL    HW1 7202   0.398   6.149   0.743
 2101SOL    HW2 7203   0.324   6.230   0.864
 2102SOL     OW 7204   3.809   3.256   1.404
 2102SOL    HW1 7205   3.781   3.265   1.500
 2102SOL    HW2 7206   3.748   3.310   1.346
 2103SOL     OW 7207   3.237   4.571   0.335
 2103SOL    HW1 7208   3.263   4.653   0.386
 2103SOL    HW2 7209   3.173   4.517   0.390
 2104SOL     OW 7210   1.890   4.629   2.495
 2104SOL    HW1 7211   1.837   4.695   2.442
 2104SOL    HW2 7212   1.879   4.649   2.593
 2105SOL     OW 7213   4.571   4.177   0.609
 2105SOL    HW1 7214   4.481   4.190   0.566
 2105SOL    HW2 7215   4.559   4.156   0.706
 2106SOL     OW 7216   5.286   3.724   1.388
 2106SOL    HW1 7217   5.340   3.675   1.457
 2106SOL    HW2 7218   5.229   3.658   1.338
 2107SOL     OW 7219   5.317   3.510   6.214
 2107SOL    HW1 7220   5.394   3.541   6.157
 2107SOL    HW2 7221   5.231   3.533   6.168
 2108SOL     OW 7222   5.860   6.491   6.151
 2108SOL    HW1 7223   5.856   6.393   6.170
 2108SOL    HW2 7224   5.946   6.512   6.105
 2109SOL     OW 7225   3.085   4.872   2.132
 2109SOL    HW1 7226   3.025   4.872   2.053
 2109SOL    HW2 7227   3.106   4.966   2.158
 2110SOL     OW 7228   3.995   0.746   6.693
 2110SOL    HW1 7229   3.992   0.719   6.597
 2110SOL    HW2 7230   4.056   0.824   6.705
 2111SOL     OW 7231   1.211   2.259   5.783
 2111SOL    HW1 7232   1.173   2.349   5.807
 2111SOL    HW2 7233   1.309   2.267   5.767
 2112SOL     OW 7234   5.809   1.652   6.733
 2112SOL    HW1 7235   5.857   1.565   6.745
 2112SOL    HW2 7236   5.782   1.688   6.822
 2113SOL     OW 7237   2.232   6.340   4.249
 2113SOL    HW1 7238   2.301   6.271   4.229
 2113SOL    HW2 7239   2.272   6.413   4.305
 2114SOL     OW 7240   2.768   3.052   0.297
 2114SOL    HW1 7241   2.702   3.074   0.369
 2114SOL    HW2 7242   2.847   3.113   0.304
 2115SOL     OW 7243   1.320   4.252   2.245
 2115SOL    HW1 7244   1.331   4.293   2.154
 2115SOL    HW2 7245   1.334   4.322   2.315
 2116SOL     OW 7246   0.880   2.609   0.693
 2116SOL    HW1 7247   0.845   2.677   0.629
 2116SOL    HW2 7248   0.959   2.646   0.742
 2117SOL     OW 7249   5.879   3.256   1.874
 2117SOL    HW1 7250   5.838   3.194   1.941
 2117SOL    HW2 7251   5.830   3.342   1.874
 2118SOL     OW 7252   6.575   3.841   2.741
 2118SOL    HW1 7253   6.601   3.858   2.646
 2118SOL    HW2 7254   6.650   3.794   2.788
 2119SOL     OW 7255   2.196   0.437   6.685
 2119SOL    HW1 7256   2.130   0.397   6.748
 2119SOL    HW2 7257   2.244   0.513   6.729
 2120SOL     OW 7258   6.565   2.038   2.902
 2120SOL    HW1 7259   6.527   2.049   2.809
 2120SOL    HW2 7260   6.661   2.065   2.902
 2121SOL     OW 7261   2.096   1.219   5.930
 2121SOL    HW1 7262   2.045   1.276   5.866
 2121SOL    HW2 7263   2.111   1.128   5.890
 2122SOL     OW 7264   5.723   0.056   5.614
 2122SOL    HW1 7265   5.811   0.096   5.591
 2122SOL    HW2 7266   5.660   0.068   5.537
 2123SOL     OW 7267   0.405   6.540   2.594
 2123SOL    HW1 7268   0.423   6.630   2.635
 2123SOL    HW2 7269   0.316   6.542   2.547
 2124SOL     OW 7270   3.301   2.817   5.780
 2124SOL    HW1 7271   3.319   2.866   5.694
 2124SOL    HW2 7272   3.219   2.761   5.769
 2125SOL     OW 7273   1.689   6.020   3.314
 2125SOL    HW1 7274   1.682   6.054   3.408
 2125SOL    HW2 7275   1.599   6.019   3.271
 2126SOL     OW 7276   3.777   3.191   0.608
 2126SOL    HW1 7277   3.702   3.184   0.541
 2126SOL    HW2 7278   3.762   3.125   0.681
 2127SOL     OW 7279   0.016   2.552   6.078
 2127SOL    HW1 7280   0.012   2.644   6.118
 2127SOL    HW2 7281   6.960   2.497   6.114
 2128SOL     OW 7282   5.644   3.911   0.943
 2128SOL    HW1 7283   5.668   3.906   1.040
 2128SOL    HW2 7284   5.718   3.870   0.888
 2129SOL     OW 7285   5.018   4.147   3.907
 2129SOL    HW1 7286   4.958   4.084   3.859
 2129SOL    HW2 7287   5.104   4.100   3.930
 2130SOL     OW 7288   2.520   1.718   1.529
 2130SOL    HW1 7289   2.542   1.630   1.488
 2130SOL    HW2 7290   2.593   1.744   1.592
 2131SOL     OW 7291   5.299   1.876   6.019
 2131SOL    HW1 7292   5.356   1.831   6.087
 2131SOL    HW2 7293   5.215   1.823   6.004
 2132SOL     OW 7294   3.046   1.628   6.314
 2132SOL    HW1 7295   3.131   1.601   6.359
 2132SOL    HW2 7296   3.023   1.561   6.244
 2133SOL     OW 7297   2.660   1.719   1.197
 2133SOL    HW1 7298   2.584   1.691   1.138
 2133SOL    HW2 7299   2.638   1.807   1.240
 2134SOL     OW 7300   0.263   0.245   3.969
 2134SOL    HW1 7301   0.184   0.186   3.954
 2134SOL    HW2 7302   0.277   0.304   3.890
 2135SOL     OW 7303   0.291   2.109   3.927
 2135SOL    HW1 7304   0.278   2.160   3.842
 2135SOL    HW2 7305   0.379   2.135   3.968
 2136SOL     OW 7306   1.307   3.305   5.057
 2136SOL    HW1 7307   1.281   3.400   5.072
 2136SOL    HW2 7308   1.369   3.275   5.129
 2137SOL     OW 7309   0.800   6.634   5.189
 2137SOL    HW1 7310   0.738   6.703   5.151
 2137SOL    HW2 7311   0.767   6.604   5.278
 2138SOL     OW 7312   6.855   2.311   1.563
 2138SOL    HW1 7313   6.796   2.333   1.485
 2138SOL    HW2 7314   6.838   2.377   1.636
 2139SOL     OW 7315   2.908   0.534   3.665
 2139SOL    HW1 7316   2.842   0.594   3.711
 2139SOL    HW2 7317   2.866   0.494   3.584
 2140SOL     OW 7318   2.470   6.322   2.929
 2140SOL    HW1 7319   2.537   6.376   2.982
 2140SOL    HW2 7320   2.517   6.246   2.885
 2141SOL     OW 7321   6.768   2.714   1.121
 2141SOL    HW1 7322   6.759   2.679   1.028
 2141SOL    HW2 7323   6.693   2.680   1.177
 2142SOL     OW 7324   1.705   1.921   3.200
 2142SOL    HW1 7325   1.718   1.824   3.180
 2142SOL    HW2 7326   1.618   1.952   3.164
 2143SOL     OW 7327   4.179   6.195   1.216
 2143SOL    HW1 7328   4.238   6.131   1.166
 2143SOL    HW2 7329   4.210   6.202   1.311
 2144SOL     OW 7330   1.077   0.711   3.107
 2144SOL    HW1 7331   0.994   0.760   3.080
 2144SOL    HW2 7332   1.134   0.771   3.163
 2145SOL     OW 7333   3.183   5.843   3.560
 2145SOL    HW1 7334   3.262   5.784   3.578
 2145SOL    HW2 7335   3.124   5.845   3.641
 2146SOL     OW 7336   3.029   3.890   2.133
 2146SOL    HW1 7337   3.056   3.898   2.037
 2146SOL    HW2 7338   3.074   3.963   2.186
 2147SOL     OW 7339   0.113   1.762   0.269
 2147SOL    HW1 7340   0.165   1.730   0.190
 2147SOL    HW2 7341   0.175   1.773   0.347
 2148SOL     OW 7342   4.962   3.799   3.635
 2148SOL    HW1 7343   4.958   3.864   3.559
 2148SOL    HW2 7344   4.932   3.709   3.603
 2149SOL     OW 7345   3.807   0.503   1.700
 2149SOL    HW1 7346   3.786   0.596   1.731
 2149SOL    HW2 7347   3.854   0.508   1.611
 2150SOL     OW 7348   3.762   2.130   2.664
 2150SOL    HW1 7349   3.816   2.165   2.587
 2150SOL    HW2 7350   3.774   2.031   2.672
 2151SOL     OW 7351   3.368   2.551   5.642
 2151SOL    HW1 7352   3.380   2.519   5.736
 2151SOL    HW2 7353   3.286   2.510   5.603
 2152SOL     OW 7354   6.059   6.417   2.182
 2152SOL    HW1 7355   6.071   6.505   2.135
 2152SOL    HW2 7356   5.977   6.372   2.147
 2153SOL     OW 7357   4.818   1.620   3.884
 2153SOL    HW1 7358   4.863   1.657   3.965
 2153SOL    HW2 7359   4.719   1.637   3.890
 2154SOL     OW 7360   2.798   5.667   4.653
 2154SOL    HW1 7361   2.893   5.634   4.657
 2154SOL    HW2 7362   2.796   5.764   4.678
 2155SOL     OW 7363   2.158   5.188   0.308
 2155SOL    HW1 7364   2.122   5.120   0.244
 2155SOL    HW2 7365   2.104   5.272   0.302
 2156SOL     OW 7366   1.910   0.538   0.993
 2156SOL    HW1 7367   1.845   0.467   0.968
 2156SOL    HW2 7368   1.997   0.522   0.946
 2157SOL     OW 7369   6.889   1.251   4.863
 2157SOL    HW1 7370   6.960   1.206   4.808
 2157SOL    HW2 7371   6.923   1.266   4.956
 2158SOL     OW 7372   3.511   6.857   0.754
 2158SOL    HW1 7373   3.540   6.801   0.676
 2158SOL    HW2 7374   3.446   6.804   0.809
 2159SOL     OW 7375   1.400   6.602   4.730
 2159SOL    HW1 7376   1.477   6.577   4.672
 2159SOL    HW2 7377   1.424   6.586   4.826
 2160SOL     OW 7378   3.809   3.993   1.447
 2160SOL    HW1 7379   3.907   4.014   1.451
 2160SOL    HW2 7380   3.791   3.926   1.376
 2161SOL     OW 7381   4.898   3.611   3.226
 2161SOL    HW1 7382   4.818   3.641   3.278
 2161SOL    HW2 7383   4.920   3.516   3.251
 2162SOL     OW 7384   2.352   0.590   6.346
 2162SOL    HW1 7385   2.321   0.667   6.291
 2162SOL    HW2 7386   2.371   0.622   6.439
 2163SOL     OW 7387   1.451   0.184   6.753
 2163SOL    HW1 7388   1.388   0.169   6.676
 2163SOL    HW2 7389   1.410   0.248   6.817
 2164SOL     OW 7390   2.229   0.572   6.007
 2164SOL    HW1 7391   2.305   0.545   5.947
 2164SOL    HW2 7392   2.255   0.654   6.058
 2165SOL     OW 7393   1.536   0.938   2.976
 2165SOL    HW1 7394   1.503   0.897   2.890
 2165SOL    HW2 7395   1.626   0.899   2.997
 2166SOL     OW 7396   1.477   2.211   5.783
 2166SOL    HW1 7397   1.484   2.256   5.694
 2166SOL    HW2 7398   1.518   2.120   5.778
 2167SOL     OW 7399   2.578   0.701   2.054
 2167SOL    HW1 7400   2.570   0.798   2.032
 2167SOL    HW2 7401   2.665   0.666   2.021
 2168SOL     OW 7402   6.252   2.917   5.167
 2168SOL    HW1 7403   6.342   2.950   5.195
 2168SOL    HW2 7404   6.182   2.984   5.194
 2169SOL     OW 7405   5.826   3.010   6.232
 2169SOL    HW1 7406   5.732   2.975   6.225
 2169SOL    HW2 7407   5.844   3.069   6.154
 2170SOL     OW 7408   5.244   4.421   5.030
 2170SOL    HW1 7409   5.171   4.455   5.090
 2170SOL    HW2 7410   5.253   4.322   5.043
 2171SOL     OW 7411   6.625   2.744   0.107
 2171SOL    HW1 7412   6.570   2.789   0.037
 2171SOL    HW2 7413   6.624   2.798   0.191
 2172SOL     OW 7414   3.072   0.921   0.418
 2172SOL    HW1 7415   3.051   1.011   0.456
 2172SOL    HW2 7416   2.991   0.863   0.424
 2173SOL     OW 7417   4.120   0.227   5.841
 2173SOL    HW1 7418   4.121   0.185   5.931
 2173SOL    HW2 7419   4.149   0.322   5.848
 2174SOL     OW 7420   6.564   4.024   5.514
 2174SOL    HW1 7421   6.534   4.047   5.607
 2174SOL    HW2 7422   6.584   4.109   5.465
 2175SOL     OW 7423   3.142   0.303   2.783
 2175SOL    HW1 7424   3.137   0.279   2.686
 2175SOL    HW2 7425   3.167   0.223   2.836
 2176SOL     OW 7426   2.222   2.264   1.890
 2176SOL    HW1 7427   2.271   2.178   1.880
 2176SOL    HW2 7428   2.269   2.336   1.838
 2177SOL     OW 7429   6.817   1.437   1.838
 2177SOL    HW1 7430   6.802   1.354   1.892
 2177SOL    HW2 7431   6.911   1.438   1.803
 2178SOL     OW 7432   0.953   4.922   7.003
 2178SOL    HW1 7433   1.032   4.975   0.016
 2178SOL    HW2 7434   0.932   4.851   0.051
 2179SOL     OW 7435   0.983   5.837   3.854
 2179SOL    HW1 7436   0.912   5.844   3.784
 2179SOL    HW2 7437   1.057   5.778   3.821
 2180SOL     OW 7438   3.273   3.781   3.130
 2180SOL    HW1 7439   3.192   3.825   3.092
 2180SOL    HW2 7440   3.315   3.722   3.061
 2181SOL     OW 7441   4.876   4.876   6.229
 2181SOL    HW1 7442   4.784   4.837   6.221
 2181SOL    HW2 7443   4.893   4.899   6.325
 2182SOL     OW 7444   0.198   3.386   6.939
 2182SOL    HW1 7445   0.215   3.434   6.853
 2182SOL    HW2 7446   0.139   3.442   6.997
 2183SOL     OW 7447   3.099   2.969   0.764
 2183SOL    HW1 7448   3.168   2.937   0.699
 2183SOL    HW2 7449   3.009   2.934   0.736
 2184SOL     OW 7450   3.884   1.028   6.619
 2184SOL    HW1 7451   3.820   0.966   6.573
 2184SOL    HW2 7452   3.963   0.976   6.651
 2185SOL     OW 7453   1.745   0.588   0.411
 2185SOL    HW1 7454   1.653   0.564   0.379
 2185SOL    HW2 7455   1.757   0.554   0.504
 2186SOL     OW 7456   6.953   4.411   2.660
 2186SOL    HW1 7457   6.888   4.335   2.658
 2186SOL    HW2 7458   6.941   4.467   2.578
 2187SOL     OW 7459   6.777   1.364   1.362
 2187SOL    HW1 7460   6.708   1.408   1.305
 2187SOL    HW2 7461   6.733   1.300   1.425
 2188SOL     OW 7462   4.636   6.260   3.667
 2188SOL    HW1 7463   4.701   6.330   3.696
 2188SOL    HW2 7464   4.685   6.176   3.642
 2189SOL     OW 7465   1.655   6.994   5.902
 2189SOL    HW1 7466   1.659   7.007   5.803
 2189SOL    HW2 7467   1.585   6.926   5.924
 2190SOL     OW 7468   6.503   2.856   1.836
 2190SOL    HW1 7469   6.528   2.870   1.932
 2190SOL    HW2 7470   6.571   2.900   1.777
 2191SOL     OW 7471   3.394   2.407   6.912
 2191SOL    HW1 7472   3.407   2.461   6.829
 2191SOL    HW2 7473   3.322   2.449   6.968
 2192SOL     OW 7474   4.218   6.144   5.370
 2192SOL    HW1 7475   4.121   6.166   5.372
 2192SOL    HW2 7476   4.266   6.208   5.310
 2193SOL     OW 7477   0.949   5.160   5.253
 2193SOL    HW1 7478   0.938   5.116   5.164
 2193SOL    HW2 7479   0.999   5.098   5.314
 2194SOL     OW 7480   2.003   6.010   0.340
 2194SOL    HW1 7481   1.996   5.989   0.437
 2194SOL    HW2 7482   1.913   6.032   0.304
 2195SOL     OW 7483   1.049   5.893   1.862
 2195SOL    HW1 7484   1.126   5.839   1.896
 2195SOL    HW2 7485   0.963   5.852   1.892
 2196SOL     OW 7486   3.964   0.865   5.542
 2196SOL    HW1 7487   3.959   0.960   5.573
 2196SOL    HW2 7488   4.033   0.856   5.471
 2197SOL     OW 7489   5.034   4.306   1.504
 2197SOL    HW1 7490   5.032   4.384   1.568
 2197SOL    HW2 7491   4.979   4.231   1.542
 2198SOL     OW 7492   6.678   4.045   0.139
 2198SOL    HW1 7493   6.597   4.098   0.163
 2198SOL    HW2 7494   6.664   4.004   0.048
 2199SOL     OW 7495   4.733   6.833   0.433
 2199SOL    HW1 7496   4.823   6.873   0.423
 2199SOL    HW2 7497   4.710   6.823   0.530
 2200SOL     OW 7498   4.348   0.760   4.782
 2200SOL    HW1 7499   4.249   0.755   4.778
 2200SOL    HW2 7500   4.380   0.835   4.725
 2201SOL     OW 7501   6.345   3.158   1.878
 2201SOL    HW1 7502   6.347   3.258   1.888
 2201SOL    HW2 7503   6.251   3.129   1.864
 2202SOL     OW 7504   3.703   5.052   4.347
 2202SOL    HW1 7505   3.606   5.062   4.366
 2202SOL    HW2 7506   3.716   4.987   4.272
 2203SOL     OW 7507   3.532   2.177   3.586
 2203SOL    HW1 7508   3.565   2.170   3.492
 2203SOL    HW2 7509   3.606   2.206   3.646
 2204SOL     OW 7510   3.646   1.491   6.920
 2204SOL    HW1 7511   3.719   1.431   6.887
 2204SOL    HW2 7512   3.607   1.542   6.843
 2205SOL     OW 7513   1.787   0.225   0.074
 2205SOL    HW1 7514   1.815   0.318   0.096
 2205SOL    HW2 7515   1.850   0.187   0.006
 2206SOL     OW 7516   3.289   3.619   6.501
 2206SOL    HW1 7517   3.280   3.718   6.504
 2206SOL    HW2 7518   3.386   3.595   6.486
 2207SOL     OW 7519   1.121   4.206   6.021
 2207SOL    HW1 7520   1.195   4.213   6.088
 2207SOL    HW2 7521   1.159   4.187   5.931
 2208SOL     OW 7522   0.354   3.432   1.926
 2208SOL    HW1 7523   0.387   3.442   1.832
 2208SOL    HW2 7524   0.422   3.467   1.990
 2209SOL     OW 7525   1.792   5.598   6.469
 2209SOL    HW1 7526   1.881   5.594   6.516
 2209SOL    HW2 7527   1.725   5.545   6.521
 2210SOL     OW 7528   0.971   5.506   3.527
 2210SOL    HW1 7529   0.957   5.447   3.448
 2210SOL    HW2 7530   0.889   5.505   3.585
 2211SOL     OW 7531   6.319   0.794   5.397
 2211SOL    HW1 7532   6.278   0.869   5.345
 2211SOL    HW2 7533   6.317   0.816   5.494
 2212SOL     OW 7534   0.703   0.143   6.045
 2212SOL    HW1 7535   0.664   0.094   5.967
 2212SOL    HW2 7536   0.735   0.077   6.113
 2213SOL     OW 7537   4.374   2.414   3.857
 2213SOL    HW1 7538   4.282   2.417   3.897
 2213SOL    HW2 7539   4.372   2.363   3.772
 2214SOL     OW 7540   5.243   0.512   4.808
 2214SOL    HW1 7541   5.258   0.463   4.723
 2214SOL    HW2 7542   5.267   0.609   4.795
 2215SOL     OW 7543   7.000   1.969   5.711
 2215SOL    HW1 7544   0.009   1.917   5.630
 2215SOL    HW2 7545   0.043   2.047   5.723
 2216SOL     OW 7546   1.121   6.667   1.017
 2216SOL    HW1 7547   1.063   6.606   0.963
 2216SOL    HW2 7548   1.216   6.638   1.008
 2217SOL     OW 7549   3.974   6.642   1.457
 2217SOL    HW1 7550   4.047   6.577   1.477
 2217SOL    HW2 7551   3.950   6.692   1.540
 2218SOL     OW 7552   1.349   5.475   5.966
 2218SOL    HW1 7553   1.410   5.520   6.031
 2218SOL    HW2 7554   1.276   5.427   6.016
 2219SOL     OW 7555   1.396   3.662   3.404
 2219SOL    HW1 7556   1.431   3.576   3.439
 2219SOL    HW2 7557   1.381   3.654   3.305
 2220SOL     OW 7558   0.350   2.060   5.479
 2220SOL    HW1 7559   0.413   2.017   5.544
 2220SOL    HW2 7560   0.402   2.118   5.416
 2221SOL     OW 7561   6.791   2.002   1.315
 2221SOL    HW1 7562   6.864   2.009   1.383
 2221SOL    HW2 7563   6.772   1.906   1.295
 2222SOL     OW 7564   4.669   0.070   2.028
 2222SOL    HW1 7565   4.702   6.997   2.010
 2222SOL    HW2 7566   4.726   0.114   2.097
 2223SOL     OW 7567   5.802   5.207   3.915
 2223SOL    HW1 7568   5.850   5.206   3.827
 2223SOL    HW2 7569   5.867   5.218   3.989
 2224SOL     OW 7570   1.964   4.920   1.607
 2224SOL    HW1 7571   1.994   4.826   1.624
 2224SOL    HW2 7572   1.891   4.944   1.671
 2225SOL     OW 7573   6.367   4.761   2.278
 2225SOL    HW1 7574   6.448   4.743   2.222
 2225SOL    HW2 7575   6.313   4.676   2.286
 2226SOL     OW 7576   3.887   2.621   1.228
 2226SOL    HW1 7577   3.930   2.686   1.166
 2226SOL    HW2 7578   3.926   2.631   1.320
 2227SOL     OW 7579   6.523   4.023   6.460
 2227SOL    HW1 7580   6.468   4.067   6.390
 2227SOL    HW2 7581   6.494   3.928   6.471
 2228SOL     OW 7582   3.162   4.750   6.753
 2228SOL    HW1 7583   3.141   4.828   6.694
 2228SOL    HW2 7584   3.180   4.670   6.696
 2229SOL     OW 7585   4.573   1.486   3.569
 2229SOL    HW1 7586   4.491   1.475   3.512
 2229SOL    HW2 7587   4.548   1.536   3.652
 2230SOL     OW 7588   1.079   5.873   4.722
 2230SOL    HW1 7589   1.036   5.807   4.661
 2230SOL    HW2 7590   1.008   5.924   4.771
 2231SOL     OW 7591   1.861   0.830   1.864
 2231SOL    HW1 7592   1.884   0.873   1.951
 2231SOL    HW2 7593   1.926   0.858   1.794
 2232SOL     OW 7594   7.017   3.179   2.703
 2232SOL    HW1 7595   6.967   3.170   2.789
 2232SOL    HW2 7596   0.096   3.183   2.722
 2233SOL     OW 7597   3.757   6.049   0.535
 2233SOL    HW1 7598   3.831   5.984   0.518
 2233SOL    HW2 7599   3.673   5.999   0.558
 2234SOL     OW 7600   3.583   1.687   0.548
 2234SOL    HW1 7601   3.674   1.648   0.530
 2234SOL    HW2 7602   3.588   1.786   0.550
 2235SOL     OW 7603   1.389   7.000   0.020
 2235SOL    HW1 7604   1.451   6.938   0.068
 2235SOL    HW2 7605   1.309   6.950   7.008
 2236SOL     OW 7606   0.626   4.501   1.096
 2236SOL    HW1 7607   0.680   4.538   1.171
 2236SOL    HW2 7608   0.685   4.446   1.036
 2237SOL     OW 7609   6.914   3.033   4.887
 2237SOL    HW1 7610   6.864   2.993   4.964
 2237SOL    HW2 7611   6.872   3.004   4.801
 2238SOL     OW 7612   0.218   5.598   1.894
 2238SOL    HW1 7613   0.204   5.677   1.835
 2238SOL    HW2 7614   0.279   5.623   1.969
 2239SOL     OW 7615   4.086   4.804   3.606
 2239SOL    HW1 7616   4.107   4.870   3.535
 2239SOL    HW2 7617   4.163   4.798   3.670
 2240SOL     OW 7618   6.946   4.767   3.495
 2240SOL    HW1 7619   6.898   4.852   3.473
 2240SOL    HW2 7620   7.005   4.741   3.418
 2241SOL     OW 7621   0.208   6.453   2.174
 2241SOL    HW1 7622   0.241   6.403   2.094
 2241SOL    HW2 7623   0.273   6.526   2.197
 2242SOL     OW 7624   4.979   2.168   2.899
 2242SOL    HW1 7625   4.985   2.201   2.993
 2242SOL    HW2 7626   4.892   2.121   2.884
 2243SOL     OW 7627   2.013   5.779   4.745
 2243SOL    HW1 7628   2.111   5.772   4.767
 2243SOL    HW2 7629   1.959   5.772   4.829
 2244SOL     OW 7630   2.915   0.266   4.523
 2244SOL    HW1 7631   2.875   0.253   4.433
 2244SOL    HW2 7632   2.931   0.177   4.566
 2245SOL     OW 7633   0.141   1.987   2.658
 2245SOL    HW1 7634   0.175   1.909   2.710
 2245SOL    HW2 7635   0.053   1.964   2.617
 2246SOL     OW 7636   1.468   3.845   5.902
 2246SOL    HW1 7637   1.561   3.868   5.933
 2246SOL    HW2 7638   1.464   3.747   5.881
 2247SOL     OW 7639   2.046   2.234   5.949
 2247SOL    HW1 7640   2.030   2.325   5.989
 2247SOL    HW2 7641   2.114   2.242   5.876
 2248SOL     OW 7642   4.787   4.199   5.437
 2248SOL    HW1 7643   4.788   4.216   5.536
 2248SOL    HW2 7644   4.693   4.212   5.403
 2249SOL     OW 7645   5.330   6.193   3.033
 2249SOL    HW1 7646   5.332   6.283   3.075
 2249SOL    HW2 7647   5.322   6.123   3.103
 2250SOL     OW 7648   5.938   4.006   1.465
 2250SOL    HW1 7649   5.860   3.944   1.451
 2250SOL    HW2 7650   5.990   3.976   1.545
 2251SOL     OW 7651   5.876   1.614   0.007
 2251SOL    HW1 7652   5.939   1.562   6.968
 2251SOL    HW2 7653   5.924   1.692   0.047
 2252SOL     OW 7654   5.320   2.789   5.399
 2252SOL    HW1 7655   5.231   2.811   5.360
 2252SOL    HW2 7656   5.390   2.847   5.358
 2253SOL     OW 7657   2.755   3.118   6.657
 2253SOL    HW1 7658   2.846   3.084   6.633
 2253SOL    HW2 7659   2.750   3.216   6.639
 2254SOL     OW 7660   1.812   3.258   5.838
 2254SOL    HW1 7661   1.750   3.190   5.798
 2254SOL    HW2 7662   1.889   3.274   5.776
 2255SOL     OW 7663   6.240   2.864   1.797
 2255SOL    HW1 7664   6.338   2.875   1.812
 2255SOL    HW2 7665   6.200   2.951   1.767
 2256SOL     OW 7666   4.054   4.869   2.270
 2256SOL    HW1 7667   4.090   4.808   2.199
 2256SOL    HW2 7668   3.955   4.878   2.259
 2257SOL     OW 7669   1.564   3.578   4.177
 2257SOL    HW1 7670   1.569   3.654   4.242
 2257SOL    HW2 7671   1.592   3.610   4.086
 2258SOL     OW 7672   1.975   5.289   5.409
 2258SOL    HW1 7673   1.875   5.299   5.402
 2258SOL    HW2 7674   2.020   5.350   5.344
 2259SOL     OW 7675   5.232   3.822   6.798
 2259SOL    HW1 7676   5.218   3.858   6.706
 2259SOL    HW2 7677   5.183   3.879   6.864
 2260SOL     OW 7678   4.710   4.995   2.055
 2260SOL    HW1 7679   4.760   4.953   1.980
 2260SOL    HW2 7680   4.626   5.038   2.020
 2261SOL     OW 7681   5.097   6.579   0.645
 2261SOL    HW1 7682   5.130   6.509   0.582
 2261SOL    HW2 7683   5.118   6.553   0.739
 2262SOL     OW 7684   5.149   2.430   3.829
 2262SOL    HW1 7685   5.085   2.427   3.906
 2262SOL    HW2 7686   5.157   2.339   3.788
 2263SOL     OW 7687   1.531   5.130   6.137
 2263SOL    HW1 7688   1.439   5.116   6.099
 2263SOL    HW2 7689   1.593   5.061   6.101
 2264SOL     OW 7690   3.012   3.899   3.247
 2264SOL    HW1 7691   3.001   3.960   3.326
 2264SOL    HW2 7692   2.970   3.810   3.267
 2265SOL     OW 7693   0.271   0.838   2.195
 2265SOL    HW1 7694   0.217   0.878   2.121
 2265SOL    HW2 7695   0.348   0.899   2.217
 2266SOL     OW 7696   6.066   0.833   0.932
 2266SOL    HW1 7697   6.027   0.790   1.014
 2266SOL    HW2 7698   6.163   0.852   0.947
 2267SOL     OW 7699   5.949   2.243   5.175
 2267SOL    HW1 7700   5.863   2.294   5.189
 2267SOL    HW2 7701   6.019   2.306   5.142
 2268SOL     OW 7702   0.102   6.390   6.884
 2268SOL    HW1 7703   0.010   6.416   6.857
 2268SOL    HW2 7704   0.098   6.319   6.954
 2269SOL     OW 7705   6.751   5.837   5.984
 2269SOL    HW1 7706   6.829   5.851   6.045
 2269SOL    HW2 7707   6.773   5.766   5.917
 2270SOL     OW 7708   3.018   3.096   1.901
 2270SOL    HW1 7709   3.061   3.009   1.878
 2270SOL    HW2 7710   3.061   3.170   1.849
 2271SOL     OW 7711   5.762   4.703   1.571
 2271SOL    HW1 7712   5.856   4.707   1.538
 2271SOL    HW2 7713   5.701   4.740   1.501
 2272SOL     OW 7714   5.427   1.720   5.506
 2272SOL    HW1 7715   5.342   1.772   5.493
 2272SOL    HW2 7716   5.437   1.697   5.603
 2273SOL     OW 7717   0.840   1.132   3.524
 2273SOL    HW1 7718   0.769   1.079   3.571
 2273SOL    HW2 7719   0.848   1.222   3.567
 2274SOL     OW 7720   1.714   3.662   4.831
 2274SOL    HW1 7721   1.641   3.726   4.855
 2274SOL    HW2 7722   1.739   3.675   4.735
 2275SOL     OW 7723   4.869   5.553   4.899
 2275SOL    HW1 7724   4.959   5.526   4.867
 2275SOL    HW2 7725   4.799   5.509   4.843
 2276SOL     OW 7726   4.395   3.840   0.750
 2276SOL    HW1 7727   4.354   3.783   0.678
 2276SOL    HW2 7728   4.474   3.793   0.788
 2277SOL     OW 7729   3.014   3.360   6.275
 2277SOL    HW1 7730   2.998   3.458   6.286
 2277SOL    HW2 7731   3.000   3.334   6.179
 2278SOL     OW 7732   5.489   6.351   2.239
 2278SOL    HW1 7733   5.422   6.394   2.178
 2278SOL    HW2 7734   5.442   6.294   2.305
 2279SOL     OW 7735   5.837   3.375   4.952
 2279SOL    HW1 7736   5.821   3.396   5.048
 2279SOL    HW2 7737   5.793   3.444   4.895
 2280SOL     OW 7738   6.577   6.066   5.389
 2280SOL    HW1 7739   6.624   6.039   5.306
 2280SOL    HW2 7740   6.597   6.162   5.409
 2281SOL     OW 7741   3.605   2.005   1.481
 2281SOL    HW1 7742   3.507   1.997   1.464
 2281SOL    HW2 7743   3.625   2.096   1.519
 2282SOL     OW 7744   4.002   5.677   3.377
 2282SOL    HW1 7745   4.041   5.726   3.299
 2282SOL    HW2 7746   4.040   5.713   3.462
 2283SOL     OW 7747   0.030   3.875   3.695
 2283SOL    HW1 7748   0.000   3.817   3.619
 2283SOL    HW2 7749   0.048   3.967   3.661
 2284SOL     OW 7750   2.619   2.089   1.545
 2284SOL    HW1 7751   2.552   2.127   1.609
 2284SOL    HW2 7752   2.711   2.112   1.577
 2285SOL     OW 7753   1.271   3.611   0.289
 2285SOL    HW1 7754   1.332   3.671   0.238
 2285SOL    HW2 7755   1.215   3.666   0.352
 2286SOL     OW 7756   6.058   5.714   4.462
 2286SOL    HW1 7757   6.064   5.776   4.384
 2286SOL    HW2 7758   5.963   5.713   4.496
 2287SOL     OW 7759   2.469   2.319   1.226
 2287SOL    HW1 7760   2.495   2.378   1.302
 2287SOL    HW2 7761   2.421   2.372   1.157
 2288SOL     OW 7762   0.205   6.670   2.882
 2288SOL    HW1 7763   0.227   6.760   2.845
 2288SOL    HW2 7764   0.279   6.640   2.943
 2289SOL     OW 7765   5.938   1.475   2.252
 2289SOL    HW1 7766   5.983   1.403   2.198
 2289SOL    HW2 7767   5.844   1.448   2.271
 2290SOL     OW 7768   3.016   3.761   3.650
 2290SOL    HW1 7769   3.041   3.741   3.745
 2290SOL    HW2 7770   3.060   3.695   3.590
 2291SOL     OW 7771   2.034   1.939   1.219
 2291SOL    HW1 7772   2.119   1.914   1.173
 2291SOL    HW2 7773   2.017   1.875   1.294
 2292SOL     OW 7774   4.979   2.174   3.545
 2292SOL    HW1 7775   4.897   2.202   3.595
 2292SOL    HW2 7776   4.958   2.168   3.447
 2293SOL     OW 7777   5.332   1.227   0.609
 2293SOL    HW1 7778   5.306   1.321   0.631
 2293SOL    HW2 7779   5.275   1.164   0.662
 2294SOL     OW 7780   1.533   2.472   6.311
 2294SOL    HW1 7781   1.506   2.436   6.222
 2294SOL    HW2 7782   1.603   2.413   6.351
 2295SOL     OW 7783   6.823   0.001   2.019
 2295SOL    HW1 7784   6.856   7.016   2.113
 2295SOL    HW2 7785   6.734   6.975   2.013
 2296SOL     OW 7786   2.464   5.335   3.217
 2296SOL    HW1 7787   2.384   5.352   3.274
 2296SOL    HW2 7788   2.527   5.412   3.225
 2297SOL     OW 7789   4.733   4.905   5.725
 2297SOL    HW1 7790   4.784   4.823   5.749
 2297SOL    HW2 7791   4.721   4.910   5.626
 2298SOL     OW 7792   3.999   3.043   4.723
 2298SOL    HW1 7793   4.086   2.997   4.742
 2298SOL    HW2 7794   3.998   3.132   4.769
 2299SOL     OW 7795   5.607   3.290   5.225
 2299SOL    HW1 7796   5.701   3.317   5.248
 2299SOL    HW2 7797   5.602   3.266   5.128
 2300SOL     OW 7798   3.760   6.796   3.231
 2300SOL    HW1 7799   3.725   6.889   3.220
 2300SOL    HW2 7800   3.860   6.797   3.227
 2301SOL     OW 7801   3.174   3.299   4.326
 2301SOL    HW1 7802   3.115   3.242   4.383
 2301SOL    HW2 7803   3.120   3.336   4.250
 2302SOL     OW 7804   4.242   1.364   0.491
 2302SOL    HW1 7805   4.297   1.342   0.571
 2302SOL    HW2 7806   4.274   1.311   0.413
 2303SOL     OW 7807   2.577   2.684   0.889
 2303SOL    HW1 7808   2.618   2.656   0.802
 2303SOL    HW2 7809   2.519   2.764   0.875
 2304SOL     OW 7810   6.239   6.003   3.220
 2304SOL    HW1 7811   6.151   5.957   3.221
 2304SOL    HW2 7812   6.301   5.955   3.158
 2305SOL     OW 7813   1.275   1.262   4.758
 2305SOL    HW1 7814   1.267   1.162   4.755
 2305SOL    HW2 7815   1.210   1.299   4.824
 2306SOL     OW 7816   2.161   4.477   3.423
 2306SOL    HW1 7817   2.182   4.572   3.403
 2306SOL    HW2 7818   2.106   4.471   3.506
 2307SOL     OW 7819   1.382   2.697   5.361
 2307SOL    HW1 7820   1.428   2.762   5.420
 2307SOL    HW2 7821   1.314   2.746   5.305
 2308SOL     OW 7822   2.420   4.425   1.634
 2308SOL    HW1 7823   2.326   4.407   1.664
 2308SOL    HW2 7824   2.448   4.516   1.664
 2309SOL     OW 7825   1.335   6.878   4.402
 2309SOL    HW1 7826   1.379   6.881   4.492
 2309SOL    HW2 7827   1.237   6.865   4.413
 2310SOL     OW 7828   4.254   6.530   1.473
 2310SOL    HW1 7829   4.309   6.585   1.536
 2310SOL    HW2 7830   4.239   6.582   1.388
 2311SOL     OW 7831   2.594   6.100   0.845
 2311SOL    HW1 7832   2.546   6.092   0.758
 2311SOL    HW2 7833   2.637   6.190   0.852
 2312SOL     OW 7834   3.620   5.910   2.587
 2312SOL    HW1 7835   3.670   5.987   2.626
 2312SOL    HW2 7836   3.527   5.938   2.564
 2313SOL     OW 7837   4.651   4.718   2.887
 2313SOL    HW1 7838   4.561   4.675   2.887
 2313SOL    HW2 7839   4.658   4.782   2.810
 2314SOL     OW 7840   3.266   5.952   3.328
 2314SOL    HW1 7841   3.246   5.908   3.416
 2314SOL    HW2 7842   3.319   6.035   3.344
 2315SOL     OW 7843   4.619   3.197   6.273
 2315SOL    HW1 7844   4.590   3.102   6.274
 2315SOL    HW2 7845   4.581   3.243   6.192
 2316SOL     OW 7846   5.805   3.053   2.871
 2316SOL    HW1 7847   5.773   2.983   2.807
 2316SOL    HW2 7848   5.890   3.023   2.914
 2317SOL     OW 7849   1.662   4.432   3.052
 2317SOL    HW1 7850   1.724   4.396   2.982
 2317SOL    HW2 7851   1.713   4.491   3.114
 2318SOL     OW 7852   0.031   1.664   3.017
 2318SOL    HW1 7853   7.011   1.581   2.977
 2318SOL    HW2 7854   0.125   1.647   3.045
 2319SOL     OW 7855   1.612   4.635   4.673
 2319SOL    HW1 7856   1.685   4.678   4.726
 2319SOL    HW2 7857   1.631   4.644   4.576
 2320SOL     OW 7858   0.104   2.648   4.018
 2320SOL    HW1 7859   0.096   2.636   3.919
 2320SOL    HW2 7860   0.179   2.591   4.052
 2321SOL     OW 7861   2.891   6.709   4.690
 2321SOL    HW1 7862   2.811   6.768   4.695
 2321SOL    HW2 7863   2.877   6.639   4.620
 2322SOL     OW 7864   1.210   1.004   5.387
 2322SOL    HW1 7865   1.223   0.908   5.411
 2322SOL    HW2 7866   1.179   1.010   5.292
 2323SOL     OW 7867   4.691   5.335   3.086
 2323SOL    HW1 7868   4.636   5.419   3.080
 2323SOL    HW2 7869   4.672   5.290   3.173
 2324SOL     OW 7870   0.582   5.927   2.439
 2324SOL    HW1 7871   0.569   5.899   2.343
 2324SOL    HW2 7872   0.668   5.889   2.473
 2325SOL     OW 7873   1.334   3.897   1.211
 2325SOL    HW1 7874   1.415   3.871   1.263
 2325SOL    HW2 7875   1.357   3.900   1.114
 2326SOL     OW 7876   1.597   4.973   6.871
 2326SOL    HW1 7877   1.535   5.050   6.860
 2326SOL    HW2 7878   1.545   4.889   6.888
 2327SOL     OW 7879   5.006   2.763   3.977
 2327SOL    HW1 7880   5.050   2.809   3.900
 2327SOL    HW2 7881   4.907   2.762   3.963
 2328SOL     OW 7882   4.936   1.519   3.000
 2328SOL    HW1 7883   4.904   1.613   2.990
 2328SOL    HW2 7884   4.968   1.505   3.094
 2329SOL     OW 7885   1.115   5.822   4.111
 2329SOL    HW1 7886   1.190   5.888   4.105
 2329SOL    HW2 7887   1.058   5.828   4.029
 2330SOL     OW 7888   0.732   4.268   2.496
 2330SOL    HW1 7889   0.722   4.336   2.423
 2330SOL    HW2 7890   0.757   4.314   2.581
 2331SOL     OW 7891   0.348   4.125   5.415
 2331SOL    HW1 7892   0.349   4.220   5.446
 2331SOL    HW2 7893   0.365   4.122   5.316
 2332SOL     OW 7894   5.650   2.342   5.646
 2332SOL    HW1 7895   5.717   2.270   5.665
 2332SOL    HW2 7896   5.558   2.307   5.666
 2333SOL     OW 7897   1.314   5.567   3.383
 2333SOL    HW1 7898   1.333   5.491   3.321
 2333SOL    HW2 7899   1.298   5.531   3.475
 2334SOL     OW 7900   3.095   0.100   6.604
 2334SOL    HW1 7901   3.004   0.097   6.561
 2334SOL    HW2 7902   3.118   0.008   6.638
 2335SOL     OW 7903   4.896   6.928   3.357
 2335SOL    HW1 7904   4.852   6.865   3.421
 2335SOL    HW2 7905   4.878   0.003   3.386
 2336SOL     OW 7906   4.855   0.870   6.252
 2336SOL    HW1 7907   4.812   0.866   6.343
 2336SOL    HW2 7908   4.885   0.963   6.234
 2337SOL     OW 7909   5.266   0.489   3.251
 2337SOL    HW1 7910   5.211   0.405   3.258
 2337SOL    HW2 7911   5.229   0.546   3.178
 2338SOL     OW 7912   0.572   6.804   6.711
 2338SOL    HW1 7913   0.542   6.873   6.646
 2338SOL    HW2 7914   0.646   6.840   6.767
 2339SOL     OW 7915   3.637   4.513   0.020
 2339SOL    HW1 7916   3.641   4.612   0.014
 2339SOL    HW2 7917   3.544   4.481   0.004
 2340SOL     OW 7918   3.343   5.656   4.576
 2340SOL    HW1 7919   3.324   5.750   4.545
 2340SOL    HW2 7920   3.334   5.652   4.676
 2341SOL     OW 7921   5.387   5.331   1.010
 2341SOL    HW1 7922   5.379   5.239   0.974
 2341SOL    HW2 7923   5.484   5.359   1.011
 2342SOL     OW 7924   6.576   0.131   5.123
 2342SOL    HW1 7925   6.591   0.228   5.140
 2342SOL    HW2 7926   6.664   0.083   5.127
 2343SOL     OW 7927   1.078   5.503   1.001
 2343SOL    HW1 7928   1.017   5.512   1.080
 2343SOL    HW2 7929   1.154   5.567   1.010
 2344SOL     OW 7930   1.941   2.315   2.792
 2344SOL    HW1 7931   1.902   2.352   2.707
 2344SOL    HW2 7932   2.025   2.364   2.814
 2345SOL     OW 7933   1.650   0.743   4.153
 2345SOL    HW1 7934   1.688   0.820   4.102
 2345SOL    HW2 7935   1.713   0.716   4.226
 2346SOL     OW 7936   5.467   3.470   5.672
 2346SOL    HW1 7937   5.553   3.438   5.712
 2346SOL    HW2 7938   5.482   3.497   5.577
 2347SOL     OW 7939   1.544   3.174   1.852
 2347SOL    HW1 7940   1.467   3.223   1.894
 2347SOL    HW2 7941   1.629   3.220   1.875
 2348SOL     OW 7942   2.782   6.137   2.909
 2348SOL    HW1 7943   2.749   6.094   2.825
 2348SOL    HW2 7944   2.738   6.094   2.988
 2349SOL     OW 7945   6.660   6.725   6.234
 2349SOL    HW1 7946   6.626   6.819   6.227
 2349SOL    HW2 7947   6.605   6.666   6.175
 2350SOL     OW 7948   2.591   0.624   5.481
 2350SOL    HW1 7949   2.638   0.665   5.560
 2350SOL    HW2 7950   2.496   0.654   5.481
 2351SOL     OW 7951   2.576   5.106   3.860
 2351SOL    HW1 7952   2.640   5.132   3.788
 2351SOL    HW2 7953   2.557   5.186   3.918
 2352SOL     OW 7954   0.129   4.148   3.271
 2352SOL    HW1 7955   0.228   4.159   3.286
 2352SOL    HW2 7956   0.112   4.134   3.174
 2353SOL     OW 7957   2.836   4.351   5.594
 2353SOL    HW1 7958   2.738   4.371   5.599
 2353SOL    HW2 7959   2.866   4.352   5.499
 2354SOL     OW 7960   3.404   1.922   0.796
 2354SOL    HW1 7961   3.377   1.826   0.788
 2354SOL    HW2 7962   3.434   1.940   0.890
 2355SOL     OW 7963   0.366   6.642   0.313
 2355SOL    HW1 7964   0.333   6.558   0.271
 2355SOL    HW2 7965   0.294   6.681   0.370
 2356SOL     OW 7966   2.763   5.101   3.118
 2356SOL    HW1 7967   2.825   5.026   3.137
 2356SOL    HW2 7968   2.716   5.084   3.032
 2357SOL     OW 7969   5.855   4.593   2.096
 2357SOL    HW1 7970   5.912   4.533   2.040
 2357SOL    HW2 7971   5.912   4.660   2.143
 2358SOL     OW 7972   3.843   0.483   5.872
 2358SOL    HW1 7973   3.771   0.469   5.804
 2358SOL    HW2 7974   3.921   0.529   5.829
 2359SOL     OW 7975   2.453   1.632   5.250
 2359SOL    HW1 7976   2.378   1.575   5.214
 2359SOL    HW2 7977   2.423   1.727   5.254
 2360SOL     OW 7978   4.226   4.887   1.257
 2360SOL    HW1 7979   4.145   4.829   1.266
 2360SOL    HW2 7980   4.204   4.967   1.201
 2361SOL     OW 7981   3.296   6.619   2.206
 2361SOL    HW1 7982   3.325   6.540   2.259
 2361SOL    HW2 7983   3.341   6.702   2.240
 2362SOL     OW 7984   4.229   5.527   4.724
 2362SOL    HW1 7985   4.175   5.568   4.650
 2362SOL    HW2 7986   4.238   5.429   4.708
 2363SOL     OW 7987   2.981   3.216   0.361
 2363SOL    HW1 7988   3.004   3.230   0.265
 2363SOL    HW2 7989   3.065   3.214   0.415
 2364SOL     OW 7990   4.559   1.807   2.073
 2364SOL    HW1 7991   4.502   1.888   2.062
 2364SOL    HW2 7992   4.507   1.726   2.046
 2365SOL     OW 7993   5.329   3.541   4.027
 2365SOL    HW1 7994   5.363   3.557   3.934
 2365SOL    HW2 7995   5.395   3.486   4.078
 2366SOL     OW 7996   2.382   4.189   5.633
 2366SOL    HW1 7997   2.362   4.217   5.539
 2366SOL    HW2 7998   2.310   4.129   5.666
 2367SOL     OW 7999   0.636   3.975   6.222
 2367SOL    HW1 8000   0.732   3.991   6.245
 2367SOL    HW2 8001   0.628   3.949   6.126
 2368SOL     OW 8002   5.646   0.127   3.747
 2368SOL    HW1 8003   5.737   0.162   3.766
 2368SOL    HW2 8004   5.594   0.119   3.832
 2369SOL     OW 8005   3.026   1.405   3.575
 2369SOL    HW1 8006   3.060   1.403   3.669
 2369SOL    HW2 8007   3.059   1.324   3.526
 2370SOL     OW 8008   5.241   3.148   1.334
 2370SOL    HW1 8009   5.304   3.217   1.299
 2370SOL    HW2 8010   5.268   3.057   1.301
 2371SOL     OW 8011   0.908   6.746   2.796
 2371SOL    HW1 8012   1.005   6.770   2.800
 2371SOL    HW2 8013   0.891   6.667   2.854
 2372SOL     OW 8014   6.550   1.391   5.956
 2372SOL    HW1 8015   6.551   1.490   5.943
 2372SOL    HW2 8016   6.613   1.348   5.892
 2373SOL     OW 8017   6.181   0.403   6.073
 2373SOL    HW1 8018   6.255   0.362   6.021
 2373SOL    HW2 8019   6.135   0.333   6.127
 2374SOL     OW 8020   6.046   6.373   3.113
 2374SOL    HW1 8021   6.086   6.319   3.187
 2374SOL    HW2 8022   5.955   6.339   3.093
 2375SOL     OW 8023   1.027   0.540   3.801
 2375SOL    HW1 8024   1.091   0.614   3.778
 2375SOL    HW2 8025   1.003   0.490   3.717
 2376SOL     OW 8026   6.283   2.522   3.135
 2376SOL    HW1 8027   6.200   2.489   3.092
 2376SOL    HW2 8028   6.330   2.446   3.180
 2377SOL     OW 8029   4.046   4.903   5.935
 2377SOL    HW1 8030   4.040   5.002   5.947
 2377SOL    HW2 8031   4.103   4.863   6.007
 2378SOL     OW 8032   6.084   1.872   0.624
 2378SOL    HW1 8033   6.130   1.869   0.713
 2378SOL    HW2 8034   6.025   1.792   0.614
 2379SOL     OW 8035   6.786   5.013   0.248
 2379SOL    HW1 8036   6.855   4.969   0.191
 2379SOL    HW2 8037   6.756   5.098   0.204
 2380SOL     OW 8038   5.280   3.781   5.361
 2380SOL    HW1 8039   5.371   3.742   5.344
 2380SOL    HW2 8040   5.283   3.880   5.347
 2381SOL     OW 8041   2.374   4.985   5.229
 2381SOL    HW1 8042   2.292   5.023   5.187
 2381SOL    HW2 8043   2.423   5.057   5.278
 2382SOL     OW 8044   1.703   5.917   2.197
 2382SOL    HW1 8045   1.683   5.984   2.126
 2382SOL    HW2 8046   1.714   5.963   2.285
 2383SOL     OW 8047   5.351   5.603   4.998
 2383SOL    HW1 8048   5.334   5.554   5.084
 2383SOL    HW2 8049   5.277   5.668   4.982
 2384SOL     OW 8050   0.912   2.046   1.507
 2384SOL    HW1 8051   0.903   2.125   1.447
 2384SOL    HW2 8052   0.864   1.968   1.468
 2385SOL     OW 8053   0.651   1.782   0.478
 2385SOL    HW1 8054   0.625   1.689   0.453
 2385SOL    HW2 8055   0.570   1.839   0.486
 2386SOL     OW 8056   3.311   5.630   4.121
 2386SOL    HW1 8057   3.290   5.540   4.083
 2386SOL    HW2 8058   3.227   5.674   4.152
 2387SOL     OW 8059   0.890   2.324   3.538
 2387SOL    HW1 8060   0.871   2.248   3.476
 2387SOL    HW2 8061   0.988   2.343   3.540
 2388SOL     OW 8062   7.015   1.962   6.305
 2388SOL    HW1 8063   6.922   1.958   6.270
 2388SOL    HW2 8064   0.042   2.043   6.270
 2389SOL     OW 8065   4.644   4.831   4.464
 2389SOL    HW1 8066   4.620   4.789   4.377
 2389SOL    HW2 8067   4.576   4.900   4.488
 2390SOL     OW 8068   4.566   3.552   6.284
 2390SOL    HW1 8069   4.557   3.480   6.352
 2390SOL    HW2 8070   4.641   3.613   6.309
 2391SOL     OW 8071   3.412   3.824   6.195
 2391SOL    HW1 8072   3.356   3.768   6.134
 2391SOL    HW2 8073   3.500   3.842   6.152
 2392SOL     OW 8074   3.332   5.755   5.346
 2392SOL    HW1 8075   3.336   5.718   5.439
 2392SOL    HW2 8076   3.410   5.723   5.293
 2393SOL     OW 8077   4.040   5.358   1.282
 2393SOL    HW1 8078   4.127   5.365   1.233
 2393SOL    HW2 8079   4.052   5.393   1.375
 2394SOL     OW 8080   7.017   3.480   3.313
 2394SOL    HW1 8081   6.995   3.496   3.217
 2394SOL    HW2 8082   0.052   3.396   3.322
 2395SOL     OW 8083   0.657   2.907   6.534
 2395SOL    HW1 8084   0.620   2.861   6.453
 2395SOL    HW2 8085   0.605   2.990   6.552
 2396SOL     OW 8086   5.854   0.628   4.971
 2396SOL    HW1 8087   5.809   0.547   4.935
 2396SOL    HW2 8088   5.882   0.612   5.066
 2397SOL     OW 8089   1.116   5.029   5.428
 2397SOL    HW1 8090   1.121   4.931   5.449
 2397SOL    HW2 8091   1.207   5.069   5.438
 2398SOL     OW 8092   2.427   5.209   3.587
 2398SOL    HW1 8093   2.498   5.168   3.645
 2398SOL    HW2 8094   2.415   5.306   3.612
 2399SOL     OW 8095   2.838   2.319   3.561
 2399SOL    HW1 8096   2.928   2.335   3.601
 2399SOL    HW2 8097   2.767   2.345   3.627
 2400SOL     OW 8098   1.995   3.994   0.167
 2400SOL    HW1 8099   1.915   4.051   0.151
 2400SOL    HW2 8100   2.078   4.047   0.150
 2401SOL     OW 8101   3.978   0.292   4.887
 2401SOL    HW1 8102   3.892   0.241   4.886
 2401SOL    HW2 8103   4.035   0.263   4.810
 2402SOL     OW 8104   0.686   2.343   2.540
 2402SOL    HW1 8105   0.740   2.319   2.459
 2402SOL    HW2 8106   0.637   2.429   2.523
 2403SOL     OW 8107   4.148   3.526   1.894
 2403SOL    HW1 8108   4.049   3.516   1.879
 2403SOL    HW2 8109   4.164   3.551   1.989
 2404SOL     OW 8110   6.599   1.361   1.132
 2404SOL    HW1 8111   6.684   1.335   1.086
 2404SOL    HW2 8112   6.538   1.405   1.066
 2405SOL     OW 8113   2.329   4.662   6.977
 2405SOL    HW1 8114   2.255   4.725   7.001
 2405SOL    HW2 8115   2.410   4.714   6.951
 2406SOL     OW 8116   1.804   0.425   4.001
 2406SOL    HW1 8117   1.733   0.359   4.025
 2406SOL    HW2 8118   1.762   0.512   3.978
 2407SOL     OW 8119   4.197   2.223   3.412
 2407SOL    HW1 8120   4.195   2.123   3.415
 2407SOL    HW2 8121   4.163   2.255   3.324
 2408SOL     OW 8122   2.362   5.807   3.573
 2408SOL    HW1 8123   2.330   5.802   3.479
 2408SOL    HW2 8124   2.297   5.760   3.633
 2409SOL     OW 8125   2.311   2.604   1.106
 2409SOL    HW1 8126   2.309   2.700   1.078
 2409SOL    HW2 8127   2.363   2.551   1.039
 2410SOL     OW 8128   6.307   3.423   6.060
 2410SOL    HW1 8129   6.359   3.349   6.017
 2410SOL    HW2 8130   6.228   3.385   6.109
 2411SOL     OW 8131   2.753   3.778   6.648
 2411SOL    HW1 8132   2.832   3.831   6.620
 2411SOL    HW2 8133   2.673   3.838   6.654
 2412SOL     OW 8134   3.131   2.404   6.692
 2412SOL    HW1 8135   3.077   2.371   6.770
 2412SOL    HW2 8136   3.083   2.480   6.649
 2413SOL     OW 8137   6.955   3.425   6.362
 2413SOL    HW1 8138   6.864   3.408   6.399
 2413SOL    HW2 8139   6.948   3.494   6.289
 2414SOL     OW 8140   5.649   3.044   4.318
 2414SOL    HW1 8141   5.682   3.127   4.363
 2414SOL    HW2 8142   5.710   3.020   4.242
 2415SOL     OW 8143   2.143   6.548   1.342
 2415SOL    HW1 8144   2.054   6.508   1.363
 2415SOL    HW2 8145   2.134   6.615   1.269
 2416SOL     OW 8146   0.392   3.669   3.112
 2416SOL    HW1 8147   0.405   3.570   3.117
 2416SOL    HW2 8148   0.432   3.704   3.026
 2417SOL     OW 8149   4.598   2.461   6.957
 2417SOL    HW1 8150   4.645   2.486   0.022
 2417SOL    HW2 8151   4.618   2.527   6.885
 2418SOL     OW 8152   4.249   4.176   5.292
 2418SOL    HW1 8153   4.238   4.177   5.392
 2418SOL    HW2 8154   4.214   4.261   5.254
 2419SOL     OW 8155   2.086   6.588   4.462
 2419SOL    HW1 8156   2.045   6.649   4.529
 2419SOL    HW2 8157   2.076   6.493   4.493
 2420SOL     OW 8158   3.371   5.375   2.360
 2420SOL    HW1 8159   3.331   5.441   2.423
 2420SOL    HW2 8160   3.319   5.290   2.362
 2421SOL     OW 8161   3.345   6.893   4.388
 2421SOL    HW1 8162   3.262   6.847   4.419
 2421SOL    HW2 8163   3.416   6.886   4.458
 2422SOL     OW 8164   3.611   6.996   2.140
 2422SOL    HW1 8165   3.621   0.029   2.226
 2422SOL    HW2 8166   3.630   0.038   2.063
 2423SOL     OW 8167   1.974   5.588   1.907
 2423SOL    HW1 8168   1.960   5.651   1.983
 2423SOL    HW2 8169   2.070   5.560   1.905
 2424SOL     OW 8170   5.240   0.394   6.556
 2424SOL    HW1 8171   5.264   0.441   6.471
 2424SOL    HW2 8172   5.208   0.461   6.623
 2425SOL     OW 8173   4.599   5.341   5.714
 2425SOL    HW1 8174   4.510   5.371   5.680
 2425SOL    HW2 8175   4.663   5.418   5.711
 2426SOL     OW 8176   1.580   5.728   5.537
 2426SOL    HW1 8177   1.572   5.658   5.466
 2426SOL    HW2 8178   1.652   5.793   5.512
 2427SOL     OW 8179   4.805   6.654   6.333
 2427SOL    HW1 8180   4.835   6.622   6.423
 2427SOL    HW2 8181   4.876   6.713   6.294
 2428SOL     OW 8182   0.357   1.482   3.564
 2428SOL    HW1 8183   0.333   1.444   3.474
 2428SOL    HW2 8184   0.297   1.442   3.634
 2429SOL     OW 8185   5.229   4.924   2.559
 2429SOL    HW1 8186   5.136   4.902   2.530
 2429SOL    HW2 8187   5.277   4.971   2.485
 2430SOL     OW 8188   5.791   2.001   0.643
 2430SOL    HW1 8189   5.712   2.044   0.599
 2430SOL    HW2 8190   5.865   2.068   0.650
 2431SOL     OW 8191   6.263   1.916   1.996
 2431SOL    HW1 8192   6.298   1.962   1.914
 2431SOL    HW2 8193   6.251   1.818   1.977
 2432SOL     OW 8194   3.174   5.128   2.150
 2432SOL    HW1 8195   3.082   5.163   2.139
 2432SOL    HW2 8196   3.200   5.130   2.246
 2433SOL     OW 8197   0.042   5.552   0.008
 2433SOL    HW1 8198   0.087   5.522   0.091
 2433SOL    HW2 8199   6.975   5.501   7.015
 2434SOL     OW 8200   4.447   1.872   2.869
 2434SOL    HW1 8201   4.402   1.900   2.785
 2434SOL    HW2 8202   4.400   1.913   2.947
 2435SOL     OW 8203   5.483   6.697   6.563
 2435SOL    HW1 8204   5.420   6.652   6.626
 2435SOL    HW2 8205   5.432   6.727   6.482
 2436SOL     OW 8206   1.522   0.937   1.608
 2436SOL    HW1 8207   1.463   0.987   1.545
 2436SOL    HW2 8208   1.488   0.843   1.619
 2437SOL     OW 8209   6.221   6.069   2.408
 2437SOL    HW1 8210   6.261   6.000   2.469
 2437SOL    HW2 8211   6.139   6.107   2.450
 2438SOL     OW 8212   3.573   1.656   4.259
 2438SOL    HW1 8213   3.573   1.688   4.164
 2438SOL    HW2 8214   3.668   1.638   4.288
 2439SOL     OW 8215   0.214   5.129   6.754
 2439SOL    HW1 8216   0.265   5.152   6.837
 2439SOL    HW2 8217   0.264   5.163   6.674
 2440SOL     OW 8218   3.848   1.493   3.937
 2440SOL    HW1 8219   3.821   1.589   3.931
 2440SOL    HW2 8220   3.766   1.435   3.929
 2441SOL     OW 8221   5.868   0.682   6.630
 2441SOL    HW1 8222   5.905   0.680   6.723
 2441SOL    HW2 8223   5.808   0.603   6.616
 2442SOL     OW 8224   5.133   3.738   2.160
 2442SOL    HW1 8225   5.141   3.836   2.145
 2442SOL    HW2 8226   5.092   3.721   2.250
 2443SOL     OW 8227   2.523   1.161   7.007
 2443SOL    HW1 8228   2.551   1.218   0.066
 2443SOL    HW2 8229   2.466   1.086   0.021
 2444SOL     OW 8230   4.588   4.605   0.626
 2444SOL    HW1 8231   4.666   4.655   0.587
 2444SOL    HW2 8232   4.505   4.659   0.612
 2445SOL     OW 8233   6.685   2.181   1.987
 2445SOL    HW1 8234   6.699   2.087   1.956
 2445SOL    HW2 8235   6.728   2.193   2.076
 2446SOL     OW 8236   1.029   3.006   1.964
 2446SOL    HW1 8237   1.038   3.105   1.951
 2446SOL    HW2 8238   1.008   2.962   1.877
 2447SOL     OW 8239   2.211   1.100   0.272
 2447SOL    HW1 8240   2.285   1.167   0.285
 2447SOL    HW2 8241   2.231   1.045   0.191
 2448SOL     OW 8242   5.845   1.812   4.279
 2448SOL    HW1 8243   5.793   1.889   4.241
 2448SOL    HW2 8244   5.928   1.847   4.323
 2449SOL     OW 8245   1.713   4.010   1.733
 2449SOL    HW1 8246   1.726   3.923   1.780
 2449SOL    HW2 8247   1.740   4.002   1.638
 2450SOL     OW 8248   3.246   4.954   6.906
 2450SOL    HW1 8249   3.168   4.993   6.954
 2450SOL    HW2 8250   3.230   4.856   6.889
 2451SOL     OW 8251   0.602   0.068   4.096
 2451SOL    HW1 8252   0.571   0.157   4.063
 2451SOL    HW2 8253   0.695   0.076   4.133
 2452SOL     OW 8254   2.361   2.333   3.136
 2452SOL    HW1 8255   2.344   2.247   3.183
 2452SOL    HW2 8256   2.458   2.357   3.143
 2453SOL     OW 8257   6.476   2.013   0.744
 2453SOL    HW1 8258   6.533   2.069   0.684
 2453SOL    HW2 8259   6.415   1.955   0.689
 2454SOL     OW 8260   3.119   5.673   0.750
 2454SOL    HW1 8261   3.116   5.629   0.660
 2454SOL    HW2 8262   3.028   5.673   0.790
 2455SOL     OW 8263   3.308   1.165   0.277
 2455SOL    HW1 8264   3.216   1.194   0.303
 2455SOL    HW2 8265   3.319   1.176   0.178
 2456SOL     OW 8266   0.930   3.646   6.960
 2456SOL    HW1 8267   0.938   3.566   0.000
 2456SOL    HW2 8268   1.009   3.649   6.899
 2457SOL     OW 8269   5.647   1.122   5.707
 2457SOL    HW1 8270   5.687   1.056   5.643
 2457SOL    HW2 8271   5.651   1.214   5.668
 2458SOL     OW 8272   0.923   1.162   3.162
 2458SOL    HW1 8273   0.939   1.123   3.253
 2458SOL    HW2 8274   0.933   1.262   3.166
 2459SOL     OW 8275   2.728   5.626   5.950
 2459SOL    HW1 8276   2.679   5.638   5.864
 2459SOL    HW2 8277   2.724   5.711   6.003
 2460SOL     OW 8278   0.899   0.538   0.070
 2460SOL    HW1 8279   0.968   0.467   0.081
 2460SOL    HW2 8280   0.845   0.547   0.153
 2461SOL     OW 8281   4.627   6.776   4.025
 2461SOL    HW1 8282   4.540   6.791   3.979
 2461SOL    HW2 8283   4.670   6.693   3.988
 2462SOL     OW 8284   0.651   5.231   0.754
 2462SOL    HW1 8285   0.621   5.313   0.802
 2462SOL    HW2 8286   0.627   5.238   0.657
 2463SOL     OW 8287   6.570   1.683   0.608
 2463SOL    HW1 8288   6.662   1.712   0.583
 2463SOL    HW2 8289   6.503   1.736   0.556
 2464SOL     OW 8290   0.757   2.865   3.056
 2464SOL    HW1 8291   0.755   2.790   3.122
 2464SOL    HW2 8292   0.712   2.945   3.095
 2465SOL     OW 8293   6.891   6.186   6.281
 2465SOL    HW1 8294   6.889   6.286   6.281
 2465SOL    HW2 8295   6.824   6.151   6.216
 2466SOL     OW 8296   1.320   1.920   2.664
 2466SOL    HW1 8297   1.330   1.944   2.568
 2466SOL    HW2 8298   1.352   1.826   2.678
 2467SOL     OW 8299   4.508   2.001   5.717
 2467SOL    HW1 8300   4.521   1.915   5.668
 2467SOL    HW2 8301   4.411   2.013   5.737
 2468SOL     OW 8302   3.962   0.188   6.420
 2468SOL    HW1 8303   4.024   0.140   6.481
 2468SOL    HW2 8304   3.869   0.185   6.457
 2469SOL     OW 8305   4.113   3.157   5.542
 2469SOL    HW1 8306   4.096   3.061   5.522
 2469SOL    HW2 8307   4.031   3.210   5.521
 2470SOL     OW 8308   4.119   4.676   6.734
 2470SOL    HW1 8309   4.186   4.612   6.696
 2470SOL    HW2 8310   4.081   4.638   6.818
 2471SOL     OW 8311   3.146   0.129   0.671
 2471SOL    HW1 8312   3.243   0.119   0.649
 2471SOL    HW2 8313   3.094   0.142   0.587
 2472SOL     OW 8314   4.568   2.372   3.264
 2472SOL    HW1 8315   4.574   2.453   3.206
 2472SOL    HW2 8316   4.594   2.396   3.358
 2473SOL     OW 8317   1.142   4.579   5.151
 2473SOL    HW1 8318   1.095   4.588   5.063
 2473SOL    HW2 8319   1.170   4.670   5.183
 2474SOL     OW 8320   1.105   5.814   0.398
 2474SOL    HW1 8321   1.186   5.830   0.342
 2474SOL    HW2 8322   1.127   5.751   0.472
 2475SOL     OW 8323   4.728   0.287   1.592
 2475SOL    HW1 8324   4.801   0.260   1.529
 2475SOL    HW2 8325   4.682   0.368   1.556
 2476SOL     OW 8326   5.851   0.015   2.536
 2476SOL    HW1 8327   5.772   0.036   2.478
 2476SOL    HW2 8328   5.858   6.935   2.547
 2477SOL     OW 8329   3.735   0.900   3.095
 2477SOL    HW1 8330   3.646   0.876   3.058
 2477SOL    HW2 8331   3.805   0.891   3.024
 2478SOL     OW 8332   4.960   0.799   1.767
 2478SOL    HW1 8333   4.869   0.823   1.732
 2478SOL    HW2 8334   4.954   0.786   1.866
 2479SOL     OW 8335   1.426   2.559   1.529
 2479SOL    HW1 8336   1.345   2.505   1.552
 2479SOL    HW2 8337   1.484   2.507   1.466
 2480SOL     OW 8338   3.765   2.376   1.272
 2480SOL    HW1 8339   3.826   2.441   1.226
 2480SOL    HW2 8340   3.809   2.286   1.275
 2481SOL     OW 8341   2.706   0.723   1.441
 2481SOL    HW1 8342   2.760   0.701   1.522
 2481SOL    HW2 8343   2.699   0.641   1.383
 2482SOL     OW 8344   5.074   3.596   0.392
 2482SOL    HW1 8345   5.146   3.656   0.356
 2482SOL    HW2 8346   5.114   3.528   0.453
 2483SOL     OW 8347   1.811   1.353   0.273
 2483SOL    HW1 8348   1.894   1.361   0.217
 2483SOL    HW2 8349   1.753   1.434   0.258
 2484SOL     OW 8350   3.596   0.744   0.274
 2484SOL    HW1 8351   3.520   0.798   0.239
 2484SOL    HW2 8352   3.583   0.648   0.250
 2485SOL     OW 8353   5.188   3.043   0.578
 2485SOL    HW1 8354   5.237   3.109   0.635
 2485SOL    HW2 8355   5.240   3.026   0.494
 2486SOL     OW 8356   1.148   5.306   5.665
 2486SOL    HW1 8357   1.127   5.380   5.602
 2486SOL    HW2 8358   1.114   5.328   5.756
 2487SOL     OW 8359   4.423   6.210   6.881
 2487SOL    HW1 8360   4.332   6.251   6.886
 2487SOL    HW2 8361   4.443   6.182   6.787
 2488SOL     OW 8362   0.841   3.467   1.780
 2488SOL    HW1 8363   0.805   3.417   1.858
 2488SOL    HW2 8364   0.796   3.435   1.696
 2489SOL     OW 8365   1.256   5.946   3.553
 2489SOL    HW1 8366   1.176   5.890   3.531
 2489SOL    HW2 8367   1.339   5.892   3.540
 2490SOL     OW 8368   0.440   5.866   0.968
 2490SOL    HW1 8369   0.375   5.874   1.044
 2490SOL    HW2 8370   0.501   5.946   0.968
 2491SOL     OW 8371   3.608   4.415   1.193
 2491SOL    HW1 8372   3.591   4.373   1.103
 2491SOL    HW2 8373   3.526   4.464   1.222
 2492SOL     OW 8374   4.169   3.305   1.111
 2492SOL    HW1 8375   4.212   3.365   1.044
 2492SOL    HW2 8376   4.070   3.318   1.109
 2493SOL     OW 8377   6.732   6.859   1.706
 2493SOL    HW1 8378   6.776   6.774   1.677
 2493SOL    HW2 8379   6.793   6.936   1.689
 2494SOL     OW 8380   5.802   4.224   2.127
 2494SOL    HW1 8381   5.825   4.288   2.201
 2494SOL    HW2 8382   5.843   4.254   2.042
 2495SOL     OW 8383   5.171   5.556   3.702
 2495SOL    HW1 8384   5.082   5.518   3.678
 2495SOL    HW2 8385   5.181   5.647   3.660
 2496SOL     OW 8386   0.058   3.053   6.787
 2496SOL    HW1 8387   0.019   3.128   6.841
 2496SOL    HW2 8388   0.013   2.967   6.812
 2497SOL     OW 8389   0.342   0.301   0.902
 2497SOL    HW1 8390   0.300   0.241   0.971
 2497SOL    HW2 8391   0.342   0.395   0.935
 2498SOL     OW 8392   3.266   2.217   5.405
 2498SOL    HW1 8393   3.216   2.133   5.426
 2498SOL    HW2 8394   3.253   2.242   5.309
 2499SOL     OW 8395   5.857   3.530   2.403
 2499SOL    HW1 8396   5.772   3.582   2.398
 2499SOL    HW2 8397   5.839   3.440   2.443
 2500SOL     OW 8398   3.508   4.416   6.582
 2500SOL    HW1 8399   3.486   4.318   6.590
 2500SOL    HW2 8400   3.589   4.436   6.638
 2501SOL     OW 8401   5.536   5.749   0.093
 2501SOL    HW1 8402   5.626   5.717   0.123
 2501SOL    HW2 8403   5.547   5.817   0.021
 2502SOL     OW 8404   1.172   0.316   4.492
 2502SOL    HW1 8405   1.247   0.252   4.509
 2502SOL    HW2 8406   1.158   0.373   4.573
 2503SOL     OW 8407   2.622   6.698   4.458
 2503SOL    HW1 8408   2.705   6.644   4.446
 2503SOL    HW2 8409   2.633   6.787   4.413
 2504SOL     OW 8410   3.393   5.656   3.685
 2504SOL    HW1 8411   3.481   5.702   3.682
 2504SOL    HW2 8412   3.341   5.687   3.764
 2505SOL     OW 8413   0.426   6.529   3.029
 2505SOL    HW1 8414   0.420   6.458   2.959
 2505SOL    HW2 8415   0.510   6.518   3.081
 2506SOL     OW 8416   6.615   3.180   6.339
 2506SOL    HW1 8417   6.556   3.120   6.392
 2506SOL    HW2 8418   6.681   3.225   6.399
 2507SOL     OW 8419   6.198   3.241   0.292
 2507SOL    HW1 8420   6.258   3.162   0.280
 2507SOL    HW2 8421   6.153   3.237   0.381
 2508SOL     OW 8422   2.777   1.419   3.663
 2508SOL    HW1 8423   2.871   1.436   3.635
 2508SOL    HW2 8424   2.715   1.477   3.610
 2509SOL     OW 8425   0.201   4.569   1.160
 2509SOL    HW1 8426   0.277   4.522   1.206
 2509SOL    HW2 8427   0.236   4.651   1.114
 2510SOL     OW 8428   2.812   4.750   1.075
 2510SOL    HW1 8429   2.834   4.655   1.052
 2510SOL    HW2 8430   2.713   4.763   1.070
 2511SOL     OW 8431   3.073   1.851   3.949
 2511SOL    HW1 8432   3.130   1.877   3.871
 2511SOL    HW2 8433   3.103   1.901   4.030
 2512SOL     OW 8434   4.491   3.918   5.343
 2512SOL    HW1 8435   4.486   3.818   5.341
 2512SOL    HW2 8436   4.412   3.954   5.394
 2513SOL     OW 8437   2.037   4.871   4.887
 2513SOL    HW1 8438   2.097   4.832   4.818
 2513SOL    HW2 8439   2.076   4.855   4.978
 2514SOL     OW 8440   0.712   3.640   5.092
 2514SOL    HW1 8441   0.718   3.726   5.142
 2514SOL    HW2 8442   0.650   3.578   5.140
 2515SOL     OW 8443   1.835   6.244   0.602
 2515SOL    HW1 8444   1.876   6.154   0.619
 2515SOL    HW2 8445   1.745   6.248   0.647
 2516SOL     OW 8446   5.304   1.480   2.912
 2516SOL    HW1 8447   5.375   1.527   2.965
 2516SOL    HW2 8448   5.237   1.547   2.880
 2517SOL     OW 8449   1.249   0.365   6.122
 2517SOL    HW1 8450   1.321   0.354   6.190
 2517SOL    HW2 8451   1.263   0.449   6.071
 2518SOL     OW 8452   1.589   5.421   0.836
 2518SOL    HW1 8453   1.553   5.371   0.757
 2518SOL    HW2 8454   1.658   5.486   0.805
 2519SOL     OW 8455   4.202   0.016   2.065
 2519SOL    HW1 8456   4.233   0.031   1.972
 2519SOL    HW2 8457   4.280   0.016   2.127
 2520SOL     OW 8458   3.154   1.440   0.915
 2520SOL    HW1 8459   3.145   1.537   0.939
 2520SOL    HW2 8460   3.090   1.386   0.970
 2521SOL     OW 8461   3.242   0.355   5.163
 2521SOL    HW1 8462   3.288   0.398   5.085
 2521SOL    HW2 8463   3.146   0.338   5.140
 2522SOL     OW 8464   0.977   2.171   5.329
 2522SOL    HW1 8465   0.968   2.270   5.324
 2522SOL    HW2 8466   0.971   2.132   5.237
 2523SOL     OW 8467   1.050   2.725   0.865
 2523SOL    HW1 8468   1.104   2.785   0.806
 2523SOL    HW2 8469   1.030   2.772   0.951
 2524SOL     OW 8470   7.017   6.397   5.023
 2524SOL    HW1 8471   0.086   6.356   5.001
 2524SOL    HW2 8472   6.944   6.329   5.010
 2525SOL     OW 8473   1.200   2.245   5.475
 2525SOL    HW1 8474   1.114   2.209   5.440
 2525SOL    HW2 8475   1.203   2.235   5.574
 2526SOL     OW 8476   1.529   5.025   6.404
 2526SOL    HW1 8477   1.521   5.051   6.307
 2526SOL    HW2 8478   1.625   5.031   6.432
 2527SOL     OW 8479   6.049   6.537   5.933
 2527SOL    HW1 8480   6.104   6.615   5.906
 2527SOL    HW2 8481   5.956   6.548   5.898
 2528SOL     OW 8482   6.443   5.419   6.466
 2528SOL    HW1 8483   6.529   5.395   6.511
 2528SOL    HW2 8484   6.413   5.509   6.497
 2529SOL     OW 8485   6.081   6.432   6.310
 2529SOL    HW1 8486   6.016   6.482   6.368
 2529SOL    HW2 8487   6.167   6.420   6.359
 2530SOL     OW 8488   2.710   6.244   4.895
 2530SOL    HW1 8489   2.654   6.228   4.976
 2530SOL    HW2 8490   2.656   6.294   4.826
 2531SOL     OW 8491   5.726   5.453   4.391
 2531SOL    HW1 8492   5.657   5.523   4.376
 2531SOL    HW2 8493   5.807   5.473   4.336
 2532SOL     OW 8494   0.302   6.183   0.395
 2532SOL    HW1 8495   0.341   6.141   0.478
 2532SOL    HW2 8496   0.294   6.282   0.410
 2533SOL     OW 8497   3.973   0.057   4.165
 2533SOL    HW1 8498   4.046   0.024   4.225
 2533SOL    HW2 8499   3.905   0.106   4.219
 2534SOL     OW 8500   3.765   1.567   1.929
 2534SOL    HW1 8501   3.738   1.628   2.004
 2534SOL    HW2 8502   3.684   1.520   1.894
 2535SOL     OW 8503   3.527   3.302   6.102
 2535SOL    HW1 8504   3.562   3.249   6.179
 2535SOL    HW2 8505   3.448   3.356   6.131
 2536SOL     OW 8506   1.259   1.421   5.385
 2536SOL    HW1 8507   1.283   1.406   5.289
 2536SOL    HW2 8508   1.196   1.499   5.391
 2537SOL     OW 8509   3.312   0.137   6.257
 2537SOL    HW1 8510   3.363   0.072   6.312
 2537SOL    HW2 8511   3.373   0.180   6.191
 2538SOL     OW 8512   0.693   4.090   3.249
 2538SOL    HW1 8513   0.756   4.055   3.180
 2538SOL    HW2 8514   0.745   4.132   3.323
 2539SOL     OW 8515   5.604   0.849   4.635
 2539SOL    HW1 8516   5.607   0.840   4.735
 2539SOL    HW2 8517   5.697   0.847   4.599
 2540SOL     OW 8518   3.945   2.155   2.392
 2540SOL    HW1 8519   3.852   2.143   2.355
 2540SOL    HW2 8520   4.011   2.121   2.326
 2541SOL     OW 8521   3.137   0.906   4.438
 2541SOL    HW1 8522   3.128   1.005   4.435
 2541SOL    HW2 8523   3.100   0.872   4.525
 2542SOL     OW 8524   3.173   2.980   6.002
 2542SOL    HW1 8525   3.259   2.935   5.981
 2542SOL    HW2 8526   3.098   2.914   6.001
 2543SOL     OW 8527   0.512   0.699   3.356
 2543SOL    HW1 8528   0.575   0.712   3.279
 2543SOL    HW2 8529   0.501   0.784   3.406
 2544SOL     OW 8530   0.651   6.042   1.046
 2544SOL    HW1 8531   0.663   6.009   1.139
 2544SOL    HW2 8532   0.642   6.142   1.047
 2545SOL     OW 8533   1.246   6.995   1.897
 2545SOL    HW1 8534   1.160   0.007   1.856
 2545SOL    HW2 8535   1.241   6.896   1.912
 2546SOL     OW 8536   6.878   1.283   2.076
 2546SOL    HW1 8537   6.973   1.280   2.046
 2546SOL    HW2 8538   6.847   1.190   2.099
 2547SOL     OW 8539   7.007   4.133   0.314
 2547SOL    HW1 8540   6.957   4.203   0.366
 2547SOL    HW2 8541   6.994   4.044   0.357
 2548SOL     OW 8542   0.773   7.013   5.217
 2548SOL    HW1 8543   0.791   0.091   5.236
 2548SOL    HW2 8544   0.809   6.957   5.291
 2549SOL     OW 8545   1.021   0.345   0.714
 2549SOL    HW1 8546   1.086   0.386   0.650
 2549SOL    HW2 8547   0.928   0.353   0.677
 2550SOL     OW 8548   0.364   0.775   6.729
 2550SOL    HW1 8549   0.371   0.867   6.692
 2550SOL    HW2 8550   0.293   0.773   6.799
 2551SOL     OW 8551   3.629   4.806   0.776
 2551SOL    HW1 8552   3.614   4.728   0.715
 2551SOL    HW2 8553   3.623   4.890   0.723
 2552SOL     OW 8554   1.798   6.058   4.215
 2552SOL    HW1 8555   1.778   6.014   4.127
 2552SOL    HW2 8556   1.875   6.121   4.203
 2553SOL     OW 8557   4.351   3.723   5.779
 2553SOL    HW1 8558   4.331   3.648   5.716
 2553SOL    HW2 8559   4.385   3.685   5.866
 2554SOL     OW 8560   2.674   0.103   0.664
 2554SOL    HW1 8561   2.579   0.096   0.694
 2554SOL    HW2 8562   2.728   0.153   0.732
 2555SOL     OW 8563   5.854   0.183   4.892
 2555SOL    HW1 8564   5.870   0.090   4.926
 2555SOL    HW2 8565   5.902   0.194   4.805
 2556SOL     OW 8566   3.971   6.237   0.064
 2556SOL    HW1 8567   3.909   6.294   0.011
 2556SOL    HW2 8568   3.956   6.252   0.161
 2557SOL     OW 8569   2.236   4.386   0.029
 2557SOL    HW1 8570   2.274   4.478   0.020
 2557SOL    HW2 8571   2.147   4.382   7.002
 2558SOL     OW 8572   5.102   1.576   5.406
 2558SOL    HW1 8573   5.153   1.657   5.376
 2558SOL    HW2 8574   5.111   1.504   5.337
 2559SOL     OW 8575   0.539   3.833   5.307
 2559SOL    HW1 8576   0.533   3.834   5.407
 2559SOL    HW2 8577   0.463   3.779   5.270
 2560SOL     OW 8578   5.594   2.948   5.077
 2560SOL    HW1 8579   5.605   2.947   5.177
 2560SOL    HW2 8580   5.605   3.042   5.044
 2561SOL     OW 8581   3.166   5.926   5.545
 2561SOL    HW1 8582   3.222   5.891   5.470
 2561SOL    HW2 8583   3.138   5.850   5.604
 2562SOL     OW 8584   2.192   5.093   1.621
 2562SOL    HW1 8585   2.266   5.044   1.666
 2562SOL    HW2 8586   2.107   5.041   1.630
 2563SOL     OW 8587   3.249   2.056   0.433
 2563SOL    HW1 8588   3.251   2.119   0.355
 2563SOL    HW2 8589   3.231   1.963   0.401
 2564SOL     OW 8590   2.564   5.777   6.587
 2564SOL    HW1 8591   2.466   5.795   6.577
 2564SOL    HW2 8592   2.578   5.679   6.598
 2565SOL     OW 8593   1.377   6.909   6.473
 2565SOL    HW1 8594   1.330   6.997   6.485
 2565SOL    HW2 8595   1.406   6.900   6.378
 2566SOL     OW 8596   2.099   7.004   1.337
 2566SOL    HW1 8597   2.072   0.078   1.310
 2566SOL    HW2 8598   2.198   6.995   1.328
 2567SOL     OW 8599   1.229   0.513   0.611
 2567SOL    HW1 8600   1.246   0.524   0.709
 2567SOL    HW2 8601   1.312   0.480   0.566
 2568SOL     OW 8602   4.081   1.233   0.075
 2568SOL    HW1 8603   4.096   1.174   0.154
 2568SOL    HW2 8604   3.989   1.219   0.039
 2569SOL     OW 8605   3.215   0.677   2.385
 2569SOL    HW1 8606   3.131   0.704   2.431
 2569SOL    HW2 8607   3.290   0.736   2.415
 2570SOL     OW 8608   5.472   0.185   6.442
 2570SOL    HW1 8609   5.460   0.280   6.469
 2570SOL    HW2 8610   5.568   0.158   6.456
 2571SOL     OW 8611   2.396   4.411   5.103
 2571SOL    HW1 8612   2.408   4.362   5.016
 2571SOL    HW2 8613   2.299   4.412   5.127
 2572SOL     OW 8614   2.735   6.065   1.179
 2572SOL    HW1 8615   2.758   6.010   1.259
 2572SOL    HW2 8616   2.768   6.019   1.097
 2573SOL     OW 8617   0.013   1.896   1.747
 2573SOL    HW1 8618   0.026   1.959   1.823
 2573SOL    HW2 8619   0.069   1.814   1.761
 2574SOL     OW 8620   5.595   4.127   0.640
 2574SOL    HW1 8621   5.525   4.165   0.700
 2574SOL    HW2 8622   5.680   4.177   0.652
 2575SOL     OW 8623   4.785   5.729   0.760
 2575SOL    HW1 8624   4.875   5.723   0.803
 2575SOL    HW2 8625   4.766   5.825   0.736
 2576SOL     OW 8626   4.452   6.505   4.802
 2576SOL    HW1 8627   4.398   6.577   4.757
 2576SOL    HW2 8628   4.522   6.548   4.859
 2577SOL     OW 8629   4.128   6.623   2.326
 2577SOL    HW1 8630   4.097   6.641   2.233
 2577SOL    HW2 8631   4.142   6.525   2.338
 2578SOL     OW 8632   4.502   1.647   4.677
 2578SOL    HW1 8633   4.418   1.651   4.732
 2578SOL    HW2 8634   4.507   1.728   4.619
 2579SOL     OW 8635   1.342   6.587   3.664
 2579SOL    HW1 8636   1.293   6.673   3.674
 2579SOL    HW2 8637   1.319   6.546   3.575
 2580SOL     OW 8638   3.079   4.701   6.486
 2580SOL    HW1 8639   3.032   4.692   6.398
 2580SOL    HW2 8640   3.150   4.631   6.493
 2581SOL     OW 8641   2.240   4.782   2.243
 2581SOL    HW1 8642   2.303   4.706   2.228
 2581SOL    HW2 8643   2.211   4.820   2.155
 2582SOL     OW 8644   0.397   4.405   1.244
 2582SOL    HW1 8645   0.481   4.434   1.198
 2582SOL    HW2 8646   0.382   4.307   1.228
 2583SOL     OW 8647   0.988   1.699   6.750
 2583SOL    HW1 8648   0.933   1.710   6.832
 2583SOL    HW2 8649   1.077   1.658   6.774
 2584SOL     OW 8650   4.932   5.448   6.174
 2584SOL    HW1 8651   4.940   5.439   6.075
 2584SOL    HW2 8652   4.981   5.530   6.204
 2585SOL     OW 8653   3.694   3.651   1.045
 2585SOL    HW1 8654   3.675   3.726   1.109
 2585SOL    HW2 8655   3.780   3.670   0.997
 2586SOL     OW 8656   3.227   0.713   5.169
 2586SOL    HW1 8657   3.168   0.663   5.105
 2586SOL    HW2 8658   3.323   0.703   5.140
 2587SOL     OW 8659   5.752   1.108   3.706
 2587SOL    HW1 8660   5.804   1.032   3.746
 2587SOL    HW2 8661   5.689   1.145   3.774
 2588SOL     OW 8662   4.530   2.182   6.146
 2588SOL    HW1 8663   4.606   2.190   6.080
 2588SOL    HW2 8664   4.567   2.182   6.239
 2589SOL     OW 8665   1.456   6.572   5.673
 2589SOL    HW1 8666   1.410   6.659   5.695
 2589SOL    HW2 8667   1.555   6.587   5.672
 2590SOL     OW 8668   3.914   4.912   0.351
 2590SOL    HW1 8669   3.866   4.903   0.264
 2590SOL    HW2 8670   3.889   4.999   0.394
 2591SOL     OW 8671   6.815   4.646   3.159
 2591SOL    HW1 8672   6.746   4.716   3.141
 2591SOL    HW2 8673   6.781   4.557   3.129
 2592SOL     OW 8674   3.051   4.562   0.141
 2592SOL    HW1 8675   2.978   4.520   0.195
 2592SOL    HW2 8676   3.138   4.556   0.191
 2593SOL     OW 8677   3.914   5.900   6.823
 2593SOL    HW1 8678   3.937   5.933   6.915
 2593SOL    HW2 8679   3.965   5.953   6.755
 2594SOL     OW 8680   2.030   3.638   5.800
 2594SOL    HW1 8681   2.038   3.615   5.703
 2594SOL    HW2 8682   2.119   3.667   5.835
 2595SOL     OW 8683   6.773   0.331   4.132
 2595SOL    HW1 8684   6.811   0.389   4.204
 2595SOL    HW2 8685   6.682   0.364   4.107
 2596SOL     OW 8686   2.975   2.246   1.736
 2596SOL    HW1 8687   3.073   2.238   1.722
 2596SOL    HW2 8688   2.957   2.290   1.824
 2597SOL     OW 8689   0.467   4.981   5.991
 2597SOL    HW1 8690   0.470   5.031   6.077
 2597SOL    HW2 8691   0.521   5.030   5.922
 2598SOL     OW 8692   6.626   1.676   2.684
 2598SOL    HW1 8693   6.545   1.682   2.626
 2598SOL    HW2 8694   6.670   1.587   2.671
 2599SOL     OW 8695   1.427   5.969   0.682
 2599SOL    HW1 8696   1.421   5.872   0.706
 2599SOL    HW2 8697   1.342   5.997   0.637
 2600SOL     OW 8698   5.324   2.761   4.736
 2600SOL    HW1 8699   5.296   2.665   4.734
 2600SOL    HW2 8700   5.307   2.802   4.646
 2601SOL     OW 8701   1.473   1.726   1.278
 2601SOL    HW1 8702   1.381   1.763   1.287
 2601SOL    HW2 8703   1.485   1.650   1.342
 2602SOL     OW 8704   1.224   4.887   5.188
 2602SOL    HW1 8705   1.282   4.874   5.269
 2602SOL    HW2 8706   1.216   4.984   5.168
 2603SOL     OW 8707   3.042   1.329   2.779
 2603SOL    HW1 8708   3.003   1.417   2.806
 2603SOL    HW2 8709   3.017   1.260   2.847
 2604SOL     OW 8710   4.654   2.125   2.869
 2604SOL    HW1 8711   4.629   2.145   2.774
 2604SOL    HW2 8712   4.650   2.026   2.884
 2605SOL     OW 8713   1.462   3.575   2.758
 2605SOL    HW1 8714   1.444   3.570   2.857
 2605SOL    HW2 8715   1.500   3.489   2.726
 2606SOL     OW 8716   6.255   5.005   1.992
 2606SOL    HW1 8717   6.354   5.013   1.984
 2606SOL    HW2 8718   6.224   4.919   1.952
 2607SOL     OW 8719   0.745   1.392   1.052
 2607SOL    HW1 8720   0.799   1.309   1.056
 2607SOL    HW2 8721   0.702   1.400   0.962
 2608SOL     OW 8722   3.733   5.585   0.464
 2608SOL    HW1 8723   3.816   5.557   0.511
 2608SOL    HW2 8724   3.671   5.506   0.457
 2609SOL     OW 8725   6.045   1.282   2.087
 2609SOL    HW1 8726   6.096   1.332   2.016
 2609SOL    HW2 8727   6.107   1.222   2.137
 2610SOL     OW 8728   0.733   4.616   4.407
 2610SOL    HW1 8729   0.690   4.699   4.373
 2610SOL    HW2 8730   0.711   4.539   4.346
 2611SOL     OW 8731   4.699   6.199   0.193
 2611SOL    HW1 8732   4.745   6.285   0.214
 2611SOL    HW2 8733   4.684   6.147   0.277
 2612SOL     OW 8734   5.672   6.443   4.681
 2612SOL    HW1 8735   5.592   6.394   4.644
 2612SOL    HW2 8736   5.645   6.495   4.761
 2613SOL     OW 8737   2.297   5.450   6.689
 2613SOL    HW1 8738   2.305   5.529   6.750
 2613SOL    HW2 8739   2.241   5.380   6.732
 2614SOL     OW 8740   6.383   1.398   0.251
 2614SOL    HW1 8741   6.309   1.461   0.226
 2614SOL    HW2 8742   6.430   1.434   0.332
 2615SOL     OW 8743   1.010   3.235   1.221
 2615SOL    HW1 8744   1.089   3.266   1.274
 2615SOL    HW2 8745   1.016   3.270   1.128
 2616SOL     OW 8746   1.652   1.541   5.665
 2616SOL    HW1 8747   1.737   1.577   5.626
 2616SOL    HW2 8748   1.640   1.445   5.638
 2617SOL     OW 8749   4.667   1.059   0.755
 2617SOL    HW1 8750   4.682   1.116   0.674
 2617SOL    HW2 8751   4.612   1.110   0.821
 2618SOL     OW 8752   0.333   6.429   4.186
 2618SOL    HW1 8753   0.414   6.449   4.241
 2618SOL    HW2 8754   0.361   6.397   4.096
 2619SOL     OW 8755   4.736   1.698   1.690
 2619SOL    HW1 8756   4.744   1.734   1.782
 2619SOL    HW2 8757   4.733   1.598   1.693
 2620SOL     OW 8758   6.706   0.089   2.609
 2620SOL    HW1 8759   6.653   0.103   2.525
 2620SOL    HW2 8760   6.643   0.085   2.687
 2621SOL     OW 8761   0.759   4.497   2.358
 2621SOL    HW1 8762   0.772   4.572   2.292
 2621SOL    HW2 8763   0.786   4.528   2.449
 2622SOL     OW 8764   2.887   3.449   5.898
 2622SOL    HW1 8765   2.948   3.377   5.932
 2622SOL    HW2 8766   2.795   3.412   5.885
 2623SOL     OW 8767   0.863   0.893   4.860
 2623SOL    HW1 8768   0.827   0.984   4.842
 2623SOL    HW2 8769   0.873   0.880   4.959
 2624SOL     OW 8770   6.831   2.104   5.120
 2624SOL    HW1 8771   6.910   2.071   5.171
 2624SOL    HW2 8772   6.823   2.203   5.131
 2625SOL     OW 8773   2.422   3.760   5.525
 2625SOL    HW1 8774   2.439   3.831   5.594
 2625SOL    HW2 8775   2.399   3.674   5.571
 2626SOL     OW 8776   6.406   0.025   5.815
 2626SOL    HW1 8777   6.500   0.033   5.848
 2626SOL    HW2 8778   6.345   0.011   5.892
 2627SOL     OW 8779   1.328   0.851   5.865
 2627SOL    HW1 8780   1.251   0.893   5.817
 2627SOL    HW2 8781   1.333   0.887   5.958
 2628SOL     OW 8782   1.939   3.916   5.282
 2628SOL    HW1 8783   1.870   3.981   5.249
 2628SOL    HW2 8784   2.028   3.938   5.241
 2629SOL     OW 8785   4.022   3.302   2.715
 2629SOL    HW1 8786   4.067   3.232   2.660
 2629SOL    HW2 8787   4.068   3.311   2.803
 2630SOL     OW 8788   3.619   1.717   3.479
 2630SOL    HW1 8789   3.574   1.789   3.531
 2630SOL    HW2 8790   3.571   1.703   3.392
 2631SOL     OW 8791   5.252   1.000   6.711
 2631SOL    HW1 8792   5.296   1.045   6.633
 2631SOL    HW2 8793   5.302   1.023   6.795
 2632SOL     OW 8794   6.044   3.667   1.083
 2632SOL    HW1 8795   5.967   3.681   1.146
 2632SOL    HW2 8796   6.096   3.752   1.075
 2633SOL     OW 8797   6.543   2.063   4.923
 2633SOL    HW1 8798   6.637   2.093   4.912
 2633SOL    HW2 8799   6.526   1.984   4.864
 2634SOL     OW 8800   0.394   5.440   3.790
 2634SOL    HW1 8801   0.305   5.444   3.745
 2634SOL    HW2 8802   0.401   5.354   3.841
 2635SOL     OW 8803   6.312   5.730   4.052
 2635SOL    HW1 8804   6.280   5.641   4.087
 2635SOL    HW2 8805   6.382   5.767   4.113
 2636SOL     OW 8806   3.985   0.377   6.942
 2636SOL    HW1 8807   4.048   0.310   6.980
 2636SOL    HW2 8808   3.957   0.442   7.013
 2637SOL     OW 8809   6.238   1.599   4.151
 2637SOL    HW1 8810   6.139   1.587   4.147
 2637SOL    HW2 8811   6.278   1.572   4.064
 2638SOL     OW 8812   0.107   6.797   4.299
 2638SOL    HW1 8813   0.187   6.858   4.300
 2638SOL    HW2 8814   0.037   6.834   4.360
 2639SOL     OW 8815   5.566   5.237   5.963
 2639SOL    HW1 8816   5.514   5.154   5.941
 2639SOL    HW2 8817   5.505   5.316   5.966
 2640SOL     OW 8818   6.826   0.034   5.133
 2640SOL    HW1 8819   6.868   6.962   5.139
 2640SOL    HW2 8820   6.867   0.094   5.202
 2641SOL     OW 8821   4.583   2.221   1.072
 2641SOL    HW1 8822   4.563   2.292   1.140
 2641SOL    HW2 8823   4.532   2.138   1.094
 2642SOL     OW 8824   6.398   0.190   3.638
 2642SOL    HW1 8825   6.366   0.265   3.581
 2642SOL    HW2 8826   6.495   0.203   3.659
 2643SOL     OW 8827   1.836   3.161   4.012
 2643SOL    HW1 8828   1.881   3.218   3.944
 2643SOL    HW2 8829   1.824   3.069   3.975
 2644SOL     OW 8830   4.539   5.525   5.219
 2644SOL    HW1 8831   4.572   5.432   5.234
 2644SOL    HW2 8832   4.589   5.566   5.144
 2645SOL     OW 8833   5.267   4.736   3.598
 2645SOL    HW1 8834   5.266   4.636   3.589
 2645SOL    HW2 8835   5.231   4.762   3.688
 2646SOL     OW 8836   0.290   3.129   7.017
 2646SOL    HW1 8837   0.317   3.078   6.935
 2646SOL    HW2 8838   0.230   3.205   6.991
 2647SOL     OW 8839   5.917   6.913   1.637
 2647SOL    HW1 8840   5.931   7.001   1.684
 2647SOL    HW2 8841   5.965   6.914   1.550
 2648SOL     OW 8842   0.032   6.650   4.095
 2648SOL    HW1 8843   0.116   6.627   4.045
 2648SOL    HW2 8844   0.056   6.699   4.179
 2649SOL     OW 8845   5.837   3.149   1.495
 2649SOL    HW1 8846   5.853   3.245   1.516
 2649SOL    HW2 8847   5.811   3.100   1.579
 2650SOL     OW 8848   2.273   5.803   4.781
 2650SOL    HW1 8849   2.353   5.765   4.734
 2650SOL    HW2 8850   2.284   5.902   4.791
 2651SOL     OW 8851   3.559   1.131   6.979
 2651SOL    HW1 8852   3.468   1.138   0.001
 2651SOL    HW2 8853   3.562   1.187   6.896
 2652SOL     OW 8854   4.725   3.433   5.818
 2652SOL    HW1 8855   4.660   3.357   5.822
 2652SOL    HW2 8856   4.685   3.508   5.766
 2653SOL     OW 8857   4.084   6.262   5.622
 2653SOL    HW1 8858   4.078   6.183   5.683
 2653SOL    HW2 8859   4.081   6.346   5.676
 2654SOL     OW 8860   4.938   6.344   1.025
 2654SOL    HW1 8861   4.842   6.370   1.012
 2654SOL    HW2 8862   4.942   6.251   1.061
 2655SOL     OW 8863   4.534   5.735   3.685
 2655SOL    HW1 8864   4.502   5.641   3.698
 2655SOL    HW2 8865   4.491   5.774   3.604
 2656SOL     OW 8866   3.394   4.997   3.546
 2656SOL    HW1 8867   3.473   4.984   3.607
 2656SOL    HW2 8868   3.310   4.990   3.599
 2657SOL     OW 8869   2.119   3.180   0.897
 2657SOL    HW1 8870   2.092   3.087   0.919
 2657SOL    HW2 8871   2.109   3.196   0.799
 2658SOL     OW 8872   4.804   4.446   0.482
 2658SOL    HW1 8873   4.888   4.478   0.527
 2658SOL    HW2 8874   4.726   4.463   0.542
 2659SOL     OW 8875   4.725   3.281   5.337
 2659SOL    HW1 8876   4.735   3.354   5.405
 2659SOL    HW2 8877   4.784   3.301   5.258
 2660SOL     OW 8878   0.706   1.085   1.219
 2660SOL    HW1 8879   0.760   1.082   1.135
 2660SOL    HW2 8880   0.609   1.089   1.196
 2661SOL     OW 8881   1.800   0.218   1.586
 2661SOL    HW1 8882   1.894   0.199   1.557
 2661SOL    HW2 8883   1.738   0.204   1.509
 2662SOL     OW 8884   2.464   0.213   3.502
 2662SOL    HW1 8885   2.404   0.142   3.467
 2662SOL    HW2 8886   2.411   0.280   3.553
 2663SOL     OW 8887   4.595   5.639   5.773
 2663SOL    HW1 8888   4.582   5.729   5.812
 2663SOL    HW2 8889   4.613   5.647   5.675
 2664SOL     OW 8890   3.969   2.920   5.536
 2664SOL    HW1 8891   3.879   2.906   5.495
 2664SOL    HW2 8892   4.014   2.831   5.547
 2665SOL     OW 8893   2.265   3.180   5.301
 2665SOL    HW1 8894   2.224   3.254   5.249
 2665SOL    HW2 8895   2.321   3.123   5.241
 2666SOL     OW 8896   1.573   3.684   1.967
 2666SOL    HW1 8897   1.642   3.650   1.903
 2666SOL    HW2 8898   1.618   3.729   2.044
 2667SOL     OW 8899   1.004   5.286   3.968
 2667SOL    HW1 8900   0.946   5.344   3.911
 2667SOL    HW2 8901   0.980   5.301   4.064
 2668SOL     OW 8902   5.515   3.163   4.679
 2668SOL    HW1 8903   5.429   3.121   4.706
 2668SOL    HW2 8904   5.571   3.097   4.630
 2669SOL     OW 8905   3.452   5.603   6.644
 2669SOL    HW1 8906   3.454   5.504   6.636
 2669SOL    HW2 8907   3.361   5.637   6.623
 2670SOL     OW 8908   6.389   2.332   5.018
 2670SOL    HW1 8909   6.424   2.425   5.027
 2670SOL    HW2 8910   6.455   2.267   5.056
 2671SOL     OW 8911   5.044   5.708   5.617
 2671SOL    HW1 8912   5.109   5.766   5.568
 2671SOL    HW2 8913   5.064   5.712   5.715
 2672SOL     OW 8914   3.102   0.368   1.756
 2672SOL    HW1 8915   3.168   0.396   1.826
 2672SOL    HW2 8916   3.098   0.268   1.753
 2673SOL     OW 8917   5.657   1.476   2.282
 2673SOL    HW1 8918   5.676   1.574   2.288
 2673SOL    HW2 8919   5.566   1.457   2.321
 2674SOL     OW 8920   1.633   4.722   3.912
 2674SOL    HW1 8921   1.687   4.794   3.868
 2674SOL    HW2 8922   1.550   4.706   3.860
 2675SOL     OW 8923   0.272   6.603   3.923
 2675SOL    HW1 8924   0.242   6.589   3.828
 2675SOL    HW2 8925   0.342   6.675   3.925
 2676SOL     OW 8926   3.429   3.747   2.919
 2676SOL    HW1 8927   3.477   3.660   2.933
 2676SOL    HW2 8928   3.495   3.822   2.920
 2677SOL     OW 8929   3.111   4.716   1.135
 2677SOL    HW1 8930   3.019   4.748   1.114
 2677SOL    HW2 8931   3.118   4.700   1.234
 2678SOL     OW 8932   6.847   2.831   2.139
 2678SOL    HW1 8933   6.835   2.894   2.062
 2678SOL    HW2 8934   6.806   2.743   2.116
 2679SOL     OW 8935   1.904   5.170   2.627
 2679SOL    HW1 8936   1.810   5.201   2.643
 2679SOL    HW2 8937   1.942   5.135   2.712
 2680SOL     OW 8938   1.470   2.598   0.282
 2680SOL    HW1 8939   1.532   2.552   0.218
 2680SOL    HW2 8940   1.400   2.648   0.231
 2681SOL     OW 8941   1.466   2.788   5.051
 2681SOL    HW1 8942   1.521   2.782   4.968
 2681SOL    HW2 8943   1.407   2.868   5.047
 2682SOL     OW 8944   5.531   4.068   2.914
 2682SOL    HW1 8945   5.456   4.103   2.857
 2682SOL    HW2 8946   5.506   3.977   2.949
 2683SOL     OW 8947   2.340   4.412   2.475
 2683SOL    HW1 8948   2.263   4.391   2.415
 2683SOL    HW2 8949   2.412   4.459   2.423
 2684SOL     OW 8950   5.128   6.971   1.454
 2684SOL    HW1 8951   5.189   0.021   1.494
 2684SOL    HW2 8952   5.181   6.894   1.420
 2685SOL     OW 8953   6.525   4.653   4.837
 2685SOL    HW1 8954   6.607   4.600   4.816
 2685SOL    HW2 8955   6.454   4.591   4.871
 2686SOL     OW 8956   1.004   1.217   5.084
 2686SOL    HW1 8957   0.936   1.211   5.158
 2686SOL    HW2 8958   1.048   1.128   5.073
 2687SOL     OW 8959   3.541   6.593   1.450
 2687SOL    HW1 8960   3.546   6.647   1.534
 2687SOL    HW2 8961   3.542   6.496   1.472
 2688SOL     OW 8962   3.160   2.018   0.706
 2688SOL    HW1 8963   3.247   1.989   0.747
 2688SOL    HW2 8964   3.176   2.044   0.611
 2689SOL     OW 8965   0.385   3.784   2.828
 2689SOL    HW1 8966   0.308   3.723   2.815
 2689SOL    HW2 8967   0.470   3.731   2.831
 2690SOL     OW 8968   2.794   3.304   0.009
 2690SOL    HW1 8969   2.823   3.393   6.993
 2690SOL    HW2 8970   2.868   3.238   7.018
 2691SOL     OW 8971   0.326   4.480   3.913
 2691SOL    HW1 8972   0.396   4.433   3.967
 2691SOL    HW2 8973   0.243   4.492   3.967
 2692SOL     OW 8974   2.144   6.004   3.240
 2692SOL    HW1 8975   2.195   6.032   3.158
 2692SOL    HW2 8976   2.047   6.001   3.219
 2693SOL     OW 8977   1.779   5.046   4.267
 2693SOL    HW1 8978   1.827   5.052   4.354
 2693SOL    HW2 8979   1.775   5.137   4.226
 2694SOL     OW 8980   4.409   0.089   2.873
 2694SOL    HW1 8981   4.310   0.084   2.880
 2694SOL    HW2 8982   4.434   0.114   2.779
 2695SOL     OW 8983   6.009   0.085   2.923
 2695SOL    HW1 8984   5.994   0.182   2.942
 2695SOL    HW2 8985   6.065   0.076   2.840
 2696SOL     OW 8986   4.586   4.103   6.513
 2696SOL    HW1 8987   4.607   4.199   6.534
 2696SOL    HW2 8988   4.635   4.077   6.430
 2697SOL     OW 8989   4.677   1.219   1.974
 2697SOL    HW1 8990   4.584   1.255   1.979
 2697SOL    HW2 8991   4.694   1.159   2.053
 2698SOL     OW 8992   2.033   4.814   6.578
 2698SOL    HW1 8993   2.075   4.821   6.488
 2698SOL    HW2 8994   2.067   4.888   6.636
 2699SOL     OW 8995   2.807   5.381   1.101
 2699SOL    HW1 8996   2.775   5.322   1.175
 2699SOL    HW2 8997   2.867   5.451   1.137
 2700SOL     OW 8998   2.520   1.569   0.947
 2700SOL    HW1 8999   2.522   1.669   0.944
 2700SOL    HW2 9000   2.488   1.534   0.859
 2701SOL     OW 9001   4.981   2.642   5.723
 2701SOL    HW1 9002   4.946   2.567   5.666
 2701SOL    HW2 9003   5.071   2.618   5.759
 2702SOL     OW 9004   1.138   2.389   3.547
 2702SOL    HW1 9005   1.225   2.377   3.594
 2702SOL    HW2 9006   1.149   2.454   3.472
 2703SOL     OW 9007   1.645   5.667   1.423
 2703SOL    HW1 9008   1.726   5.635   1.473
 2703SOL    HW2 9009   1.635   5.614   1.339
 2704SOL     OW 9010   6.812   5.569   2.765
 2704SOL    HW1 9011   6.866   5.502   2.712
 2704SOL    HW2 9012   6.809   5.656   2.715
 2705SOL     OW 9013   6.340   1.278   5.658
 2705SOL    HW1 9014   6.414   1.254   5.595
 2705SOL    HW2 9015   6.372   1.349   5.720
 2706SOL     OW 9016   6.170   4.251   4.807
 2706SOL    HW1 9017   6.106   4.212   4.740
 2706SOL    HW2 9018   6.231   4.316   4.762
 2707SOL     OW 9019   4.131   6.500   4.122
 2707SOL    HW1 9020   4.130   6.502   4.022
 2707SOL    HW2 9021   4.045   6.537   4.158
 2708SOL     OW 9022   6.507   2.507   0.422
 2708SOL    HW1 9023   6.437   2.435   0.432
 2708SOL    HW2 9024   6.578   2.476   0.359
 2709SOL     OW 9025   4.971   6.893   6.190
 2709SOL    HW1 9026   5.004   6.884   6.096
 2709SOL    HW2 9027   5.023   6.965   6.236
 2710SOL     OW 9028   1.785   2.476   3.468
 2710SOL    HW1 9029   1.706   2.537   3.459
 2710SOL    HW2 9030   1.861   2.526   3.508
 2711SOL     OW 9031   3.248   1.527   3.352
 2711SOL    HW1 9032   3.234   1.622   3.324
 2711SOL    HW2 9033   3.173   1.471   3.315
 2712SOL     OW 9034   3.191   5.497   2.092
 2712SOL    HW1 9035   3.204   5.527   2.186
 2712SOL    HW2 9036   3.268   5.526   2.036
 2713SOL     OW 9037   3.944   4.132   6.769
 2713SOL    HW1 9038   3.967   4.040   6.802
 2713SOL    HW2 9039   4.026   4.188   6.766
 2714SOL     OW 9040   4.220   3.970   0.131
 2714SOL    HW1 9041   4.303   4.002   0.085
 2714SOL    HW2 9042   4.237   3.959   0.228
 2715SOL     OW 9043   5.114   2.086   1.171
 2715SOL    HW1 9044   5.055   2.041   1.238
 2715SOL    HW2 9045   5.092   2.183   1.167
 2716SOL     OW 9046   4.748   2.814   3.132
 2716SOL    HW1 9047   4.811   2.805   3.209
 2716SOL    HW2 9048   4.800   2.811   3.046
 2717SOL     OW 9049   0.442   6.999   2.463
 2717SOL    HW1 9050   0.467   0.077   2.472
 2717SOL    HW2 9051   0.480   6.963   2.378
 2718SOL     OW 9052   6.772   0.790   4.956
 2718SOL    HW1 9053   6.724   0.760   5.039
 2718SOL    HW2 9054   6.774   0.715   4.890
 2719SOL     OW 9055   1.394   4.356   1.996
 2719SOL    HW1 9056   1.438   4.432   2.043
 2719SOL    HW2 9057   1.463   4.288   1.972
 2720SOL     OW 9058   1.127   0.268   4.195
 2720SOL    HW1 9059   1.191   0.193   4.183
 2720SOL    HW2 9060   1.144   0.314   4.282
 2721SOL     OW 9061   3.221   6.445   2.752
 2721SOL    HW1 9062   3.317   6.419   2.735
 2721SOL    HW2 9063   3.216   6.544   2.762
 2722SOL     OW 9064   4.874   5.049   6.762
 2722SOL    HW1 9065   4.817   4.974   6.796
 2722SOL    HW2 9066   4.896   5.033   6.665
 2723SOL     OW 9067   2.768   6.246   6.582
 2723SOL    HW1 9068   2.787   6.344   6.585
 2723SOL    HW2 9069   2.712   6.221   6.661
 2724SOL     OW 9070   1.437   5.643   6.623
 2724SOL    HW1 9071   1.403   5.701   6.548
 2724SOL    HW2 9072   1.475   5.559   6.586
 2725SOL     OW 9073   5.744   3.812   4.536
 2725SOL    HW1 9074   5.742   3.890   4.474
 2725SOL    HW2 9075   5.651   3.781   4.554
 2726SOL     OW 9076   0.538   2.570   1.844
 2726SOL    HW1 9077   0.611   2.584   1.911
 2726SOL    HW2 9078   0.572   2.512   1.770
 2727SOL     OW 9079   1.832   3.796   4.348
 2727SOL    HW1 9080   1.734   3.806   4.329
 2727SOL    HW2 9081   1.882   3.870   4.303
 2728SOL     OW 9082   4.958   5.701   6.563
 2728SOL    HW1 9083   4.948   5.625   6.628
 2728SOL    HW2 9084   5.054   5.710   6.538
 2729SOL     OW 9085   6.840   6.425   6.880
 2729SOL    HW1 9086   6.828   6.416   6.781
 2729SOL    HW2 9087   6.786   6.355   6.927
 2730SOL     OW 9088   0.874   5.745   1.302
 2730SOL    HW1 9089   0.834   5.835   1.316
 2730SOL    HW2 9090   0.953   5.752   1.242
 2731SOL     OW 9091   3.063   3.279   3.315
 2731SOL    HW1 9092   3.083   3.221   3.236
 2731SOL    HW2 9093   3.147   3.295   3.367
 2732SOL     OW 9094   5.465   2.285   1.492
 2732SOL    HW1 9095   5.440   2.352   1.421
 2732SOL    HW2 9096   5.524   2.329   1.560
 2733SOL     OW 9097   0.064   1.527   4.861
 2733SOL    HW1 9098   0.117   1.529   4.776
 2733SOL    HW2 9099   6.988   1.553   4.841
 2734SOL     OW 9100   3.791   5.993   1.633
 2734SOL    HW1 9101   3.788   6.030   1.540
 2734SOL    HW2 9102   3.831   5.901   1.631
 2735SOL     OW 9103   1.564   2.171   0.641
 2735SOL    HW1 9104   1.465   2.157   0.636
 2735SOL    HW2 9105   1.591   2.242   0.576
 2736SOL     OW 9106   5.911   6.222   4.413
 2736SOL    HW1 9107   5.953   6.295   4.466
 2736SOL    HW2 9108   5.813   6.217   4.434
 2737SOL     OW 9109   2.807   2.947   5.818
 2737SOL    HW1 9110   2.739   3.011   5.852
 2737SOL    HW2 9111   2.771   2.897   5.739
 2738SOL     OW 9112   6.427   6.874   2.290
 2738SOL    HW1 9113   6.403   6.777   2.281
 2738SOL    HW2 9114   6.376   6.914   2.366
 2739SOL     OW 9115   0.492   5.429   0.917
 2739SOL    HW1 9116   0.566   5.463   0.976
 2739SOL    HW2 9117   0.420   5.389   0.975
 2740SOL     OW 9118   0.182   5.255   2.065
 2740SOL    HW1 9119   0.249   5.325   2.092
 2740SOL    HW2 9120   0.162   5.196   2.144
 2741SOL     OW 9121   0.552   1.762   5.160
 2741SOL    HW1 9122   0.465   1.810   5.157
 2741SOL    HW2 9123   0.563   1.707   5.077
 2742SOL     OW 9124   2.461   5.328   1.598
 2742SOL    HW1 9125   2.445   5.253   1.534
 2742SOL    HW2 9126   2.525   5.393   1.557
 2743SOL     OW 9127   6.987   4.757   2.363
 2743SOL    HW1 9128   6.943   4.716   2.283
 2743SOL    HW2 9129   0.066   4.764   2.347
 2744SOL     OW 9130   3.749   3.238   1.999
 2744SOL    HW1 9131   3.754   3.214   1.902
 2744SOL    HW2 9132   3.744   3.338   2.008
 2745SOL     OW 9133   6.827   1.135   5.167
 2745SOL    HW1 9134   6.754   1.190   5.127
 2745SOL    HW2 9135   6.794   1.092   5.251
 2746SOL     OW 9136   0.391   1.804   4.261
 2746SOL    HW1 9137   0.482   1.834   4.291
 2746SOL    HW2 9138   0.348   1.877   4.207
 2747SOL     OW 9139   4.737   5.420   6.660
 2747SOL    HW1 9140   4.700   5.414   6.568
 2747SOL    HW2 9141   4.684   5.362   6.722
 2748SOL     OW 9142   4.518   0.663   1.673
 2748SOL    HW1 9143   4.574   0.624   1.747
 2748SOL    HW2 9144   4.507   0.761   1.688
 2749SOL     OW 9145   0.735   4.988   0.588
 2749SOL    HW1 9146   0.737   4.928   0.668
 2749SOL    HW2 9147   0.658   5.051   0.596
 2750SOL     OW 9148   2.135   4.440   1.721
 2750SOL    HW1 9149   2.148   4.502   1.798
 2750SOL    HW2 9150   2.070   4.368   1.747
 2751SOL     OW 9151   1.784   2.477   1.169
 2751SOL    HW1 9152   1.785   2.425   1.084
 2751SOL    HW2 9153   1.702   2.453   1.222
 2752SOL     OW 9154   3.711   4.397   6.103
 2752SOL    HW1 9155   3.663   4.322   6.058
 2752SOL    HW2 9156   3.670   4.416   6.191
 2753SOL     OW 9157   6.746   5.932   5.178
 2753SOL    HW1 9158   6.740   6.017   5.125
 2753SOL    HW2 9159   6.841   5.904   5.186
 2754SOL     OW 9160   0.519   0.117   0.436
 2754SOL    HW1 9161   0.444   0.061   0.403
 2754SOL    HW2 9162   0.579   0.062   0.494
 2755SOL     OW 9163   3.717   0.059   3.175
 2755SOL    HW1 9164   3.793   0.122   3.184
 2755SOL    HW2 9165   3.633   0.103   3.205
 2756SOL     OW 9166   4.347   6.478   0.253
 2756SOL    HW1 9167   4.346   6.399   0.192
 2756SOL    HW2 9168   4.429   6.533   0.234
 2757SOL     OW 9169   2.055   6.409   0.642
 2757SOL    HW1 9170   1.969   6.360   0.629
 2757SOL    HW2 9171   2.131   6.348   0.622
 2758SOL     OW 9172   4.759   0.504   4.881
 2758SOL    HW1 9173   4.805   0.481   4.966
 2758SOL    HW2 9174   4.683   0.566   4.899
 2759SOL     OW 9175   5.241   6.634   4.727
 2759SOL    HW1 9176   5.198   6.574   4.660
 2759SOL    HW2 9177   5.253   6.585   4.814
 2760SOL     OW 9178   1.281   5.760   1.304
 2760SOL    HW1 9179   1.376   5.788   1.292
 2760SOL    HW2 9180   1.248   5.719   1.219
 2761SOL     OW 9181   2.071   4.637   4.217
 2761SOL    HW1 9182   2.149   4.643   4.154
 2761SOL    HW2 9183   2.087   4.565   4.284
 2762SOL     OW 9184   0.754   1.173   4.948
 2762SOL    HW1 9185   0.845   1.196   4.984
 2762SOL    HW2 9186   0.684   1.217   5.004
 2763SOL     OW 9187   5.655   1.491   4.073
 2763SOL    HW1 9188   5.622   1.508   3.980
 2763SOL    HW2 9189   5.747   1.451   4.069
 2764SOL     OW 9190   6.236   0.506   1.508
 2764SOL    HW1 9191   6.201   0.598   1.525
 2764SOL    HW2 9192   6.183   0.440   1.561
 2765SOL     OW 9193   5.641   0.423   0.606
 2765SOL    HW1 9194   5.542   0.407   0.617
 2765SOL    HW2 9195   5.689   0.335   0.605
 2766SOL     OW 9196   5.126   2.402   0.576
 2766SOL    HW1 9197   5.153   2.377   0.483
 2766SOL    HW2 9198   5.209   2.416   0.631
 2767SOL     OW 9199   6.917   4.683   6.136
 2767SOL    HW1 9200   6.935   4.730   6.222
 2767SOL    HW2 9201   6.919   4.584   6.151
 2768SOL     OW 9202   5.083   0.549   6.903
 2768SOL    HW1 9203   5.005   0.591   6.949
 2768SOL    HW2 9204   5.152   0.619   6.882
 2769SOL     OW 9205   6.831   4.516   3.868
 2769SOL    HW1 9206   6.791   4.528   3.777
 2769SOL    HW2 9207   6.848   4.419   3.885
 2770SOL     OW 9208   2.404   5.269   6.252
 2770SOL    HW1 9209   2.351   5.267   6.336
 2770SOL    HW2 9210   2.418   5.364   6.224
 2771SOL     OW 9211   5.627   1.412   1.992
 2771SOL    HW1 9212   5.655   1.420   2.087
 2771SOL    HW2 9213   5.579   1.325   1.978
 2772SOL     OW 9214   4.480   1.941   1.088
 2772SOL    HW1 9215   4.576   1.954   1.060
 2772SOL    HW2 9216   4.477   1.886   1.172
 2773SOL     OW 9217   5.251   3.452   5.448
 2773SOL    HW1 9218   5.345   3.477   5.426
 2773SOL    HW2 9219   5.250   3.383   5.520
 2774SOL     OW 9220   6.356   3.636   2.848
 2774SOL    HW1 9221   6.297   3.689   2.787
 2774SOL    HW2 9222   6.450   3.672   2.844
 2775SOL     OW 9223   6.969   5.330   0.227
 2775SOL    HW1 9224   0.031   5.276   0.250
 2775SOL    HW2 9225   6.937   5.378   0.309
 2776SOL     OW 9226   4.994   5.137   5.648
 2776SOL    HW1 9227   4.972   5.081   5.568
 2776SOL    HW2 9228   4.915   5.193   5.672
 2777SOL     OW 9229   2.904   1.226   2.053
 2777SOL    HW1 9230   2.850   1.301   2.092
 2777SOL    HW2 9231   2.949   1.175   2.126
 2778SOL     OW 9232   1.317   1.112   5.086
 2778SOL    HW1 9233   1.393   1.075   5.031
 2778SOL    HW2 9234   1.235   1.058   5.069
 2779SOL     OW 9235   4.620   0.011   0.877
 2779SOL    HW1 9236   4.682   0.030   0.801
 2779SOL    HW2 9237   4.527   0.039   0.851
 2780SOL     OW 9238   0.040   5.606   6.301
 2780SOL    HW1 9239   0.081   5.697   6.299
 2780SOL    HW2 9240   6.968   5.612   6.343
 2781SOL     OW 9241   5.805   5.697   1.770
 2781SOL    HW1 9242   5.774   5.790   1.790
 2781SOL    HW2 9243   5.898   5.700   1.733
 2782SOL     OW 9244   3.157   2.418   5.552
 2782SOL    HW1 9245   3.123   2.499   5.505
 2782SOL    HW2 9246   3.179   2.347   5.485
 2783SOL     OW 9247   5.958   3.050   4.624
 2783SOL    HW1 9248   6.006   3.087   4.703
 2783SOL    HW2 9249   5.947   3.122   4.555
 2784SOL     OW 9250   2.908   1.738   0.950
 2784SOL    HW1 9251   2.928   1.762   1.045
 2784SOL    HW2 9252   2.857   1.652   0.947
 2785SOL     OW 9253   5.751   1.568   0.338
 2785SOL    HW1 9254   5.716   1.637   0.274
 2785SOL    HW2 9255   5.681   1.548   0.406
 2786SOL     OW 9256   4.277   5.864   1.335
 2786SOL    HW1 9257   4.291   5.891   1.240
 2786SOL    HW2 9258   4.331   5.783   1.355
 2787SOL     OW 9259   2.537   2.857   6.854
 2787SOL    HW1 9260   2.535   2.904   6.766
 2787SOL    HW2 9261   2.577   2.917   6.924
 2788SOL     OW 9262   2.237   4.115   0.084
 2788SOL    HW1 9263   2.335   4.112   0.105
 2788SOL    HW2 9264   2.214   4.204   0.046
 2789SOL     OW 9265   1.983   2.951   3.450
 2789SOL    HW1 9266   2.062   2.993   3.404
 2789SOL    HW2 9267   2.008   2.930   3.544
 2790SOL     OW 9268   2.894   5.474   2.595
 2790SOL    HW1 9269   2.887   5.475   2.495
 2790SOL    HW2 9270   2.811   5.435   2.634
 2791SOL     OW 9271   1.167   4.256   4.584
 2791SOL    HW1 9272   1.151   4.348   4.619
 2791SOL    HW2 9273   1.224   4.261   4.502
 2792SOL     OW 9274   0.825   6.834   4.884
 2792SOL    HW1 9275   0.760   6.884   4.941
 2792SOL    HW2 9276   0.851   6.749   4.930
 2793SOL     OW 9277   4.669   2.741   2.454
 2793SOL    HW1 9278   4.710   2.826   2.487
 2793SOL    HW2 9279   4.739   2.670   2.448
 2794SOL     OW 9280   6.995   2.624   0.696
 2794SOL    HW1 9281   6.991   2.573   0.610
 2794SOL    HW2 9282   0.058   2.683   0.696
 2795SOL     OW 9283   2.608   3.404   0.772
 2795SOL    HW1 9284   2.615   3.396   0.872
 2795SOL    HW2 9285   2.584   3.498   0.748
 2796SOL     OW 9286   6.774   4.989   3.011
 2796SOL    HW1 9287   6.799   4.949   3.100
 2796SOL    HW2 9288   6.679   5.021   3.016
 2797SOL     OW 9289   4.806   5.475   4.454
 2797SOL    HW1 9290   4.784   5.566   4.418
 2797SOL    HW2 9291   4.724   5.432   4.489
 2798SOL     OW 9292   1.030   4.528   1.835
 2798SOL    HW1 9293   1.070   4.569   1.917
 2798SOL    HW2 9294   1.097   4.467   1.793
 2799SOL     OW 9295   0.133   5.785   6.918
 2799SOL    HW1 9296   0.062   5.828   6.863
 2799SOL    HW2 9297   0.095   5.705   6.965
 2800SOL     OW 9298   4.295   4.917   6.796
 2800SOL    HW1 9299   4.245   4.952   6.876
 2800SOL    HW2 9300   4.231   4.874   6.733
 2801SOL     OW 9301   4.518   5.647   4.608
 2801SOL    HW1 9302   4.448   5.650   4.680
 2801SOL    HW2 9303   4.593   5.588   4.637
 2802SOL     OW 9304   4.802   3.324   6.421
 2802SOL    HW1 9305   4.755   3.376   6.493
 2802SOL    HW2 9306   4.734   3.270   6.370
 2803SOL     OW 9307   3.412   5.955   6.457
 2803SOL    HW1 9308   3.409   5.879   6.393
 2803SOL    HW2 9309   3.319   5.985   6.479
 2804SOL     OW 9310   6.950   4.652   4.615
 2804SOL    HW1 9311   6.963   4.602   4.701
 2804SOL    HW2 9312   6.900   4.594   4.551
 2805SOL     OW 9313   4.604   2.972   1.243
 2805SOL    HW1 9314   4.621   3.062   1.202
 2805SOL    HW2 9315   4.511   2.971   1.282
 2806SOL     OW 9316   6.053   5.024   4.205
 2806SOL    HW1 9317   6.041   4.946   4.267
 2806SOL    HW2 9318   6.015   5.001   4.115
 2807SOL     OW 9319   5.510   4.986   4.093
 2807SOL    HW1 9320   5.535   5.059   4.157
 2807SOL    HW2 9321   5.520   5.019   3.999
 2808SOL     OW 9322   4.901   2.568   2.461
 2808SOL    HW1 9323   4.971   2.561   2.533
 2808SOL    HW2 9324   4.925   2.507   2.385
 2809SOL     OW 9325   6.437   2.584   1.948
 2809SOL    HW1 9326   6.368   2.612   1.881
 2809SOL    HW2 9327   6.465   2.490   1.930
 2810SOL     OW 9328   3.138   6.572   4.732
 2810SOL    HW1 9329   3.094   6.485   4.712
 2810SOL    HW2 9330   3.076   6.647   4.707
 2811SOL     OW 9331   0.483   1.083   3.224
 2811SOL    HW1 9332   0.545   1.156   3.197
 2811SOL    HW2 9333   0.511   0.998   3.179
 2812SOL     OW 9334   5.858   3.452   0.734
 2812SOL    HW1 9335   5.838   3.398   0.816
 2812SOL    HW2 9336   5.951   3.431   0.702
 2813SOL     OW 9337   6.397   0.289   5.972
 2813SOL    HW1 9338   6.363   0.275   5.879
 2813SOL    HW2 9339   6.399   0.201   6.021
 2814SOL     OW 9340   4.772   3.065   0.037
 2814SOL    HW1 9341   4.848   3.071   6.992
 2814SOL    HW2 9342   4.753   2.969   0.058
 2815SOL     OW 9343   6.934   1.431   5.084
 2815SOL    HW1 9344   6.867   1.495   5.122
 2815SOL    HW2 9345   6.966   1.465   4.995
 2816SOL     OW 9346   6.629   6.158   3.766
 2816SOL    HW1 9347   6.676   6.216   3.700
 2816SOL    HW2 9348   6.687   6.143   3.846
 2817SOL     OW 9349   2.097   0.226   1.188
 2817SOL    HW1 9350   2.016   0.250   1.242
 2817SOL    HW2 9351   2.160   0.303   1.186
 2818SOL     OW 9352   7.015   6.104   6.497
 2818SOL    HW1 9353   0.021   6.008   6.510
 2818SOL    HW2 9354   6.979   6.117   6.405
 2819SOL     OW 9355   0.230   1.328   1.408
 2819SOL    HW1 9356   0.247   1.384   1.489
 2819SOL    HW2 9357   0.316   1.316   1.357
 2820SOL     OW 9358   0.794   2.132   3.033
 2820SOL    HW1 9359   0.791   2.061   2.963
 2820SOL    HW2 9360   0.879   2.184   3.025
 2821SOL     OW 9361   3.893   3.656   0.215
 2821SOL    HW1 9362   3.917   3.750   0.188
 2821SOL    HW2 9363   3.793   3.645   0.211
 2822SOL     OW 9364   4.336   2.672   6.927
 2822SOL    HW1 9365   4.308   2.587   6.973
 2822SOL    HW2 9366   4.416   2.654   6.869
 2823SOL     OW 9367   3.047   6.898   0.749
 2823SOL    HW1 9368   3.092   6.836   0.685
 2823SOL    HW2 9369   3.062   6.992   0.720
 2824SOL     OW 9370   2.506   1.281   4.531
 2824SOL    HW1 9371   2.511   1.380   4.545
 2824SOL    HW2 9372   2.457   1.263   4.446
 2825SOL     OW 9373   6.966   0.177   6.882
 2825SOL    HW1 9374   0.040   0.186   6.846
 2825SOL    HW2 9375   6.908   0.132   6.813
 2826SOL     OW 9376   5.217   2.119   0.102
 2826SOL    HW1 9377   5.226   2.206   0.054
 2826SOL    HW2 9378   5.133   2.073   0.072
 2827SOL     OW 9379   5.781   1.006   5.085
 2827SOL    HW1 9380   5.797   0.931   5.150
 2827SOL    HW2 9381   5.744   1.085   5.135
 2828SOL     OW 9382   3.200   0.480   6.994
 2828SOL    HW1 9383   3.189   0.388   0.014
 2828SOL    HW2 9384   3.298   0.500   6.984
 2829SOL     OW 9385   3.161   4.214   5.915
 2829SOL    HW1 9386   3.071   4.243   5.948
 2829SOL    HW2 9387   3.178   4.120   5.944
 2830SOL     OW 9388   0.982   3.418   0.107
 2830SOL    HW1 9389   0.894   3.374   0.092
 2830SOL    HW2 9390   1.051   3.349   0.127
 2831SOL     OW 9391   0.313   5.875   3.833
 2831SOL    HW1 9392   0.376   5.831   3.769
 2831SOL    HW2 9393   0.345   5.862   3.926
 2832SOL     OW 9394   0.393   1.401   1.968
 2832SOL    HW1 9395   0.434   1.331   1.910
 2832SOL    HW2 9396   0.441   1.487   1.957
 2833SOL     OW 9397   4.957   2.440   2.212
 2833SOL    HW1 9398   4.880   2.451   2.149
 2833SOL    HW2 9399   5.036   2.407   2.161
 2834SOL     OW 9400   2.725   0.062   5.986
 2834SOL    HW1 9401   2.715   0.079   5.888
 2834SOL    HW2 9402   2.635   0.040   6.024
 2835SOL     OW 9403   0.031   0.728   2.257
 2835SOL    HW1 9404   0.014   0.639   2.299
 2835SOL    HW2 9405   0.129   0.746   2.255
 2836SOL     OW 9406   6.661   6.694   1.918
 2836SOL    HW1 9407   6.704   6.708   2.007
 2836SOL    HW2 9408   6.659   6.780   1.868
 2837SOL     OW 9409   5.945   3.454   3.301
 2837SOL    HW1 9410   5.955   3.381   3.368
 2837SOL    HW2 9411   6.036   3.485   3.272
 2838SOL     OW 9412   1.653   4.122   1.286
 2838SOL    HW1 9413   1.627   4.087   1.197
 2838SOL    HW2 9414   1.578   4.109   1.351
 2839SOL     OW 9415   5.851   1.117   1.976
 2839SOL    HW1 9416   5.916   1.168   2.033
 2839SOL    HW2 9417   5.763   1.111   2.023
 2840SOL     OW 9418   0.933   1.428   3.919
 2840SOL    HW1 9419   1.025   1.447   3.885
 2840SOL    HW2 9420   0.909   1.496   3.988
 2841SOL     OW 9421   6.928   0.661   5.712
 2841SOL    HW1 9422   6.859   0.600   5.751
 2841SOL    HW2 9423   6.893   0.754   5.710
 2842SOL     OW 9424   0.089   2.874   4.378
 2842SOL    HW1 9425   0.066   2.796   4.319
 2842SOL    HW2 9426   0.015   2.941   4.376
 2843SOL     OW 9427   2.874   1.789   3.425
 2843SOL    HW1 9428   2.851   1.781   3.328
 2843SOL    HW2 9429   2.838   1.875   3.462
 2844SOL     OW 9430   1.315   5.411   0.356
 2844SOL    HW1 9431   1.374   5.437   0.280
 2844SOL    HW2 9432   1.225   5.384   0.321
 2845SOL     OW 9433   0.580   2.641   1.196
 2845SOL    HW1 9434   0.582   2.694   1.111
 2845SOL    HW2 9435   0.673   2.613   1.220
 2846SOL     OW 9436   4.409   1.204   6.544
 2846SOL    HW1 9437   4.483   1.240   6.601
 2846SOL    HW2 9438   4.331   1.266   6.549
 2847SOL     OW 9439   5.140   3.322   2.727
 2847SOL    HW1 9440   5.090   3.267   2.794
 2847SOL    HW2 9441   5.149   3.270   2.642
 2848SOL     OW 9442   0.914   3.757   6.442
 2848SOL    HW1 9443   0.858   3.678   6.465
 2848SOL    HW2 9444   1.009   3.728   6.429
 2849SOL     OW 9445   3.941   6.771   1.702
 2849SOL    HW1 9446   3.935   6.864   1.667
 2849SOL    HW2 9447   3.849   6.734   1.715
 2850SOL     OW 9448   3.364   6.883   2.178
 2850SOL    HW1 9449   3.303   6.962   2.176
 2850SOL    HW2 9450   3.458   6.913   2.161
 2851SOL     OW 9451   6.983   3.342   5.782
 2851SOL    HW1 9452   6.916   3.358   5.854
 2851SOL    HW2 9453   0.034   3.278   5.814
 2852SOL     OW 9454   5.561   4.383   0.305
 2852SOL    HW1 9455   5.593   4.289   0.313
 2852SOL    HW2 9456   5.466   4.389   0.335
 2853SOL     OW 9457   2.525   2.233   0.375
 2853SOL    HW1 9458   2.529   2.236   0.275
 2853SOL    HW2 9459   2.597   2.291   0.413
 2854SOL     OW 9460   3.719   1.643   4.661
 2854SOL    HW1 9461   3.663   1.560   4.669
 2854SOL    HW2 9462   3.810   1.625   4.699
 2855SOL     OW 9463   2.380   1.026   5.954
 2855SOL    HW1 9464   2.379   1.112   5.904
 2855SOL    HW2 9465   2.475   1.002   5.976
 2856SOL     OW 9466   2.277   2.741   5.950
 2856SOL    HW1 9467   2.208   2.674   5.919
 2856SOL    HW2 9468   2.231   2.827   5.973
 2857SOL     OW 9469   3.399   1.832   2.010
 2857SOL    HW1 9470   3.393   1.918   2.062
 2857SOL    HW2 9471   3.330   1.833   1.937
 2858SOL     OW 9472   6.339   3.717   1.577
 2858SOL    HW1 9473   6.420   3.717   1.635
 2858SOL    HW2 9474   6.348   3.786   1.505
 2859SOL     OW 9475   4.916   2.009   0.548
 2859SOL    HW1 9476   4.965   2.049   0.470
 2859SOL    HW2 9477   4.963   2.032   0.633
 2860SOL     OW 9478   3.563   1.669   1.160
 2860SOL    HW1 9479   3.605   1.625   1.081
 2860SOL    HW2 9480   3.633   1.684   1.231
 2861SOL     OW 9481   4.603   4.876   6.173
 2861SOL    HW1 9482   4.577   4.806   6.106
 2861SOL    HW2 9483   4.559   4.855   6.261
 2862SOL     OW 9484   5.337   1.954   3.513
 2862SOL    HW1 9485   5.346   1.887   3.439
 2862SOL    HW2 9486   5.407   2.025   3.502
 2863SOL     OW 9487   5.387   1.311   6.785
 2863SOL    HW1 9488   5.387   1.408   6.759
 2863SOL    HW2 9489   5.456   1.262   6.731
 2864SOL     OW 9490   4.234   0.942   1.490
 2864SOL    HW1 9491   4.253   0.982   1.580
 2864SOL    HW2 9492   4.223   0.843   1.499
 2865SOL     OW 9493   5.351   4.303   5.740
 2865SOL    HW1 9494   5.431   4.249   5.766
 2865SOL    HW2 9495   5.268   4.256   5.770
 2866SOL     OW 9496   6.509   6.422   6.549
 2866SOL    HW1 9497   6.564   6.503   6.569
 2866SOL    HW2 9498   6.531   6.349   6.613
 2867SOL     OW 9499   5.870   3.834   2.302
 2867SOL    HW1 9500   5.901   3.887   2.381
 2867SOL    HW2 9501   5.789   3.877   2.262
 2868SOL     OW 9502   0.268   3.142   5.564
 2868SOL    HW1 9503   0.327   3.124   5.485
 2868SOL    HW2 9504   0.205   3.065   5.577
 2869SOL     OW 9505   5.983   1.193   3.592
 2869SOL    HW1 9506   5.940   1.235   3.511
 2869SOL    HW2 9507   5.911   1.157   3.652
 2870SOL     OW 9508   0.131   0.882   4.667
 2870SOL    HW1 9509   0.112   0.846   4.758
 2870SOL    HW2 9510   0.219   0.928   4.666
 2871SOL     OW 9511   1.154   1.425   7.013
 2871SOL    HW1 9512   1.152   1.396   6.917
 2871SOL    HW2 9513   1.168   1.524   7.018
 2872SOL     OW 9514   2.696   1.600   3.467
 2872SOL    HW1 9515   2.769   1.669   3.459
 2872SOL    HW2 9516   2.667   1.572   3.376
 2873SOL     OW 9517   0.779   4.795   2.796
 2873SOL    HW1 9518   0.754   4.711   2.845
 2873SOL    HW2 9519   0.808   4.865   2.861
 2874SOL     OW 9520   3.734   6.430   2.900
 2874SOL    HW1 9521   3.692   6.482   2.974
 2874SOL    HW2 9522   3.707   6.335   2.907
 2875SOL     OW 9523   4.914   6.201   6.994
 2875SOL    HW1 9524   4.841   6.214   0.042
 2875SOL    HW2 9525   4.874   6.170   6.908
 2876SOL     OW 9526   0.885   0.172   2.040
 2876SOL    HW1 9527   0.827   0.250   2.015
 2876SOL    HW2 9528   0.966   0.205   2.087
 2877SOL     OW 9529   3.906   2.940   5.221
 2877SOL    HW1 9530   3.834   2.906   5.280
 2877SOL    HW2 9531   3.931   3.033   5.248
 2878SOL     OW 9532   3.784   5.189   4.654
 2878SOL    HW1 9533   3.695   5.210   4.613
 2878SOL    HW2 9534   3.786   5.093   4.681
 2879SOL     OW 9535   4.930   5.032   0.521
 2879SOL    HW1 9536   4.893   5.124   0.536
 2879SOL    HW2 9537   5.028   5.038   0.504
 2880SOL     OW 9538   5.765   6.909   0.747
 2880SOL    HW1 9539   5.839   6.903   0.814
 2880SOL    HW2 9540   5.760   7.002   0.711
 2881SOL     OW 9541   5.831   6.520   1.128
 2881SOL    HW1 9542   5.846   6.442   1.189
 2881SOL    HW2 9543   5.919   6.557   1.099
 2882SOL     OW 9544   1.046   3.602   2.376
 2882SOL    HW1 9545   1.145   3.603   2.384
 2882SOL    HW2 9546   1.005   3.591   2.466
 2883SOL     OW 9547   5.419   5.861   4.250
 2883SOL    HW1 9548   5.331   5.827   4.218
 2883SOL    HW2 9549   5.474   5.785   4.284
 2884SOL     OW 9550   0.828   5.726   2.805
 2884SOL    HW1 9551   0.848   5.644   2.859
 2884SOL    HW2 9552   0.772   5.788   2.860
 2885SOL     OW 9553   0.551   3.466   2.129
 2885SOL    HW1 9554   0.615   3.543   2.128
 2885SOL    HW2 9555   0.558   3.417   2.216
 2886SOL     OW 9556   2.127   3.911   6.548
 2886SOL    HW1 9557   2.119   3.866   6.637
 2886SOL    HW2 9558   2.037   3.918   6.506
 2887SOL     OW 9559   1.341   0.133   4.584
 2887SOL    HW1 9560   1.350   0.034   4.571
 2887SOL    HW2 9561   1.380   0.158   4.672
 2888SOL     OW 9562   0.568   4.869   6.940
 2888SOL    HW1 9563   0.633   4.816   6.996
 2888SOL    HW2 9564   0.566   4.964   6.974
 2889SOL     OW 9565   1.780   0.057   2.546
 2889SOL    HW1 9566   1.700   0.001   2.569
 2889SOL    HW2 9567   1.781   0.138   2.605
 2890SOL     OW 9568   2.453   0.842   1.161
 2890SOL    HW1 9569   2.503   0.767   1.118
 2890SOL    HW2 9570   2.516   0.898   1.214
 2891SOL     OW 9571   2.287   4.161   3.799
 2891SOL    HW1 9572   2.295   4.179   3.701
 2891SOL    HW2 9573   2.361   4.208   3.847
 2892SOL     OW 9574   5.730   3.479   0.501
 2892SOL    HW1 9575   5.709   3.574   0.479
 2892SOL    HW2 9576   5.784   3.476   0.585
 2893SOL     OW 9577   0.278   6.605   4.825
 2893SOL    HW1 9578   0.252   6.690   4.871
 2893SOL    HW2 9579   0.198   6.568   4.777
 2894SOL     OW 9580   3.263   2.569   0.136
 2894SOL    HW1 9581   3.359   2.540   0.147
 2894SOL    HW2 9582   3.234   2.620   0.217
 2895SOL     OW 9583   3.925   3.267   6.690
 2895SOL    HW1 9584   3.908   3.365   6.676
 2895SOL    HW2 9585   4.004   3.239   6.635
 2896SOL     OW 9586   3.001   5.330   6.564
 2896SOL    HW1 9587   3.089   5.349   6.607
 2896SOL    HW2 9588   3.013   5.262   6.491
 2897SOL     OW 9589   3.047   5.892   3.153
 2897SOL    HW1 9590   3.067   5.828   3.079
 2897SOL    HW2 9591   3.132   5.922   3.195
 2898SOL     OW 9592   4.258   5.163   3.750
 2898SOL    HW1 9593   4.177   5.162   3.809
 2898SOL    HW2 9594   4.236   5.210   3.664
 2899SOL     OW 9595   0.580   2.043   0.362
 2899SOL    HW1 9596   0.571   2.063   0.459
 2899SOL    HW2 9597   0.658   1.982   0.348
 2900SOL     OW 9598   2.108   5.044   5.493
 2900SOL    HW1 9599   2.048   5.120   5.467
 2900SOL    HW2 9600   2.063   4.988   5.563
 2901SOL     OW 9601   1.740   0.431   3.137
 2901SOL    HW1 9602   1.721   0.340   3.171
 2901SOL    HW2 9603   1.720   0.499   3.208
 2902SOL     OW 9604   5.611   6.126   1.636
 2902SOL    HW1 9605   5.592   6.110   1.539
 2902SOL    HW2 9606   5.530   6.165   1.680
 2903SOL     OW 9607   2.955   0.428   1.337
 2903SOL    HW1 9608   3.012   0.410   1.257
 2903SOL    HW2 9609   2.943   0.343   1.389
 2904SOL     OW 9610   1.897   3.351   5.197
 2904SOL    HW1 9611   1.854   3.379   5.111
 2904SOL    HW2 9612   1.840   3.381   5.274
 2905SOL     OW 9613   1.568   2.622   3.491
 2905SOL    HW1 9614   1.481   2.670   3.484
 2905SOL    HW2 9615   1.620   2.658   3.568
 2906SOL     OW 9616   4.998   5.360   3.072
 2906SOL    HW1 9617   4.973   5.408   2.988
 2906SOL    HW2 9618   4.941   5.393   3.147
 2907SOL     OW 9619   0.319   1.160   4.261
 2907SOL    HW1 9620   0.222   1.179   4.268
 2907SOL    HW2 9621   0.368   1.243   4.234
 2908SOL     OW 9622   4.207   7.010   3.801
 2908SOL    HW1 9623   4.116   7.001   3.841
 2908SOL    HW2 9624   4.240   0.085   3.811
 2909SOL     OW 9625   0.763   5.826   3.608
 2909SOL    HW1 9626   0.724   5.915   3.584
 2909SOL    HW2 9627   0.695   5.774   3.659
 2910SOL     OW 9628   4.633   6.059   4.461
 2910SOL    HW1 9629   4.669   6.051   4.368
 2910SOL    HW2 9630   4.568   5.985   4.479
 2911SOL     OW 9631   1.855   5.193   3.512
 2911SOL    HW1 9632   1.804   5.112   3.485
 2911SOL    HW2 9633   1.913   5.223   3.436
 2912SOL     OW 9634   4.174   6.222   6.631
 2912SOL    HW1 9635   4.133   6.275   6.558
 2912SOL    HW2 9636   4.153   6.264   6.719
 2913SOL     OW 9637   1.855   5.133   2.359
 2913SOL    HW1 9638   1.866   5.148   2.457
 2913SOL    HW2 9639   1.934   5.171   2.311
 2914SOL     OW 9640   6.256   6.237   5.554
 2914SOL    HW1 9641   6.160   6.209   5.555
 2914SOL    HW2 9642   6.289   6.244   5.648
 2915SOL     OW 9643   5.169   1.673   5.095
 2915SOL    HW1 9644   5.150   1.739   5.022
 2915SOL    HW2 9645   5.087   1.619   5.114
 2916SOL     OW 9646   6.401   5.364   5.888
 2916SOL    HW1 9647   6.443   5.389   5.976
 2916SOL    HW2 9648   6.389   5.265   5.884
 2917SOL     OW 9649   4.222   0.405   1.987
 2917SOL    HW1 9650   4.293   0.354   1.940
 2917SOL    HW2 9651   4.179   0.470   1.923
 2918SOL     OW 9652   7.011   3.701   3.467
 2918SOL    HW1 9653   6.915   3.699   3.497
 2918SOL    HW2 9654   0.003   3.640   3.388
 2919SOL     OW 9655   6.660   1.278   0.422
 2919SOL    HW1 9656   6.602   1.355   0.446
 2919SOL    HW2 9657   6.610   1.217   0.360
 2920SOL     OW 9658   3.223   1.813   2.307
 2920SOL    HW1 9659   3.307   1.783   2.353
 2920SOL    HW2 9660   3.188   1.895   2.351
 2921SOL     OW 9661   0.486   0.269   3.092
 2921SOL    HW1 9662   0.439   0.235   3.011
 2921SOL    HW2 9663   0.457   0.363   3.110
 2922SOL     OW 9664   5.872   6.605   6.859
 2922SOL    HW1 9665   5.820   6.668   6.917
 2922SOL    HW2 9666   5.821   6.589   6.774
 2923SOL     OW 9667   0.139   4.743   1.791
 2923SOL    HW1 9668   0.122   4.810   1.718
 2923SOL    HW2 9669   0.130   4.651   1.754
 2924SOL     OW 9670   7.007   2.164   6.553
 2924SOL    HW1 9671   6.999   2.156   6.453
 2924SOL    HW2 9672   0.043   2.088   6.588
 2925SOL     OW 9673   5.245   0.926   3.204
 2925SOL    HW1 9674   5.342   0.932   3.227
 2925SOL    HW2 9675   5.217   1.008   3.155
 2926SOL     OW 9676   0.265   1.157   4.672
 2926SOL    HW1 9677   0.356   1.116   4.661
 2926SOL    HW2 9678   0.242   1.161   4.769
 2927SOL     OW 9679   1.266   1.941   2.387
 2927SOL    HW1 9680   1.306   2.020   2.341
 2927SOL    HW2 9681   1.305   1.857   2.348
 2928SOL     OW 9682   6.460   2.315   6.063
 2928SOL    HW1 9683   6.424   2.287   6.152
 2928SOL    HW2 9684   6.510   2.239   6.022
 2929SOL     OW 9685   0.586   1.228   5.948
 2929SOL    HW1 9686   0.515   1.164   5.919
 2929SOL    HW2 9687   0.650   1.181   6.008
 2930SOL     OW 9688   4.716   6.419   5.003
 2930SOL    HW1 9689   4.775   6.416   4.922
 2930SOL    HW2 9690   4.696   6.515   5.026
 2931SOL     OW 9691   5.730   6.040   0.081
 2931SOL    HW1 9692   5.753   6.007   0.172
 2931SOL    HW2 9693   5.727   6.140   0.082
 2932SOL     OW 9694   1.373   5.076   1.891
 2932SOL    HW1 9695   1.341   5.148   1.830
 2932SOL    HW2 9696   1.452   5.030   1.849
 2933SOL     OW 9697   5.926   2.965   3.298
 2933SOL    HW1 9698   6.015   2.975   3.342
 2933SOL    HW2 9699   5.910   3.042   3.236
 2934SOL     OW 9700   3.814   1.092   0.349
 2934SOL    HW1 9701   3.788   1.081   0.445
 2934SOL    HW2 9702   3.764   1.169   0.310
 2935SOL     OW 9703   6.551   3.534   1.386
 2935SOL    HW1 9704   6.572   3.466   1.457
 2935SOL    HW2 9705   6.470   3.505   1.336
 2936SOL     OW 9706   4.769   5.677   2.151
 2936SOL    HW1 9707   4.851   5.735   2.148
 2936SOL    HW2 9708   4.788   5.594   2.203
 2937SOL     OW 9709   4.068   4.721   0.630
 2937SOL    HW1 9710   4.036   4.650   0.693
 2937SOL    HW2 9711   4.026   4.808   0.655
 2938SOL     OW 9712   5.067   4.531   5.774
 2938SOL    HW1 9713   4.983   4.558   5.727
 2938SOL    HW2 9714   5.144   4.581   5.736
 2939SOL     OW 9715   0.721   0.189   4.419
 2939SOL    HW1 9716   0.632   0.144   4.425
 2939SOL    HW2 9717   0.739   0.213   4.324
 2940SOL     OW 9718   5.798   0.144   6.294
 2940SOL    HW1 9719   5.785   0.154   6.393
 2940SOL    HW2 9720   5.800   0.047   6.271
 2941SOL     OW 9721   2.105   2.035   4.971
 2941SOL    HW1 9722   2.178   2.103   4.981
 2941SOL    HW2 9723   2.146   1.945   4.953
 2942SOL     OW 9724   2.296   1.608   1.772
 2942SOL    HW1 9725   2.254   1.687   1.817
 2942SOL    HW2 9726   2.385   1.589   1.814
 2943SOL     OW 9727   5.910   3.862   2.836
 2943SOL    HW1 9728   5.891   3.764   2.845
 2943SOL    HW2 9729   5.837   3.905   2.783
 2944SOL     OW 9730   2.608   5.540   5.069
 2944SOL    HW1 9731   2.675   5.476   5.030
 2944SOL    HW2 9732   2.540   5.489   5.122
 2945SOL     OW 9733   4.010   3.611   3.670
 2945SOL    HW1 9734   3.971   3.662   3.746
 2945SOL    HW2 9735   3.937   3.573   3.614
 2946SOL     OW 9736   0.429   5.420   7.009
 2946SOL    HW1 9737   0.428   5.486   6.934
 2946SOL    HW2 9738   0.523   5.394   0.010
 2947SOL     OW 9739   0.867   4.487   0.180
 2947SOL    HW1 9740   0.839   4.398   0.142
 2947SOL    HW2 9741   0.835   4.560   0.120
 2948SOL     OW 9742   0.045   4.349   5.343
 2948SOL    HW1 9743   0.052   4.251   5.360
 2948SOL    HW2 9744   0.136   4.385   5.321
 2949SOL     OW 9745   1.933   6.423   1.055
 2949SOL    HW1 9746   1.891   6.400   1.143
 2949SOL    HW2 9747   2.030   6.444   1.070
 2950SOL     OW 9748   4.916   3.632   4.584
 2950SOL    HW1 9749   4.907   3.731   4.588
 2950SOL    HW2 9750   4.969   3.599   4.663
 2951SOL     OW 9751   6.806   2.557   0.882
 2951SOL    HW1 9752   6.721   2.556   0.831
 2951SOL    HW2 9753   6.878   2.598   0.826
 2952SOL     OW 9754   0.884   6.042   4.794
 2952SOL    HW1 9755   0.832   6.095   4.727
 2952SOL    HW2 9756   0.923   6.103   4.863
 2953SOL     OW 9757   4.604   2.693   2.794
 2953SOL    HW1 9758   4.628   2.789   2.812
 2953SOL    HW2 9759   4.658   2.659   2.717
 2954SOL     OW 9760   0.794   5.490   1.619
 2954SOL    HW1 9761   0.881   5.442   1.608
 2954SOL    HW2 9762   0.765   5.484   1.715
 2955SOL     OW 9763   1.248   3.688   0.582
 2955SOL    HW1 9764   1.237   3.610   0.644
 2955SOL    HW2 9765   1.339   3.684   0.540
 2956SOL     OW 9766   6.209   6.242   3.312
 2956SOL    HW1 9767   6.252   6.247   3.402
 2956SOL    HW2 9768   6.215   6.149   3.277
 2957SOL     OW 9769   6.947   3.439   1.536
 2957SOL    HW1 9770   6.915   3.345   1.529
 2957SOL    HW2 9771   6.890   3.489   1.600
 2958SOL     OW 9772   2.682   4.723   4.729
 2958SOL    HW1 9773   2.584   4.729   4.749
 2958SOL    HW2 9774   2.730   4.693   4.811
 2959SOL     OW 9775   4.336   3.934   0.375
 2959SOL    HW1 9776   4.386   3.878   0.442
 2959SOL    HW2 9777   4.357   4.030   0.390
 2960SOL     OW 9778   3.062   0.528   6.750
 2960SOL    HW1 9779   3.108   0.526   6.838
 2960SOL    HW2 9780   3.098   0.604   6.695
 2961SOL     OW 9781   5.082   2.869   4.898
 2961SOL    HW1 9782   5.128   2.842   4.813
 2961SOL    HW2 9783   5.148   2.914   4.959
 2962SOL     OW 9784   4.287   1.262   3.857
 2962SOL    HW1 9785   4.284   1.183   3.918
 2962SOL    HW2 9786   4.311   1.344   3.909
 2963SOL     OW 9787   1.756   1.252   5.866
 2963SOL    HW1 9788   1.749   1.164   5.913
 2963SOL    HW2 9789   1.682   1.312   5.897
 2964SOL     OW 9790   0.645   0.014   2.074
 2964SOL    HW1 9791   0.672   6.937   2.080
 2964SOL    HW2 9792   0.724   0.070   2.047
 2965SOL     OW 9793   6.775   1.024   4.800
 2965SOL    HW1 9794   6.787   1.108   4.853
 2965SOL    HW2 9795   6.738   0.952   4.859
 2966SOL     OW 9796   6.065   4.810   4.400
 2966SOL    HW1 9797   6.163   4.811   4.379
 2966SOL    HW2 9798   6.041   4.721   4.439
 2967SOL     OW 9799   5.908   2.324   4.477
 2967SOL    HW1 9800   5.840   2.253   4.462
 2967SOL    HW2 9801   5.977   2.321   4.404
 2968SOL     OW 9802   1.191   4.056   5.566
 2968SOL    HW1 9803   1.262   4.111   5.523
 2968SOL    HW2 9804   1.102   4.099   5.552
 2969SOL     OW 9805   5.968   0.991   4.264
 2969SOL    HW1 9806   5.984   1.086   4.235
 2969SOL    HW2 9807   5.941   0.936   4.185
 2970SOL     OW 9808   0.844   3.939   6.703
 2970SOL    HW1 9809   0.813   3.861   6.648
 2970SOL    HW2 9810   0.930   3.974   6.667
 2971SOL     OW 9811   5.053   2.914   5.778
 2971SOL    HW1 9812   5.001   2.981   5.726
 2971SOL    HW2 9813   5.034   2.822   5.744
 2972SOL     OW 9814   6.473   4.974   6.158
 2972SOL    HW1 9815   6.534   5.049   6.133
 2972SOL    HW2 9816   6.527   4.891   6.174
 2973SOL     OW 9817   5.301   1.129   4.188
 2973SOL    HW1 9818   5.338   1.219   4.166
 2973SOL    HW2 9819   5.316   1.110   4.285
 2974SOL     OW 9820   0.747   3.853   2.822
 2974SOL    HW1 9821   0.717   3.900   2.739
 2974SOL    HW2 9822   0.841   3.821   2.811
 2975SOL     OW 9823   0.865   2.462   5.015
 2975SOL    HW1 9824   0.955   2.427   4.988
 2975SOL    HW2 9825   0.794   2.407   4.971
 2976SOL     OW 9826   4.177   1.634   2.566
 2976SOL    HW1 9827   4.266   1.659   2.604
 2976SOL    HW2 9828   4.184   1.548   2.516
 2977SOL     OW 9829   1.819   7.005   4.182
 2977SOL    HW1 9830   1.883   6.954   4.125
 2977SOL    HW2 9831   1.769   6.942   4.242
 2978SOL     OW 9832   3.990   4.934   6.676
 2978SOL    HW1 9833   3.996   5.008   6.742
 2978SOL    HW2 9834   4.001   4.846   6.723
 2979SOL     OW 9835   4.997   6.847   4.365
 2979SOL    HW1 9836   5.080   6.867   4.313
 2979SOL    HW2 9837   4.917   6.859   4.306
 2980SOL     OW 9838   1.404   6.242   3.668
 2980SOL    HW1 9839   1.368   6.258   3.760
 2980SOL    HW2 9840   1.349   6.292   3.602
 2981SOL     OW 9841   0.587   0.716   5.817
 2981SOL    HW1 9842   0.606   0.659   5.897
 2981SOL    HW2 9843   0.649   0.692   5.743
 2982SOL     OW 9844   4.887   6.199   3.257
 2982SOL    HW1 9845   4.870   6.215   3.161
 2982SOL    HW2 9846   4.935   6.111   3.268
 2983SOL     OW 9847   0.632   1.585   4.349
 2983SOL    HW1 9848   0.644   1.685   4.347
 2983SOL    HW2 9849   0.643   1.548   4.257
 2984SOL     OW 9850   5.054   5.713   1.709
 2984SOL    HW1 9851   5.045   5.629   1.763
 2984SOL    HW2 9852   5.002   5.786   1.753
 2985SOL     OW 9853   0.891   2.737   4.898
 2985SOL    HW1 9854   0.872   2.671   4.971
 2985SOL    HW2 9855   0.837   2.715   4.817
 2986SOL     OW 9856   2.205   3.554   6.143
 2986SOL    HW1 9857   2.266   3.510   6.209
 2986SOL    HW2 9858   2.114   3.513   6.149
 2987SOL     OW 9859   5.026   0.778   3.490
 2987SOL    HW1 9860   5.003   0.816   3.580
 2987SOL    HW2 9861   5.118   0.740   3.492
 2988SOL     OW 9862   0.318   6.791   3.148
 2988SOL    HW1 9863   0.292   6.803   3.244
 2988SOL    HW2 9864   0.274   6.709   3.112
 2989SOL     OW 9865   6.603   5.934   0.313
 2989SOL    HW1 9866   6.583   5.937   0.215
 2989SOL    HW2 9867   6.702   5.939   0.327
 2990SOL     OW 9868   4.346   1.518   3.390
 2990SOL    HW1 9869   4.329   1.422   3.368
 2990SOL    HW2 9870   4.376   1.567   3.308
 2991SOL     OW 9871   6.474   4.273   0.168
 2991SOL    HW1 9872   6.424   4.264   0.254
 2991SOL    HW2 9873   6.538   4.350   0.175
 2992SOL     OW 9874   2.514   5.155   5.856
 2992SOL    HW1 9875   2.495   5.161   5.758
 2992SOL    HW2 9876   2.496   5.062   5.887
 2993SOL     OW 9877   0.958   5.124   1.832
 2993SOL    HW1 9878   0.948   5.089   1.739
 2993SOL    HW2 9879   0.880   5.183   1.854
 2994SOL     OW 9880   4.156   0.299   0.778
 2994SOL    HW1 9881   4.106   0.222   0.817
 2994SOL    HW2 9882   4.246   0.306   0.823
 2995SOL     OW 9883   1.407   3.550   6.837
 2995SOL    HW1 9884   1.375   3.645   6.835
 2995SOL    HW2 9885   1.383   3.508   6.924
 2996SOL     OW 9886   2.477   6.050   3.643
 2996SOL    HW1 9887   2.418   5.973   3.618
 2996SOL    HW2 9888   2.424   6.135   3.638
 2997SOL     OW 9889   4.728   6.941   1.756
 2997SOL    HW1 9890   4.726   6.916   1.659
 2997SOL    HW2 9891   4.817   6.916   1.795
 2998SOL     OW 9892   5.582   6.539   4.962
 2998SOL    HW1 9893   5.590   6.638   4.953
 2998SOL    HW2 9894   5.613   6.510   5.052
 2999SOL     OW 9895   3.143   5.087   3.676
 2999SOL    HW1 9896   3.097   5.164   3.631
 2999SOL    HW2 9897   3.201   5.121   3.749
 3000SOL     OW 9898   1.693   3.753   6.956
 3000SOL    HW1 9899   1.791   3.736   6.966
 3000SOL    HW2 9900   1.664   3.821   0.004
 3001SOL     OW 9901   5.286   0.023   6.534
 3001SOL    HW1 9902   5.343   0.069   6.467
 3001SOL    HW2 9903   5.304   0.061   6.625
 3002SOL     OW 9904   4.561   0.378   5.765
 3002SOL    HW1 9905   4.594   0.334   5.682
 3002SOL    HW2 9906   4.637   0.421   5.812
 3003SOL     OW 9907   2.678   6.826   6.621
 3003SOL    HW1 9908   2.702   6.754   6.556
 3003SOL    HW2 9909   2.601   6.796   6.677
 3004SOL     OW 9910   1.016   5.085   3.779
 3004SOL    HW1 9911   1.094   5.137   3.743
 3004SOL    HW2 9912   0.976   5.135   3.856
 3005SOL     OW 9913   3.521   2.464   0.182
 3005SOL    HW1 9914   3.566   2.442   0.096
 3005SOL    HW2 9915   3.507   2.381   0.235
 3006SOL     OW 9916   6.209   1.999   6.672
 3006SOL    HW1 9917   6.144   2.072   6.694
 3006SOL    HW2 9918   6.206   1.982   6.573
 3007SOL     OW 9919   6.173   4.962   2.313
 3007SOL    HW1 9920   6.129   4.961   2.403
 3007SOL    HW2 9921   6.250   4.897   2.313
 3008SOL     OW 9922   3.465   0.390   6.422
 3008SOL    HW1 9923   3.369   0.365   6.411
 3008SOL    HW2 9924   3.483   0.477   6.376
 3009SOL     OW 9925   0.425   6.371   2.806
 3009SOL    HW1 9926   0.410   6.424   2.723
 3009SOL    HW2 9927   0.389   6.278   2.794
 3010SOL     OW 9928   3.629   6.595   3.110
 3010SOL    HW1 9929   3.535   6.620   3.088
 3010SOL    HW2 9930   3.672   6.668   3.163
 3011SOL     OW 9931   5.999   1.447   0.274
 3011SOL    HW1 9932   5.933   1.521   0.289
 3011SOL    HW2 9933   5.998   1.386   0.353
 3012SOL     OW 9934   1.329   3.547   5.356
 3012SOL    HW1 9935   1.297   3.564   5.262
 3012SOL    HW2 9936   1.318   3.630   5.410
 3013SOL     OW 9937   5.843   5.251   4.523
 3013SOL    HW1 9938   5.798   5.321   4.468
 3013SOL    HW2 9939   5.807   5.255   4.617
 3014SOL     OW 9940   5.214   3.022   4.137
 3014SOL    HW1 9941   5.176   3.106   4.177
 3014SOL    HW2 9942   5.273   2.977   4.205
 3015SOL     OW 9943   3.001   2.270   0.241
 3015SOL    HW1 9944   2.982   2.333   0.166
 3015SOL    HW2 9945   3.091   2.227   0.227
 3016SOL     OW 9946   3.051   6.350   3.539
 3016SOL    HW1 9947   3.016   6.391   3.624
 3016SOL    HW2 9948   2.975   6.334   3.476
 3017SOL     OW 9949   0.733   5.264   1.817
 3017SOL    HW1 9950   0.660   5.217   1.867
 3017SOL    HW2 9951   0.737   5.229   1.723
 3018SOL     OW 9952   2.795   6.879   4.907
 3018SOL    HW1 9953   2.802   6.893   5.005
 3018SOL    HW2 9954   2.746   6.956   4.866
 3019SOL     OW 9955   1.813   6.985   0.597
 3019SOL    HW1 9956   1.788   6.954   0.689
 3019SOL    HW2 9957   1.778   6.922   0.529
 3020SOL     OW 9958   3.805   4.314   1.705
 3020SOL    HW1 9959   3.891   4.282   1.664
 3020SOL    HW2 9960   3.797   4.413   1.692
 3021SOL     OW 9961   3.003   1.172   6.711
 3021SOL    HW1 9962   2.930   1.174   6.779
 3021SOL    HW2 9963   3.092   1.178   6.757
 3022SOL     OW 9964   3.507   5.983   3.105
 3022SOL    HW1 9965   3.453   6.032   3.037
 3022SOL    HW2 9966   3.470   5.891   3.117
 3023SOL     OW 9967   4.632   6.652   2.503
 3023SOL    HW1 9968   4.623   6.752   2.506
 3023SOL    HW2 9969   4.571   6.616   2.433
 3024SOL     OW 9970   4.407   6.943   5.793
 3024SOL    HW1 9971   4.361   6.999   5.862
 3024SOL    HW2 9972   4.341   6.916   5.723
 3025SOL     OW 9973   3.457   1.899   0.058
 3025SOL    HW1 9974   3.445   1.896   6.978
 3025SOL    HW2 9975   3.489   1.990   0.085
 3026SOL     OW 9976   2.115   2.143   0.359
 3026SOL    HW1 9977   2.089   2.080   0.432
 3026SOL    HW2 9978   2.032   2.175   0.312
 3027SOL     OW 9979   4.632   0.819   1.959
 3027SOL    HW1 9980   4.574   0.894   1.992
 3027SOL    HW2 9981   4.650   0.755   2.033
 3028SOL     OW 9982   1.706   3.467   5.958
 3028SOL    HW1 9983   1.752   3.399   5.901
 3028SOL    HW2 9984   1.769   3.541   5.979
 3029SOL     OW 9985   0.257   4.822   5.048
 3029SOL    HW1 9986   0.354   4.797   5.042
 3029SOL    HW2 9987   0.249   4.914   5.086
 3030SOL     OW 9988   0.653   2.375   6.097
 3030SOL    HW1 9989   0.573   2.315   6.099
 3030SOL    HW2 9990   0.736   2.320   6.094
 3031SOL     OW 9991   0.195   3.450   0.624
 3031SOL    HW1 9992   0.207   3.434   0.526
 3031SOL    HW2 9993   0.122   3.390   0.658
 3032SOL     OW 9994   4.296   6.585   0.743
 3032SOL    HW1 9995   4.196   6.583   0.738
 3032SOL    HW2 9996   4.332   6.646   0.673
 3033SOL     OW 9997   0.985   2.532   1.603
 3033SOL    HW1 9998   0.962   2.611   1.545
 3033SOL    HW2 9999   1.058   2.479   1.559
 3034SOL     OW10000   2.020   5.586   3.286
 3034SOL    HW110001   1.949   5.653   3.304
 3034SOL    HW210002   2.084   5.622   3.219
 3035SOL     OW10003   6.636   2.986   0.299
 3035SOL    HW110004   6.581   2.949   0.373
 3035SOL    HW210005   6.643   3.085   0.309
 3036SOL     OW10006   1.322   3.181   6.535
 3036SOL    HW110007   1.302   3.219   6.445
 3036SOL    HW210008   1.389   3.108   6.526
 3037SOL     OW10009   6.596   5.490   4.036
 3037SOL    HW110010   6.548   5.440   3.964
 3037SOL    HW210011   6.603   5.587   4.011
 3038SOL     OW10012   5.876   6.829   6.544
 3038SOL    HW110013   5.811   6.762   6.581
 3038SOL    HW210014   5.843   6.863   6.456
 3039SOL     OW10015   6.679   3.944   2.462
 3039SOL    HW110016   6.770   3.937   2.423
 3039SOL    HW210017   6.612   3.957   2.389
 3040SOL     OW10018   4.993   3.444   6.192
 3040SOL    HW110019   5.068   3.381   6.211
 3040SOL    HW210020   4.941   3.459   6.276
 3041SOL     OW10021   2.054   2.833   5.414
 3041SOL    HW110022   2.091   2.887   5.490
 3041SOL    HW210023   2.125   2.817   5.346
 3042SOL     OW10024   5.671   6.775   1.624
 3042SOL    HW110025   5.761   6.818   1.619
 3042SOL    HW210026   5.673   6.699   1.688
 3043SOL     OW10027   0.771   5.038   1.032
 3043SOL    HW110028   0.840   5.111   1.022
 3043SOL    HW210029   0.754   4.997   0.942
 3044SOL     OW10030   3.094   5.067   6.114
 3044SOL    HW110031   3.006   5.091   6.072
 3044SOL    HW210032   3.131   4.986   6.070
 3045SOL     OW10033   4.858   0.623   3.084
 3045SOL    HW110034   4.894   0.700   3.137
 3045SOL    HW210035   4.781   0.653   3.029
 3046SOL     OW10036   3.129   1.933   6.480
 3046SOL    HW110037   3.031   1.913   6.483
 3046SOL    HW210038   3.180   1.847   6.474
 3047SOL     OW10039   5.555   6.751   2.590
 3047SOL    HW110040   5.522   6.722   2.680
 3047SOL    HW210041   5.543   6.850   2.580
 3048SOL     OW10042   3.997   3.051   1.651
 3048SOL    HW110043   4.052   3.022   1.573
 3048SOL    HW210044   4.053   3.050   1.733
 3049SOL     OW10045   1.425   6.216   1.358
 3049SOL    HW110046   1.460   6.222   1.451
 3049SOL    HW210047   1.345   6.155   1.357
 3050SOL     OW10048   3.240   0.945   3.052
 3050SOL    HW110049   3.287   1.001   2.983
 3050SOL    HW210050   3.167   1.000   3.094
 3051SOL     OW10051   2.237   3.702   0.327
 3051SOL    HW110052   2.278   3.792   0.311
 3051SOL    HW210053   2.227   3.687   0.425
 3052SOL     OW10054   4.203   0.726   2.261
 3052SOL    HW110055   4.197   0.805   2.323
 3052SOL    HW210056   4.120   0.672   2.268
 3053SOL     OW10057   6.908   0.733   6.706
 3053SOL    HW110058   6.987   0.784   6.740
 3053SOL    HW210059   6.937   0.642   6.676
 3054SOL     OW10060   0.356   2.518   1.179
 3054SOL    HW110061   0.311   2.582   1.116
 3054SOL    HW210062   0.442   2.558   1.210
 3055SOL     OW10063   4.427   6.856   3.860
 3055SOL    HW110064   4.337   6.895   3.840
 3055SOL    HW210065   4.498   6.917   3.822
 3056SOL     OW10066   6.902   1.085   6.068
 3056SOL    HW110067   6.986   1.060   6.115
 3056SOL    HW210068   6.914   1.173   6.022
 3057SOL     OW10069   3.879   5.659   2.919
 3057SOL    HW110070   3.887   5.565   2.950
 3057SOL    HW210071   3.963   5.709   2.939
 3058SOL     OW10072   6.871   5.530   1.266
 3058SOL    HW110073   6.913   5.486   1.187
 3058SOL    HW210074   6.887   5.629   1.262
 3059SOL     OW10075   2.304   2.218   5.064
 3059SOL    HW110076   2.274   2.311   5.044
 3059SOL    HW210077   2.402   2.209   5.043
 3060SOL     OW10078   0.480   6.567   0.589
 3060SOL    HW110079   0.499   6.622   0.508
 3060SOL    HW210080   0.390   6.524   0.580
 3061SOL     OW10081   6.462   0.989   5.034
 3061SOL    HW110082   6.477   0.996   4.935
 3061SOL    HW210083   6.432   1.077   5.070
 3062SOL     OW10084   1.393   6.711   6.644
 3062SOL    HW110085   1.371   6.793   6.591
 3062SOL    HW210086   1.449   6.649   6.588
 3063SOL     OW10087   2.880   5.337   1.486
 3063SOL    HW110088   2.902   5.287   1.569
 3063SOL    HW210089   2.826   5.279   1.425
 3064SOL     OW10090   5.488   3.551   3.808
 3064SOL    HW110091   5.473   3.645   3.778
 3064SOL    HW210092   5.584   3.527   3.798
 3065SOL     OW10093   2.142   0.992   6.729
 3065SOL    HW110094   2.231   0.980   6.684
 3065SOL    HW210095   2.100   0.903   6.744
 3066SOL     OW10096   5.066   4.774   0.847
 3066SOL    HW110097   5.064   4.861   0.896
 3066SOL    HW210098   5.108   4.704   0.905
 3067SOL     OW10099   3.877   2.065   4.396
 3067SOL    HW110100   3.837   1.979   4.364
 3067SOL    HW210101   3.892   2.060   4.494
 3068SOL     OW10102   5.442   5.832   0.601
 3068SOL    HW110103   5.470   5.918   0.559
 3068SOL    HW210104   5.371   5.850   0.669
 3069SOL     OW10105   6.707   6.163   2.049
 3069SOL    HW110106   6.714   6.192   1.954
 3069SOL    HW210107   6.748   6.232   2.109
 3070SOL     OW10108   1.661   1.207   2.457
 3070SOL    HW110109   1.683   1.237   2.364
 3070SOL    HW210110   1.662   1.108   2.462
 3071SOL     OW10111   5.641   6.363   3.361
 3071SOL    HW110112   5.585   6.445   3.351
 3071SOL    HW210113   5.725   6.386   3.411
 3072SOL     OW10114   0.629   6.312   1.003
 3072SOL    HW110115   0.621   6.308   0.904
 3072SOL    HW210116   0.576   6.389   1.038
 3073SOL     OW10117   1.133   3.296   5.320
 3073SOL    HW110118   1.091   3.385   5.335
 3073SOL    HW210119   1.133   3.244   5.406
 3074SOL     OW10120   6.023   2.599   0.920
 3074SOL    HW110121   5.985   2.628   1.008
 3074SOL    HW210122   6.114   2.561   0.935
 3075SOL     OW10123   1.848   6.917   1.438
 3075SOL    HW110124   1.938   6.962   1.437
 3075SOL    HW210125   1.837   6.867   1.524
 3076SOL     OW10126   6.782   1.560   4.620
 3076SOL    HW110127   6.716   1.598   4.555
 3076SOL    HW210128   6.807   1.630   4.687
 3077SOL     OW10129   5.175   5.516   2.654
 3077SOL    HW110130   5.185   5.419   2.677
 3077SOL    HW210131   5.265   5.554   2.632
 3078SOL     OW10132   2.000   3.532   1.255
 3078SOL    HW110133   2.081   3.491   1.297
 3078SOL    HW210134   2.004   3.520   1.156
 3079SOL     OW10135   2.603   2.137   4.282
 3079SOL    HW110136   2.610   2.120   4.381
 3079SOL    HW210137   2.674   2.202   4.254
 3080SOL     OW10138   5.489   4.575   2.892
 3080SOL    HW110139   5.407   4.519   2.900
 3080SOL    HW210140   5.549   4.557   2.969
 3081SOL     OW10141   0.370   3.536   6.197
 3081SOL    HW110142   0.334   3.525   6.104
 3081SOL    HW210143   0.452   3.594   6.194
 3082SOL     OW10144   3.393   6.701   3.538
 3082SOL    HW110145   3.341   6.773   3.491
 3082SOL    HW210146   3.469   6.671   3.480
 3083SOL     OW10147   4.117   6.511   3.522
 3083SOL    HW110148   4.205   6.532   3.565
 3083SOL    HW210149   4.046   6.509   3.591
 3084SOL     OW10150   4.810   4.210   4.855
 3084SOL    HW110151   4.888   4.156   4.821
 3084SOL    HW210152   4.813   4.301   4.813
 3085SOL     OW10153   0.443   5.038   2.172
 3085SOL    HW110154   0.482   5.080   2.254
 3085SOL    HW210155   0.401   4.951   2.196
 3086SOL     OW10156   4.332   1.677   1.886
 3086SOL    HW110157   4.244   1.644   1.922
 3086SOL    HW210158   4.315   1.747   1.817
 3087SOL     OW10159   0.445   5.167   4.232
 3087SOL    HW110160   0.477   5.078   4.201
 3087SOL    HW210161   0.487   5.189   4.320
 3088SOL     OW10162   2.453   4.913   5.966
 3088SOL    HW110163   2.518   4.908   6.042
 3088SOL    HW210164   2.449   4.824   5.920
 3089SOL     OW10165   0.511   2.762   0.740
 3089SOL    HW110166   0.556   2.774   0.651
 3089SOL    HW210167   0.546   2.679   0.784
 3090SOL     OW10168   2.065   2.018   2.110
 3090SOL    HW110169   1.988   2.081   2.113
 3090SOL    HW210170   2.129   2.040   2.184
 3091SOL     OW10171   2.437   6.366   0.068
 3091SOL    HW110172   2.376   6.445   0.056
 3091SOL    HW210173   2.416   6.297   7.018
 3092SOL     OW10174   4.835   6.920   0.133
 3092SOL    HW110175   4.780   6.918   0.217
 3092SOL    HW210176   4.807   6.846   0.073
 3093SOL     OW10177   5.200   5.190   5.993
 3093SOL    HW110178   5.250   5.249   6.057
 3093SOL    HW210179   5.260   5.165   5.917
 3094SOL     OW10180   3.369   6.705   4.190
 3094SOL    HW110181   3.397   6.621   4.238
 3094SOL    HW210182   3.368   6.781   4.254
 3095SOL     OW10183   3.028   5.458   4.178
 3095SOL    HW110184   3.017   5.413   4.266
 3095SOL    HW210185   3.110   5.423   4.133
 3096SOL     OW10186   0.613   0.413   4.552
 3096SOL    HW110187   0.651   0.504   4.534
 3096SOL    HW210188   0.662   0.345   4.498
 3097SOL     OW10189   0.457   2.329   1.030
 3097SOL    HW110190   0.488   2.261   1.096
 3097SOL    HW210191   0.438   2.415   1.078
 3098SOL     OW10192   2.525   3.700   1.139
 3098SOL    HW110193   2.474   3.614   1.129
 3098SOL    HW210194   2.552   3.711   1.235
 3099SOL     OW10195   6.898   5.616   5.169
 3099SOL    HW110196   6.918   5.585   5.076
 3099SOL    HW210197   6.807   5.584   5.196
 3100SOL     OW10198   6.528   6.934   4.590
 3100SOL    HW110199   6.483   6.962   4.674
 3100SOL    HW210200   6.509   7.000   4.518
 3101SOL     OW10201   5.153   5.883   5.457
 3101SOL    HW110202   5.071   5.940   5.454
 3101SOL    HW210203   5.198   5.884   5.368
 3102SOL     OW10204   0.492   5.152   3.132
 3102SOL    HW110205   0.426   5.097   3.079
 3102SOL    HW210206   0.570   5.094   3.158
 3103SOL     OW10207   3.332   1.535   1.332
 3103SOL    HW110208   3.396   1.601   1.293
 3103SOL    HW210209   3.380   1.474   1.396
 3104SOL     OW10210   5.987   6.584   4.833
 3104SOL    HW110211   5.993   6.535   4.746
 3104SOL    HW210212   5.984   6.519   4.908
 3105SOL     OW10213   6.795   4.423   2.391
 3105SOL    HW110214   6.751   4.342   2.349
 3105SOL    HW210215   6.724   4.485   2.424
 3106SOL     OW10216   6.689   1.100   3.054
 3106SOL    HW110217   6.709   1.033   3.126
 3106SOL    HW210218   6.671   1.189   3.095
 3107SOL     OW10219   4.076   0.718   3.847
 3107SOL    HW110220   4.018   0.769   3.783
 3107SOL    HW210221   4.018   0.665   3.909
 3108SOL     OW10222   1.653   0.418   4.299
 3108SOL    HW110223   1.589   0.342   4.315
 3108SOL    HW210224   1.622   0.471   4.220
 3109SOL     OW10225   5.322   5.678   2.961
 3109SOL    HW110226   5.410   5.696   3.004
 3109SOL    HW210227   5.327   5.701   2.864
 3110SOL     OW10228   0.703   2.142   3.681
 3110SOL    HW110229   0.768   2.217   3.665
 3110SOL    HW210230   0.648   2.127   3.599
 3111SOL     OW10231   6.304   5.694   3.781
 3111SOL    HW110232   6.303   5.715   3.879
 3111SOL    HW210233   6.371   5.752   3.735
 3112SOL     OW10234   5.084   2.942   6.366
 3112SOL    HW110235   5.053   2.892   6.447
 3112SOL    HW210236   5.015   2.933   6.294
 3113SOL     OW10237   1.944   6.746   4.597
 3113SOL    HW110238   1.994   6.832   4.592
 3113SOL    HW210239   1.847   6.762   4.579
 3114SOL     OW10240   4.626   3.217   6.896
 3114SOL    HW110241   4.528   3.196   6.900
 3114SOL    HW210242   4.678   3.140   6.934
 3115SOL     OW10243   4.706   3.452   6.976
 3115SOL    HW110244   4.710   3.431   0.055
 3115SOL    HW210245   4.708   3.368   6.923
 3116SOL     OW10246   6.896   3.780   6.975
 3116SOL    HW110247   6.865   3.711   6.909
 3116SOL    HW210248   6.841   3.772   0.040
 3117SOL     OW10249   4.504   3.643   5.318
 3117SOL    HW110250   4.499   3.575   5.391
 3117SOL    HW210251   4.575   3.616   5.253
 3118SOL     OW10252   0.428   4.919   0.227
 3118SOL    HW110253   0.380   4.867   0.157
 3118SOL    HW210254   0.362   4.977   0.275
 3119SOL     OW10255   1.799   3.446   5.452
 3119SOL    HW110256   1.712   3.402   5.428
 3119SOL    HW210257   1.781   3.537   5.488
 3120SOL     OW10258   2.368   6.712   4.270
 3120SOL    HW110259   2.387   6.739   4.364
 3120SOL    HW210260   2.269   6.706   4.257
 3121SOL     OW10261   0.787   1.897   2.639
 3121SOL    HW110262   0.871   1.952   2.635
 3121SOL    HW210263   0.809   1.802   2.617
 3122SOL     OW10264   2.693   5.869   6.080
 3122SOL    HW110265   2.670   5.880   6.177
 3122SOL    HW210266   2.704   5.959   6.038
 3123SOL     OW10267   3.398   6.885   3.778
 3123SOL    HW110268   3.311   6.895   3.826
 3123SOL    HW210269   3.385   6.825   3.698
 3124SOL     OW10270   4.247   0.007   4.441
 3124SOL    HW110271   4.233   6.931   4.414
 3124SOL    HW210272   4.334   0.040   4.404
 3125SOL     OW10273   6.327   1.894   6.005
 3125SOL    HW110274   6.346   1.924   5.912
 3125SOL    HW210275   6.256   1.951   6.045
 3126SOL     OW10276   4.881   4.646   6.698
 3126SOL    HW110277   4.962   4.673   6.750
 3126SOL    HW210278   4.908   4.624   6.604
 3127SOL     OW10279   1.149   2.497   3.252
 3127SOL    HW110280   1.197   2.564   3.197
 3127SOL    HW210281   1.166   2.405   3.215
 3128SOL     OW10282   2.568   0.159   6.756
 3128SOL    HW110283   2.622   0.217   6.695
 3128SOL    HW210284   2.512   0.097   6.701
 3129SOL     OW10285   1.575   4.319   6.234
 3129SOL    HW110286   1.572   4.372   6.319
 3129SOL    HW210287   1.670   4.311   6.203
 3130SOL     OW10288   1.952   4.217   1.799
 3130SOL    HW110289   1.857   4.236   1.775
 3130SOL    HW210290   1.995   4.163   1.727
 3131SOL     OW10291   0.700   2.536   1.604
 3131SOL    HW110292   0.677   2.634   1.602
 3131SOL    HW210293   0.799   2.525   1.601
 3132SOL     OW10294   4.938   5.350   5.904
 3132SOL    HW110295   4.867   5.279   5.904
 3132SOL    HW210296   5.024   5.310   5.936
 3133SOL     OW10297   3.253   2.179   3.680
 3133SOL    HW110298   3.351   2.196   3.669
 3133SOL    HW210299   3.209   2.177   3.590
 3134SOL     OW10300   5.055   4.578   1.361
 3134SOL    HW110301   5.016   4.601   1.451
 3134SOL    HW210302   5.010   4.634   1.291
 3135SOL     OW10303   4.913   1.549   5.110
 3135SOL    HW110304   4.865   1.551   5.022
 3135SOL    HW210305   4.908   1.458   5.149
 3136SOL     OW10306   6.137   0.392   6.516
 3136SOL    HW110307   6.166   0.442   6.597
 3136SOL    HW210308   6.056   0.435   6.476
 3137SOL     OW10309   5.883   0.389   3.490
 3137SOL    HW110310   5.874   0.325   3.415
 3137SOL    HW210311   5.849   0.479   3.462
 3138SOL     OW10312   6.591   2.236   4.049
 3138SOL    HW110313   6.555   2.295   3.977
 3138SOL    HW210314   6.609   2.145   4.011
 3139SOL     OW10315   4.409   0.243   6.557
 3139SOL    HW110316   4.402   0.217   6.461
 3139SOL    HW210317   4.439   0.338   6.564
 3140SOL     OW10318   6.203   6.906   6.350
 3140SOL    HW110319   6.237   6.833   6.410
 3140SOL    HW210320   6.195   6.991   6.403
 3141SOL     OW10321   0.972   6.885   6.068
 3141SOL    HW110322   0.888   6.908   6.116
 3141SOL    HW210323   1.050   6.903   6.127
 3142SOL     OW10324   5.000   5.832   1.179
 3142SOL    HW110325   5.055   5.790   1.251
 3142SOL    HW210326   4.903   5.819   1.198
 3143SOL     OW10327   0.217   2.612   6.849
 3143SOL    HW110328   0.316   2.619   6.838
 3143SOL    HW210329   0.190   2.657   6.934
 3144SOL     OW10330   2.784   4.036   1.198
 3144SOL    HW110331   2.738   4.114   1.155
 3144SOL    HW210332   2.877   4.063   1.225
 3145SOL     OW10333   2.234   4.984   2.668
 3145SOL    HW110334   2.283   4.942   2.745
 3145SOL    HW210335   2.214   4.914   2.600
 3146SOL     OW10336   1.310   6.898   3.316
 3146SOL    HW110337   1.401   6.924   3.284
 3146SOL    HW210338   1.303   6.916   3.414
 3147SOL     OW10339   4.314   5.395   6.570
 3147SOL    HW110340   4.337   5.298   6.584
 3147SOL    HW210341   4.393   5.442   6.531
 3148SOL     OW10342   4.584   5.319   4.521
 3148SOL    HW110343   4.490   5.353   4.517
 3148SOL    HW210344   4.597   5.252   4.449
 3149SOL     OW10345   3.265   0.462   5.413
 3149SOL    HW110346   3.231   0.432   5.324
 3149SOL    HW210347   3.268   0.562   5.415
 3150SOL     OW10348   5.555   5.272   4.064
 3150SOL    HW110349   5.464   5.295   4.028
 3150SOL    HW210350   5.621   5.270   3.988
 3151SOL     OW10351   3.973   0.868   0.097
 3151SOL    HW110352   3.908   0.909   0.034
 3151SOL    HW210353   3.928   0.851   0.185
 3152SOL     OW10354   1.323   5.224   1.419
 3152SOL    HW110355   1.305   5.140   1.470
 3152SOL    HW210356   1.299   5.210   1.323
 3153SOL     OW10357   6.365   3.985   1.987
 3153SOL    HW110358   6.451   4.008   1.941
 3153SOL    HW210359   6.382   3.915   2.057
 3154SOL     OW10360   5.890   1.668   0.581
 3154SOL    HW110361   5.831   1.609   0.525
 3154SOL    HW210362   5.838   1.703   0.659
 3155SOL     OW10363   6.936   5.459   1.550
 3155SOL    HW110364   6.917   5.485   1.455
 3155SOL    HW210365   6.873   5.507   1.611
 3156SOL     OW10366   3.890   3.103   3.959
 3156SOL    HW110367   3.856   3.054   4.040
 3156SOL    HW210368   3.989   3.110   3.963
 3157SOL     OW10369   1.916   2.991   4.723
 3157SOL    HW110370   1.904   2.999   4.822
 3157SOL    HW210371   2.008   3.023   4.699
 3158SOL     OW10372   4.519   0.372   1.169
 3158SOL    HW110373   4.608   0.403   1.203
 3158SOL    HW210374   4.460   0.451   1.154
 3159SOL     OW10375   5.442   0.211   0.057
 3159SOL    HW110376   5.361   0.161   0.087
 3159SOL    HW210377   5.423   0.256   6.988
 3160SOL     OW10378   6.331   5.616   5.817
 3160SOL    HW110379   6.262   5.604   5.888
 3160SOL    HW210380   6.386   5.533   5.809
 3161SOL     OW10381   1.078   1.678   2.750
 3161SOL    HW110382   1.116   1.768   2.770
 3161SOL    HW210383   1.152   1.613   2.734
 3162SOL     OW10384   0.351   5.595   0.205
 3162SOL    HW110385   0.363   5.523   0.136
 3162SOL    HW210386   0.374   5.684   0.165
 3163SOL     OW10387   3.436   2.314   6.623
 3163SOL    HW110388   3.369   2.336   6.694
 3163SOL    HW210389   3.528   2.314   6.662
 3164SOL     OW10390   4.365   4.096   1.554
 3164SOL    HW110391   4.343   4.104   1.651
 3164SOL    HW210392   4.320   4.015   1.516
 3165SOL     OW10393   0.856   6.500   1.836
 3165SOL    HW110394   0.937   6.498   1.778
 3165SOL    HW210395   0.815   6.591   1.832
 3166SOL     OW10396   4.449   2.518   6.518
 3166SOL    HW110397   4.529   2.516   6.578
 3166SOL    HW210398   4.478   2.524   6.423
 3167SOL     OW10399   0.033   4.790   2.034
 3167SOL    HW110400   0.068   4.768   1.943
 3167SOL    HW210401   6.980   4.725   2.058
 3168SOL     OW10402   5.066   2.689   0.491
 3168SOL    HW110403   5.022   2.740   0.564
 3168SOL    HW210404   5.038   2.593   0.496
 3169SOL     OW10405   0.506   3.201   6.112
 3169SOL    HW110406   0.590   3.254   6.098
 3169SOL    HW210407   0.450   3.245   6.183
 3170SOL     OW10408   4.226   0.197   6.910
 3170SOL    HW110409   4.262   0.104   6.918
 3170SOL    HW210410   4.216   0.237   7.001
 3171SOL     OW10411   6.871   6.634   1.071
 3171SOL    HW110412   6.931   6.554   1.068
 3171SOL    HW210413   6.854   6.659   1.166
 3172SOL     OW10414   0.553   5.893   5.332
 3172SOL    HW110415   0.600   5.956   5.393
 3172SOL    HW210416   0.600   5.805   5.331
 3173SOL     OW10417   2.894   1.477   1.494
 3173SOL    HW110418   2.796   1.490   1.502
 3173SOL    HW210419   2.929   1.530   1.416
 3174SOL     OW10420   2.537   2.965   6.623
 3174SOL    HW110421   2.609   3.026   6.655
 3174SOL    HW210422   2.477   3.015   6.560
 3175SOL     OW10423   0.367   6.439   6.496
 3175SOL    HW110424   0.380   6.393   6.408
 3175SOL    HW210425   0.318   6.378   6.559
 3176SOL     OW10426   1.847   5.121   4.805
 3176SOL    HW110427   1.776   5.164   4.748
 3176SOL    HW210428   1.824   5.134   4.902
 3177SOL     OW10429   5.402   5.456   5.459
 3177SOL    HW110430   5.327   5.408   5.505
 3177SOL    HW210431   5.487   5.403   5.470
 3178SOL     OW10432   0.122   3.308   1.171
 3178SOL    HW110433   0.207   3.292   1.120
 3178SOL    HW210434   0.140   3.300   1.269
 3179SOL     OW10435   2.337   2.391   1.657
 3179SOL    HW110436   2.407   2.452   1.619
 3179SOL    HW210437   2.329   2.309   1.600
 3180SOL     OW10438   4.063   0.404   6.299
 3180SOL    HW110439   3.983   0.423   6.242
 3180SOL    HW210440   4.047   0.320   6.352
 3181SOL     OW10441   0.362   0.060   3.226
 3181SOL    HW110442   0.408   0.130   3.172
 3181SOL    HW210443   0.427   7.006   3.250
 3182SOL     OW10444   0.817   0.856   5.135
 3182SOL    HW110445   0.773   0.767   5.148
 3182SOL    HW210446   0.754   0.929   5.162
 3183SOL     OW10447   4.591   3.926   1.482
 3183SOL    HW110448   4.503   3.960   1.450
 3183SOL    HW210449   4.625   3.986   1.555
 3184SOL     OW10450   2.897   2.196   2.262
 3184SOL    HW110451   2.843   2.112   2.253
 3184SOL    HW210452   2.932   2.223   2.173
 3185SOL     OW10453   6.079   0.646   6.169
 3185SOL    HW110454   6.123   0.680   6.252
 3185SOL    HW210455   6.126   0.563   6.139
 3186SOL     OW10456   3.032   1.374   3.251
 3186SOL    HW110457   2.949   1.333   3.289
 3186SOL    HW210458   3.012   1.413   3.161
 3187SOL     OW10459   3.884   4.348   0.093
 3187SOL    HW110460   3.861   4.269   0.150
 3187SOL    HW210461   3.805   4.410   0.090
 3188SOL     OW10462   3.722   6.372   3.193
 3188SOL    HW110463   3.695   6.458   3.150
 3188SOL    HW210464   3.646   6.339   3.250
 3189SOL     OW10465   2.317   1.490   3.178
 3189SOL    HW110466   2.231   1.515   3.222
 3189SOL    HW210467   2.370   1.431   3.239
 3190SOL     OW10468   1.324   6.737   1.445
 3190SOL    HW110469   1.315   6.640   1.424
 3190SOL    HW210470   1.353   6.787   1.364
 3191SOL     OW10471   3.351   0.208   1.357
 3191SOL    HW110472   3.335   0.228   1.454
 3191SOL    HW210473   3.350   0.294   1.305
 3192SOL     OW10474   0.550   2.014   0.835
 3192SOL    HW110475   0.615   1.938   0.831
 3192SOL    HW210476   0.462   1.982   0.871
 3193SOL     OW10477   4.116   2.621   6.385
 3193SOL    HW110478   4.054   2.554   6.343
 3193SOL    HW210479   4.191   2.573   6.430
 3194SOL     OW10480   1.397   2.778   6.661
 3194SOL    HW110481   1.457   2.713   6.614
 3194SOL    HW210482   1.447   2.863   6.677
 3195SOL     OW10483   2.040   2.573   3.519
 3195SOL    HW110484   2.105   2.535   3.453
 3195SOL    HW210485   2.036   2.672   3.509
 3196SOL     OW10486   6.940   0.406   5.243
 3196SOL    HW110487   6.866   0.421   5.308
 3196SOL    HW210488   6.902   0.377   5.155
 3197SOL     OW10489   1.315   5.847   2.830
 3197SOL    HW110490   1.355   5.842   2.739
 3197SOL    HW210491   1.216   5.840   2.823
 3198SOL     OW10492   6.757   2.087   6.839
 3198SOL    HW110493   6.817   2.016   6.804
 3198SOL    HW210494   6.796   2.177   6.818
 3199SOL     OW10495   4.546   2.563   1.737
 3199SOL    HW110496   4.608   2.641   1.727
 3199SOL    HW210497   4.526   2.549   1.834
 3200SOL     OW10498   0.186   2.593   1.385
 3200SOL    HW110499   0.201   2.682   1.429
 3200SOL    HW210500   0.257   2.577   1.317
 3201SOL     OW10501   5.170   3.810   3.807
 3201SOL    HW110502   5.102   3.802   3.734
 3201SOL    HW210503   5.127   3.848   3.888
 3202SOL     OW10504   1.957   4.318   2.514
 3202SOL    HW110505   1.993   4.373   2.590
 3202SOL    HW210506   1.861   4.342   2.498
 3203SOL     OW10507   5.697   0.959   0.674
 3203SOL    HW110508   5.612   0.921   0.712
 3203SOL    HW210509   5.774   0.904   0.706
 3204SOL     OW10510   5.729   5.945   1.806
 3204SOL    HW110511   5.685   6.006   1.740
 3204SOL    HW210512   5.804   5.993   1.852
 3205SOL     OW10513   6.796   4.617   0.080
 3205SOL    HW110514   6.829   4.529   0.046
 3205SOL    HW210515   6.873   4.679   0.093
 3206SOL     OW10516   0.023   0.224   5.997
 3206SOL    HW110517   0.016   0.322   5.984
 3206SOL    HW210518   0.114   0.201   6.032
 3207SOL     OW10519   0.049   1.271   5.654
 3207SOL    HW110520   7.011   1.238   5.579
 3207SOL    HW210521   0.062   1.370   5.645
 3208SOL     OW10522   4.372   6.179   5.110
 3208SOL    HW110523   4.472   6.175   5.102
 3208SOL    HW210524   4.337   6.089   5.134
 3209SOL     OW10525   3.113   6.903   3.809
 3209SOL    HW110526   3.116   6.823   3.750
 3209SOL    HW210527   3.091   6.984   3.755
 3210SOL     OW10528   0.032   3.365   2.362
 3210SOL    HW110529   0.080   3.404   2.284
 3210SOL    HW210530   0.011   3.269   2.344
 3211SOL     OW10531   2.098   4.703   0.347
 3211SOL    HW110532   2.105   4.605   0.331
 3211SOL    HW210533   2.190   4.744   0.344
 3212SOL     OW10534   4.459   1.752   6.623
 3212SOL    HW110535   4.427   1.786   6.535
 3212SOL    HW210536   4.380   1.739   6.684
 3213SOL     OW10537   5.975   4.997   2.769
 3213SOL    HW110538   5.951   4.989   2.672
 3213SOL    HW210539   6.063   5.043   2.779
 3214SOL     OW10540   4.670   6.009   7.010
 3214SOL    HW110541   4.575   5.986   6.989
 3214SOL    HW210542   4.674   6.096   0.039
 3215SOL     OW10543   6.451   2.920   0.724
 3215SOL    HW110544   6.542   2.891   0.695
 3215SOL    HW210545   6.383   2.850   0.700
 3216SOL     OW10546   5.613   5.789   2.932
 3216SOL    HW110547   5.674   5.710   2.932
 3216SOL    HW210548   5.613   5.832   3.022
 3217SOL     OW10549   1.163   4.195   3.398
 3217SOL    HW110550   1.259   4.205   3.424
 3217SOL    HW210551   1.146   4.101   3.368
 3218SOL     OW10552   4.177   6.983   3.518
 3218SOL    HW110553   4.175   6.953   3.614
 3218SOL    HW210554   4.169   6.903   3.459
 3219SOL     OW10555   6.910   0.436   3.441
 3219SOL    HW110556   6.931   0.476   3.531
 3219SOL    HW210557   6.951   0.493   3.369
 3220SOL     OW10558   6.623   4.783   5.572
 3220SOL    HW110559   6.572   4.868   5.566
 3220SOL    HW210560   6.704   4.789   5.513
 3221SOL     OW10561   2.705   6.153   2.422
 3221SOL    HW110562   2.641   6.213   2.469
 3221SOL    HW210563   2.657   6.102   2.351
 3222SOL     OW10564   5.361   2.179   3.091
 3222SOL    HW110565   5.391   2.182   3.187
 3222SOL    HW210566   5.394   2.260   3.043
 3223SOL     OW10567   2.733   5.349   6.853
 3223SOL    HW110568   2.677   5.275   6.816
 3223SOL    HW210569   2.694   5.437   6.827
 3224SOL     OW10570   4.662   5.148   6.150
 3224SOL    HW110571   4.682   5.147   6.052
 3224SOL    HW210572   4.638   5.056   6.180
 3225SOL     OW10573   4.626   2.898   6.429
 3225SOL    HW110574   4.679   2.876   6.512
 3225SOL    HW210575   4.689   2.907   6.352
 3226SOL     OW10576   2.126   1.099   4.461
 3226SOL    HW110577   2.142   1.061   4.553
 3226SOL    HW210578   2.055   1.170   4.466
 3227SOL     OW10579   3.227   2.057   6.712
 3227SOL    HW110580   3.142   2.022   6.673
 3227SOL    HW210581   3.272   2.117   6.645
 3228SOL     OW10582   5.484   3.311   4.183
 3228SOL    HW110583   5.555   3.241   4.192
 3228SOL    HW210584   5.418   3.301   4.257
 3229SOL     OW10585   3.300   1.619   5.530
 3229SOL    HW110586   3.203   1.623   5.553
 3229SOL    HW210587   3.326   1.705   5.485
 3230SOL     OW10588   0.487   1.691   3.281
 3230SOL    HW110589   0.430   1.697   3.199
 3230SOL    HW210590   0.433   1.720   3.360
 3231SOL     OW10591   4.718   6.188   1.750
 3231SOL    HW110592   4.810   6.156   1.776
 3231SOL    HW210593   4.680   6.125   1.682
 3232SOL     OW10594   4.254   5.007   5.132
 3232SOL    HW110595   4.315   5.087   5.132
 3232SOL    HW210596   4.308   4.924   5.122
 3233SOL     OW10597   0.786   4.351   0.916
 3233SOL    HW110598   0.821   4.262   0.945
 3233SOL    HW210599   0.837   4.383   0.836
 3234SOL     OW10600   6.989   2.649   0.317
 3234SOL    HW110601   6.996   2.553   0.346
 3234SOL    HW210602   6.905   2.689   0.354
 3235SOL     OW10603   6.334   5.873   2.894
 3235SOL    HW110604   6.242   5.902   2.922
 3235SOL    HW210605   6.402   5.921   2.949
 3236SOL     OW10606   1.766   3.321   1.952
 3236SOL    HW110607   1.805   3.317   2.044
 3236SOL    HW210608   1.793   3.407   1.908
 3237SOL     OW10609   4.572   0.013   4.451
 3237SOL    HW110610   4.605   0.018   4.545
 3237SOL    HW210611   4.586   0.102   4.406
 3238SOL     OW10612   0.621   5.788   6.737
 3238SOL    HW110613   0.614   5.859   6.667
 3238SOL    HW210614   0.691   5.814   6.804
 3239SOL     OW10615   5.943   1.005   0.255
 3239SOL    HW110616   5.879   0.955   0.314
 3239SOL    HW210617   5.935   0.970   0.161
 3240SOL     OW10618   0.125   6.948   4.749
 3240SOL    HW110619   0.219   6.948   4.714
 3240SOL    HW210620   0.124   6.988   4.840
 3241SOL     OW10621   5.018   1.404   4.252
 3241SOL    HW110622   4.941   1.396   4.316
 3241SOL    HW210623   5.030   1.317   4.204
 3242SOL     OW10624   3.436   5.102   0.325
 3242SOL    HW110625   3.454   5.128   0.230
 3242SOL    HW210626   3.358   5.039   0.329
 3243SOL     OW10627   5.230   4.948   6.983
 3243SOL    HW110628   5.158   5.014   6.962
 3243SOL    HW210629   5.318   4.984   6.952
 3244SOL     OW10630   5.441   6.048   5.575
 3244SOL    HW110631   5.408   5.956   5.597
 3244SOL    HW210632   5.480   6.090   5.657
 3245SOL     OW10633   3.905   2.928   6.262
 3245SOL    HW110634   3.951   3.003   6.309
 3245SOL    HW210635   3.906   2.847   6.320
 3246SOL     OW10636   5.404   0.548   2.879
 3246SOL    HW110637   5.331   0.577   2.940
 3246SOL    HW210638   5.457   0.475   2.922
 3247SOL     OW10639   0.342   4.019   2.688
 3247SOL    HW110640   0.377   3.959   2.760
 3247SOL    HW210641   0.243   4.012   2.684
 3248SOL     OW10642   6.038   3.820   2.004
 3248SOL    HW110643   6.116   3.781   1.954
 3248SOL    HW210644   6.001   3.751   2.067
 3249SOL     OW10645   3.814   4.780   5.301
 3249SOL    HW110646   3.781   4.688   5.281
 3249SOL    HW210647   3.805   4.838   5.220
 3250SOL     OW10648   5.585   0.160   2.872
 3250SOL    HW110649   5.571   0.246   2.921
 3250SOL    HW210650   5.683   0.143   2.861
 3251SOL     OW10651   3.684   1.543   3.008
 3251SOL    HW110652   3.698   1.624   2.952
 3251SOL    HW210653   3.770   1.492   3.015
 3252SOL     OW10654   3.362   1.089   2.849
 3252SOL    HW110655   3.411   1.154   2.907
 3252SOL    HW210656   3.427   1.022   2.812
 3253SOL     OW10657   4.634   2.783   1.437
 3253SOL    HW110658   4.614   2.851   1.367
 3253SOL    HW210659   4.588   2.807   1.522
 3254SOL     OW10660   3.746   4.865   4.149
 3254SOL    HW110661   3.845   4.854   4.162
 3254SOL    HW210662   3.720   4.824   4.062
 3255SOL     OW10663   4.850   5.281   0.568
 3255SOL    HW110664   4.830   5.281   0.666
 3255SOL    HW210665   4.907   5.360   0.545
 3256SOL     OW10666   5.748   6.733   6.082
 3256SOL    HW110667   5.656   6.695   6.068
 3256SOL    HW210668   5.812   6.658   6.099
 3257SOL     OW10669   1.243   1.932   0.496
 3257SOL    HW110670   1.284   1.965   0.581
 3257SOL    HW210671   1.252   1.832   0.491
 3258SOL     OW10672   4.974   6.753   1.616
 3258SOL    HW110673   4.994   6.789   1.707
 3258SOL    HW210674   5.054   6.763   1.557
 3259SOL     OW10675   4.435   5.898   4.524
 3259SOL    HW110676   4.472   5.807   4.541
 3259SOL    HW210677   4.357   5.914   4.585
 3260SOL     OW10678   1.820   1.242   0.523
 3260SOL    HW110679   1.739   1.247   0.582
 3260SOL    HW210680   1.796   1.271   0.431
 3261SOL     OW10681   4.009   6.757   0.595
 3261SOL    HW110682   3.925   6.736   0.545
 3261SOL    HW210683   4.088   6.733   0.540
 3262SOL     OW10684   3.789   1.971   3.434
 3262SOL    HW110685   3.711   2.022   3.398
 3262SOL    HW210686   3.764   1.930   3.522
 3263SOL     OW10687   4.814   6.906   3.099
 3263SOL    HW110688   4.832   6.809   3.081
 3263SOL    HW210689   4.841   6.928   3.193
 3264SOL     OW10690   6.993   5.189   6.955
 3264SOL    HW110691   6.958   5.281   6.976
 3264SOL    HW210692   0.073   5.194   6.942
 3265SOL     OW10693   4.002   2.392   6.282
 3265SOL    HW110694   3.919   2.338   6.295
 3265SOL    HW210695   4.078   2.332   6.260
 3266SOL     OW10696   0.149   2.512   0.132
 3266SOL    HW110697   0.059   2.470   0.145
 3266SOL    HW210698   0.137   2.611   0.122
 3267SOL     OW10699   3.549   2.573   1.380
 3267SOL    HW110700   3.605   2.644   1.424
 3267SOL    HW210701   3.605   2.519   1.318
 3268SOL     OW10702   1.252   4.250   0.083
 3268SOL    HW110703   1.210   4.338   0.105
 3268SOL    HW210704   1.197   4.176   0.121
 3269SOL     OW10705   4.767   5.154   1.502
 3269SOL    HW110706   4.676   5.139   1.541
 3269SOL    HW210707   4.803   5.068   1.465
 3270SOL     OW10708   0.370   5.190   3.936
 3270SOL    HW110709   0.337   5.132   3.861
 3270SOL    HW210710   0.321   5.165   4.020
 3271SOL     OW10711   5.418   2.096   2.420
 3271SOL    HW110712   5.407   1.998   2.440
 3271SOL    HW210713   5.475   2.106   2.339
 3272SOL     OW10714   3.708   6.921   0.205
 3272SOL    HW110715   3.620   6.880   0.182
 3272SOL    HW210716   3.694   7.006   0.255
 3273SOL     OW10717   1.230   6.034   1.710
 3273SOL    HW110718   1.160   5.981   1.757
 3273SOL    HW210719   1.231   6.127   1.746
 3274SOL     OW10720   3.353   1.676   6.055
 3274SOL    HW110721   3.349   1.588   6.008
 3274SOL    HW210722   3.313   1.747   5.998
 3275SOL     OW10723   2.273   0.397   0.113
 3275SOL    HW110724   2.226   0.467   0.058
 3275SOL    HW210725   2.345   0.355   0.058
 3276SOL     OW10726   3.371   5.078   6.684
 3276SOL    HW110727   3.365   5.019   6.604
 3276SOL    HW210728   3.313   5.041   6.757
 3277SOL     OW10729   6.399   0.053   6.113
 3277SOL    HW110730   6.378   6.977   6.136
 3277SOL    HW210731   6.363   0.113   6.184
 3278SOL     OW10732   0.494   1.159   5.252
 3278SOL    HW110733   0.556   1.092   5.293
 3278SOL    HW210734   0.547   1.233   5.212
 3279SOL     OW10735   0.004   0.127   0.962
 3279SOL    HW110736   6.981   0.186   0.893
 3279SOL    HW210737   0.092   0.094   0.927
 3280SOL     OW10738   2.595   5.136   6.789
 3280SOL    HW110739   2.664   5.065   6.776
 3280SOL    HW210740   2.517   5.117   6.730
 3281SOL     OW10741   1.535   5.682   0.635
 3281SOL    HW110742   1.585   5.699   0.720
 3281SOL    HW210743   1.555   5.590   0.602
 3282SOL     OW10744   3.070   6.335   4.517
 3282SOL    HW110745   3.071   6.270   4.441
 3282SOL    HW210746   3.086   6.285   4.602
 3283SOL     OW10747   3.214   1.904   3.378
 3283SOL    HW110748   3.216   1.858   3.467
 3283SOL    HW210749   3.126   1.887   3.334
 3284SOL     OW10750   0.187   6.254   6.631
 3284SOL    HW110751   0.143   6.290   6.713
 3284SOL    HW210752   0.126   6.188   6.587
 3285SOL     OW10753   0.328   3.368   3.209
 3285SOL    HW110754   0.303   3.434   3.280
 3285SOL    HW210755   0.264   3.292   3.210
 3286SOL     OW10756   4.048   3.403   4.006
 3286SOL    HW110757   4.044   3.365   3.914
 3286SOL    HW210758   4.062   3.329   4.072
 3287SOL     OW10759   1.279   5.625   6.870
 3287SOL    HW110760   1.308   5.704   6.925
 3287SOL    HW210761   1.330   5.625   6.783
 3288SOL     OW10762   0.622   6.308   6.632
 3288SOL    HW110763   0.601   6.230   6.691
 3288SOL    HW210764   0.549   6.319   6.564
 3289SOL     OW10765   1.003   6.112   5.270
 3289SOL    HW110766   1.075   6.171   5.305
 3289SOL    HW210767   0.972   6.147   5.182
 3290SOL     OW10768   0.203   6.049   2.001
 3290SOL    HW110769   0.131   6.050   2.071
 3290SOL    HW210770   0.225   6.143   1.974
 3291SOL     OW10771   2.081   6.527   6.589
 3291SOL    HW110772   2.032   6.478   6.518
 3291SOL    HW210773   2.036   6.512   6.677
 3292SOL     OW10774   0.326   0.993   6.548
 3292SOL    HW110775   0.378   0.937   6.482
 3292SOL    HW210776   0.233   0.957   6.556
 3293SOL     OW10777   7.018   1.766   3.546
 3293SOL    HW110778   0.097   1.783   3.536
 3293SOL    HW210779   6.987   1.704   3.475
 3294SOL     OW10780   6.751   0.964   6.672
 3294SOL    HW110781   6.794   0.875   6.687
 3294SOL    HW210782   6.737   1.009   6.760
 3295SOL     OW10783   2.492   2.225   0.740
 3295SOL    HW110784   2.573   2.177   0.773
 3295SOL    HW210785   2.431   2.161   0.694
 3296SOL     OW10786   2.363   6.957   1.885
 3296SOL    HW110787   2.326   6.942   1.977
 3296SOL    HW210788   2.405   6.873   1.852
 3297SOL     OW10789   3.377   2.119   5.073
 3297SOL    HW110790   3.313   2.191   5.098
 3297SOL    HW210791   3.326   2.035   5.053
 3298SOL     OW10792   6.437   3.090   2.925
 3298SOL    HW110793   6.476   3.156   2.990
 3298SOL    HW210794   6.509   3.030   2.891
 3299SOL     OW10795   1.639   0.146   4.021
 3299SOL    HW110796   1.699   0.085   4.073
 3299SOL    HW210797   1.558   0.167   4.075
 3300SOL     OW10798   6.516   0.115   5.384
 3300SOL    HW110799   6.524   0.119   5.284
 3300SOL    HW210800   6.419   0.104   5.409
 3301SOL     OW10801   1.015   4.208   3.725
 3301SOL    HW110802   0.973   4.289   3.685
 3301SOL    HW210803   1.061   4.232   3.810
 3302SOL     OW10804   1.549   4.954   4.463
 3302SOL    HW110805   1.567   4.960   4.365
 3302SOL    HW210806   1.578   4.864   4.497
 3303SOL     OW10807   3.310   3.258   2.790
 3303SOL    HW110808   3.265   3.312   2.862
 3303SOL    HW210809   3.241   3.204   2.742
 3304SOL     OW10810   1.243   5.220   3.702
 3304SOL    HW110811   1.268   5.316   3.694
 3304SOL    HW210812   1.284   5.168   3.626
 3305SOL     OW10813   1.648   1.109   2.091
 3305SOL    HW110814   1.673   1.203   2.114
 3305SOL    HW210815   1.641   1.099   1.992
 3306SOL     OW10816   2.117   4.072   3.339
 3306SOL    HW110817   2.076   4.145   3.393
 3306SOL    HW210818   2.100   3.984   3.384
 3307SOL     OW10819   0.119   6.018   0.274
 3307SOL    HW110820   0.133   5.924   0.305
 3307SOL    HW210821   0.183   6.079   0.322
 3308SOL     OW10822   4.393   5.985   0.275
 3308SOL    HW110823   4.388   6.079   0.240
 3308SOL    HW210824   4.470   5.978   0.339
 3309SOL     OW10825   1.335   4.927   2.865
 3309SOL    HW110826   1.315   4.833   2.892
 3309SOL    HW210827   1.285   4.949   2.782
 3310SOL     OW10828   0.622   3.887   3.397
 3310SOL    HW110829   0.681   3.817   3.359
 3310SOL    HW210830   0.623   3.968   3.337
 3311SOL     OW10831   3.180   6.139   1.088
 3311SOL    HW110832   3.105   6.091   1.042
 3311SOL    HW210833   3.236   6.073   1.139
 3312SOL     OW10834   3.132   4.292   6.327
 3312SOL    HW110835   3.170   4.374   6.283
 3312SOL    HW210836   3.174   4.210   6.287
 3313SOL     OW10837   1.265   5.221   3.968
 3313SOL    HW110838   1.176   5.263   3.988
 3313SOL    HW210839   1.281   5.224   3.869
 3314SOL     OW10840   1.559   2.989   4.852
 3314SOL    HW110841   1.639   3.024   4.900
 3314SOL    HW210842   1.481   3.049   4.868
 3315SOL     OW10843   6.648   2.722   3.868
 3315SOL    HW110844   6.634   2.761   3.959
 3315SOL    HW210845   6.728   2.764   3.825
 3316SOL     OW10846   4.260   2.258   6.248
 3316SOL    HW110847   4.358   2.263   6.235
 3316SOL    HW210848   4.239   2.257   6.346
 3317SOL     OW10849   4.693   2.823   1.705
 3317SOL    HW110850   4.735   2.887   1.770
 3317SOL    HW210851   4.763   2.783   1.647
 3318SOL     OW10852   2.619   6.414   6.233
 3318SOL    HW110853   2.619   6.317   6.259
 3318SOL    HW210854   2.652   6.423   6.139
 3319SOL     OW10855   0.409   6.333   4.632
 3319SOL    HW110856   0.382   6.367   4.722
 3319SOL    HW210857   0.376   6.397   4.562
 3320SOL     OW10858   5.945   1.404   5.129
 3320SOL    HW110859   5.868   1.365   5.180
 3320SOL    HW210860   5.942   1.373   5.035
 3321SOL     OW10861   3.264   3.225   2.428
 3321SOL    HW110862   3.271   3.125   2.423
 3321SOL    HW210863   3.168   3.252   2.420
 3322SOL     OW10864   4.242   2.014   0.945
 3322SOL    HW110865   4.303   1.999   1.023
 3322SOL    HW210866   4.172   2.081   0.970
 3323SOL     OW10867   1.966   4.272   6.459
 3323SOL    HW110868   2.000   4.311   6.373
 3323SOL    HW210869   1.991   4.175   6.464
 3324SOL     OW10870   1.077   3.872   0.409
 3324SOL    HW110871   0.984   3.834   0.413
 3324SOL    HW210872   1.134   3.824   0.476
 3325SOL     OW10873   1.887   3.224   0.205
 3325SOL    HW110874   1.821   3.168   0.155
 3325SOL    HW210875   1.928   3.291   0.143
 3326SOL     OW10876   5.681   2.197   1.948
 3326SOL    HW110877   5.678   2.119   1.886
 3326SOL    HW210878   5.771   2.242   1.941
 3327SOL     OW10879   2.351   6.207   2.006
 3327SOL    HW110880   2.305   6.175   2.090
 3327SOL    HW210881   2.391   6.297   2.022
 3328SOL     OW10882   4.655   0.518   1.882
 3328SOL    HW110883   4.705   0.432   1.890
 3328SOL    HW210884   4.656   0.565   1.971
 3329SOL     OW10885   3.938   0.743   5.041
 3329SOL    HW110886   4.031   0.705   5.035
 3329SOL    HW210887   3.942   0.842   5.028
 3330SOL     OW10888   5.903   6.659   2.364
 3330SOL    HW110889   5.981   6.702   2.318
 3330SOL    HW210890   5.927   6.643   2.460
 3331SOL     OW10891   1.789   3.352   3.146
 3331SOL    HW110892   1.827   3.261   3.132
 3331SOL    HW210893   1.861   3.421   3.135
 3332SOL     OW10894   5.241   4.733   0.138
 3332SOL    HW110895   5.223   4.806   0.072
 3332SOL    HW210896   5.337   4.704   0.130
 3333SOL     OW10897   3.411   3.552   1.474
 3333SOL    HW110898   3.449   3.610   1.546
 3333SOL    HW210899   3.460   3.464   1.474
 3334SOL     OW10900   1.534   2.681   2.395
 3334SOL    HW110901   1.486   2.596   2.371
 3334SOL    HW210902   1.484   2.759   2.358
 3335SOL     OW10903   3.563   4.309   5.662
 3335SOL    HW110904   3.636   4.246   5.689
 3335SOL    HW210905   3.531   4.361   5.741
 3336SOL     OW10906   2.666   6.947   4.005
 3336SOL    HW110907   2.718   0.013   4.005
 3336SOL    HW210908   2.702   6.886   4.076
 3337SOL     OW10909   3.341   3.718   2.648
 3337SOL    HW110910   3.354   3.635   2.594
 3337SOL    HW210911   3.374   3.703   2.741
 3338SOL     OW10912   1.176   2.059   1.615
 3338SOL    HW110913   1.237   1.981   1.601
 3338SOL    HW210914   1.094   2.046   1.560
 3339SOL     OW10915   1.953   0.142   5.497
 3339SOL    HW110916   1.870   0.167   5.547
 3339SOL    HW210917   2.012   0.088   5.556
 3340SOL     OW10918   4.561   0.838   4.102
 3340SOL    HW110919   4.579   0.901   4.026
 3340SOL    HW210920   4.592   0.878   4.188
 3341SOL     OW10921   2.573   4.618   2.424
 3341SOL    HW110922   2.657   4.632   2.373
 3341SOL    HW210923   2.538   4.707   2.455
 3342SOL     OW10924   6.262   0.300   2.659
 3342SOL    HW110925   6.348   0.351   2.652
 3342SOL    HW210926   6.185   0.365   2.656
 3343SOL     OW10927   5.299   5.236   6.790
 3343SOL    HW110928   5.264   5.275   6.705
 3343SOL    HW210929   5.378   5.179   6.770
 3344SOL     OW10930   6.376   2.670   2.183
 3344SOL    HW110931   6.300   2.735   2.184
 3344SOL    HW210932   6.396   2.643   2.089
 3345SOL     OW10933   0.963   3.939   0.779
 3345SOL    HW110934   0.933   3.974   0.690
 3345SOL    HW210935   0.983   4.016   0.840
 3346SOL     OW10936   2.786   0.832   0.107
 3346SOL    HW110937   2.848   0.759   0.081
 3346SOL    HW210938   2.818   0.876   0.191
 3347SOL     OW10939   0.887   3.176   6.422
 3347SOL    HW110940   0.923   3.085   6.445
 3347SOL    HW210941   0.916   3.241   6.493
 3348SOL     OW10942   3.678   4.130   6.318
 3348SOL    HW110943   3.655   4.227   6.308
 3348SOL    HW210944   3.775   4.121   6.341
 3349SOL     OW10945   2.253   4.641   4.025
 3349SOL    HW110946   2.331   4.703   4.015
 3349SOL    HW210947   2.268   4.560   3.969
 3350SOL     OW10948   0.472   3.886   5.574
 3350SOL    HW110949   0.480   3.911   5.670
 3350SOL    HW210950   0.392   3.933   5.534
 3351SOL     OW10951   5.495   0.599   1.210
 3351SOL    HW110952   5.547   0.628   1.130
 3351SOL    HW210953   5.401   0.633   1.203
 3352SOL     OW10954   5.294   2.487   0.750
 3352SOL    HW110955   5.336   2.562   0.698
 3352SOL    HW210956   5.212   2.521   0.796
 3353SOL     OW10957   1.842   0.722   1.177
 3353SOL    HW110958   1.875   0.651   1.115
 3353SOL    HW210959   1.791   0.790   1.124
 3354SOL     OW10960   3.980   3.429   5.988
 3354SOL    HW110961   3.920   3.509   5.984
 3354SOL    HW210962   3.953   3.371   6.066
 3355SOL     OW10963   2.100   1.305   5.055
 3355SOL    HW110964   2.127   1.318   4.960
 3355SOL    HW210965   2.024   1.240   5.059
 3356SOL     OW10966   1.122   6.502   5.792
 3356SOL    HW110967   1.050   6.561   5.829
 3356SOL    HW210968   1.143   6.530   5.698
 3357SOL     OW10969   2.804   3.371   2.166
 3357SOL    HW110970   2.714   3.363   2.209
 3357SOL    HW210971   2.837   3.279   2.141
 3358SOL     OW10972   5.382   1.273   3.194
 3358SOL    HW110973   5.302   1.218   3.170
 3358SOL    HW210974   5.438   1.288   3.112
 3359SOL     OW10975   6.859   5.146   3.925
 3359SOL    HW110976   6.856   5.203   3.843
 3359SOL    HW210977   6.783   5.081   3.923
 3360SOL     OW10978   0.564   2.813   5.924
 3360SOL    HW110979   0.590   2.868   5.844
 3360SOL    HW210980   0.636   2.819   5.994
 3361SOL     OW10981   0.866   0.325   4.162
 3361SOL    HW110982   0.959   0.290   4.164
 3361SOL    HW210983   0.819   0.292   4.080
 3362SOL     OW10984   4.050   1.810   4.283
 3362SOL    HW110985   3.981   1.767   4.341
 3362SOL    HW210986   4.140   1.798   4.324
 3363SOL     OW10987   6.848   3.000   1.308
 3363SOL    HW110988   6.942   3.000   1.340
 3363SOL    HW210989   6.835   2.928   1.240
 3364SOL     OW10990   1.537   4.261   2.887
 3364SOL    HW110991   1.443   4.287   2.864
 3364SOL    HW210992   1.579   4.334   2.940
 3365SOL     OW10993   2.154   3.102   4.711
 3365SOL    HW110994   2.132   3.114   4.808
 3365SOL    HW210995   2.253   3.093   4.700
 3366SOL     OW10996   0.093   3.355   4.454
 3366SOL    HW110997   0.059   3.352   4.361
 3366SOL    HW210998   0.193   3.347   4.453
 3367SOL     OW10999   3.729   3.597   4.562
 3367SOL    HW111000   3.699   3.692   4.550
 3367SOL    HW211001   3.829   3.593   4.554
 3368SOL     OW11002   1.790   6.210   6.741
 3368SOL    HW111003   1.776   6.128   6.686
 3368SOL    HW211004   1.736   6.203   6.825
 3369SOL     OW11005   4.396   1.631   1.518
 3369SOL    HW111006   4.301   1.643   1.490
 3369SOL    HW211007   4.399   1.576   1.602
 3370SOL     OW11008   6.653   5.968   1.535
 3370SOL    HW111009   6.718   5.917   1.591
 3370SOL    HW211010   6.648   5.926   1.444
 3371SOL     OW11011   2.078   3.501   2.417
 3371SOL    HW111012   2.053   3.414   2.458
 3371SOL    HW211013   2.114   3.485   2.325
 3372SOL     OW11014   0.128   2.988   1.394
 3372SOL    HW111015   0.194   2.936   1.447
 3372SOL    HW211016   0.170   3.073   1.361
 3373SOL     OW11017   0.132   1.314   1.991
 3373SOL    HW111018   0.077   1.343   1.912
 3373SOL    HW211019   0.224   1.353   1.984
 3374SOL     OW11020   0.613   6.730   3.640
 3374SOL    HW111021   0.699   6.710   3.688
 3374SOL    HW211022   0.565   6.803   3.687
 3375SOL     OW11023   6.756   4.727   6.643
 3375SOL    HW111024   6.715   4.715   6.552
 3375SOL    HW211025   6.756   4.639   6.692
 3376SOL     OW11026   2.452   3.311   5.441
 3376SOL    HW111027   2.490   3.388   5.389
 3376SOL    HW211028   2.390   3.259   5.382
 3377SOL     OW11029   6.237   5.449   4.143
 3377SOL    HW111030   6.286   5.422   4.060
 3377SOL    HW211031   6.294   5.433   4.223
 3378SOL     OW11032   1.000   6.503   6.752
 3378SOL    HW111033   0.964   6.529   6.842
 3378SOL    HW211034   0.938   6.439   6.708
 3379SOL     OW11035   0.918   3.413   4.337
 3379SOL    HW111036   0.952   3.437   4.247
 3379SOL    HW211037   0.981   3.447   4.407
 3380SOL     OW11038   3.878   4.484   5.825
 3380SOL    HW111039   3.915   4.486   5.918
 3380SOL    HW211040   3.778   4.490   5.828
 3381SOL     OW11041   0.919   2.744   1.437
 3381SOL    HW111042   0.974   2.826   1.419
 3381SOL    HW211043   0.835   2.770   1.485
 3382SOL     OW11044   0.019   2.350   0.976
 3382SOL    HW111045   6.969   2.298   1.027
 3382SOL    HW211046   0.021   2.444   1.009
 3383SOL     OW11047   3.570   4.722   0.246
 3383SOL    HW111048   3.511   4.748   0.169
 3383SOL    HW211049   3.530   4.755   0.332
 3384SOL     OW11050   2.837   4.447   0.255
 3384SOL    HW111051   2.789   4.467   0.341
 3384SOL    HW211052   2.770   4.428   0.183
 3385SOL     OW11053   6.778   1.885   3.636
 3385SOL    HW111054   6.864   1.837   3.614
 3385SOL    HW211055   6.754   1.947   3.562
 3386SOL     OW11056   6.510   4.662   6.839
 3386SOL    HW111057   6.565   4.578   6.838
 3386SOL    HW211058   6.417   4.640   6.866
 3387SOL     OW11059   5.541   0.918   3.039
 3387SOL    HW111060   5.601   0.996   3.026
 3387SOL    HW211061   5.542   0.891   3.136
 3388SOL     OW11062   4.838   4.054   1.213
 3388SOL    HW111063   4.927   4.050   1.258
 3388SOL    HW211064   4.785   4.131   1.249
 3389SOL     OW11065   6.089   6.315   0.312
 3389SOL    HW111066   6.020   6.379   0.346
 3389SOL    HW211067   6.145   6.360   0.242
 3390SOL     OW11068   4.100   6.720   5.897
 3390SOL    HW111069   4.111   6.643   5.834
 3390SOL    HW211070   4.010   6.713   5.942
 3391SOL     OW11071   5.875   2.932   3.718
 3391SOL    HW111072   5.781   2.925   3.753
 3391SOL    HW211073   5.897   2.850   3.666
 3392SOL     OW11074   4.401   0.092   4.830
 3392SOL    HW111075   4.448   0.004   4.822
 3392SOL    HW211076   4.462   0.159   4.872
 3393SOL     OW11077   4.962   0.080   0.733
 3393SOL    HW111078   4.974   7.000   0.722
 3393SOL    HW211079   4.871   0.106   0.702
 3394SOL     OW11080   3.462   5.330   0.996
 3394SOL    HW111081   3.528   5.330   1.071
 3394SOL    HW211082   3.370   5.347   1.032
 3395SOL     OW11083   3.903   0.867   2.880
 3395SOL    HW111084   3.991   0.880   2.833
 3395SOL    HW211085   3.875   0.771   2.872
 3396SOL     OW11086   5.555   0.877   4.026
 3396SOL    HW111087   5.516   0.964   3.996
 3396SOL    HW211088   5.482   0.817   4.059
 3397SOL     OW11089   2.435   5.804   6.279
 3397SOL    HW111090   2.398   5.787   6.370
 3397SOL    HW211091   2.532   5.778   6.277
 3398SOL     OW11092   0.534   1.724   5.594
 3398SOL    HW111093   0.539   1.658   5.668
 3398SOL    HW211094   0.444   1.719   5.551
 3399SOL     OW11095   0.380   4.847   3.238
 3399SOL    HW111096   0.444   4.787   3.191
 3399SOL    HW211097   0.412   4.864   3.331
 3400SOL     OW11098   5.567   3.175   5.703
 3400SOL    HW111099   5.472   3.161   5.675
 3400SOL    HW211100   5.570   3.213   5.796
 3401SOL     OW11101   6.463   3.771   6.537
 3401SOL    HW111102   6.392   3.794   6.604
 3401SOL    HW211103   6.462   3.673   6.520
 3402SOL     OW11104   6.639   5.118   0.980
 3402SOL    HW111105   6.682   5.205   1.001
 3402SOL    HW211106   6.562   5.133   0.918
 3403SOL     OW11107   4.691   6.450   5.933
 3403SOL    HW111108   4.594   6.434   5.913
 3403SOL    HW211109   4.731   6.506   5.860
 3404SOL     OW11110   4.986   3.287   5.920
 3404SOL    HW111111   4.958   3.362   5.860
 3404SOL    HW211112   5.011   3.324   6.010
 3405SOL     OW11113   5.309   6.283   5.748
 3405SOL    HW111114   5.333   6.228   5.828
 3405SOL    HW211115   5.218   6.322   5.761
 3406SOL     OW11116   2.024   3.951   2.255
 3406SOL    HW111117   2.023   3.895   2.172
 3406SOL    HW211118   1.997   4.045   2.233
 3407SOL     OW11119   2.295   4.219   0.782
 3407SOL    HW111120   2.316   4.302   0.834
 3407SOL    HW211121   2.380   4.182   0.744
 3408SOL     OW11122   4.576   2.592   3.912
 3408SOL    HW111123   4.501   2.541   3.869
 3408SOL    HW211124   4.562   2.594   4.011
 3409SOL     OW11125   3.989   0.027   0.542
 3409SOL    HW111126   4.019   6.956   0.571
 3409SOL    HW211127   4.069   0.087   0.529
 3410SOL     OW11128   5.837   6.515   2.822
 3410SOL    HW111129   5.900   6.564   2.761
 3410SOL    HW211130   5.784   6.449   2.769
 3411SOL     OW11131   6.744   1.765   1.168
 3411SOL    HW111132   6.676   1.700   1.203
 3411SOL    HW211133   6.710   1.807   1.084
 3412SOL     OW11134   5.098   3.872   1.582
 3412SOL    HW111135   5.161   3.826   1.518
 3412SOL    HW211136   5.102   3.826   1.671
 3413SOL     OW11137   6.460   1.820   6.616
 3413SOL    HW111138   6.475   1.787   6.523
 3413SOL    HW211139   6.363   1.820   6.636
 3414SOL     OW11140   3.964   2.736   0.187
 3414SOL    HW111141   3.866   2.757   0.181
 3414SOL    HW211142   4.005   2.746   0.097
 3415SOL     OW11143   2.618   2.430   4.407
 3415SOL    HW111144   2.590   2.522   4.378
 3415SOL    HW211145   2.696   2.400   4.352
 3416SOL     OW11146   6.408   0.447   0.188
 3416SOL    HW111147   6.337   0.377   0.201
 3416SOL    HW211148   6.410   0.507   0.268
 3417SOL     OW11149   0.195   0.364   3.312
 3417SOL    HW111150   0.119   0.344   3.250
 3417SOL    HW211151   0.269   0.408   3.261
 3418SOL     OW11152   4.153   5.416   2.601
 3418SOL    HW111153   4.071   5.359   2.611
 3418SOL    HW211154   4.125   5.509   2.577
 3419SOL     OW11155   3.769   5.754   5.678
 3419SOL    HW111156   3.867   5.766   5.662
 3419SOL    HW211157   3.740   5.665   5.642
 3420SOL     OW11158   4.786   2.842   3.870
 3420SOL    HW111159   4.690   2.817   3.875
 3420SOL    HW211160   4.830   2.792   3.795
 3421SOL     OW11161   5.607   1.774   3.663
 3421SOL    HW111162   5.702   1.745   3.662
 3421SOL    HW211163   5.594   1.851   3.600
 3422SOL     OW11164   2.294   6.893   0.295
 3422SOL    HW111165   2.327   6.875   0.389
 3422SOL    HW211166   2.262   6.807   0.255
 3423SOL     OW11167   0.984   4.525   5.400
 3423SOL    HW111168   0.886   4.542   5.393
 3423SOL    HW211169   1.024   4.522   5.308
 3424SOL     OW11170   4.219   6.706   1.279
 3424SOL    HW111171   4.148   6.773   1.255
 3424SOL    HW211172   4.307   6.738   1.244
 3425SOL     OW11173   5.106   4.062   1.389
 3425SOL    HW111174   5.113   3.996   1.463
 3425SOL    HW211175   5.082   4.152   1.426
 3426SOL     OW11176   5.528   3.360   0.993
 3426SOL    HW111177   5.628   3.357   0.985
 3426SOL    HW211178   5.490   3.411   0.916
 3427SOL     OW11179   1.485   2.365   0.940
 3427SOL    HW111180   1.457   2.293   1.003
 3427SOL    HW211181   1.579   2.348   0.910
 3428SOL     OW11182   4.857   5.464   5.666
 3428SOL    HW111183   4.888   5.421   5.751
 3428SOL    HW211184   4.927   5.527   5.633
 3429SOL     OW11185   0.210   1.122   0.997
 3429SOL    HW111186   0.200   1.024   1.012
 3429SOL    HW211187   0.307   1.144   0.988
 3430SOL     OW11188   2.217   4.769   5.710
 3430SOL    HW111189   2.182   4.676   5.719
 3430SOL    HW211190   2.268   4.778   5.625
 3431SOL     OW11191   2.166   6.178   2.689
 3431SOL    HW111192   2.156   6.268   2.647
 3431SOL    HW211193   2.176   6.189   2.788
 3432SOL     OW11194   2.190   4.933   6.792
 3432SOL    HW111195   2.269   4.905   6.739
 3432SOL    HW211196   2.157   4.855   6.846
 3433SOL     OW11197   2.518   0.913   6.311
 3433SOL    HW111198   2.543   0.974   6.236
 3433SOL    HW211199   2.601   0.872   6.349
 3434SOL     OW11200   2.864   1.986   1.932
 3434SOL    HW111201   2.841   1.968   1.836
 3434SOL    HW211202   2.933   2.059   1.937
 3435SOL     OW11203   2.059   0.918   0.393
 3435SOL    HW111204   1.974   0.954   0.432
 3435SOL    HW211205   2.114   0.993   0.356
 3436SOL     OW11206   4.202   5.213   0.332
 3436SOL    HW111207   4.217   5.114   0.322
 3436SOL    HW211208   4.106   5.233   0.312
 3437SOL     OW11209   1.435   6.447   5.923
 3437SOL    HW111210   1.448   6.467   5.826
 3437SOL    HW211211   1.422   6.349   5.936
 3438SOL     OW11212   0.950   3.637   1.108
 3438SOL    HW111213   0.967   3.642   1.010
 3438SOL    HW211214   0.851   3.630   1.125
 3439SOL     OW11215   2.322   6.006   2.527
 3439SOL    HW111216   2.407   6.029   2.574
 3439SOL    HW211217   2.249   6.066   2.558
 3440SOL     OW11218   3.805   2.934   4.955
 3440SOL    HW111219   3.815   2.920   5.053
 3440SOL    HW211220   3.892   2.963   4.915
 3441SOL     OW11221   5.849   5.566   6.086
 3441SOL    HW111222   5.789   5.625   6.034
 3441SOL    HW211223   5.843   5.589   6.183
 3442SOL     OW11224   2.954   3.758   1.446
 3442SOL    HW111225   2.863   3.765   1.486
 3442SOL    HW211226   3.017   3.719   1.513
 3443SOL     OW11227   2.905   5.707   2.730
 3443SOL    HW111228   2.877   5.642   2.660
 3443SOL    HW211229   2.885   5.800   2.699
 3444SOL     OW11230   5.549   4.617   1.266
 3444SOL    HW111231   5.536   4.613   1.167
 3444SOL    HW211232   5.593   4.704   1.290
 3445SOL     OW11233   6.226   4.995   3.973
 3445SOL    HW111234   6.266   4.908   3.946
 3445SOL    HW211235   6.138   5.007   3.927
 3446SOL     OW11236   5.496   6.983   1.660
 3446SOL    HW111237   5.537   6.892   1.664
 3446SOL    HW211238   5.399   6.978   1.686
 3447SOL     OW11239   5.262   0.443   0.169
 3447SOL    HW111240   5.269   0.346   0.192
 3447SOL    HW211241   5.263   0.453   0.069
 3448SOL     OW11242   1.321   6.446   5.341
 3448SOL    HW111243   1.292   6.376   5.276
 3448SOL    HW211244   1.415   6.473   5.320
 3449SOL     OW11245   6.014   5.056   5.199
 3449SOL    HW111246   5.975   5.032   5.110
 3449SOL    HW211247   6.041   4.973   5.248
 3450SOL     OW11248   1.271   0.155   6.525
 3450SOL    HW111249   1.299   0.239   6.478
 3450SOL    HW211250   1.172   0.144   6.517
 3451SOL     OW11251   1.701   5.921   0.739
 3451SOL    HW111252   1.713   5.915   0.838
 3451SOL    HW211253   1.612   5.962   0.719
 3452SOL     OW11254   5.628   1.173   5.301
 3452SOL    HW111255   5.654   1.249   5.243
 3452SOL    HW211256   5.532   1.150   5.284
 3453SOL     OW11257   5.661   6.430   5.590
 3453SOL    HW111258   5.684   6.352   5.532
 3453SOL    HW211259   5.622   6.503   5.534
 3454SOL     OW11260   1.744   2.747   2.978
 3454SOL    HW111261   1.727   2.796   2.892
 3454SOL    HW211262   1.767   2.812   3.050
 3455SOL     OW11263   1.878   2.752   4.904
 3455SOL    HW111264   1.925   2.804   4.976
 3455SOL    HW211265   1.897   2.795   4.815
 3456SOL     OW11266   4.468   4.475   2.298
 3456SOL    HW111267   4.422   4.558   2.328
 3456SOL    HW211268   4.404   4.419   2.246
 3457SOL     OW11269   3.530   5.395   4.822
 3457SOL    HW111270   3.573   5.346   4.898
 3457SOL    HW211271   3.435   5.366   4.813
 3458SOL     OW11272   4.746   1.726   2.369
 3458SOL    HW111273   4.716   1.822   2.366
 3458SOL    HW211274   4.841   1.720   2.338
 3459SOL     OW11275   3.938   1.594   2.680
 3459SOL    HW111276   4.003   1.604   2.604
 3459SOL    HW211277   3.986   1.562   2.761
 3460SOL     OW11278   3.895   1.573   5.683
 3460SOL    HW111279   3.882   1.601   5.588
 3460SOL    HW211280   3.810   1.587   5.734
 3461SOL     OW11281   5.638   4.784   6.784
 3461SOL    HW111282   5.660   4.881   6.786
 3461SOL    HW211283   5.623   4.755   6.689
 3462SOL     OW11284   2.323   3.429   6.360
 3462SOL    HW111285   2.309   3.374   6.443
 3462SOL    HW211286   2.417   3.462   6.358
 3463SOL     OW11287   0.175   3.918   1.079
 3463SOL    HW111288   0.216   3.959   0.998
 3463SOL    HW211289   0.176   3.818   1.070
 3464SOL     OW11290   0.379   4.316   6.317
 3464SOL    HW111291   0.427   4.335   6.402
 3464SOL    HW211292   0.317   4.392   6.296
 3465SOL     OW11293   1.714   1.265   1.524
 3465SOL    HW111294   1.806   1.296   1.548
 3465SOL    HW211295   1.694   1.289   1.429
 3466SOL     OW11296   6.972   4.427   5.803
 3466SOL    HW111297   0.019   4.410   5.876
 3466SOL    HW211298   6.895   4.480   5.838
 3467SOL     OW11299   2.565   2.328   6.427
 3467SOL    HW111300   2.583   2.333   6.329
 3467SOL    HW211301   2.468   2.311   6.443
 3468SOL     OW11302   2.767   5.993   3.561
 3468SOL    HW111303   2.678   6.027   3.590
 3468SOL    HW211304   2.789   6.029   3.471
 3469SOL     OW11305   6.691   2.242   3.748
 3469SOL    HW111306   6.790   2.245   3.763
 3469SOL    HW211307   6.670   2.183   3.670
 3470SOL     OW11308   0.312   5.369   1.130
 3470SOL    HW111309   0.251   5.318   1.191
 3470SOL    HW211310   0.407   5.350   1.155
 3471SOL     OW11311   3.999   6.008   4.975
 3471SOL    HW111312   3.960   6.027   5.065
 3471SOL    HW211313   4.001   5.909   4.959
 3472SOL     OW11314   2.517   0.847   4.428
 3472SOL    HW111315   2.603   0.898   4.427
 3472SOL    HW211316   2.489   0.831   4.523
 3473SOL     OW11317   5.945   1.371   5.874
 3473SOL    HW111318   5.960   1.337   5.781
 3473SOL    HW211319   5.896   1.458   5.870
 3474SOL     OW11320   3.446   4.913   2.207
 3474SOL    HW111321   3.430   4.815   2.223
 3474SOL    HW211322   3.414   4.937   2.115
 3475SOL     OW11323   1.221   6.658   4.069
 3475SOL    HW111324   1.197   6.602   3.990
 3475SOL    HW211325   1.145   6.656   4.135
 3476SOL     OW11326   4.803   1.341   4.429
 3476SOL    HW111327   4.828   1.412   4.495
 3476SOL    HW211328   4.818   1.251   4.469
 3477SOL     OW11329   4.254   5.852   0.800
 3477SOL    HW111330   4.231   5.770   0.851
 3477SOL    HW211331   4.171   5.906   0.784
 3478SOL     OW11332   3.186   5.998   5.985
 3478SOL    HW111333   3.112   6.022   5.922
 3478SOL    HW211334   3.154   6.005   6.080
 3479SOL     OW11335   0.553   0.817   2.067
 3479SOL    HW111336   0.639   0.781   2.101
 3479SOL    HW211337   0.515   0.882   2.133
 3480SOL     OW11338   0.049   1.141   3.868
 3480SOL    HW111339   0.018   1.225   3.912
 3480SOL    HW211340   6.996   1.071   3.873
 3481SOL     OW11341   3.045   6.559   6.412
 3481SOL    HW111342   3.005   6.566   6.321
 3481SOL    HW211343   3.098   6.642   6.431
 3482SOL     OW11344   6.475   2.008   1.527
 3482SOL    HW111345   6.491   1.910   1.533
 3482SOL    HW211346   6.480   2.037   1.431
 3483SOL     OW11347   2.055   0.889   1.663
 3483SOL    HW111348   2.136   0.944   1.684
 3483SOL    HW211349   2.004   0.933   1.589
 3484SOL     OW11350   3.431   2.958   3.259
 3484SOL    HW111351   3.377   2.992   3.336
 3484SOL    HW211352   3.374   2.953   3.177
 3485SOL     OW11353   1.955   2.256   5.110
 3485SOL    HW111354   1.959   2.356   5.121
 3485SOL    HW211355   2.017   2.229   5.036
 3486SOL     OW11356   4.480   1.224   1.668
 3486SOL    HW111357   4.509   1.276   1.748
 3486SOL    HW211358   4.383   1.240   1.651
 3487SOL     OW11359   6.037   1.882   6.111
 3487SOL    HW111360   6.030   1.814   6.185
 3487SOL    HW211361   6.024   1.973   6.149
 3488SOL     OW11362   6.226   3.561   4.149
 3488SOL    HW111363   6.302   3.511   4.108
 3488SOL    HW211364   6.256   3.603   4.234
 3489SOL     OW11365   3.765   6.613   1.304
 3489SOL    HW111366   3.855   6.611   1.348
 3489SOL    HW211367   3.694   6.602   1.374
 3490SOL     OW11368   5.603   3.779   0.202
 3490SOL    HW111369   5.666   3.771   0.279
 3490SOL    HW211370   5.572   3.687   0.176
 3491SOL     OW11371   6.958   3.179   5.545
 3491SOL    HW111372   6.987   3.245   5.614
 3491SOL    HW211373   0.015   3.118   5.523
 3492SOL     OW11374   0.411   5.650   6.835
 3492SOL    HW111375   0.494   5.702   6.852
 3492SOL    HW211376   0.333   5.699   6.875
 3493SOL     OW11377   5.921   5.187   1.429
 3493SOL    HW111378   5.977   5.105   1.414
 3493SOL    HW211379   5.870   5.208   1.346
 3494SOL     OW11380   3.631   0.282   1.545
 3494SOL    HW111381   3.674   0.298   1.455
 3494SOL    HW211382   3.684   0.328   1.616
 3495SOL     OW11383   4.198   5.570   2.041
 3495SOL    HW111384   4.268   5.499   2.041
 3495SOL    HW211385   4.194   5.612   1.951
 3496SOL     OW11386   1.782   2.889   0.850
 3496SOL    HW111387   1.780   2.880   0.750
 3496SOL    HW211388   1.705   2.837   0.889
 3497SOL     OW11389   4.317   1.304   3.123
 3497SOL    HW111390   4.259   1.383   3.101
 3497SOL    HW211391   4.310   1.282   3.220
 3498SOL     OW11392   2.701   1.198   1.133
 3498SOL    HW111393   2.757   1.167   1.057
 3498SOL    HW211394   2.622   1.248   1.098
 3499SOL     OW11395   0.400   3.045   3.892
 3499SOL    HW111396   0.497   3.027   3.877
 3499SOL    HW211397   0.378   3.028   3.988
 3500SOL     OW11398   5.984   3.945   6.465
 3500SOL    HW111399   6.035   3.859   6.467
 3500SOL    HW211400   5.900   3.934   6.412
 3501SOL     OW11401   1.646   4.703   5.285
 3501SOL    HW111402   1.603   4.613   5.272
 3501SOL    HW211403   1.741   4.691   5.315
 3502SOL     OW11404   0.257   1.534   1.637
 3502SOL    HW111405   0.237   1.630   1.623
 3502SOL    HW211406   0.356   1.518   1.629
 3503SOL     OW11407   4.426   5.502   5.498
 3503SOL    HW111408   4.368   5.569   5.544
 3503SOL    HW211409   4.508   5.548   5.462
 3504SOL     OW11410   2.494   3.407   1.370
 3504SOL    HW111411   2.526   3.320   1.409
 3504SOL    HW211412   2.572   3.469   1.362
 3505SOL     OW11413   5.511   6.094   5.123
 3505SOL    HW111414   5.501   6.030   5.200
 3505SOL    HW211415   5.584   6.063   5.062
 3506SOL     OW11416   3.925   5.345   4.041
 3506SOL    HW111417   3.861   5.386   4.104
 3506SOL    HW211418   3.966   5.263   4.083
 3507SOL     OW11419   1.405   0.982   6.487
 3507SOL    HW111420   1.361   1.063   6.447
 3507SOL    HW211421   1.439   0.924   6.414
 3508SOL     OW11422   5.383   2.686   0.565
 3508SOL    HW111423   5.406   2.772   0.609
 3508SOL    HW211424   5.296   2.695   0.516
 3509SOL     OW11425   6.116   6.144   6.900
 3509SOL    HW111426   6.020   6.171   6.883
 3509SOL    HW211427   6.149   6.190   6.982
 3510SOL     OW11428   1.909   2.437   1.403
 3510SOL    HW111429   1.889   2.463   1.308
 3510SOL    HW211430   1.935   2.341   1.406
 3511SOL     OW11431   0.163   2.617   6.592
 3511SOL    HW111432   0.175   2.602   6.691
 3511SOL    HW211433   0.251   2.641   6.551
 3512SOL     OW11434   1.891   3.582   0.329
 3512SOL    HW111435   1.976   3.532   0.314
 3512SOL    HW211436   1.826   3.559   0.256
 3513SOL     OW11437   6.477   4.241   0.987
 3513SOL    HW111438   6.538   4.306   0.943
 3513SOL    HW211439   6.529   4.183   1.049
 3514SOL     OW11440   0.569   6.702   1.544
 3514SOL    HW111441   0.565   6.802   1.549
 3514SOL    HW211442   0.491   6.667   1.493
 3515SOL     OW11443   2.666   6.498   2.997
 3515SOL    HW111444   2.728   6.423   3.018
 3515SOL    HW211445   2.686   6.534   2.906
 3516SOL     OW11446   3.417   0.917   0.506
 3516SOL    HW111447   3.320   0.935   0.492
 3516SOL    HW211448   3.460   0.896   0.418
 3517SOL     OW11449   0.808   1.418   6.788
 3517SOL    HW111450   0.855   1.441   6.873
 3517SOL    HW211451   0.847   1.334   6.751
 3518SOL     OW11452   4.683   3.417   6.682
 3518SOL    HW111453   4.666   3.337   6.739
 3518SOL    HW211454   4.688   3.499   6.740
 3519SOL     OW11455   1.214   6.520   6.605
 3519SOL    HW111456   1.136   6.506   6.666
 3519SOL    HW211457   1.271   6.594   6.640
 3520SOL     OW11458   3.945   4.776   1.262
 3520SOL    HW111459   3.942   4.715   1.342
 3520SOL    HW211460   3.872   4.751   1.199
 3521SOL     OW11461   5.713   3.040   2.012
 3521SOL    HW111462   5.685   2.945   1.999
 3521SOL    HW211463   5.717   3.061   2.110
 3522SOL     OW11464   3.184   5.120   1.878
 3522SOL    HW111465   3.214   5.156   1.966
 3522SOL    HW211466   3.205   5.022   1.873
 3523SOL     OW11467   2.958   4.837   4.765
 3523SOL    HW111468   2.904   4.899   4.821
 3523SOL    HW211469   2.902   4.757   4.740
 3524SOL     OW11470   2.470   0.523   0.930
 3524SOL    HW111471   2.437   0.437   0.891
 3524SOL    HW211472   2.465   0.594   0.860
 3525SOL     OW11473   0.568   2.971   2.194
 3525SOL    HW111474   0.643   3.029   2.225
 3525SOL    HW211475   0.541   2.910   2.268
 3526SOL     OW11476   0.715   0.691   3.195
 3526SOL    HW111477   0.775   0.769   3.211
 3526SOL    HW211478   0.734   0.651   3.106
 3527SOL     OW11479   5.317   2.777   6.413
 3527SOL    HW111480   5.383   2.852   6.411
 3527SOL    HW211481   5.224   2.814   6.408
 3528SOL     OW11482   0.600   5.990   3.222
 3528SOL    HW111483   0.580   5.913   3.282
 3528SOL    HW211484   0.521   6.051   3.219
 3529SOL     OW11485   4.801   6.768   5.394
 3529SOL    HW111486   4.883   6.776   5.336
 3529SOL    HW211487   4.823   6.800   5.486
 3530SOL     OW11488   2.889   5.460   2.322
 3530SOL    HW111489   2.790   5.473   2.331
 3530SOL    HW211490   2.910   5.431   2.228
 3531SOL     OW11491   5.978   4.884   0.987
 3531SOL    HW111492   5.934   4.840   0.909
 3531SOL    HW211493   6.017   4.972   0.958
 3532SOL     OW11494   2.643   0.707   6.895
 3532SOL    HW111495   2.712   0.640   6.866
 3532SOL    HW211496   2.685   0.774   6.956
 3533SOL     OW11497   1.285   1.944   3.737
 3533SOL    HW111498   1.201   1.915   3.783
 3533SOL    HW211499   1.271   2.033   3.695
 3534SOL     OW11500   5.680   2.018   5.366
 3534SOL    HW111501   5.634   2.041   5.280
 3534SOL    HW211502   5.611   1.996   5.435
 3535SOL     OW11503   6.265   5.142   6.101
 3535SOL    HW111504   6.333   5.081   6.142
 3535SOL    HW211505   6.270   5.231   6.146
 3536SOL     OW11506   2.147   3.266   3.184
 3536SOL    HW111507   2.060   3.227   3.215
 3536SOL    HW211508   2.135   3.306   3.093
 3537SOL     OW11509   2.322   5.534   0.674
 3537SOL    HW111510   2.390   5.499   0.610
 3537SOL    HW211511   2.348   5.627   0.701
 3538SOL     OW11512   3.000   6.835   2.529
 3538SOL    HW111513   3.068   6.907   2.540
 3538SOL    HW211514   3.021   6.783   2.446
 3539SOL     OW11515   5.521   4.849   6.274
 3539SOL    HW111516   5.602   4.877   6.223
 3539SOL    HW211517   5.451   4.818   6.210
 3540SOL     OW11518   2.535   3.183   6.393
 3540SOL    HW111519   2.478   3.260   6.422
 3540SOL    HW211520   2.624   3.217   6.362
 3541SOL     OW11521   2.728   2.804   1.119
 3541SOL    HW111522   2.718   2.749   1.036
 3541SOL    HW211523   2.822   2.835   1.128
 3542SOL     OW11524   5.260   2.451   0.087
 3542SOL    HW111525   5.284   2.447   0.184
 3542SOL    HW211526   5.338   2.421   0.032
 3543SOL     OW11527   2.069   2.967   2.875
 3543SOL    HW111528   2.061   2.908   2.794
 3543SOL    HW211529   2.112   3.053   2.849
 3544SOL     OW11530   2.978   4.656   6.228
 3544SOL    HW111531   2.885   4.680   6.202
 3544SOL    HW211532   3.030   4.631   6.145
 3545SOL     OW11533   3.848   6.498   1.064
 3545SOL    HW111534   3.946   6.506   1.084
 3545SOL    HW211535   3.796   6.537   1.140
 3546SOL     OW11536   6.721   3.764   3.477
 3546SOL    HW111537   6.632   3.734   3.510
 3546SOL    HW211538   6.723   3.761   3.377
 3547SOL     OW11539   0.004   3.604   5.114
 3547SOL    HW111540   0.041   3.544   5.185
 3547SOL    HW211541   0.043   3.695   5.124
 3548SOL     OW11542   5.024   1.818   5.911
 3548SOL    HW111543   5.051   1.747   5.846
 3548SOL    HW211544   4.976   1.890   5.862
 3549SOL     OW11545   2.947   5.898   0.278
 3549SOL    HW111546   2.907   5.849   0.200
 3549SOL    HW211547   2.984   5.986   0.246
 3550SOL     OW11548   5.178   1.836   5.474
 3550SOL    HW111549   5.166   1.872   5.567
 3550SOL    HW211550   5.103   1.870   5.416
 3551SOL     OW11551   3.869   2.066   5.626
 3551SOL    HW111552   3.886   2.165   5.620
 3551SOL    HW211553   3.815   2.047   5.709
 3552SOL     OW11554   6.727   5.840   1.871
 3552SOL    HW111555   6.752   5.931   1.840
 3552SOL    HW211556   6.780   5.772   1.820
 3553SOL     OW11557   3.963   5.672   6.204
 3553SOL    HW111558   4.013   5.606   6.261
 3553SOL    HW211559   3.896   5.721   6.261
 3554SOL     OW11560   4.157   3.394   1.649
 3554SOL    HW111561   4.122   3.446   1.727
 3554SOL    HW211562   4.221   3.324   1.681
 3555SOL     OW11563   1.951   2.390   3.799
 3555SOL    HW111564   1.954   2.319   3.729
 3555SOL    HW211565   1.918   2.351   3.885
 3556SOL     OW11566   4.208   0.639   5.072
 3556SOL    HW111567   4.220   0.609   4.977
 3556SOL    HW211568   4.261   0.723   5.087
 3557SOL     OW11569   0.048   1.025   2.209
 3557SOL    HW111570   0.102   0.991   2.285
 3557SOL    HW211571   0.107   1.035   2.128
 3558SOL     OW11572   3.122   6.539   0.712
 3558SOL    HW111573   3.063   6.607   0.754
 3558SOL    HW211574   3.201   6.584   0.670
 3559SOL     OW11575   3.755   6.572   4.874
 3559SOL    HW111576   3.694   6.533   4.805
 3559SOL    HW211577   3.849   6.563   4.844
 3560SOL     OW11578   1.511   5.232   5.007
 3560SOL    HW111579   1.469   5.293   4.940
 3560SOL    HW211580   1.440   5.189   5.062
 3561SOL     OW11581   5.029   4.480   5.214
 3561SOL    HW111582   5.043   4.444   5.306
 3561SOL    HW211583   4.947   4.438   5.174
 3562SOL     OW11584   2.370   1.484   4.839
 3562SOL    HW111585   2.443   1.474   4.907
 3562SOL    HW211586   2.349   1.394   4.800
 3563SOL     OW11587   5.824   2.099   5.646
 3563SOL    HW111588   5.730   2.067   5.630
 3563SOL    HW211589   5.888   2.037   5.601
 3564SOL     OW11590   0.367   4.464   2.910
 3564SOL    HW111591   0.402   4.490   2.820
 3564SOL    HW211592   0.268   4.451   2.905
 3565SOL     OW11593   3.297   5.227   3.435
 3565SOL    HW111594   3.305   5.134   3.470
 3565SOL    HW211595   3.361   5.287   3.484
 3566SOL     OW11596   6.603   1.143   5.574
 3566SOL    HW111597   6.630   1.047   5.569
 3566SOL    HW211598   6.651   1.187   5.650
 3567SOL     OW11599   0.304   4.366   0.063
 3567SOL    HW111600   0.252   4.296   0.113
 3567SOL    HW211601   0.340   4.326   6.998
 3568SOL     OW11602   6.727   3.616   6.111
 3568SOL    HW111603   6.689   3.615   6.204
 3568SOL    HW211604   6.827   3.624   6.117
 3569SOL     OW11605   3.026   1.698   5.579
 3569SOL    HW111606   3.005   1.763   5.652
 3569SOL    HW211607   2.951   1.695   5.513
 3570SOL     OW11608   5.637   0.669   4.226
 3570SOL    HW111609   5.602   0.712   4.143
 3570SOL    HW211610   5.736   0.657   4.217
 3571SOL     OW11611   6.470   5.947   6.402
 3571SOL    HW111612   6.538   6.018   6.414
 3571SOL    HW211613   6.504   5.878   6.338
 3572SOL     OW11614   5.291   3.425   3.650
 3572SOL    HW111615   5.376   3.447   3.698
 3572SOL    HW211616   5.273   3.495   3.581
 3573SOL     OW11617   1.255   4.546   3.954
 3573SOL    HW111618   1.163   4.547   3.916
 3573SOL    HW211619   1.318   4.592   3.892
 3574SOL     OW11620   0.164   4.938   0.407
 3574SOL    HW111621   0.218   4.874   0.462
 3574SOL    HW211622   0.108   4.887   0.341
 3575SOL     OW11623   6.111   5.168   3.186
 3575SOL    HW111624   6.134   5.173   3.283
 3575SOL    HW211625   6.015   5.193   3.173
 3576SOL     OW11626   0.982   1.292   6.277
 3576SOL    HW111627   0.888   1.301   6.244
 3576SOL    HW211628   1.045   1.330   6.209
 3577SOL     OW11629   0.820   2.384   6.491
 3577SOL    HW111630   0.885   2.347   6.557
 3577SOL    HW211631   0.728   2.382   6.528
 3578SOL     OW11632   3.473   4.118   6.746
 3578SOL    HW111633   3.533   4.167   6.809
 3578SOL    HW211634   3.383   4.107   6.788
 3579SOL     OW11635   6.642   3.480   4.946
 3579SOL    HW111636   6.635   3.391   4.990
 3579SOL    HW211637   6.675   3.548   5.013
 3580SOL     OW11638   5.419   1.832   1.743
 3580SOL    HW111639   5.395   1.839   1.840
 3580SOL    HW211640   5.479   1.908   1.719
 3581SOL     OW11641   6.405   6.909   2.883
 3581SOL    HW111642   6.451   6.881   2.967
 3581SOL    HW211643   6.462   6.977   2.836
 3582SOL     OW11644   1.257   1.159   5.744
 3582SOL    HW111645   1.180   1.163   5.682
 3582SOL    HW211646   1.342   1.177   5.694
 3583SOL     OW11647   1.150   4.575   6.975
 3583SOL    HW111648   1.218   4.648   6.985
 3583SOL    HW211649   1.144   4.524   0.042
 3584SOL     OW11650   6.180   6.325   6.063
 3584SOL    HW111651   6.142   6.388   5.996
 3584SOL    HW211652   6.156   6.355   6.155
 3585SOL     OW11653   3.386   4.940   4.844
 3585SOL    HW111654   3.341   4.892   4.769
 3585SOL    HW211655   3.330   5.018   4.872
 3586SOL     OW11656   6.248   2.668   5.354
 3586SOL    HW111657   6.226   2.578   5.392
 3586SOL    HW211658   6.182   2.691   5.282
 3587SOL     OW11659   2.852   7.003   1.154
 3587SOL    HW111660   2.853   6.904   1.167
 3587SOL    HW211661   2.940   0.023   1.183
 3588SOL     OW11662   1.959   2.018   5.699
 3588SOL    HW111663   1.984   1.984   5.608
 3588SOL    HW211664   2.027   1.989   5.766
 3589SOL     OW11665   3.601   0.774   4.531
 3589SOL    HW111666   3.510   0.780   4.491
 3589SOL    HW211667   3.668   0.812   4.468
 3590SOL     OW11668   1.296   4.622   6.494
 3590SOL    HW111669   1.396   4.620   6.490
 3590SOL    HW211670   1.259   4.582   6.410
 3591SOL     OW11671   5.537   2.997   6.407
 3591SOL    HW111672   5.589   3.066   6.458
 3591SOL    HW211673   5.532   3.023   6.311
 3592SOL     OW11674   5.338   2.989   2.803
 3592SOL    HW111675   5.391   3.074   2.792
 3592SOL    HW211676   5.380   2.933   2.874
 3593SOL     OW11677   2.540   6.334   4.693
 3593SOL    HW111678   2.448   6.295   4.682
 3593SOL    HW211679   2.533   6.433   4.695
 3594SOL     OW11680   2.644   1.011   3.344
 3594SOL    HW111681   2.701   0.983   3.267
 3594SOL    HW211682   2.664   0.953   3.423
 3595SOL     OW11683   2.395   6.258   5.418
 3595SOL    HW111684   2.367   6.325   5.487
 3595SOL    HW211685   2.328   6.255   5.344
 3596SOL     OW11686   6.456   1.145   2.585
 3596SOL    HW111687   6.519   1.133   2.662
 3596SOL    HW211688   6.505   1.185   2.508
 3597SOL     OW11689   3.879   6.277   4.287
 3597SOL    HW111690   3.812   6.316   4.350
 3597SOL    HW211691   3.860   6.311   4.194
 3598SOL     OW11692   0.802   0.608   5.657
 3598SOL    HW111693   0.782   0.561   5.571
 3598SOL    HW211694   0.869   0.556   5.709
 3599SOL     OW11695   0.476   1.584   5.826
 3599SOL    HW111696   0.386   1.598   5.783
 3599SOL    HW211697   0.471   1.607   5.923
 3600SOL     OW11698   6.529   3.264   0.620
 3600SOL    HW111699   6.474   3.347   0.604
 3600SOL    HW211700   6.490   3.212   0.696
 3601SOL     OW11701   0.091   4.196   0.629
 3601SOL    HW111702   0.191   4.192   0.636
 3601SOL    HW211703   0.054   4.103   0.632
 3602SOL     OW11704   1.784   0.880   0.432
 3602SOL    HW111705   1.737   0.913   0.514
 3602SOL    HW211706   1.764   0.783   0.420
 3603SOL     OW11707   3.709   5.584   4.199
 3603SOL    HW111708   3.691   5.600   4.102
 3603SOL    HW211709   3.700   5.486   4.219
 3604SOL     OW11710   6.867   3.094   2.943
 3604SOL    HW111711   6.946   3.072   3.000
 3604SOL    HW211712   6.799   3.020   2.951
 3605SOL     OW11713   6.074   4.556   6.184
 3605SOL    HW111714   6.076   4.495   6.263
 3605SOL    HW211715   6.154   4.539   6.127
 3606SOL     OW11716   6.902   4.903   5.932
 3606SOL    HW111717   6.903   4.825   5.870
 3606SOL    HW211718   6.873   4.873   6.023
 3607SOL     OW11719   5.221   0.572   0.405
 3607SOL    HW111720   5.239   0.535   0.314
 3607SOL    HW211721   5.123   0.563   0.425
 3608SOL     OW11722   6.579   1.399   1.681
 3608SOL    HW111723   6.672   1.423   1.711
 3608SOL    HW211724   6.519   1.478   1.693
 3609SOL     OW11725   6.756   0.734   4.304
 3609SOL    HW111726   6.748   0.787   4.389
 3609SOL    HW211727   6.670   0.738   4.254
 3610SOL     OW11728   0.587   0.084   4.754
 3610SOL    HW111729   0.652   0.033   4.698
 3610SOL    HW211730   0.637   0.151   4.810
 3611SOL     OW11731   3.615   5.031   5.420
 3611SOL    HW111732   3.706   5.017   5.380
 3611SOL    HW211733   3.552   4.962   5.384
 3612SOL     OW11734   0.727   6.173   6.237
 3612SOL    HW111735   0.640   6.221   6.242
 3612SOL    HW211736   0.795   6.232   6.192
 3613SOL     OW11737   5.084   5.004   0.965
 3613SOL    HW111738   5.182   4.997   0.949
 3613SOL    HW211739   5.061   5.097   0.992
 3614SOL     OW11740   3.886   3.379   3.208
 3614SOL    HW111741   3.906   3.381   3.306
 3614SOL    HW211742   3.929   3.458   3.164
 3615SOL     OW11743   6.039   5.755   5.790
 3615SOL    HW111744   6.018   5.683   5.723
 3615SOL    HW211745   6.080   5.713   5.871
 3616SOL     OW11746   6.498   2.310   0.103
 3616SOL    HW111747   6.494   2.347   0.010
 3616SOL    HW211748   6.564   2.363   0.157
 3617SOL     OW11749   5.255   1.700   6.356
 3617SOL    HW111750   5.229   1.610   6.390
 3617SOL    HW211751   5.181   1.765   6.371
 3618SOL     OW11752   1.428   1.678   5.675
 3618SOL    HW111753   1.520   1.643   5.661
 3618SOL    HW211754   1.430   1.777   5.689
 3619SOL     OW11755   5.863   2.207   4.118
 3619SOL    HW111756   5.905   2.212   4.027
 3619SOL    HW211757   5.846   2.299   4.152
 3620SOL     OW11758   5.528   6.618   5.455
 3620SOL    HW111759   5.553   6.663   5.369
 3620SOL    HW211760   5.436   6.580   5.447
 3621SOL     OW11761   2.945   2.809   6.023
 3621SOL    HW111762   2.951   2.709   6.030
 3621SOL    HW211763   2.883   2.833   5.948
 3622SOL     OW11764   0.830   2.106   3.349
 3622SOL    HW111765   0.847   2.103   3.251
 3622SOL    HW211766   0.742   2.064   3.369
 3623SOL     OW11767   6.466   5.098   4.205
 3623SOL    HW111768   6.373   5.108   4.240
 3623SOL    HW211769   6.530   5.145   4.267
 3624SOL     OW11770   1.896   6.214   2.683
 3624SOL    HW111771   1.983   6.167   2.691
 3624SOL    HW211772   1.857   6.228   2.774
 3625SOL     OW11773   6.229   3.012   6.291
 3625SOL    HW111774   6.148   2.957   6.314
 3625SOL    HW211775   6.299   2.999   6.361
 3626SOL     OW11776   2.562   3.581   5.351
 3626SOL    HW111777   2.524   3.672   5.371
 3626SOL    HW211778   2.659   3.589   5.328
 3627SOL     OW11779   4.141   3.578   3.372
 3627SOL    HW111780   4.211   3.568   3.443
 3627SOL    HW211781   4.073   3.645   3.402
 3628SOL     OW11782   1.893   6.990   1.778
 3628SOL    HW111783   1.843   0.039   1.724
 3628SOL    HW211784   1.896   0.001   1.874
 3629SOL     OW11785   6.507   1.940   5.237
 3629SOL    HW111786   6.418   1.894   5.242
 3629SOL    HW211787   6.505   2.007   5.162
 3630SOL     OW11788   5.643   2.740   4.178
 3630SOL    HW111789   5.698   2.728   4.260
 3630SOL    HW211790   5.682   2.813   4.122
 3631SOL     OW11791   2.436   0.282   4.598
 3631SOL    HW111792   2.471   0.252   4.687
 3631SOL    HW211793   2.502   0.345   4.557
 3632SOL     OW11794   4.913   0.549   0.761
 3632SOL    HW111795   4.972   0.523   0.684
 3632SOL    HW211796   4.862   0.631   0.738
 3633SOL     OW11797   3.154   2.388   5.810
 3633SOL    HW111798   3.059   2.364   5.830
 3633SOL    HW211799   3.165   2.403   5.712
 3634SOL     OW11800   0.632   5.845   4.420
 3634SOL    HW111801   0.695   5.896   4.361
 3634SOL    HW211802   0.629   5.886   4.510
 3635SOL     OW11803   3.524   0.671   5.558
 3635SOL    HW111804   3.566   0.594   5.606
 3635SOL    HW211805   3.591   0.711   5.495
 3636SOL     OW11806   0.494   5.833   5.692
 3636SOL    HW111807   0.535   5.747   5.660
 3636SOL    HW211808   0.395   5.823   5.695
 3637SOL     OW11809   6.398   1.780   1.108
 3637SOL    HW111810   6.481   1.803   1.057
 3637SOL    HW211811   6.422   1.757   1.202
 3638SOL     OW11812   6.322   4.798   4.301
 3638SOL    HW111813   6.387   4.844   4.362
 3638SOL    HW211814   6.332   4.835   4.208
 3639SOL     OW11815   4.019   3.776   1.050
 3639SOL    HW111816   4.097   3.822   1.094
 3639SOL    HW211817   3.955   3.844   1.015
 3640SOL     OW11818   3.551   6.480   6.485
 3640SOL    HW111819   3.538   6.465   6.387
 3640SOL    HW211820   3.558   6.392   6.531
 3641SOL     OW11821   4.206   2.231   4.987
 3641SOL    HW111822   4.212   2.205   4.891
 3641SOL    HW211823   4.217   2.330   4.996
 3642SOL     OW11824   4.705   1.672   5.979
 3642SOL    HW111825   4.733   1.758   6.020
 3642SOL    HW211826   4.773   1.642   5.912
 3643SOL     OW11827   2.850   5.960   4.615
 3643SOL    HW111828   2.933   5.935   4.565
 3643SOL    HW211829   2.871   5.969   4.712
 3644SOL     OW11830   6.702   0.934   1.315
 3644SOL    HW111831   6.670   0.883   1.395
 3644SOL    HW211832   6.800   0.948   1.322
 3645SOL     OW11833   5.631   1.198   3.977
 3645SOL    HW111834   5.727   1.223   3.968
 3645SOL    HW211835   5.605   1.195   4.073
 3646SOL     OW11836   0.395   4.729   6.020
 3646SOL    HW111837   0.483   4.681   6.022
 3646SOL    HW211838   0.411   4.828   6.016
 3647SOL     OW11839   1.595   3.973   0.493
 3647SOL    HW111840   1.658   3.928   0.430
 3647SOL    HW211841   1.645   4.010   0.571
 3648SOL     OW11842   3.485   5.517   2.794
 3648SOL    HW111843   3.504   5.495   2.889
 3648SOL    HW211844   3.572   5.531   2.745
 3649SOL     OW11845   4.178   2.808   1.447
 3649SOL    HW111846   4.244   2.801   1.372
 3649SOL    HW211847   4.098   2.859   1.417
 3650SOL     OW11848   6.480   5.713   0.958
 3650SOL    HW111849   6.466   5.786   1.025
 3650SOL    HW211850   6.573   5.678   0.967
 3651SOL     OW11851   0.758   5.934   2.993
 3651SOL    HW111852   0.698   5.969   3.065
 3651SOL    HW211853   0.754   5.996   2.914
 3652SOL     OW11854   4.952   6.215   3.513
 3652SOL    HW111855   4.905   6.213   3.425
 3652SOL    HW211856   4.925   6.135   3.567
 3653SOL     OW11857   6.580   0.538   3.045
 3653SOL    HW111858   6.496   0.493   3.075
 3653SOL    HW211859   6.649   0.532   3.117
 3654SOL     OW11860   2.116   6.464   0.031
 3654SOL    HW111861   2.040   6.503   6.999
 3654SOL    HW211862   2.149   6.382   7.002
 3655SOL     OW11863   1.075   0.039   3.748
 3655SOL    HW111864   0.977   0.033   3.729
 3655SOL    HW211865   1.095   0.126   3.793
 3656SOL     OW11866   1.542   2.833   1.350
 3656SOL    HW111867   1.637   2.802   1.343
 3656SOL    HW211868   1.480   2.756   1.335
 3657SOL     OW11869   4.822   6.059   5.799
 3657SOL    HW111870   4.843   6.003   5.879
 3657SOL    HW211871   4.867   6.148   5.807
 3658SOL     OW11872   0.994   5.384   4.207
 3658SOL    HW111873   1.026   5.479   4.201
 3658SOL    HW211874   0.927   5.377   4.282
 3659SOL     OW11875   3.086   3.713   5.730
 3659SOL    HW111876   3.167   3.654   5.730
 3659SOL    HW211877   3.021   3.681   5.798
 3660SOL     OW11878   5.030   6.203   2.168
 3660SOL    HW111879   4.932   6.201   2.191
 3660SOL    HW211880   5.082   6.151   2.235
 3661SOL     OW11881   4.245   2.415   6.650
 3661SOL    HW111882   4.323   2.466   6.613
 3661SOL    HW211883   4.218   2.344   6.586
 3662SOL     OW11884   3.624   0.745   3.908
 3662SOL    HW111885   3.571   0.678   3.960
 3662SOL    HW211886   3.584   0.754   3.817
 3663SOL     OW11887   1.468   1.486   0.729
 3663SOL    HW111888   1.536   1.549   0.767
 3663SOL    HW211889   1.511   1.399   0.708
 3664SOL     OW11890   5.215   1.804   1.142
 3664SOL    HW111891   5.167   1.784   1.227
 3664SOL    HW211892   5.183   1.892   1.106
 3665SOL     OW11893   0.686   6.065   5.489
 3665SOL    HW111894   0.769   6.008   5.488
 3665SOL    HW211895   0.701   6.145   5.431
 3666SOL     OW11896   1.880   4.331   3.746
 3666SOL    HW111897   1.920   4.421   3.758
 3666SOL    HW211898   1.925   4.265   3.806
 3667SOL     OW11899   6.051   0.050   0.481
 3667SOL    HW111900   5.983   0.117   0.451
 3667SOL    HW211901   6.125   0.098   0.530
 3668SOL     OW11902   1.472   0.305   1.395
 3668SOL    HW111903   1.496   0.210   1.376
 3668SOL    HW211904   1.545   0.365   1.364
 3669SOL     OW11905   5.853   1.257   4.575
 3669SOL    HW111906   5.778   1.197   4.605
 3669SOL    HW211907   5.830   1.297   4.487
 3670SOL     OW11908   2.097   5.204   0.824
 3670SOL    HW111909   2.135   5.263   0.895
 3670SOL    HW211910   2.045   5.130   0.867
 3671SOL     OW11911   6.340   0.455   3.119
 3671SOL    HW111912   6.279   0.532   3.100
 3671SOL    HW211913   6.287   0.378   3.153
 3672SOL     OW11914   5.856   1.466   1.232
 3672SOL    HW111915   5.802   1.530   1.286
 3672SOL    HW211916   5.802   1.384   1.215
 3673SOL     OW11917   3.034   0.448   5.749
 3673SOL    HW111918   3.095   0.381   5.707
 3673SOL    HW211919   3.066   0.468   5.841
 3674SOL     OW11920   0.309   0.648   5.814
 3674SOL    HW111921   0.296   0.587   5.736
 3674SOL    HW211922   0.406   0.657   5.834
 3675SOL     OW11923   1.818   3.051   4.982
 3675SOL    HW111924   1.904   3.084   5.022
 3675SOL    HW211925   1.760   3.014   5.054
 3676SOL     OW11926   4.009   5.113   4.552
 3676SOL    HW111927   4.028   5.163   4.468
 3676SOL    HW211928   3.928   5.151   4.597
 3677SOL     OW11929   1.032   5.956   2.784
 3677SOL    HW111930   0.938   5.988   2.772
 3677SOL    HW211931   1.032   5.861   2.815
 3678SOL     OW11932   1.072   3.236   3.987
 3678SOL    HW111933   1.025   3.323   4.000
 3678SOL    HW211934   1.082   3.190   4.076
 3679SOL     OW11935   1.015   1.193   2.714
 3679SOL    HW111936   1.077   1.270   2.702
 3679SOL    HW211937   1.050   1.133   2.786
 3680SOL     OW11938   6.447   2.804   3.682
 3680SOL    HW111939   6.350   2.785   3.693
 3680SOL    HW211940   6.491   2.806   3.772
 3681SOL     OW11941   0.244   0.473   6.107
 3681SOL    HW111942   0.297   0.492   6.025
 3681SOL    HW211943   0.150   0.505   6.094
 3682SOL     OW11944   6.420   2.758   6.169
 3682SOL    HW111945   6.349   2.706   6.217
 3682SOL    HW211946   6.378   2.832   6.118
 3683SOL     OW11947   6.897   0.403   4.617
 3683SOL    HW111948   6.922   0.317   4.661
 3683SOL    HW211949   6.889   0.389   4.519
 3684SOL     OW11950   1.544   3.480   0.397
 3684SOL    HW111951   1.547   3.538   0.316
 3684SOL    HW211952   1.496   3.528   0.470
 3685SOL     OW11953   6.313   6.220   5.809
 3685SOL    HW111954   6.271   6.254   5.893
 3685SOL    HW211955   6.341   6.125   5.822
 3686SOL     OW11956   6.450   5.451   3.229
 3686SOL    HW111957   6.521   5.470   3.296
 3686SOL    HW211958   6.448   5.525   3.161
 3687SOL     OW11959   2.990   6.028   5.801
 3687SOL    HW111960   2.905   6.022   5.854
 3687SOL    HW211961   2.974   6.082   5.719
 3688SOL     OW11962   1.344   3.831   6.738
 3688SOL    HW111963   1.412   3.899   6.765
 3688SOL    HW211964   1.369   3.792   6.649
 3689SOL     OW11965   1.104   0.683   5.598
 3689SOL    HW111966   1.026   0.738   5.568
 3689SOL    HW211967   1.072   0.610   5.659
 3690SOL     OW11968   4.006   7.007   6.061
 3690SOL    HW111969   3.977   6.914   6.082
 3690SOL    HW211970   4.077   7.005   5.991
 3691SOL     OW11971   2.238   2.834   6.963
 3691SOL    HW111972   2.282   2.899   0.006
 3691SOL    HW211973   2.299   2.814   6.886
 3692SOL     OW11974   0.976   6.218   5.016
 3692SOL    HW111975   0.945   6.312   5.002
 3692SOL    HW211976   1.075   6.215   5.010
 3693SOL     OW11977   1.764   3.275   2.854
 3693SOL    HW111978   1.749   3.368   2.889
 3693SOL    HW211979   1.836   3.231   2.907
 3694SOL     OW11980   0.964   4.807   2.439
 3694SOL    HW111981   0.904   4.866   2.493
 3694SOL    HW211982   0.964   4.837   2.344
 3695SOL     OW11983   0.271   2.336   2.748
 3695SOL    HW111984   0.359   2.289   2.752
 3695SOL    HW211985   0.264   2.400   2.825
 3696SOL     OW11986   4.025   5.757   5.014
 3696SOL    HW111987   3.967   5.755   5.095
 3696SOL    HW211988   4.116   5.723   5.037
 3697SOL     OW11989   7.000   5.551   3.895
 3697SOL    HW111990   0.069   5.523   3.934
 3697SOL    HW211991   6.975   5.642   3.930
 3698SOL     OW11992   3.327   6.255   5.050
 3698SOL    HW111993   3.356   6.306   4.969
 3698SOL    HW211994   3.295   6.164   5.021
 3699SOL     OW11995   6.533   3.910   3.009
 3699SOL    HW111996   6.441   3.945   3.028
 3699SOL    HW211997   6.542   3.891   2.912
 3700SOL     OW11998   6.127   0.466   3.796
 3700SOL    HW111999   6.177   0.521   3.863
 3700SOL    HW212000   6.085   0.527   3.728
 3701SOL     OW12001   0.669   1.247   3.059
 3701SOL    HW112002   0.768   1.240   3.072
 3701SOL    HW212003   0.631   1.305   3.130
 3702SOL     OW12004   4.307   0.553   2.456
 3702SOL    HW112005   4.307   0.596   2.365
 3702SOL    HW212006   4.218   0.511   2.473
 3703SOL     OW12007   4.282   3.371   6.366
 3703SOL    HW112008   4.257   3.467   6.379
 3703SOL    HW212009   4.348   3.364   6.291
 3704SOL     OW12010   2.957   0.764   1.605
 3704SOL    HW112011   2.956   0.664   1.609
 3704SOL    HW212012   2.901   0.801   1.679
 3705SOL     OW12013   5.158   6.250   4.108
 3705SOL    HW112014   5.122   6.331   4.155
 3705SOL    HW212015   5.205   6.192   4.174
 3706SOL     OW12016   0.638   2.761   4.513
 3706SOL    HW112017   0.615   2.705   4.433
 3706SOL    HW212018   0.615   2.856   4.494
 3707SOL     OW12019   5.301   3.752   5.054
 3707SOL    HW112020   5.294   3.800   5.141
 3707SOL    HW212021   5.396   3.755   5.022
 3708SOL     OW12022   6.499   0.701   6.507
 3708SOL    HW112023   6.406   0.731   6.527
 3708SOL    HW212024   6.517   0.714   6.409
 3709SOL     OW12025   3.851   0.738   0.341
 3709SOL    HW112026   3.751   0.746   0.340
 3709SOL    HW212027   3.884   0.755   0.434
 3710SOL     OW12028   6.708   5.650   7.002
 3710SOL    HW112029   6.747   5.564   0.015
 3710SOL    HW212030   6.644   5.685   0.052
 3711SOL     OW12031   6.991   6.031   2.191
 3711SOL    HW112032   6.976   6.126   2.165
 3711SOL    HW212033   6.961   6.017   2.286
 3712SOL     OW12034   6.823   5.888   6.463
 3712SOL    HW112035   6.763   5.965   6.486
 3712SOL    HW212036   6.893   5.878   6.534
 3713SOL     OW12037   1.408   6.178   4.565
 3713SOL    HW112038   1.422   6.090   4.519
 3713SOL    HW212039   1.491   6.203   4.614
 3714SOL     OW12040   4.940   5.884   4.844
 3714SOL    HW112041   4.904   5.792   4.857
 3714SOL    HW212042   4.873   5.940   4.795
 3715SOL     OW12043   6.053   3.503   4.478
 3715SOL    HW112044   5.975   3.534   4.424
 3715SOL    HW212045   6.109   3.581   4.504
 3716SOL     OW12046   6.930   6.588   4.416
 3716SOL    HW112047   6.960   6.602   4.510
 3716SOL    HW212048   7.005   6.609   4.353
 3717SOL     OW12049   6.400   5.580   6.802
 3717SOL    HW112050   6.370   5.490   6.832
 3717SOL    HW212051   6.347   5.651   6.848
 3718SOL     OW12052   2.421   6.644   5.943
 3718SOL    HW112053   2.351   6.574   5.928
 3718SOL    HW212054   2.397   6.727   5.893
 3719SOL     OW12055   4.913   4.130   0.722
 3719SOL    HW112056   4.960   4.091   0.801
 3719SOL    HW212057   4.817   4.100   0.723
 3720SOL     OW12058   5.672   2.198   6.122
 3720SOL    HW112059   5.626   2.169   6.206
 3720SOL    HW212060   5.714   2.119   6.078
 3721SOL     OW12061   5.438   4.777   0.538
 3721SOL    HW112062   5.477   4.859   0.579
 3721SOL    HW212063   5.421   4.709   0.609
 3722SOL     OW12064   0.179   0.007   2.614
 3722SOL    HW112065   0.212   7.006   2.706
 3722SOL    HW212066   0.251   7.002   2.547
 3723SOL     OW12067   6.516   6.324   1.841
 3723SOL    HW112068   6.461   6.310   1.924
 3723SOL    HW212069   6.506   6.246   1.780
 3724SOL     OW12070   2.357   5.332   0.008
 3724SOL    HW112071   2.412   5.414   0.023
 3724SOL    HW212072   2.392   5.284   6.946
 3725SOL     OW12073   5.407   6.065   6.843
 3725SOL    HW112074   5.334   5.997   6.849
 3725SOL    HW212075   5.474   6.036   6.774
 3726SOL     OW12076   6.540   4.778   1.574
 3726SOL    HW112077   6.455   4.832   1.568
 3726SOL    HW212078   6.574   4.761   1.482
 3727SOL     OW12079   0.160   3.061   6.108
 3727SOL    HW112080   0.244   3.011   6.132
 3727SOL    HW212081   0.142   3.131   6.176
 3728SOL     OW12082   1.333   3.785   0.087
 3728SOL    HW112083   1.393   3.861   0.110
 3728SOL    HW212084   1.259   3.817   0.028
 3729SOL     OW12085   1.062   2.571   3.925
 3729SOL    HW112086   1.038   2.475   3.911
 3729SOL    HW212087   1.159   2.579   3.947
 3730SOL     OW12088   2.866   5.803   6.815
 3730SOL    HW112089   2.931   5.835   6.883
 3730SOL    HW212090   2.874   5.859   6.732
 3731SOL     OW12091   4.518   0.359   0.352
 3731SOL    HW112092   4.513   0.263   0.382
 3731SOL    HW212093   4.547   0.362   0.256
 3732SOL     OW12094   1.731   2.814   6.157
 3732SOL    HW112095   1.636   2.843   6.145
 3732SOL    HW212096   1.745   2.785   6.251
 3733SOL     OW12097   1.796   3.738   1.341
 3733SOL    HW112098   1.882   3.697   1.311
 3733SOL    HW212099   1.813   3.833   1.369
 3734SOL     OW12100   4.051   1.672   1.881
 3734SOL    HW112101   4.040   1.596   1.945
 3734SOL    HW212102   3.966   1.687   1.831
 3735SOL     OW12103   1.680   1.872   3.500
 3735SOL    HW112104   1.774   1.852   3.530
 3735SOL    HW212105   1.680   1.889   3.401
 3736SOL     OW12106   0.461   3.178   0.735
 3736SOL    HW112107   0.369   3.187   0.772
 3736SOL    HW212108   0.522   3.141   0.805
 3737SOL     OW12109   5.122   0.268   3.288
 3737SOL    HW112110   5.083   0.263   3.380
 3737SOL    HW212111   5.050   0.249   3.221
 3738SOL     OW12112   6.638   6.579   3.343
 3738SOL    HW112113   6.598   6.585   3.251
 3738SOL    HW212114   6.573   6.535   3.405
 3739SOL     OW12115   1.672   4.320   2.397
 3739SOL    HW112116   1.685   4.263   2.478
 3739SOL    HW212117   1.729   4.285   2.322
 3740SOL     OW12118   4.433   0.526   6.918
 3740SOL    HW112119   4.341   0.564   6.906
 3740SOL    HW212120   4.452   0.462   6.844
 3741SOL     OW12121   4.677   3.292   1.723
 3741SOL    HW112122   4.680   3.200   1.760
 3741SOL    HW212123   4.661   3.289   1.624
 3742SOL     OW12124   2.847   2.190   5.417
 3742SOL    HW112125   2.905   2.259   5.374
 3742SOL    HW212126   2.781   2.155   5.351
 3743SOL     OW12127   5.532   4.895   1.015
 3743SOL    HW112128   5.550   4.798   1.001
 3743SOL    HW212129   5.606   4.936   1.069
 3744SOL     OW12130   0.576   5.717   3.289
 3744SOL    HW112131   0.662   5.719   3.237
 3744SOL    HW212132   0.503   5.682   3.230
 3745SOL     OW12133   3.263   5.462   2.641
 3745SOL    HW112134   3.349   5.503   2.673
 3745SOL    HW212135   3.255   5.369   2.674
 3746SOL     OW12136   4.446   1.401   1.953
 3746SOL    HW112137   4.533   1.429   1.993
 3746SOL    HW212138   4.408   1.476   1.899
 3747SOL     OW12139   3.047   6.997   5.765
 3747SOL    HW112140   3.127   0.025   5.726
 3747SOL    HW212141   3.076   6.909   5.803
 3748SOL     OW12142   5.722   0.344   1.733
 3748SOL    HW112143   5.674   0.413   1.786
 3748SOL    HW212144   5.767   0.279   1.794
 3749SOL     OW12145   1.747   6.481   3.807
 3749SOL    HW112146   1.677   6.550   3.822
 3749SOL    HW212147   1.823   6.521   3.755
 3750SOL     OW12148   1.790   4.201   0.125
 3750SOL    HW112149   1.793   4.239   0.032
 3750SOL    HW212150   1.813   4.273   0.190
 3751SOL     OW12151   0.066   4.006   2.632
 3751SOL    HW112152   0.035   3.973   2.542
 3751SOL    HW212153   7.012   4.059   2.674
 3752SOL     OW12154   4.847   1.284   5.181
 3752SOL    HW112155   4.773   1.297   5.247
 3752SOL    HW212156   4.918   1.226   5.221
 3753SOL     OW12157   6.047   0.357   5.033
 3753SOL    HW112158   5.999   0.440   5.060
 3753SOL    HW212159   6.013   0.325   4.945
 3754SOL     OW12160   2.153   1.033   2.116
 3754SOL    HW112161   2.163   1.111   2.054
 3754SOL    HW212162   2.168   0.948   2.065
 3755SOL     OW12163   3.058   5.626   4.704
 3755SOL    HW112164   3.127   5.633   4.632
 3755SOL    HW212165   3.089   5.561   4.774
 3756SOL     OW12166   3.195   5.694   6.592
 3756SOL    HW112167   3.152   5.764   6.535
 3756SOL    HW212168   3.198   5.726   6.687
 3757SOL     OW12169   0.027   5.179   1.840
 3757SOL    HW112170   0.100   5.188   1.908
 3757SOL    HW212171   7.010   5.085   1.842
 3758SOL     OW12172   2.004   1.291   4.744
 3758SOL    HW112173   1.998   1.195   4.771
 3758SOL    HW212174   2.080   1.304   4.681
 3759SOL     OW12175   4.525   0.640   4.934
 3759SOL    HW112176   4.543   0.678   5.025
 3759SOL    HW212177   4.476   0.707   4.879
 3760SOL     OW12178   6.996   0.179   3.505
 3760SOL    HW112179   0.063   0.168   3.556
 3760SOL    HW212180   6.981   0.276   3.486
 3761SOL     OW12181   6.544   1.153   4.556
 3761SOL    HW112182   6.559   1.088   4.482
 3761SOL    HW212183   6.628   1.203   4.574
 3762SOL     OW12184   1.416   4.045   2.083
 3762SOL    HW112185   1.386   4.088   2.168
 3762SOL    HW212186   1.340   3.996   2.041
 3763SOL     OW12187   6.219   3.852   0.755
 3763SOL    HW112188   6.230   3.940   0.802
 3763SOL    HW212189   6.143   3.802   0.797
 3764SOL     OW12190   2.091   0.555   2.776
 3764SOL    HW112191   2.054   0.496   2.848
 3764SOL    HW212192   2.095   0.650   2.809
 3765SOL     OW12193   6.039   1.771   1.618
 3765SOL    HW112194   6.023   1.849   1.678
 3765SOL    HW212195   5.951   1.732   1.591
 3766SOL     OW12196   2.038   2.496   4.291
 3766SOL    HW112197   1.967   2.564   4.308
 3766SOL    HW212198   2.085   2.518   4.205
 3767SOL     OW12199   3.589   4.185   6.004
 3767SOL    HW112200   3.654   4.115   5.976
 3767SOL    HW212201   3.512   4.143   6.051
 3768SOL     OW12202   1.097   0.593   4.662
 3768SOL    HW112203   1.015   0.600   4.605
 3768SOL    HW212204   1.177   0.624   4.610
 3769SOL     OW12205   5.592   5.148   5.105
 3769SOL    HW112206   5.624   5.056   5.129
 3769SOL    HW212207   5.511   5.171   5.159
 3770SOL     OW12208   1.244   1.230   0.209
 3770SOL    HW112209   1.233   1.278   0.122
 3770SOL    HW212210   1.340   1.231   0.236
 3771SOL     OW12211   5.773   4.937   0.378
 3771SOL    HW112212   5.870   4.922   0.358
 3771SOL    HW212213   5.759   4.936   0.477
 3772SOL     OW12214   1.427   6.505   0.367
 3772SOL    HW112215   1.400   6.478   0.460
 3772SOL    HW212216   1.526   6.511   0.362
 3773SOL     OW12217   5.569   4.125   5.774
 3773SOL    HW112218   5.527   4.034   5.775
 3773SOL    HW212219   5.548   4.172   5.860
 3774SOL     OW12220   5.846   4.829   1.801
 3774SOL    HW112221   5.805   4.809   1.711
 3774SOL    HW212222   5.773   4.834   1.869
 3775SOL     OW12223   3.877   4.884   3.840
 3775SOL    HW112224   3.838   4.851   3.754
 3775SOL    HW212225   3.975   4.862   3.843
 3776SOL     OW12226   3.467   2.961   6.508
 3776SOL    HW112227   3.529   2.947   6.431
 3776SOL    HW212228   3.519   2.996   6.586
 3777SOL     OW12229   2.685   5.937   3.072
 3777SOL    HW112230   2.594   5.894   3.069
 3777SOL    HW212231   2.755   5.866   3.067
 3778SOL     OW12232   1.719   6.435   4.319
 3778SOL    HW112233   1.652   6.472   4.384
 3778SOL    HW212234   1.672   6.377   4.253
 3779SOL     OW12235   0.360   5.382   0.414
 3779SOL    HW112236   0.376   5.445   0.338
 3779SOL    HW212237   0.350   5.435   0.498
 3780SOL     OW12238   0.144   2.917   3.022
 3780SOL    HW112239   0.231   2.912   3.069
 3780SOL    HW212240   0.156   2.896   2.925
 3781SOL     OW12241   0.696   6.877   4.627
 3781SOL    HW112242   0.647   6.792   4.649
 3781SOL    HW212243   0.772   6.888   4.691
 3782SOL     OW12244   3.751   6.345   2.464
 3782SOL    HW112245   3.721   6.424   2.519
 3782SOL    HW212246   3.813   6.377   2.392
 3783SOL     OW12247   5.479   4.776   5.086
 3783SOL    HW112248   5.410   4.836   5.126
 3783SOL    HW212249   5.471   4.778   4.987
 3784SOL     OW12250   5.262   2.636   2.168
 3784SOL    HW112251   5.279   2.538   2.173
 3784SOL    HW212252   5.243   2.662   2.073
 3785SOL     OW12253   0.674   3.320   5.055
 3785SOL    HW112254   0.607   3.341   5.126
 3785SOL    HW212255   0.742   3.394   5.050
 3786SOL     OW12256   2.201   2.550   3.272
 3786SOL    HW112257   2.125   2.587   3.218
 3786SOL    HW212258   2.263   2.500   3.213
 3787SOL     OW12259   4.805   0.371   3.193
 3787SOL    HW112260   4.754   0.368   3.278
 3787SOL    HW212261   4.814   0.465   3.162
 3788SOL     OW12262   6.707   4.490   4.715
 3788SOL    HW112263   6.660   4.441   4.641
 3788SOL    HW212264   6.714   4.430   4.795
 3789SOL     OW12265   0.275   3.245   2.761
 3789SOL    HW112266   0.373   3.238   2.742
 3789SOL    HW212267   0.233   3.309   2.697
 3790SOL     OW12268   1.098   5.587   6.627
 3790SOL    HW112269   1.192   5.611   6.604
 3790SOL    HW212270   1.038   5.612   6.551
 3791SOL     OW12271   4.999   1.830   6.353
 3791SOL    HW112272   4.958   1.912   6.394
 3791SOL    HW212273   4.966   1.749   6.401
 3792SOL     OW12274   1.219   1.180   4.185
 3792SOL    HW112275   1.177   1.127   4.111
 3792SOL    HW212276   1.148   1.208   4.250
 3793SOL     OW12277   5.319   6.501   1.075
 3793SOL    HW112278   5.417   6.511   1.058
 3793SOL    HW212279   5.303   6.501   1.174
 3794SOL     OW12280   2.380   2.819   1.408
 3794SOL    HW112281   2.331   2.814   1.496
 3794SOL    HW212282   2.478   2.828   1.426
 3795SOL     OW12283   3.585   5.623   1.247
 3795SOL    HW112284   3.549   5.638   1.339
 3795SOL    HW212285   3.531   5.675   1.181
 3796SOL     OW12286   4.024   1.910   1.278
 3796SOL    HW112287   3.983   1.882   1.365
 3796SOL    HW212288   4.113   1.865   1.267
 3797SOL     OW12289   1.006   3.436   2.872
 3797SOL    HW112290   1.063   3.479   2.802
 3797SOL    HW212291   0.990   3.340   2.848
 3798SOL     OW12292   2.783   6.582   2.316
 3798SOL    HW112293   2.874   6.579   2.274
 3798SOL    HW212294   2.784   6.647   2.392
 3799SOL     OW12295   6.942   2.407   3.565
 3799SOL    HW112296   6.931   2.334   3.498
 3799SOL    HW212297   6.939   2.368   3.657
 3800SOL     OW12298   4.885   1.962   3.219
 3800SOL    HW112299   4.978   1.954   3.254
 3800SOL    HW212300   4.855   2.057   3.225
 3801SOL     OW12301   5.234   7.000   1.796
 3801SOL    HW112302   5.177   0.049   1.749
 3801SOL    HW212303   5.220   7.007   1.894
 3802SOL     OW12304   0.566   1.911   2.829
 3802SOL    HW112305   0.578   1.924   2.927
 3802SOL    HW212306   0.654   1.892   2.787
 3803SOL     OW12307   3.478   3.608   4.036
 3803SOL    HW112308   3.448   3.703   4.041
 3803SOL    HW212309   3.411   3.555   3.983
 3804SOL     OW12310   2.658   1.815   4.276
 3804SOL    HW112311   2.730   1.822   4.345
 3804SOL    HW212312   2.699   1.809   4.185
 3805SOL     OW12313   2.114   2.550   1.589
 3805SOL    HW112314   2.063   2.479   1.540
 3805SOL    HW212315   2.187   2.509   1.642
 3806SOL     OW12316   3.597   3.875   6.661
 3806SOL    HW112317   3.540   3.823   6.725
 3806SOL    HW212318   3.600   3.971   6.691
 3807SOL     OW12319   1.318   4.618   4.785
 3807SOL    HW112320   1.332   4.554   4.860
 3807SOL    HW212321   1.405   4.640   4.742
 3808SOL     OW12322   5.162   0.198   5.707
 3808SOL    HW112323   5.199   0.217   5.798
 3808SOL    HW212324   5.134   0.102   5.702
 3809SOL     OW12325   5.833   1.914   1.919
 3809SOL    HW112326   5.837   1.820   1.885
 3809SOL    HW212327   5.925   1.954   1.915
 3810SOL     OW12328   6.771   2.572   3.227
 3810SOL    HW112329   6.717   2.580   3.311
 3810SOL    HW212330   6.735   2.498   3.171
 3811SOL     OW12331   6.803   6.088   4.587
 3811SOL    HW112332   6.844   6.169   4.545
 3811SOL    HW212333   6.749   6.039   4.519
 3812SOL     OW12334   3.263   5.272   6.130
 3812SOL    HW112335   3.208   5.191   6.109
 3812SOL    HW212336   3.215   5.354   6.099
 3813SOL     OW12337   5.756   4.216   0.972
 3813SOL    HW112338   5.806   4.194   1.056
 3813SOL    HW212339   5.661   4.186   0.981
 3814SOL     OW12340   0.107   6.865   3.825
 3814SOL    HW112341   0.066   6.881   3.736
 3814SOL    HW212342   0.072   6.779   3.864
 3815SOL     OW12343   5.200   2.720   1.058
 3815SOL    HW112344   5.206   2.713   1.158
 3815SOL    HW212345   5.148   2.802   1.034
 3816SOL     OW12346   0.831   5.780   5.024
 3816SOL    HW112347   0.905   5.741   5.079
 3816SOL    HW212348   0.870   5.822   4.942
 3817SOL     OW12349   4.959   3.707   2.420
 3817SOL    HW112350   5.050   3.712   2.461
 3817SOL    HW212351   4.919   3.798   2.416
 3818SOL     OW12352   0.051   0.642   1.135
 3818SOL    HW112353   6.993   0.590   1.173
 3818SOL    HW212354   0.125   0.579   1.112
 3819SOL     OW12355   6.311   4.409   2.688
 3819SOL    HW112356   6.372   4.343   2.644
 3819SOL    HW212357   6.227   4.363   2.718
 3820SOL     OW12358   5.201   6.378   3.789
 3820SOL    HW112359   5.228   6.290   3.828
 3820SOL    HW212360   5.277   6.417   3.737
 3821SOL     OW12361   0.738   0.661   0.869
 3821SOL    HW112362   0.792   0.577   0.870
 3821SOL    HW212363   0.775   0.724   0.937
 3822SOL     OW12364   2.807   0.030   6.521
 3822SOL    HW112365   2.766   6.962   6.549
 3822SOL    HW212366   2.749   0.074   6.453
 3823SOL     OW12367   4.659   4.384   6.539
 3823SOL    HW112368   4.660   4.427   6.449
 3823SOL    HW212369   4.626   4.449   6.607
 3824SOL     OW12370   0.993   2.341   0.584
 3824SOL    HW112371   1.056   2.329   0.507
 3824SOL    HW212372   0.937   2.423   0.569
 3825SOL     OW12373   0.862   4.108   1.037
 3825SOL    HW112374   0.928   4.053   1.088
 3825SOL    HW212375   0.780   4.054   1.019
 3826SOL     OW12376   6.940   3.713   1.683
 3826SOL    HW112377   0.020   3.712   1.698
 3826SOL    HW212378   6.893   3.711   1.771
 3827SOL     OW12379   0.695   0.421   1.346
 3827SOL    HW112380   0.597   0.404   1.337
 3827SOL    HW212381   0.739   0.407   1.258
 3828SOL     OW12382   3.416   3.791   4.583
 3828SOL    HW112383   3.499   3.813   4.635
 3828SOL    HW212384   3.376   3.706   4.618
 3829SOL     OW12385   0.336   4.865   1.948
 3829SOL    HW112386   0.278   4.910   2.016
 3829SOL    HW212387   0.282   4.801   1.894
 3830SOL     OW12388   0.297   1.248   5.420
 3830SOL    HW112389   0.210   1.270   5.377
 3830SOL    HW212390   0.366   1.231   5.350
 3831SOL     OW12391   4.298   1.989   3.043
 3831SOL    HW112392   4.327   2.033   3.128
 3831SOL    HW212393   4.242   2.054   2.990
 3832SOL     OW12394   6.654   0.600   2.487
 3832SOL    HW112395   6.699   0.533   2.545
 3832SOL    HW212396   6.687   0.589   2.393
 3833SOL     OW12397   1.396   6.776   6.203
 3833SOL    HW112398   1.369   6.703   6.267
 3833SOL    HW212399   1.318   6.837   6.188
 3834SOL     OW12400   4.245   4.005   0.890
 3834SOL    HW112401   4.291   3.931   0.841
 3834SOL    HW212402   4.180   4.050   0.828
 3835SOL     OW12403   3.875   6.102   5.181
 3835SOL    HW112404   3.899   6.169   5.251
 3835SOL    HW212405   3.782   6.119   5.148
 3836SOL     OW12406   0.682   4.785   5.587
 3836SOL    HW112407   0.666   4.692   5.619
 3836SOL    HW212408   0.752   4.829   5.644
 3837SOL     OW12409   4.406   5.231   5.043
 3837SOL    HW112410   4.384   5.312   4.989
 3837SOL    HW212411   4.461   5.257   5.122
 3838SOL     OW12412   1.382   2.131   3.559
 3838SOL    HW112413   1.341   2.082   3.482
 3838SOL    HW212414   1.439   2.205   3.525
 3839SOL     OW12415   4.391   1.366   2.703
 3839SOL    HW112416   4.381   1.463   2.723
 3839SOL    HW212417   4.466   1.328   2.758
 3840SOL     OW12418   3.089   1.889   6.166
 3840SOL    HW112419   3.042   1.824   6.226
 3840SOL    HW212420   3.145   1.951   6.221
 3841SOL     OW12421   1.226   4.014   4.697
 3841SOL    HW112422   1.209   4.112   4.682
 3841SOL    HW212423   1.250   3.972   4.610
 3842SOL     OW12424   2.400   2.661   3.747
 3842SOL    HW112425   2.315   2.608   3.746
 3842SOL    HW212426   2.459   2.627   3.820
 3843SOL     OW12427   5.373   3.349   1.206
 3843SOL    HW112428   5.440   3.333   1.278
 3843SOL    HW212429   5.419   3.386   1.125
 3844SOL     OW12430   1.653   3.930   6.711
 3844SOL    HW112431   1.648   3.957   6.808
 3844SOL    HW212432   1.704   3.845   6.703
 3845SOL     OW12433   2.752   5.529   6.229
 3845SOL    HW112434   2.784   5.618   6.263
 3845SOL    HW212435   2.767   5.525   6.130
 3846SOL     OW12436   0.925   3.920   4.004
 3846SOL    HW112437   0.988   3.892   3.931
 3846SOL    HW212438   0.956   4.006   4.044
 3847SOL     OW12439   4.923   2.603   4.767
 3847SOL    HW112440   4.917   2.623   4.669
 3847SOL    HW212441   4.932   2.688   4.818
 3848SOL     OW12442   4.817   4.001   2.011
 3848SOL    HW112443   4.866   3.960   2.088
 3848SOL    HW212444   4.765   3.930   1.964
 3849SOL     OW12445   0.881   0.906   5.938
 3849SOL    HW112446   0.834   0.832   5.890
 3849SOL    HW212447   0.857   0.993   5.895
 3850SOL     OW12448   3.213   3.272   1.676
 3850SOL    HW112449   3.308   3.270   1.645
 3850SOL    HW212450   3.155   3.305   1.602
 3851SOL     OW12451   0.036   4.716   3.249
 3851SOL    HW112452   0.073   4.802   3.213
 3851SOL    HW212453   6.974   4.691   3.196
 3852SOL     OW12454   3.188   5.923   3.881
 3852SOL    HW112455   3.271   5.975   3.861
 3852SOL    HW212456   3.111   5.986   3.892
 3853SOL     OW12457   1.164   3.067   3.166
 3853SOL    HW112458   1.238   3.010   3.200
 3853SOL    HW212459   1.164   3.155   3.214
 3854SOL     OW12460   1.091   2.610   2.849
 3854SOL    HW112461   1.191   2.605   2.852
 3854SOL    HW212462   1.060   2.692   2.899
 3855SOL     OW12463   4.442   6.242   6.577
 3855SOL    HW112464   4.459   6.186   6.496
 3855SOL    HW212465   4.349   6.226   6.610
 3856SOL     OW12466   0.298   1.395   6.028
 3856SOL    HW112467   0.322   1.340   5.948
 3856SOL    HW212468   0.380   1.439   6.064
 3857SOL     OW12469   1.368   6.289   6.668
 3857SOL    HW112470   1.421   6.234   6.604
 3857SOL    HW212471   1.330   6.369   6.621
 3858SOL     OW12472   3.552   1.196   6.022
 3858SOL    HW112473   3.605   1.276   6.049
 3858SOL    HW212474   3.602   1.144   5.953
 3859SOL     OW12475   6.208   0.813   1.793
 3859SOL    HW112476   6.304   0.808   1.767
 3859SOL    HW212477   6.200   0.832   1.891
 3860SOL     OW12478   1.638   1.289   4.380
 3860SOL    HW112479   1.590   1.372   4.354
 3860SOL    HW212480   1.596   1.249   4.462
 3861SOL     OW12481   4.652   5.784   3.251
 3861SOL    HW112482   4.602   5.708   3.292
 3861SOL    HW212483   4.594   5.831   3.185
 3862SOL     OW12484   0.380   0.660   4.879
 3862SOL    HW112485   0.329   0.731   4.928
 3862SOL    HW212486   0.476   0.687   4.871
 3863SOL     OW12487   6.125   1.777   6.834
 3863SOL    HW112488   6.094   1.797   6.927
 3863SOL    HW212489   6.138   1.862   6.784
 3864SOL     OW12490   2.248   0.498   5.150
 3864SOL    HW112491   2.166   0.490   5.093
 3864SOL    HW212492   2.249   0.425   5.218
 3865SOL     OW12493   4.102   1.146   1.173
 3865SOL    HW112494   4.123   1.221   1.237
 3865SOL    HW212495   4.037   1.084   1.216
 3866SOL     OW12496   3.926   0.527   0.158
 3866SOL    HW112497   4.020   0.529   0.192
 3866SOL    HW212498   3.877   0.608   0.192
 3867SOL     OW12499   1.052   4.724   3.274
 3867SOL    HW112500   1.018   4.666   3.200
 3867SOL    HW212501   0.995   4.805   3.282
 3868SOL     OW12502   3.338   0.091   0.430
 3868SOL    HW112503   3.427   0.107   0.387
 3868SOL    HW212504   3.308   7.016   0.411
 3869SOL     OW12505   6.590   2.979   4.130
 3869SOL    HW112506   6.654   3.029   4.072
 3869SOL    HW212507   6.640   2.913   4.186
 3870SOL     OW12508   0.042   6.277   0.607
 3870SOL    HW112509   7.018   6.203   0.657
 3870SOL    HW212510   0.001   6.283   0.515
 3871SOL     OW12511   3.464   0.786   2.998
 3871SOL    HW112512   3.398   0.841   3.049
 3871SOL    HW212513   3.438   0.690   3.002
 3872SOL     OW12514   3.468   3.216   4.190
 3872SOL    HW112515   3.509   3.260   4.109
 3872SOL    HW212516   3.411   3.282   4.239
 3873SOL     OW12517   5.858   4.206   1.230
 3873SOL    HW112518   5.935   4.170   1.283
 3873SOL    HW212519   5.821   4.287   1.276
 3874SOL     OW12520   4.608   0.103   6.894
 3874SOL    HW112521   4.705   0.098   6.920
 3874SOL    HW212522   4.582   0.019   6.847
 3875SOL     OW12523   2.130   3.430   3.429
 3875SOL    HW112524   2.161   3.365   3.359
 3875SOL    HW212525   2.135   3.523   3.392
 3876SOL     OW12526   3.939   5.282   1.055
 3876SOL    HW112527   3.864   5.345   1.034
 3876SOL    HW212528   3.972   5.299   1.148
 3877SOL     OW12529   5.731   2.350   1.358
 3877SOL    HW112530   5.664   2.395   1.299
 3877SOL    HW212531   5.799   2.302   1.301
 3878SOL     OW12532   4.467   6.258   4.689
 3878SOL    HW112533   4.466   6.291   4.594
 3878SOL    HW212534   4.454   6.335   4.751
 3879SOL     OW12535   6.206   5.641   0.917
 3879SOL    HW112536   6.300   5.623   0.943
 3879SOL    HW212537   6.154   5.673   0.996
 3880SOL     OW12538   5.217   3.814   4.583
 3880SOL    HW112539   5.141   3.833   4.521
 3880SOL    HW212540   5.183   3.768   4.665
 3881SOL     OW12541   1.646   3.695   1.122
 3881SOL    HW112542   1.691   3.617   1.078
 3881SOL    HW212543   1.694   3.718   1.206
 3882SOL     OW12544   0.700   1.445   5.831
 3882SOL    HW112545   0.629   1.511   5.807
 3882SOL    HW212546   0.658   1.365   5.873
 3883SOL     OW12547   3.996   1.399   1.985
 3883SOL    HW112548   3.914   1.456   1.980
 3883SOL    HW212549   3.969   1.305   2.006
 3884SOL     OW12550   1.061   6.134   2.167
 3884SOL    HW112551   1.147   6.090   2.192
 3884SOL    HW212552   0.986   6.068   2.174
 3885SOL     OW12553   6.546   5.469   2.806
 3885SOL    HW112554   6.645   5.479   2.795
 3885SOL    HW212555   6.518   5.513   2.891
 3886SOL     OW12556   4.754   5.726   5.072
 3886SOL    HW112557   4.660   5.752   5.053
 3886SOL    HW212558   4.790   5.670   4.997
 3887SOL     OW12559   1.284   0.411   6.831
 3887SOL    HW112560   1.326   0.466   6.904
 3887SOL    HW212561   1.232   0.471   6.770
 3888SOL     OW12562   6.775   0.199   5.413
 3888SOL    HW112563   6.687   0.153   5.403
 3888SOL    HW212564   6.762   0.298   5.405
 3889SOL     OW12565   6.868   3.887   0.309
 3889SOL    HW112566   6.798   3.877   0.379
 3889SOL    HW212567   6.838   3.954   0.240
 3890SOL     OW12568   6.446   4.738   2.930
 3890SOL    HW112569   6.363   4.697   2.968
 3890SOL    HW212570   6.499   4.782   3.003
 3891SOL     OW12571   5.506   3.866   4.141
 3891SOL    HW112572   5.408   3.851   4.137
 3891SOL    HW212573   5.555   3.784   4.110
 3892SOL     OW12574   6.961   1.865   1.494
 3892SOL    HW112575   6.986   1.875   1.590
 3892SOL    HW212576   6.920   1.775   1.479
 3893SOL     OW12577   4.300   3.796   6.788
 3893SOL    HW112578   4.388   3.760   6.757
 3893SOL    HW212579   4.267   3.743   6.866
 3894SOL     OW12580   4.126   0.610   0.559
 3894SOL    HW112581   4.222   0.604   0.584
 3894SOL    HW212582   4.100   0.706   0.547
 3895SOL     OW12583   1.665   0.694   5.723
 3895SOL    HW112584   1.727   0.772   5.732
 3895SOL    HW212585   1.703   0.616   5.773
 3896SOL     OW12586   0.090   1.015   5.197
 3896SOL    HW112587   0.147   1.098   5.194
 3896SOL    HW212588   7.017   1.036   5.164
 3897SOL     OW12589   3.812   6.118   2.616
 3897SOL    HW112590   3.826   6.195   2.554
 3897SOL    HW212591   3.765   6.149   2.698
 3898SOL     OW12592   2.753   3.110   6.050
 3898SOL    HW112593   2.690   3.032   6.041
 3898SOL    HW212594   2.761   3.135   6.147
 3899SOL     OW12595   4.591   6.642   5.265
 3899SOL    HW112596   4.665   6.679   5.322
 3899SOL    HW212597   4.531   6.717   5.236
 3900SOL     OW12598   4.827   3.095   3.440
 3900SOL    HW112599   4.910   3.039   3.442
 3900SOL    HW212600   4.792   3.098   3.347
 3901SOL     OW12601   2.695   0.671   5.241
 3901SOL    HW112602   2.650   0.618   5.169
 3901SOL    HW212603   2.666   0.638   5.330
 3902SOL     OW12604   6.076   3.099   1.780
 3902SOL    HW112605   6.070   3.091   1.681
 3902SOL    HW212606   6.010   3.167   1.812
 3903SOL     OW12607   3.821   5.855   6.403
 3903SOL    HW112608   3.764   5.788   6.452
 3903SOL    HW212609   3.913   5.853   6.440
 3904SOL     OW12610   2.802   1.350   5.525
 3904SOL    HW112611   2.714   1.392   5.549
 3904SOL    HW212612   2.787   1.259   5.487
 3905SOL     OW12613   0.493   0.279   6.439
 3905SOL    HW112614   0.485   0.274   6.339
 3905SOL    HW212615   0.465   0.191   6.479
 3906SOL     OW12616   6.005   6.167   5.504
 3906SOL    HW112617   5.909   6.189   5.490
 3906SOL    HW212618   6.017   6.068   5.504
 3907SOL     OW12619   5.717   0.839   3.819
 3907SOL    HW112620   5.666   0.854   3.734
 3907SOL    HW212621   5.656   0.852   3.897
 3908SOL     OW12622   1.520   2.271   0.275
 3908SOL    HW112623   1.455   2.197   0.258
 3908SOL    HW212624   1.556   2.304   0.188
 3909SOL     OW12625   6.820   5.983   5.614
 3909SOL    HW112626   6.778   5.922   5.547
 3909SOL    HW212627   6.756   6.000   5.689
 3910SOL     OW12628   3.399   3.447   2.619
 3910SOL    HW112629   3.468   3.395   2.569
 3910SOL    HW212630   3.333   3.384   2.660
 3911SOL     OW12631   4.426   1.746   5.957
 3911SOL    HW112632   4.391   1.823   6.009
 3911SOL    HW212633   4.526   1.742   5.966
 3912SOL     OW12634   4.757   0.913   5.221
 3912SOL    HW112635   4.684   0.966   5.263
 3912SOL    HW212636   4.785   0.957   5.135
 3913SOL     OW12637   2.288   6.726   6.538
 3913SOL    HW112638   2.369   6.691   6.586
 3913SOL    HW212639   2.210   6.668   6.558
 3914SOL     OW12640   3.274   0.879   0.753
 3914SOL    HW112641   3.316   0.940   0.821
 3914SOL    HW212642   3.322   0.888   0.666
 3915SOL     OW12643   4.410   5.270   1.828
 3915SOL    HW112644   4.354   5.339   1.782
 3915SOL    HW212645   4.478   5.316   1.885
 3916SOL     OW12646   1.281   0.043   4.189
 3916SOL    HW112647   1.289   6.993   4.261
 3916SOL    HW212648   1.280   7.017   4.099
 3917SOL     OW12649   6.301   5.950   0.165
 3917SOL    HW112650   6.211   5.993   0.174
 3917SOL    HW212651   6.372   6.014   0.195
 3918SOL     OW12652   4.796   6.242   1.328
 3918SOL    HW112653   4.776   6.333   1.292
 3918SOL    HW212654   4.880   6.208   1.286
 3919SOL     OW12655   2.858   6.497   6.589
 3919SOL    HW112656   2.765   6.532   6.580
 3919SOL    HW212657   2.909   6.515   6.504
 3920SOL     OW12658   3.452   2.913   0.744
 3920SOL    HW112659   3.462   2.898   0.842
 3920SOL    HW212660   3.490   2.836   0.694
 3921SOL     OW12661   0.767   3.314   1.122
 3921SOL    HW112662   0.678   3.315   1.166
 3921SOL    HW212663   0.833   3.265   1.180
 3922SOL     OW12664   6.568   3.723   1.735
 3922SOL    HW112665   6.653   3.701   1.688
 3922SOL    HW212666   6.578   3.707   1.833
 3923SOL     OW12667   6.268   1.561   6.687
 3923SOL    HW112668   6.325   1.587   6.609
 3923SOL    HW212669   6.217   1.641   6.720
 3924SOL     OW12670   0.450   5.180   3.586
 3924SOL    HW112671   0.428   5.227   3.500
 3924SOL    HW212672   0.463   5.247   3.659
 3925SOL     OW12673   3.159   5.068   1.136
 3925SOL    HW112674   3.074   5.016   1.150
 3925SOL    HW212675   3.215   5.062   1.218
 3926SOL     OW12676   6.926   5.885   3.352
 3926SOL    HW112677   6.857   5.877   3.424
 3926SOL    HW212678   6.987   5.806   3.354
 3927SOL     OW12679   6.394   2.544   3.569
 3927SOL    HW112680   6.420   2.615   3.634
 3927SOL    HW212681   6.476   2.495   3.539
 3928SOL     OW12682   3.593   6.475   5.620
 3928SOL    HW112683   3.624   6.478   5.525
 3928SOL    HW212684   3.494   6.490   5.623
 3929SOL     OW12685   6.966   1.091   5.461
 3929SOL    HW112686   6.886   1.031   5.470
 3929SOL    HW212687   0.029   1.040   5.487
 3930SOL     OW12688   2.377   1.727   3.853
 3930SOL    HW112689   2.432   1.661   3.904
 3930SOL    HW212690   2.412   1.735   3.760
 3931SOL     OW12691   2.039   1.313   1.850
 3931SOL    HW112692   2.024   1.372   1.930
 3931SOL    HW212693   1.995   1.353   1.770
 3932SOL     OW12694   1.716   4.472   3.427
 3932SOL    HW112695   1.718   4.530   3.508
 3932SOL    HW212696   1.772   4.513   3.355
 3933SOL     OW12697   2.156   6.206   6.921
 3933SOL    HW112698   2.154   6.106   6.930
 3933SOL    HW212699   2.124   6.232   6.830
 3934SOL     OW12700   6.841   1.669   0.608
 3934SOL    HW112701   6.883   1.628   0.689
 3934SOL    HW212702   6.865   1.615   0.527
 3935SOL     OW12703   2.663   6.730   0.042
 3935SOL    HW112704   2.646   6.631   0.044
 3935SOL    HW212705   2.758   6.747   0.016
 3936SOL     OW12706   0.637   4.968   5.193
 3936SOL    HW112707   0.585   4.902   5.140
 3936SOL    HW212708   0.735   4.953   5.179
 3937SOL     OW12709   6.818   1.382   3.156
 3937SOL    HW112710   6.904   1.333   3.167
 3937SOL    HW212711   6.780   1.405   3.246
 3938SOL     OW12712   0.578   1.724   3.819
 3938SOL    HW112713   0.525   1.678   3.890
 3938SOL    HW212714   0.613   1.657   3.754
 3939SOL     OW12715   2.209   1.861   2.668
 3939SOL    HW112716   2.261   1.847   2.583
 3939SOL    HW212717   2.132   1.922   2.651
 3940SOL     OW12718   4.762   5.400   1.381
 3940SOL    HW112719   4.765   5.321   1.442
 3940SOL    HW212720   4.773   5.484   1.434
 3941SOL     OW12721   4.116   2.877   6.469
 3941SOL    HW112722   4.073   2.792   6.437
 3941SOL    HW212723   4.212   2.859   6.492
 3942SOL     OW12724   0.413   0.055   0.034
 3942SOL    HW112725   0.360   0.060   6.969
 3942SOL    HW212726   0.351   0.041   0.112
 3943SOL     OW12727   6.738   3.799   3.178
 3943SOL    HW112728   6.826   3.840   3.202
 3943SOL    HW212729   6.714   3.825   3.084
 3944SOL     OW12730   4.782   2.976   4.957
 3944SOL    HW112731   4.725   2.947   5.033
 3944SOL    HW212732   4.873   2.936   4.966
 3945SOL     OW12733   0.079   1.717   1.293
 3945SOL    HW112734   0.048   1.778   1.366
 3945SOL    HW212735   0.178   1.724   1.284
 3946SOL     OW12736   5.726   6.208   5.466
 3946SOL    HW112737   5.650   6.231   5.405
 3946SOL    HW212738   5.690   6.177   5.554
 3947SOL     OW12739   5.888   5.631   0.734
 3947SOL    HW112740   5.803   5.683   0.736
 3947SOL    HW212741   5.915   5.607   0.828
 3948SOL     OW12742   1.400   5.844   1.624
 3948SOL    HW112743   1.344   5.923   1.649
 3948SOL    HW212744   1.469   5.872   1.558
 3949SOL     OW12745   4.975   0.257   3.526
 3949SOL    HW112746   4.970   0.352   3.556
 3949SOL    HW212747   5.028   0.204   3.593
 3950SOL     OW12748   1.833   3.992   1.465
 3950SOL    HW112749   1.774   4.037   1.397
 3950SOL    HW212750   1.917   4.044   1.476
 3951SOL     OW12751   5.845   6.347   0.662
 3951SOL    HW112752   5.870   6.362   0.566
 3951SOL    HW212753   5.878   6.258   0.692
 3952SOL     OW12754   6.209   3.422   2.861
 3952SOL    HW112755   6.276   3.495   2.870
 3952SOL    HW212756   6.248   3.347   2.807
 3953SOL     OW12757   4.143   4.653   1.793
 3953SOL    HW112758   4.201   4.573   1.780
 3953SOL    HW212759   4.200   4.733   1.812
 3954SOL     OW12760   4.733   4.734   5.093
 3954SOL    HW112761   4.717   4.756   4.997
 3954SOL    HW212762   4.705   4.640   5.111
 3955SOL     OW12763   3.153   5.627   6.307
 3955SOL    HW112764   3.142   5.586   6.397
 3955SOL    HW212765   3.232   5.688   6.307
 3956SOL     OW12766   0.031   0.846   3.748
 3956SOL    HW112767   0.085   0.801   3.819
 3956SOL    HW212768   0.090   0.865   3.669
 3957SOL     OW12769   4.352   6.194   3.899
 3957SOL    HW112770   4.318   6.272   3.848
 3957SOL    HW212771   4.450   6.206   3.918
 3958SOL     OW12772   6.020   0.784   4.772
 3958SOL    HW112773   5.964   0.715   4.817
 3958SOL    HW212774   5.970   0.871   4.771
 3959SOL     OW12775   4.481   6.245   0.546
 3959SOL    HW112776   4.388   6.260   0.579
 3959SOL    HW212777   4.499   6.305   0.469
 3960SOL     OW12778   4.653   1.608   6.747
 3960SOL    HW112779   4.581   1.670   6.715
 3960SOL    HW212780   4.636   1.516   6.711
 3961SOL     OW12781   5.441   2.261   2.659
 3961SOL    HW112782   5.513   2.329   2.645
 3961SOL    HW212783   5.411   2.225   2.571
 3962SOL     OW12784   2.504   4.205   0.170
 3962SOL    HW112785   2.525   4.229   0.264
 3962SOL    HW212786   2.525   4.283   0.110
 3963SOL     OW12787   4.534   4.922   4.199
 3963SOL    HW112788   4.450   4.959   4.159
 3963SOL    HW212789   4.519   4.828   4.230
 3964SOL     OW12790   4.597   4.839   3.510
 3964SOL    HW112791   4.532   4.831   3.434
 3964SOL    HW212792   4.597   4.933   3.543
 3965SOL     OW12793   4.799   3.096   5.986
 3965SOL    HW112794   4.746   3.173   6.020
 3965SOL    HW212795   4.873   3.128   5.927
 3966SOL     OW12796   5.197   5.880   6.829
 3966SOL    HW112797   5.126   5.858   6.762
 3966SOL    HW212798   5.250   5.797   6.848
 3967SOL     OW12799   2.098   3.536   2.147
 3967SOL    HW112800   2.150   3.520   2.063
 3967SOL    HW212801   2.106   3.633   2.173
 3968SOL     OW12802   4.971   0.648   1.393
 3968SOL    HW112803   5.043   0.587   1.359
 3968SOL    HW212804   4.956   0.630   1.490
 3969SOL     OW12805   1.828   4.195   2.161
 3969SOL    HW112806   1.758   4.139   2.117
 3969SOL    HW212807   1.901   4.214   2.096
 3970SOL     OW12808   6.392   6.270   3.821
 3970SOL    HW112809   6.485   6.252   3.790
 3970SOL    HW212810   6.368   6.207   3.895
 3971SOL     OW12811   2.607   5.050   2.219
 3971SOL    HW112812   2.570   4.964   2.253
 3971SOL    HW212813   2.700   5.062   2.254
 3972SOL     OW12814   1.411   4.759   0.679
 3972SOL    HW112815   1.473   4.832   0.652
 3972SOL    HW212816   1.456   4.671   0.666
 3973SOL     OW12817   1.774   5.200   6.876
 3973SOL    HW112818   1.871   5.174   6.871
 3973SOL    HW212819   1.718   5.119   6.889
 3974SOL     OW12820   2.084   0.857   4.316
 3974SOL    HW112821   2.175   0.836   4.279
 3974SOL    HW212822   2.085   0.948   4.357
 3975SOL     OW12823   5.686   1.341   5.101
 3975SOL    HW112824   5.587   1.356   5.095
 3975SOL    HW212825   5.725   1.339   5.009
 3976SOL     OW12826   1.843   6.418   1.609
 3976SOL    HW112827   1.920   6.354   1.616
 3976SOL    HW212828   1.807   6.417   1.516
 3977SOL     OW12829   2.566   3.988   5.633
 3977SOL    HW112830   2.521   4.077   5.635
 3977SOL    HW212831   2.609   3.970   5.722
 3978SOL     OW12832   5.844   4.936   4.640
 3978SOL    HW112833   5.798   4.932   4.551
 3978SOL    HW212834   5.775   4.939   4.713
 3979SOL     OW12835   2.588   6.780   0.983
 3979SOL    HW112836   2.628   6.696   1.018
 3979SOL    HW212837   2.659   6.851   0.977
 3980SOL     OW12838   6.241   5.738   0.359
 3980SOL    HW112839   6.274   5.790   0.281
 3980SOL    HW212840   6.310   5.672   0.387
 3981SOL     OW12841   2.520   0.819   0.334
 3981SOL    HW112842   2.609   0.837   0.375
 3981SOL    HW212843   2.513   0.723   0.308
 3982SOL     OW12844   2.322   0.007   3.729
 3982SOL    HW112845   2.417   7.004   3.708
 3982SOL    HW212846   2.302   0.101   3.703
 3983SOL     OW12847   5.217   4.892   3.818
 3983SOL    HW112848   5.231   4.877   3.916
 3983SOL    HW212849   5.171   4.980   3.805
 3984SOL     OW12850   6.394   1.385   3.234
 3984SOL    HW112851   6.410   1.481   3.209
 3984SOL    HW212852   6.340   1.340   3.163
 3985SOL     OW12853   3.140   4.361   6.637
 3985SOL    HW112854   3.138   4.266   6.605
 3985SOL    HW212855   3.057   4.408   6.606
 3986SOL     OW12856   5.826   2.558   3.234
 3986SOL    HW112857   5.814   2.627   3.305
 3986SOL    HW212858   5.853   2.602   3.148
 3987SOL     OW12859   3.328   5.158   3.854
 3987SOL    HW112860   3.308   5.099   3.932
 3987SOL    HW212861   3.420   5.138   3.821
 3988SOL     OW12862   3.532   4.211   0.161
 3988SOL    HW112863   3.542   4.296   0.213
 3988SOL    HW212864   3.435   4.196   0.140
 3989SOL     OW12865   6.329   2.628   0.206
 3989SOL    HW112866   6.351   2.584   0.293
 3989SOL    HW212867   6.413   2.637   0.152
 3990SOL     OW12868   4.928   2.289   2.487
 3990SOL    HW112869   4.946   2.329   2.397
 3990SOL    HW212870   4.965   2.348   2.558
 3991SOL     OW12871   5.701   0.944   2.632
 3991SOL    HW112872   5.729   0.869   2.692
 3991SOL    HW212873   5.601   0.946   2.625
 3992SOL     OW12874   3.869   1.974   0.280
 3992SOL    HW112875   3.820   2.061   0.281
 3992SOL    HW212876   3.967   1.990   0.265
 3993SOL     OW12877   1.392   1.866   3.082
 3993SOL    HW112878   1.380   1.964   3.099
 3993SOL    HW212879   1.306   1.818   3.097
 3994SOL     OW12880   1.739   0.232   5.634
 3994SOL    HW112881   1.644   0.234   5.665
 3994SOL    HW212882   1.785   0.316   5.663
 3995SOL     OW12883   2.395   3.517   5.637
 3995SOL    HW112884   2.354   3.481   5.721
 3995SOL    HW212885   2.410   3.442   5.572
 3996SOL     OW12886   1.521   0.178   4.313
 3996SOL    HW112887   1.495   0.189   4.408
 3996SOL    HW212888   1.455   0.120   4.266
 3997SOL     OW12889   5.358   1.378   4.099
 3997SOL    HW112890   5.285   1.394   4.032
 3997SOL    HW212891   5.445   1.412   4.063
 3998SOL     OW12892   4.444   1.445   4.056
 3998SOL    HW112893   4.363   1.494   4.088
 3998SOL    HW212894   4.499   1.416   4.135
 3999SOL     OW12895   6.025   3.513   3.980
 3999SOL    HW112896   6.095   3.528   4.050
 3999SOL    HW212897   5.948   3.465   4.021
 4000SOL     OW12898   2.900   6.336   3.084
 4000SOL    HW112899   2.966   6.284   3.139
 4000SOL    HW212900   2.874   6.282   3.004
 4001SOL     OW12901   2.514   2.066   3.710
 4001SOL    HW112902   2.499   1.968   3.700
 4001SOL    HW212903   2.426   2.114   3.711
 4002SOL     OW12904   2.963   3.910   0.572
 4002SOL    HW112905   3.043   3.871   0.525
 4002SOL    HW212906   2.980   4.007   0.590
 4003SOL     OW12907   3.137   6.693   4.034
 4003SOL    HW112908   3.114   6.778   3.985
 4003SOL    HW212909   3.232   6.697   4.065
 4004SOL     OW12910   5.078   1.892   4.640
 4004SOL    HW112911   5.006   1.839   4.596
 4004SOL    HW212912   5.167   1.861   4.607
 4005SOL     OW12913   5.005   4.594   0.083
 4005SOL    HW112914   5.079   4.620   0.144
 4005SOL    HW212915   5.042   4.537   0.009
 4006SOL     OW12916   4.477   5.333   2.371
 4006SOL    HW112917   4.536   5.360   2.448
 4006SOL    HW212918   4.463   5.234   2.373
 4007SOL     OW12919   0.231   2.364   0.567
 4007SOL    HW112920   0.230   2.321   0.657
 4007SOL    HW212921   0.297   2.317   0.509
 4008SOL     OW12922   3.224   1.908   3.747
 4008SOL    HW112923   3.172   1.845   3.689
 4008SOL    HW212924   3.236   1.995   3.699
 4009SOL     OW12925   4.065   3.397   1.371
 4009SOL    HW112926   4.117   3.391   1.456
 4009SOL    HW212927   3.978   3.348   1.382
 4010SOL     OW12928   2.674   3.046   1.299
 4010SOL    HW112929   2.660   2.952   1.267
 4010SOL    HW212930   2.750   3.087   1.249
 4011SOL     OW12931   0.768   1.135   1.934
 4011SOL    HW112932   0.801   1.060   1.991
 4011SOL    HW212933   0.803   1.123   1.840
 4012SOL     OW12934   5.394   4.984   1.711
 4012SOL    HW112935   5.295   4.995   1.703
 4012SOL    HW212936   5.416   4.943   1.800
 4013SOL     OW12937   2.855   1.549   5.346
 4013SOL    HW112938   2.953   1.535   5.332
 4013SOL    HW212939   2.821   1.484   5.414
 4014SOL     OW12940   5.308   6.733   2.445
 4014SOL    HW112941   5.287   6.636   2.431
 4014SOL    HW212942   5.404   6.743   2.468
 4015SOL     OW12943   5.337   4.765   6.034
 4015SOL    HW112944   5.266   4.831   6.055
 4015SOL    HW212945   5.336   4.744   5.936
 4016SOL     OW12946   2.641   6.150   6.360
 4016SOL    HW112947   2.666   6.188   6.450
 4016SOL    HW212948   2.628   6.052   6.368
 4017SOL     OW12949   0.185   5.784   0.608
 4017SOL    HW112950   0.155   5.862   0.663
 4017SOL    HW212951   0.278   5.759   0.635
 4018SOL     OW12952   4.398   6.473   2.944
 4018SOL    HW112953   4.384   6.512   3.035
 4018SOL    HW212954   4.324   6.500   2.883
 4019SOL     OW12955   5.695   3.526   2.929
 4019SOL    HW112956   5.704   3.432   2.961
 4019SOL    HW212957   5.783   3.572   2.937
 4020SOL     OW12958   4.726   1.783   5.675
 4020SOL    HW112959   4.750   1.750   5.767
 4020SOL    HW212960   4.778   1.866   5.655
 4021SOL     OW12961   3.974   4.795   6.247
 4021SOL    HW112962   3.924   4.764   6.328
 4021SOL    HW212963   3.909   4.828   6.179
 4022SOL     OW12964   4.535   0.754   6.689
 4022SOL    HW112965   4.550   0.830   6.752
 4022SOL    HW212966   4.457   0.775   6.630
 4023SOL     OW12967   6.016   1.692   4.504
 4023SOL    HW112968   5.994   1.776   4.552
 4023SOL    HW212969   5.932   1.646   4.475
 4024SOL     OW12970   3.605   6.634   3.391
 4024SOL    HW112971   3.659   6.695   3.333
 4024SOL    HW212972   3.609   6.541   3.356
 4025SOL     OW12973   0.741   5.490   3.667
 4025SOL    HW112974   0.681   5.567   3.688
 4025SOL    HW212975   0.734   5.422   3.740
 4026SOL     OW12976   5.330   5.502   4.375
 4026SOL    HW112977   5.387   5.525   4.296
 4026SOL    HW212978   5.269   5.578   4.395
 4027SOL     OW12979   3.879   4.599   1.697
 4027SOL    HW112980   3.822   4.662   1.749
 4027SOL    HW212981   3.974   4.604   1.730
 4028SOL     OW12982   1.536   2.350   4.158
 4028SOL    HW112983   1.633   2.328   4.152
 4028SOL    HW212984   1.519   2.400   4.243
 4029SOL     OW12985   2.940   4.121   5.704
 4029SOL    HW112986   3.027   4.089   5.666
 4029SOL    HW212987   2.907   4.199   5.651
 4030SOL     OW12988   1.205   1.978   5.896
 4030SOL    HW112989   1.215   1.920   5.815
 4030SOL    HW212990   1.197   2.073   5.867
 4031SOL     OW12991   4.772   5.537   3.786
 4031SOL    HW112992   4.725   5.602   3.726
 4031SOL    HW212993   4.809   5.586   3.865
 4032SOL     OW12994   6.475   6.657   3.765
 4032SOL    HW112995   6.563   6.613   3.783
 4032SOL    HW212996   6.411   6.634   3.838
 4033SOL     OW12997   3.245   2.946   3.819
 4033SOL    HW112998   3.189   2.871   3.786
 4033SOL    HW212999   3.269   2.931   3.915
 4034SOL     OW13000   5.889   1.332   4.879
 4034SOL    HW113001   5.910   1.235   4.877
 4034SOL    HW213002   5.910   1.373   4.791
 4035SOL     OW13003   0.102   3.728   0.240
 4035SOL    HW113004   0.017   3.780   0.229
 4035SOL    HW213005   0.172   3.764   0.179
 4036SOL     OW13006   5.991   6.238   2.468
 4036SOL    HW113007   5.978   6.210   2.563
 4036SOL    HW213008   5.911   6.290   2.437
 4037SOL     OW13009   1.535   3.017   6.642
 4037SOL    HW113010   1.633   3.003   6.627
 4037SOL    HW213011   1.521   3.060   6.731
 4038SOL     OW13012   4.958   4.849   2.482
 4038SOL    HW113013   4.881   4.894   2.437
 4038SOL    HW213014   4.977   4.762   2.437
 4039SOL     OW13015   5.250   5.532   0.355
 4039SOL    HW113016   5.344   5.560   0.335
 4039SOL    HW213017   5.239   5.434   0.339
 4040SOL     OW13018   2.771   6.893   0.773
 4040SOL    HW113019   2.723   6.958   0.714
 4040SOL    HW213020   2.868   6.917   0.778
 4041SOL     OW13021   0.869   5.959   2.247
 4041SOL    HW113022   0.839   5.893   2.179
 4041SOL    HW213023   0.941   5.920   2.304
 4042SOL     OW13024   6.088   5.430   2.336
 4042SOL    HW113025   6.083   5.391   2.245
 4042SOL    HW213026   6.099   5.529   2.330
 4043SOL     OW13027   5.546   1.872   3.154
 4043SOL    HW113028   5.490   1.920   3.086
 4043SOL    HW213029   5.642   1.877   3.128
 4044SOL     OW13030   6.058   0.103   3.643
 4044SOL    HW113031   6.107   0.095   3.730
 4044SOL    HW213032   6.018   0.195   3.637
 4045SOL     OW13033   2.904   4.214   6.227
 4045SOL    HW113034   2.979   4.264   6.271
 4045SOL    HW213035   2.898   4.241   6.131
 4046SOL     OW13036   1.024   2.117   1.887
 4046SOL    HW113037   1.089   2.090   1.816
 4046SOL    HW213038   1.003   2.214   1.879
 4047SOL     OW13039   3.000   3.823   1.206
 4047SOL    HW113040   2.986   3.796   1.301
 4047SOL    HW213041   2.921   3.794   1.151
 4048SOL     OW13042   5.554   0.683   1.481
 4048SOL    HW113043   5.639   0.653   1.525
 4048SOL    HW213044   5.546   0.638   1.392
 4049SOL     OW13045   6.379   6.075   6.117
 4049SOL    HW113046   6.459   6.136   6.122
 4049SOL    HW213047   6.304   6.113   6.170
 4050SOL     OW13048   1.845   6.228   0.076
 4050SOL    HW113049   1.927   6.245   0.021
 4050SOL    HW213050   1.866   6.244   0.172
 4051SOL     OW13051   2.950   4.381   0.705
 4051SOL    HW113052   2.875   4.446   0.721
 4051SOL    HW213053   3.001   4.367   0.790
 4052SOL     OW13054   1.034   0.457   0.982
 4052SOL    HW113055   1.026   0.426   0.887
 4052SOL    HW213056   1.127   0.490   0.999
 4053SOL     OW13057   2.856   5.013   3.910
 4053SOL    HW113058   2.849   5.110   3.933
 4053SOL    HW213059   2.948   4.980   3.931
 4054SOL     OW13060   2.858   2.687   0.548
 4054SOL    HW113061   2.819   2.771   0.585
 4054SOL    HW213062   2.795   2.611   0.565
 4055SOL     OW13063   2.579   2.609   6.227
 4055SOL    HW113064   2.677   2.630   6.224
 4055SOL    HW213065   2.528   2.678   6.176
 4056SOL     OW13066   3.969   3.402   0.117
 4056SOL    HW113067   4.064   3.388   0.142
 4056SOL    HW213068   3.939   3.493   0.144
 4057SOL     OW13069   5.361   3.076   0.348
 4057SOL    HW113070   5.351   3.006   0.277
 4057SOL    HW213071   5.374   3.165   0.305
 4058SOL     OW13072   2.193   1.493   4.605
 4058SOL    HW113073   2.210   1.543   4.521
 4058SOL    HW213074   2.265   1.512   4.671
 4059SOL     OW13075   2.235   2.291   3.959
 4059SOL    HW113076   2.153   2.285   4.016
 4059SOL    HW213077   2.316   2.301   4.017
 4060SOL     OW13078   3.725   5.323   4.260
 4060SOL    HW113079   3.808   5.362   4.299
 4060SOL    HW213080   3.693   5.247   4.316
 4061SOL     OW13081   3.375   4.576   1.679
 4061SOL    HW113082   3.388   4.480   1.701
 4061SOL    HW213083   3.446   4.630   1.723
 4062SOL     OW13084   3.644   1.349   2.367
 4062SOL    HW113085   3.551   1.385   2.377
 4062SOL    HW213086   3.688   1.344   2.456
 4063SOL     OW13087   3.341   6.755   5.627
 4063SOL    HW113088   3.342   6.655   5.629
 4063SOL    HW213089   3.407   6.786   5.559
 4064SOL     OW13090   1.709   0.867   2.687
 4064SOL    HW113091   1.725   0.833   2.779
 4064SOL    HW213092   1.781   0.834   2.626
 4065SOL     OW13093   0.259   6.768   1.135
 4065SOL    HW113094   0.324   6.843   1.126
 4065SOL    HW213095   0.265   6.709   1.054
 4066SOL     OW13096   5.388   4.511   1.725
 4066SOL    HW113097   5.360   4.516   1.629
 4066SOL    HW213098   5.484   4.536   1.733
 4067SOL     OW13099   5.362   1.756   3.322
 4067SOL    HW113100   5.325   1.670   3.288
 4067SOL    HW213101   5.430   1.792   3.259
 4068SOL     OW13102   4.841   1.013   4.969
 4068SOL    HW113103   4.818   1.108   4.949
 4068SOL    HW213104   4.940   1.000   4.960
 4069SOL     OW13105   5.181   4.717   1.081
 4069SOL    HW113106   5.248   4.774   1.130
 4069SOL    HW213107   5.089   4.742   1.109
 4070SOL     OW13108   2.133   3.808   2.746
 4070SOL    HW113109   2.107   3.771   2.657
 4070SOL    HW213110   2.136   3.908   2.741
 4071SOL     OW13111   1.261   0.752   5.085
 4071SOL    HW113112   1.306   0.715   5.167
 4071SOL    HW213113   1.330   0.785   5.021
 4072SOL     OW13114   1.858   6.634   4.146
 4072SOL    HW113115   1.822   6.666   4.058
 4072SOL    HW213116   1.811   6.550   4.174
 4073SOL     OW13117   2.349   6.015   6.109
 4073SOL    HW113118   2.381   5.998   6.016
 4073SOL    HW213119   2.415   5.976   6.175
 4074SOL     OW13120   0.547   2.151   1.925
 4074SOL    HW113121   0.469   2.191   1.876
 4074SOL    HW213122   0.618   2.126   1.859
 4075SOL     OW13123   4.304   1.945   2.637
 4075SOL    HW113124   4.273   2.040   2.630
 4075SOL    HW213125   4.325   1.911   2.545
 4076SOL     OW13126   2.174   3.652   5.081
 4076SOL    HW113127   2.207   3.694   5.165
 4076SOL    HW213128   2.207   3.704   5.002
 4077SOL     OW13129   3.068   0.181   0.935
 4077SOL    HW113130   3.092   0.165   0.840
 4077SOL    HW213131   3.102   0.106   0.992
 4078SOL     OW13132   6.569   4.274   1.738
 4078SOL    HW113133   6.513   4.250   1.658
 4078SOL    HW213134   6.568   4.198   1.803
 4079SOL     OW13135   1.074   1.400   3.377
 4079SOL    HW113136   0.990   1.391   3.323
 4079SOL    HW213137   1.088   1.496   3.401
 4080SOL     OW13138   3.180   3.751   0.866
 4080SOL    HW113139   3.084   3.775   0.854
 4080SOL    HW213140   3.188   3.652   0.877
 4081SOL     OW13141   2.608   1.354   4.994
 4081SOL    HW113142   2.683   1.363   4.929
 4081SOL    HW213143   2.597   1.440   5.045
 4082SOL     OW13144   0.825   2.472   5.747
 4082SOL    HW113145   0.815   2.374   5.732
 4082SOL    HW213146   0.919   2.500   5.725
 4083SOL     OW13147   5.942   4.478   3.547
 4083SOL    HW113148   5.982   4.423   3.474
 4083SOL    HW213149   5.842   4.477   3.539
 4084SOL     OW13150   4.747   2.316   3.045
 4084SOL    HW113151   4.668   2.358   3.090
 4084SOL    HW213152   4.716   2.259   2.969
 4085SOL     OW13153   3.377   5.587   1.910
 4085SOL    HW113154   3.476   5.599   1.917
 4085SOL    HW213155   3.346   5.619   1.820
 4086SOL     OW13156   6.825   5.616   6.441
 4086SOL    HW113157   6.798   5.711   6.460
 4086SOL    HW213158   6.763   5.554   6.488
 4087SOL     OW13159   2.543   0.243   2.386
 4087SOL    HW113160   2.481   0.241   2.307
 4087SOL    HW213161   2.637   0.226   2.356
 4088SOL     OW13162   6.769   0.900   5.447
 4088SOL    HW113163   6.713   0.877   5.526
 4088SOL    HW213164   6.714   0.891   5.363
 4089SOL     OW13165   6.880   6.326   4.436
 4089SOL    HW113166   6.931   6.396   4.387
 4089SOL    HW213167   6.828   6.369   4.510
 4090SOL     OW13168   1.932   6.623   4.919
 4090SOL    HW113169   2.015   6.623   4.862
 4090SOL    HW213170   1.853   6.647   4.862
 4091SOL     OW13171   1.313   4.909   1.101
 4091SOL    HW113172   1.278   4.978   1.039
 4091SOL    HW213173   1.348   4.831   1.048
 4092SOL     OW13174   4.857   3.151   4.789
 4092SOL    HW113175   4.784   3.181   4.728
 4092SOL    HW213176   4.818   3.090   4.859
 4093SOL     OW13177   6.021   5.349   2.590
 4093SOL    HW113178   6.034   5.349   2.491
 4093SOL    HW213179   6.110   5.338   2.635
 4094SOL     OW13180   0.228   4.709   6.739
 4094SOL    HW113181   0.322   4.735   6.716
 4094SOL    HW213182   0.215   4.718   6.838
 4095SOL     OW13183   0.362   4.224   0.363
 4095SOL    HW113184   0.336   4.149   0.303
 4095SOL    HW213185   0.440   4.273   0.325
 4096SOL     OW13186   1.980   1.661   6.682
 4096SOL    HW113187   1.937   1.573   6.661
 4096SOL    HW213188   2.076   1.658   6.654
 4097SOL     OW13189   0.202   3.798   5.077
 4097SOL    HW113190   0.226   3.760   4.988
 4097SOL    HW213191   0.171   3.892   5.066
 4098SOL     OW13192   2.178   4.568   2.843
 4098SOL    HW113193   2.141   4.578   2.750
 4098SOL    HW213194   2.251   4.499   2.842
 4099SOL     OW13195   4.210   4.185   6.760
 4099SOL    HW113196   4.305   4.156   6.749
 4099SOL    HW213197   4.191   4.197   6.858
 4100SOL     OW13198   1.410   1.146   3.569
 4100SOL    HW113199   1.439   1.141   3.664
 4100SOL    HW213200   1.324   1.197   3.562
 4101SOL     OW13201   6.619   0.674   6.743
 4101SOL    HW113202   6.581   0.650   6.654
 4101SOL    HW213203   6.708   0.717   6.731
 4102SOL     OW13204   1.873   0.463   0.097
 4102SOL    HW113205   1.810   0.537   0.076
 4102SOL    HW213206   1.963   0.501   0.118
 4103SOL     OW13207   0.723   6.649   2.391
 4103SOL    HW113208   0.672   6.568   2.363
 4103SOL    HW213209   0.790   6.673   2.321
 4104SOL     OW13210   0.444   6.091   2.948
 4104SOL    HW113211   0.500   6.082   2.865
 4104SOL    HW213212   0.395   6.005   2.964
 4105SOL     OW13213   4.801   1.282   1.303
 4105SOL    HW113214   4.730   1.340   1.342
 4105SOL    HW213215   4.759   1.205   1.255
 4106SOL     OW13216   0.187   1.900   3.770
 4106SOL    HW113217   0.234   1.961   3.833
 4106SOL    HW213218   0.119   1.845   3.820
 4107SOL     OW13219   0.641   5.800   6.305
 4107SOL    HW113220   0.647   5.884   6.360
 4107SOL    HW213221   0.714   5.799   6.237
 4108SOL     OW13222   0.156   5.051   4.280
 4108SOL    HW113223   0.080   5.015   4.335
 4108SOL    HW213224   0.229   4.983   4.277
 4109SOL     OW13225   6.691   5.675   3.138
 4109SOL    HW113226   6.753   5.604   3.172
 4109SOL    HW213227   6.742   5.737   3.078
 4110SOL     OW13228   4.421   2.919   0.188
 4110SOL    HW113229   4.359   2.966   0.249
 4110SOL    HW213230   4.471   2.849   0.238
 4111SOL     OW13231   6.493   4.579   5.979
 4111SOL    HW113232   6.580   4.594   5.933
 4111SOL    HW213233   6.509   4.540   6.070
 4112SOL     OW13234   4.709   0.057   4.706
 4112SOL    HW113235   4.721   0.156   4.707
 4112SOL    HW213236   4.745   0.019   4.791
 4113SOL     OW13237   4.487   4.578   4.813
 4113SOL    HW113238   4.447   4.528   4.890
 4113SOL    HW213239   4.428   4.655   4.790
 4114SOL     OW13240   6.203   1.587   3.369
 4114SOL    HW113241   6.176   1.523   3.297
 4114SOL    HW213242   6.175   1.551   3.458
 4115SOL     OW13243   2.822   5.514   3.441
 4115SOL    HW113244   2.770   5.599   3.446
 4115SOL    HW213245   2.760   5.436   3.439
 4116SOL     OW13246   5.510   2.603   3.429
 4116SOL    HW113247   5.468   2.693   3.446
 4116SOL    HW213248   5.472   2.564   3.346
 4117SOL     OW13249   1.507   2.361   2.570
 4117SOL    HW113250   1.434   2.428   2.556
 4117SOL    HW213251   1.478   2.295   2.640
 4118SOL     OW13252   6.208   6.088   6.393
 4118SOL    HW113253   6.229   6.183   6.368
 4118SOL    HW213254   6.288   6.047   6.437
 4119SOL     OW13255   2.412   0.636   3.414
 4119SOL    HW113256   2.321   0.641   3.456
 4119SOL    HW213257   2.435   0.540   3.397
 4120SOL     OW13258   2.672   1.307   6.577
 4120SOL    HW113259   2.685   1.289   6.480
 4120SOL    HW213260   2.651   1.404   6.591
 4121SOL     OW13261   0.212   6.956   2.887
 4121SOL    HW113262   0.233   6.928   2.981
 4121SOL    HW213263   0.112   6.964   2.876
 4122SOL     OW13264   6.737   5.490   4.526
 4122SOL    HW113265   6.732   5.530   4.434
 4122SOL    HW213266   6.777   5.556   4.589
 4123SOL     OW13267   3.739   5.175   3.372
 4123SOL    HW113268   3.823   5.123   3.354
 4123SOL    HW213269   3.739   5.258   3.315
 4124SOL     OW13270   6.546   5.976   0.573
 4124SOL    HW113271   6.469   6.039   0.562
 4124SOL    HW213272   6.585   5.954   0.484
 4125SOL     OW13273   5.383   2.534   2.441
 4125SOL    HW113274   5.372   2.633   2.435
 4125SOL    HW213275   5.424   2.510   2.529
 4126SOL     OW13276   1.572   3.133   2.182
 4126SOL    HW113277   1.636   3.082   2.125
 4126SOL    HW213278   1.525   3.202   2.127
 4127SOL     OW13279   3.906   2.169   3.990
 4127SOL    HW113280   3.958   2.085   4.006
 4127SOL    HW213281   3.883   2.210   4.079
 4128SOL     OW13282   0.678   3.059   1.446
 4128SOL    HW113283   0.777   3.056   1.437
 4128SOL    HW213284   0.653   3.078   1.541
 4129SOL     OW13285   3.557   2.686   0.654
 4129SOL    HW113286   3.548   2.685   0.554
 4129SOL    HW213287   3.497   2.617   0.694
 4130SOL     OW13288   6.085   2.806   1.438
 4130SOL    HW113289   6.148   2.777   1.510
 4130SOL    HW213290   5.994   2.766   1.454
 4131SOL     OW13291   5.411   0.536   2.295
 4131SOL    HW113292   5.495   0.572   2.253
 4131SOL    HW213293   5.345   0.515   2.224
 4132SOL     OW13294   6.512   4.137   4.050
 4132SOL    HW113295   6.470   4.048   4.065
 4132SOL    HW213296   6.490   4.168   3.957
 4133SOL     OW13297   5.624   6.409   1.488
 4133SOL    HW113298   5.693   6.351   1.443
 4133SOL    HW213299   5.662   6.501   1.501
 4134SOL     OW13300   2.620   3.198   1.512
 4134SOL    HW113301   2.631   3.129   1.440
 4134SOL    HW213302   2.696   3.193   1.576
 4135SOL     OW13303   0.237   2.370   2.484
 4135SOL    HW113304   0.273   2.278   2.466
 4135SOL    HW213305   0.224   2.383   2.582
 4136SOL     OW13306   0.315   4.150   1.218
 4136SOL    HW113307   0.300   4.101   1.132
 4136SOL    HW213308   0.338   4.085   1.290
 4137SOL     OW13309   2.009   2.800   0.537
 4137SOL    HW113310   2.105   2.780   0.554
 4137SOL    HW213311   1.978   2.873   0.598
 4138SOL     OW13312   4.395   5.791   0.576
 4138SOL    HW113313   4.367   5.800   0.671
 4138SOL    HW213314   4.456   5.867   0.552
 4139SOL     OW13315   1.677   1.931   2.769
 4139SOL    HW113316   1.705   2.006   2.829
 4139SOL    HW213317   1.631   1.860   2.822
 4140SOL     OW13318   2.816   2.288   4.178
 4140SOL    HW113319   2.911   2.280   4.208
 4140SOL    HW213320   2.811   2.276   4.079
 4141SOL     OW13321   4.107   6.608   6.561
 4141SOL    HW113322   4.108   6.599   6.661
 4141SOL    HW213323   4.148   6.696   6.536
 4142SOL     OW13324   6.508   4.040   2.278
 4142SOL    HW113325   6.417   4.082   2.288
 4142SOL    HW213326   6.572   4.108   2.242
 4143SOL     OW13327   5.835   3.433   1.018
 4143SOL    HW113328   5.792   3.497   1.082
 4143SOL    HW213329   5.930   3.418   1.045
 4144SOL     OW13330   5.549   1.615   0.811
 4144SOL    HW113331   5.507   1.617   0.901
 4144SOL    HW213332   5.630   1.673   0.811
 4145SOL     OW13333   0.852   6.352   0.578
 4145SOL    HW113334   0.948   6.328   0.560
 4145SOL    HW213335   0.808   6.376   0.492
 4146SOL     OW13336   5.460   6.576   3.361
 4146SOL    HW113337   5.401   6.551   3.437
 4146SOL    HW213338   5.497   6.668   3.376
 4147SOL     OW13339   5.064   4.283   5.871
 4147SOL    HW113340   5.121   4.265   5.951
 4147SOL    HW213341   5.083   4.374   5.835
 4148SOL     OW13342   2.927   0.245   5.086
 4148SOL    HW113343   3.004   0.218   5.028
 4148SOL    HW213344   2.877   0.319   5.041
 4149SOL     OW13345   1.811   3.149   0.970
 4149SOL    HW113346   1.823   3.052   0.948
 4149SOL    HW213347   1.803   3.202   0.886
 4150SOL     OW13348   6.437   3.061   6.540
 4150SOL    HW113349   6.499   3.025   6.610
 4150SOL    HW213350   6.343   3.059   6.573
 4151SOL     OW13351   2.209   6.756   4.968
 4151SOL    HW113352   2.163   6.841   4.943
 4151SOL    HW213353   2.307   6.774   4.982
 4152SOL     OW13354   3.431   5.315   2.047
 4152SOL    HW113355   3.365   5.262   2.100
 4152SOL    HW213356   3.382   5.382   1.990
 4153SOL     OW13357   6.780   5.037   1.408
 4153SOL    HW113358   6.812   5.071   1.320
 4153SOL    HW213359   6.802   4.940   1.417
 4154SOL     OW13360   6.892   5.345   3.744
 4154SOL    HW113361   6.819   5.395   3.696
 4154SOL    HW213362   6.942   5.409   3.803
 4155SOL     OW13363   0.481   2.231   1.649
 4155SOL    HW113364   0.505   2.280   1.565
 4155SOL    HW213365   0.453   2.138   1.627
 4156SOL     OW13366   6.860   4.717   4.908
 4156SOL    HW113367   6.925   4.769   4.852
 4156SOL    HW213368   6.816   4.778   4.974
 4157SOL     OW13369   6.857   6.655   2.136
 4157SOL    HW113370   6.876   6.656   2.234
 4157SOL    HW213371   6.937   6.688   2.086
 4158SOL     OW13372   1.994   2.178   1.661
 4158SOL    HW113373   2.055   2.123   1.717
 4158SOL    HW213374   2.042   2.209   1.579
 4159SOL     OW13375   2.667   1.925   2.985
 4159SOL    HW113376   2.585   1.868   2.975
 4159SOL    HW213377   2.650   1.998   3.052
 4160SOL     OW13378   6.664   6.765   6.857
 4160SOL    HW113379   6.752   6.723   6.880
 4160SOL    HW213380   6.674   6.865   6.857
 4161SOL     OW13381   2.037   1.732   0.858
 4161SOL    HW113382   1.949   1.709   0.902
 4161SOL    HW213383   2.075   1.813   0.902
 4162SOL     OW13384   6.502   5.727   0.690
 4162SOL    HW113385   6.476   5.718   0.786
 4162SOL    HW213386   6.529   5.821   0.671
 4163SOL     OW13387   4.774   0.256   1.847
 4163SOL    HW113388   4.760   0.286   1.753
 4163SOL    HW213389   4.770   0.156   1.850
 4164SOL     OW13390   0.026   6.781   5.472
 4164SOL    HW113391   0.105   6.831   5.438
 4164SOL    HW213392   6.974   6.845   5.500
 4165SOL     OW13393   4.238   0.567   5.597
 4165SOL    HW113394   4.196   0.564   5.506
 4165SOL    HW213395   4.299   0.646   5.604
 4166SOL     OW13396   5.896   0.702   2.179
 4166SOL    HW113397   5.938   0.789   2.204
 4166SOL    HW213398   5.800   0.703   2.207
 4167SOL     OW13399   2.861   4.790   5.882
 4167SOL    HW113400   2.837   4.793   5.785
 4167SOL    HW213401   2.849   4.881   5.922
 4168SOL     OW13402   6.954   4.773   0.277
 4168SOL    HW113403   6.995   4.732   0.359
 4168SOL    HW213404   6.856   4.787   0.292
 4169SOL     OW13405   5.531   4.145   5.467
 4169SOL    HW113406   5.605   4.177   5.407
 4169SOL    HW213407   5.556   4.161   5.563
 4170SOL     OW13408   4.887   2.973   4.512
 4170SOL    HW113409   4.935   2.924   4.439
 4170SOL    HW213410   4.942   3.053   4.539
 4171SOL     OW13411   1.167   4.438   1.329
 4171SOL    HW113412   1.200   4.523   1.286
 4171SOL    HW213413   1.097   4.397   1.270
 4172SOL     OW13414   3.045   3.225   0.867
 4172SOL    HW113415   3.104   3.146   0.852
 4172SOL    HW213416   2.960   3.213   0.816
 4173SOL     OW13417   4.048   2.595   5.688
 4173SOL    HW113418   4.096   2.512   5.715
 4173SOL    HW213419   4.020   2.646   5.770
 4174SOL     OW13420   4.531   0.616   3.680
 4174SOL    HW113421   4.450   0.575   3.722
 4174SOL    HW213422   4.520   0.715   3.674
 4175SOL     OW13423   2.202   4.646   6.127
 4175SOL    HW113424   2.284   4.654   6.071
 4175SOL    HW213425   2.128   4.606   6.073
 4176SOL     OW13426   4.815   6.448   0.225
 4176SOL    HW113427   4.811   6.498   0.311
 4176SOL    HW213428   4.838   6.512   0.151
 4177SOL     OW13429   5.025   4.687   4.858
 4177SOL    HW113430   4.932   4.686   4.820
 4177SOL    HW213431   5.019   4.687   4.958
 4178SOL     OW13432   4.627   6.613   2.895
 4178SOL    HW113433   4.544   6.558   2.909
 4178SOL    HW213434   4.700   6.556   2.860
 4179SOL     OW13435   5.522   3.782   3.453
 4179SOL    HW113436   5.595   3.850   3.445
 4179SOL    HW213437   5.488   3.781   3.547
 4180SOL     OW13438   5.552   3.158   0.721
 4180SOL    HW113439   5.556   3.067   0.680
 4180SOL    HW213440   5.624   3.167   0.789
 4181SOL     OW13441   5.478   0.349   5.871
 4181SOL    HW113442   5.533   0.430   5.849
 4181SOL    HW213443   5.523   0.295   5.942
 4182SOL     OW13444   0.198   5.478   4.045
 4182SOL    HW113445   0.283   5.482   3.993
 4182SOL    HW213446   0.213   5.426   4.130
 4183SOL     OW13447   1.912   1.154   0.865
 4183SOL    HW113448   1.899   1.080   0.800
 4183SOL    HW213449   1.969   1.226   0.824
 4184SOL     OW13450   3.811   0.501   2.126
 4184SOL    HW113451   3.846   0.421   2.078
 4184SOL    HW213452   3.877   0.530   2.195
 4185SOL     OW13453   0.400   4.187   3.189
 4185SOL    HW113454   0.424   4.176   3.093
 4185SOL    HW213455   0.479   4.166   3.246
 4186SOL     OW13456   2.674   5.849   6.361
 4186SOL    HW113457   2.772   5.852   6.344
 4186SOL    HW213458   2.657   5.809   6.451
 4187SOL     OW13459   2.390   3.627   6.898
 4187SOL    HW113460   2.395   3.709   6.840
 4187SOL    HW213461   2.454   3.636   6.974
 4188SOL     OW13462   5.581   0.605   5.186
 4188SOL    HW113463   5.561   0.562   5.098
 4188SOL    HW213464   5.680   0.615   5.196
 4189SOL     OW13465   3.623   5.314   3.675
 4189SOL    HW113466   3.659   5.222   3.660
 4189SOL    HW213467   3.694   5.381   3.652
 4190SOL     OW13468   0.508   6.552   1.043
 4190SOL    HW113469   0.457   6.624   0.995
 4190SOL    HW213470   0.596   6.589   1.074
 4191SOL     OW13471   5.217   4.273   6.076
 4191SOL    HW113472   5.272   4.353   6.101
 4191SOL    HW213473   5.254   4.192   6.120
 4192SOL     OW13474   0.963   1.466   2.360
 4192SOL    HW113475   0.876   1.421   2.341
 4192SOL    HW213476   0.982   1.532   2.288
 4193SOL     OW13477   5.532   0.531   0.206
 4193SOL    HW113478   5.436   0.523   0.180
 4193SOL    HW213479   5.564   0.444   0.243
 4194SOL     OW13480   4.582   0.280   4.995
 4194SOL    HW113481   4.484   0.281   5.013
 4194SOL    HW213482   4.606   0.357   4.936
 4195SOL     OW13483   4.365   6.563   0.997
 4195SOL    HW113484   4.410   6.635   1.049
 4195SOL    HW213485   4.360   6.589   0.901
 4196SOL     OW13486   0.418   2.684   3.403
 4196SOL    HW113487   0.436   2.633   3.486
 4196SOL    HW213488   0.333   2.736   3.413
 4197SOL     OW13489   3.924   5.754   5.283
 4197SOL    HW113490   3.985   5.806   5.343
 4197SOL    HW213491   3.830   5.786   5.294
 4198SOL     OW13492   6.571   0.999   2.332
 4198SOL    HW113493   6.528   0.963   2.414
 4198SOL    HW213494   6.643   1.064   2.357
 4199SOL     OW13495   1.064   2.878   5.879
 4199SOL    HW113496   1.037   2.904   5.972
 4199SOL    HW213497   0.982   2.874   5.821
 4200SOL     OW13498   2.825   0.288   5.617
 4200SOL    HW113499   2.886   0.288   5.538
 4200SOL    HW213500   2.865   0.341   5.691
 4201SOL     OW13501   6.166   6.785   2.906
 4201SOL    HW113502   6.260   6.821   2.907
 4201SOL    HW213503   6.142   6.757   2.813
 4202SOL     OW13504   3.726   5.649   6.558
 4202SOL    HW113505   3.635   5.635   6.598
 4202SOL    HW213506   3.750   5.569   6.502
 4203SOL     OW13507   4.997   4.581   0.640
 4203SOL    HW113508   5.053   4.609   0.561
 4203SOL    HW213509   4.994   4.655   0.707
 4204SOL     OW13510   3.917   3.353   5.455
 4204SOL    HW113511   3.929   3.450   5.479
 4204SOL    HW213512   3.826   3.323   5.482
 4205SOL     OW13513   3.710   5.251   4.980
 4205SOL    HW113514   3.680   5.163   4.944
 4205SOL    HW213515   3.796   5.278   4.935
 4206SOL     OW13516   0.161   1.777   5.052
 4206SOL    HW113517   0.087   1.823   5.001
 4206SOL    HW213518   0.230   1.745   4.987
 4207SOL     OW13519   2.479   2.552   1.431
 4207SOL    HW113520   2.568   2.597   1.429
 4207SOL    HW213521   2.418   2.593   1.364
 4208SOL     OW13522   1.097   3.552   6.063
 4208SOL    HW113523   1.000   3.558   6.039
 4208SOL    HW213524   1.141   3.640   6.048
 4209SOL     OW13525   7.007   6.092   2.860
 4209SOL    HW113526   7.007   6.079   2.959
 4209SOL    HW213527   0.010   6.005   2.815
 4210SOL     OW13528   4.066   3.565   3.121
 4210SOL    HW113529   4.060   3.663   3.102
 4210SOL    HW213530   4.103   3.550   3.213
 4211SOL     OW13531   3.656   1.810   5.031
 4211SOL    HW113532   3.598   1.834   4.954
 4211SOL    HW213533   3.663   1.888   5.094
 4212SOL     OW13534   6.299   1.891   3.996
 4212SOL    HW113535   6.380   1.833   3.985
 4212SOL    HW213536   6.233   1.845   4.056
 4213SOL     OW13537   2.267   0.325   3.254
 4213SOL    HW113538   2.198   0.397   3.253
 4213SOL    HW213539   2.290   0.300   3.160
 4214SOL     OW13540   0.347   5.811   4.773
 4214SOL    HW113541   0.319   5.859   4.856
 4214SOL    HW213542   0.326   5.714   4.783
 4215SOL     OW13543   5.569   0.088   5.324
 4215SOL    HW113544   5.514   0.131   5.395
 4215SOL    HW213545   5.588   0.154   5.251
 4216SOL     OW13546   1.416   0.719   2.320
 4216SOL    HW113547   1.452   0.637   2.275
 4216SOL    HW213548   1.441   0.718   2.417
 4217SOL     OW13549   1.148   0.571   1.741
 4217SOL    HW113550   1.216   0.585   1.813
 4217SOL    HW213551   1.156   0.478   1.704
 4218SOL     OW13552   3.074   0.728   1.138
 4218SOL    HW113553   2.987   0.749   1.183
 4218SOL    HW213554   3.100   0.634   1.157
 4219SOL     OW13555   4.618   6.532   4.389
 4219SOL    HW113556   4.572   6.444   4.401
 4219SOL    HW213557   4.556   6.606   4.417
 4220SOL     OW13558   5.879   3.524   2.131
 4220SOL    HW113559   5.869   3.426   2.151
 4220SOL    HW213560   5.845   3.578   2.208
 4221SOL     OW13561   6.157   4.725   6.389
 4221SOL    HW113562   6.192   4.669   6.314
 4221SOL    HW213563   6.172   4.679   6.476
 4222SOL     OW13564   6.274   1.308   3.733
 4222SOL    HW113565   6.302   1.270   3.645
 4222SOL    HW213566   6.269   1.235   3.801
 4223SOL     OW13567   3.948   3.634   1.274
 4223SOL    HW113568   3.969   3.537   1.263
 4223SOL    HW213569   3.960   3.681   1.186
 4224SOL     OW13570   5.356   4.621   4.846
 4224SOL    HW113571   5.343   4.551   4.916
 4224SOL    HW213572   5.267   4.653   4.814
 4225SOL     OW13573   1.790   2.220   5.746
 4225SOL    HW113574   1.815   2.313   5.774
 4225SOL    HW213575   1.872   2.165   5.737
 4226SOL     OW13576   1.209   5.486   3.647
 4226SOL    HW113577   1.216   5.577   3.686
 4226SOL    HW213578   1.120   5.476   3.602
 4227SOL     OW13579   4.993   6.042   1.483
 4227SOL    HW113580   5.014   6.077   1.391
 4227SOL    HW213581   5.045   6.096   1.550
 4228SOL     OW13582   0.255   6.604   5.425
 4228SOL    HW113583   0.225   6.518   5.383
 4228SOL    HW213584   0.175   6.662   5.441
 4229SOL     OW13585   4.706   5.663   5.529
 4229SOL    HW113586   4.745   5.581   5.570
 4229SOL    HW213587   4.779   5.727   5.506
 4230SOL     OW13588   0.756   6.393   3.440
 4230SOL    HW113589   0.760   6.293   3.431
 4230SOL    HW213590   0.733   6.433   3.352
 4231SOL     OW13591   4.911   0.149   5.514
 4231SOL    HW113592   4.902   0.050   5.501
 4231SOL    HW213593   4.990   0.168   5.574
 4232SOL     OW13594   1.765   4.906   3.795
 4232SOL    HW113595   1.811   4.983   3.838
 4232SOL    HW213596   1.760   4.921   3.696
 4233SOL     OW13597   6.875   0.367   4.989
 4233SOL    HW113598   6.780   0.362   4.958
 4233SOL    HW213599   6.933   0.311   4.930
 4234SOL     OW13600   2.087   5.232   4.886
 4234SOL    HW113601   2.022   5.178   4.831
 4234SOL    HW213602   2.078   5.328   4.862
 4235SOL     OW13603   6.754   5.150   5.917
 4235SOL    HW113604   6.678   5.142   5.853
 4235SOL    HW213605   6.829   5.090   5.889
 4236SOL     OW13606   0.154   4.459   1.745
 4236SOL    HW113607   0.198   4.471   1.656
 4236SOL    HW213608   0.221   4.425   1.811
 4237SOL     OW13609   0.257   3.889   4.110
 4237SOL    HW113610   0.187   3.870   4.041
 4237SOL    HW213611   0.222   3.862   4.200
 4238SOL     OW13612   0.951   0.357   3.236
 4238SOL    HW113613   1.030   0.361   3.175
 4238SOL    HW213614   0.867   0.353   3.182
 4239SOL     OW13615   4.174   1.396   2.403
 4239SOL    HW113616   4.173   1.319   2.466
 4239SOL    HW213617   4.241   1.379   2.331
 4240SOL     OW13618   2.586   5.155   0.405
 4240SOL    HW113619   2.678   5.126   0.378
 4240SOL    HW213620   2.551   5.093   0.474
 4241SOL     OW13621   5.154   0.878   0.467
 4241SOL    HW113622   5.251   0.859   0.449
 4241SOL    HW213623   5.100   0.797   0.444
 4242SOL     OW13624   2.805   1.781   4.004
 4242SOL    HW113625   2.758   1.869   3.998
 4242SOL    HW213626   2.898   1.790   3.969
 4243SOL     OW13627   5.165   1.760   2.833
 4243SOL    HW113628   5.074   1.761   2.872
 4243SOL    HW213629   5.210   1.848   2.849
 4244SOL     OW13630   3.968   4.568   1.450
 4244SOL    HW113631   3.918   4.487   1.421
 4244SOL    HW213632   3.930   4.602   1.536
 4245SOL     OW13633   6.540   2.408   6.893
 4245SOL    HW113634   6.568   2.322   6.851
 4245SOL    HW213635   6.552   2.482   6.827
 4246SOL     OW13636   6.416   3.970   3.385
 4246SOL    HW113637   6.396   3.893   3.446
 4246SOL    HW213638   6.515   3.975   3.370
 4247SOL     OW13639   1.487   6.345   3.306
 4247SOL    HW113640   1.449   6.425   3.259
 4247SOL    HW213641   1.438   6.263   3.277
 4248SOL     OW13642   2.855   1.866   4.553
 4248SOL    HW113643   2.759   1.867   4.579
 4248SOL    HW213644   2.908   1.820   4.625
 4249SOL     OW13645   6.589   2.855   5.187
 4249SOL    HW113646   6.563   2.924   5.119
 4249SOL    HW213647   6.668   2.887   5.239
 4250SOL     OW13648   0.438   4.894   3.516
 4250SOL    HW113649   0.442   4.987   3.552
 4250SOL    HW213650   0.369   4.842   3.566
 4251SOL     OW13651   5.865   5.167   0.680
 4251SOL    HW113652   5.769   5.178   0.706
 4251SOL    HW213653   5.884   5.224   0.600
 4252SOL     OW13654   6.106   6.745   5.536
 4252SOL    HW113655   6.097   6.652   5.500
 4252SOL    HW213656   6.192   6.754   5.586
 4253SOL     OW13657   2.871   0.490   1.711
 4253SOL    HW113658   2.824   0.422   1.655
 4253SOL    HW213659   2.966   0.461   1.726
 4254SOL     OW13660   1.091   2.625   1.906
 4254SOL    HW113661   1.013   2.561   1.902
 4254SOL    HW213662   1.082   2.691   1.832
 4255SOL     OW13663   5.915   2.745   3.507
 4255SOL    HW113664   5.997   2.694   3.482
 4255SOL    HW213665   5.903   2.823   3.444
 4256SOL     OW13666   1.388   6.722   0.797
 4256SOL    HW113667   1.328   6.797   0.770
 4256SOL    HW213668   1.477   6.733   0.754
 4257SOL     OW13669   3.939   0.566   4.813
 4257SOL    HW113670   3.915   0.631   4.885
 4257SOL    HW213671   3.962   0.478   4.854
 4258SOL     OW13672   5.954   6.696   1.780
 4258SOL    HW113673   6.012   6.638   1.723
 4258SOL    HW213674   5.939   6.784   1.734
 4259SOL     OW13675   3.129   0.367   6.549
 4259SOL    HW113676   3.090   0.424   6.622
 4259SOL    HW213677   3.133   0.272   6.579
 4260SOL     OW13678   5.294   6.486   4.942
 4260SOL    HW113679   5.391   6.486   4.965
 4260SOL    HW213680   5.242   6.443   5.017
 4261SOL     OW13681   1.890   0.480   1.576
 4261SOL    HW113682   1.854   0.391   1.604
 4261SOL    HW213683   1.962   0.508   1.640
 4262SOL     OW13684   1.067   4.665   5.625
 4262SOL    HW113685   1.035   4.608   5.550
 4262SOL    HW213686   1.065   4.612   5.710
 4263SOL     OW13687   2.830   6.727   3.435
 4263SOL    HW113688   2.765   6.801   3.453
 4263SOL    HW213689   2.809   6.649   3.495
 4264SOL     OW13690   6.935   1.998   2.339
 4264SOL    HW113691   6.856   1.966   2.392
 4264SOL    HW213692   7.018   1.954   2.372
 4265SOL     OW13693   5.748   1.351   0.104
 4265SOL    HW113694   5.719   1.377   0.197
 4265SOL    HW213695   5.817   1.416   0.071
 4266SOL     OW13696   1.822   5.583   0.779
 4266SOL    HW113697   1.852   5.616   0.869
 4266SOL    HW213698   1.886   5.513   0.747
 4267SOL     OW13699   2.000   3.471   4.886
 4267SOL    HW113700   2.063   3.432   4.953
 4267SOL    HW213701   1.915   3.498   4.932
 4268SOL     OW13702   1.712   0.068   6.375
 4268SOL    HW113703   1.764   7.002   6.371
 4268SOL    HW213704   1.772   0.142   6.405
 4269SOL     OW13705   2.137   1.602   0.177
 4269SOL    HW113706   2.135   1.512   0.222
 4269SOL    HW213707   2.097   1.670   0.238
 4270SOL     OW13708   3.022   3.236   4.016
 4270SOL    HW113709   2.971   3.257   3.932
 4270SOL    HW213710   3.041   3.138   4.019
 4271SOL     OW13711   0.225   1.321   6.429
 4271SOL    HW113712   0.143   1.373   6.456
 4271SOL    HW213713   0.263   1.275   6.509
 4272SOL     OW13714   0.667   4.620   4.694
 4272SOL    HW113715   0.599   4.693   4.699
 4272SOL    HW213716   0.683   4.597   4.598
 4273SOL     OW13717   4.886   6.445   4.812
 4273SOL    HW113718   4.885   6.540   4.780
 4273SOL    HW213719   4.845   6.386   4.742
 4274SOL     OW13720   1.254   0.341   2.661
 4274SOL    HW113721   1.294   0.385   2.741
 4274SOL    HW213722   1.185   0.275   2.690
 4275SOL     OW13723   6.874   1.766   5.357
 4275SOL    HW113724   6.815   1.725   5.427
 4275SOL    HW213725   6.821   1.779   5.273
 4276SOL     OW13726   1.240   4.433   3.644
 4276SOL    HW113727   1.225   4.337   3.670
 4276SOL    HW213728   1.250   4.439   3.544
 4277SOL     OW13729   6.437   4.330   4.204
 4277SOL    HW113730   6.365   4.296   4.265
 4277SOL    HW213731   6.470   4.254   4.148
 4278SOL     OW13732   0.006   0.856   4.923
 4278SOL    HW113733   6.929   0.854   4.950
 4278SOL    HW213734   0.057   0.790   4.978
 4279SOL     OW13735   3.307   6.474   5.577
 4279SOL    HW113736   3.285   6.380   5.601
 4279SOL    HW213737   3.296   6.486   5.478
 4280SOL     OW13738   5.185   1.346   5.292
 4280SOL    HW113739   5.130   1.266   5.315
 4280SOL    HW213740   5.261   1.318   5.232
 4281SOL     OW13741   2.546   4.959   4.447
 4281SOL    HW113742   2.620   4.892   4.455
 4281SOL    HW213743   2.506   4.975   4.537
 4282SOL     OW13744   3.048   2.507   0.498
 4282SOL    HW113745   3.020   2.444   0.425
 4282SOL    HW213746   2.970   2.561   0.527
 4283SOL     OW13747   1.715   0.653   3.829
 4283SOL    HW113748   1.799   0.685   3.872
 4283SOL    HW213749   1.646   0.726   3.832
 4284SOL     OW13750   5.093   5.968   2.355
 4284SOL    HW113751   5.104   5.910   2.436
 4284SOL    HW213752   5.008   6.020   2.363
 4285SOL     OW13753   0.556   0.622   6.292
 4285SOL    HW113754   0.573   0.585   6.201
 4285SOL    HW213755   0.607   0.569   6.360
 4286SOL     OW13756   5.138   5.393   6.559
 4286SOL    HW113757   5.075   5.361   6.488
 4286SOL    HW213758   5.086   5.414   6.642
 4287SOL     OW13759   5.943   1.074   6.388
 4287SOL    HW113760   5.879   1.020   6.443
 4287SOL    HW213761   6.035   1.038   6.398
 4288SOL     OW13762   0.825   5.720   3.142
 4288SOL    HW113763   0.820   5.803   3.086
 4288SOL    HW213764   0.921   5.694   3.155
 4289SOL     OW13765   6.458   3.172   0.856
 4289SOL    HW113766   6.451   3.076   0.829
 4289SOL    HW213767   6.369   3.216   0.845
 4290SOL     OW13768   2.639   6.346   1.808
 4290SOL    HW113769   2.729   6.369   1.771
 4290SOL    HW213770   2.638   6.249   1.834
 4291SOL     OW13771   4.411   3.483   1.509
 4291SOL    HW113772   4.452   3.552   1.570
 4291SOL    HW213773   4.332   3.442   1.554
 4292SOL     OW13774   6.619   4.441   6.177
 4292SOL    HW113775   6.563   4.375   6.228
 4292SOL    HW213776   6.677   4.392   6.112
 4293SOL     OW13777   0.242   3.147   0.260
 4293SOL    HW113778   0.243   3.168   0.162
 4293SOL    HW213779   0.234   3.048   0.273
 4294SOL     OW13780   4.035   2.619   0.439
 4294SOL    HW113781   4.031   2.653   0.345
 4294SOL    HW213782   4.128   2.630   0.474
 4295SOL     OW13783   3.339   6.020   4.849
 4295SOL    HW113784   3.434   6.009   4.820
 4295SOL    HW213785   3.325   5.974   4.936
 4296SOL     OW13786   3.391   1.490   0.010
 4296SOL    HW113787   3.344   1.404   0.030
 4296SOL    HW213788   3.488   1.473   7.013
 4297SOL     OW13789   5.357   0.796   5.910
 4297SOL    HW113790   5.270   0.752   5.933
 4297SOL    HW213791   5.415   0.732   5.860
 4298SOL     OW13792   2.553   5.513   6.615
 4298SOL    HW113793   2.595   5.454   6.546
 4298SOL    HW213794   2.481   5.462   6.663
 4299SOL     OW13795   0.721   2.736   0.013
 4299SOL    HW113796   0.725   2.804   0.085
 4299SOL    HW213797   0.649   2.761   6.967
 4300SOL     OW13798   3.836   1.296   6.778
 4300SOL    HW113799   3.812   1.220   6.718
 4300SOL    HW213800   3.935   1.299   6.789
 4301SOL     OW13801   2.560   1.489   0.464
 4301SOL    HW113802   2.650   1.479   0.421
 4301SOL    HW213803   2.536   1.586   0.469
 4302SOL     OW13804   0.883   6.297   5.819
 4302SOL    HW113805   0.919   6.357   5.747
 4302SOL    HW213806   0.784   6.308   5.826
 4303SOL     OW13807   5.553   4.684   4.183
 4303SOL    HW113808   5.546   4.631   4.099
 4303SOL    HW213809   5.569   4.780   4.160
 4304SOL     OW13810   2.903   3.654   4.485
 4304SOL    HW113811   2.941   3.688   4.570
 4304SOL    HW213812   2.931   3.712   4.409
 4305SOL     OW13813   6.045   1.109   3.976
 4305SOL    HW113814   5.998   1.022   3.962
 4305SOL    HW213815   6.143   1.092   3.986
 4306SOL     OW13816   6.240   3.834   6.674
 4306SOL    HW113817   6.208   3.928   6.660
 4306SOL    HW213818   6.197   3.774   6.607
 4307SOL     OW13819   5.019   4.261   6.413
 4307SOL    HW113820   4.964   4.313   6.348
 4307SOL    HW213821   4.961   4.200   6.466
 4308SOL     OW13822   5.558   5.415   6.225
 4308SOL    HW113823   5.635   5.456   6.275
 4308SOL    HW213824   5.557   5.316   6.242
 4309SOL     OW13825   1.129   0.046   0.364
 4309SOL    HW113826   1.226   0.072   0.371
 4309SOL    HW213827   1.072   0.126   0.385
 4310SOL     OW13828   2.033   2.228   3.093
 4310SOL    HW113829   1.944   2.239   3.136
 4310SOL    HW213830   2.044   2.297   3.021
 4311SOL     OW13831   1.090   5.696   2.914
 4311SOL    HW113832   1.064   5.618   2.857
 4311SOL    HW213833   1.090   5.668   3.010
 4312SOL     OW13834   1.669   5.520   1.164
 4312SOL    HW113835   1.766   5.495   1.156
 4312SOL    HW213836   1.613   5.437   1.160
 4313SOL     OW13837   5.053   1.566   1.886
 4313SOL    HW113838   4.980   1.604   1.942
 4313SOL    HW213839   5.064   1.622   1.804
 4314SOL     OW13840   5.565   2.220   4.023
 4314SOL    HW113841   5.521   2.309   4.009
 4314SOL    HW213842   5.659   2.234   4.055
 4315SOL     OW13843   2.156   0.744   2.552
 4315SOL    HW113844   2.169   0.747   2.651
 4315SOL    HW213845   2.058   0.737   2.532
 4316SOL     OW13846   5.130   6.984   1.022
 4316SOL    HW113847   5.147   0.025   1.101
 4316SOL    HW213848   5.105   6.893   1.054
 4317SOL     OW13849   3.743   1.026   4.392
 4317SOL    HW113850   3.823   1.038   4.451
 4317SOL    HW213851   3.756   1.075   4.306
 4318SOL     OW13852   1.655   3.221   3.363
 4318SOL    HW113853   1.639   3.257   3.271
 4318SOL    HW213854   1.754   3.217   3.380
 4319SOL     OW13855   2.386   2.696   0.477
 4319SOL    HW113856   2.433   2.651   0.401
 4319SOL    HW213857   2.322   2.632   0.520
 4320SOL     OW13858   0.790   5.953   1.627
 4320SOL    HW113859   0.729   5.968   1.704
 4320SOL    HW213860   0.853   5.878   1.648
 4321SOL     OW13861   6.789   0.121   4.480
 4321SOL    HW113862   6.811   0.065   4.560
 4321SOL    HW213863   6.735   0.200   4.508
 4322SOL     OW13864   5.982   1.989   6.449
 4322SOL    HW113865   6.008   2.064   6.510
 4322SOL    HW213866   6.026   1.905   6.480
 4323SOL     OW13867   5.545   4.314   1.891
 4323SOL    HW113868   5.503   4.364   1.815
 4323SOL    HW213869   5.644   4.331   1.892
 4324SOL     OW13870   5.605   4.482   6.807
 4324SOL    HW113871   5.591   4.581   6.813
 4324SOL    HW213872   5.614   4.443   6.898
 4325SOL     OW13873   1.440   0.546   0.047
 4325SOL    HW113874   1.462   0.451   0.064
 4325SOL    HW213875   1.520   0.594   0.010
 4326SOL     OW13876   6.086   2.810   4.556
 4326SOL    HW113877   6.112   2.775   4.646
 4326SOL    HW213878   6.037   2.896   4.567
 4327SOL     OW13879   5.900   5.153   2.282
 4327SOL    HW113880   5.836   5.076   2.273
 4327SOL    HW213881   5.849   5.237   2.296
 4328SOL     OW13882   4.519   4.092   5.726
 4328SOL    HW113883   4.606   4.133   5.697
 4328SOL    HW213884   4.535   4.030   5.802
 4329SOL     OW13885   3.650   1.609   5.856
 4329SOL    HW113886   3.645   1.675   5.931
 4329SOL    HW213887   3.586   1.634   5.784
 4330SOL     OW13888   3.017   0.579   4.741
 4330SOL    HW113889   2.967   0.564   4.826
 4330SOL    HW213890   3.024   0.677   4.723
 4331SOL     OW13891   4.511   2.959   0.648
 4331SOL    HW113892   4.542   3.001   0.733
 4331SOL    HW213893   4.458   2.877   0.669
 4332SOL     OW13894   5.335   4.612   2.639
 4332SOL    HW113895   5.362   4.603   2.544
 4332SOL    HW213896   5.261   4.548   2.659
 4333SOL     OW13897   4.356   1.219   5.550
 4333SOL    HW113898   4.336   1.215   5.648
 4333SOL    HW213899   4.375   1.314   5.524
 4334SOL     OW13900   2.156   2.345   2.391
 4334SOL    HW113901   2.125   2.362   2.297
 4334SOL    HW213902   2.168   2.246   2.404
 4335SOL     OW13903   3.120   4.043   3.509
 4335SOL    HW113904   3.122   3.965   3.572
 4335SOL    HW213905   3.179   4.115   3.543
 4336SOL     OW13906   0.917   6.448   5.568
 4336SOL    HW113907   1.014   6.471   5.561
 4336SOL    HW213908   0.862   6.525   5.536
 4337SOL     OW13909   1.094   4.881   0.361
 4337SOL    HW113910   1.053   4.792   0.378
 4337SOL    HW213911   1.192   4.878   0.382
 4338SOL     OW13912   4.920   5.874   4.323
 4338SOL    HW113913   4.852   5.806   4.351
 4338SOL    HW213914   4.878   5.940   4.260
 4339SOL     OW13915   5.871   3.283   5.244
 4339SOL    HW113916   5.901   3.197   5.283
 4339SOL    HW213917   5.951   3.339   5.220
 4340SOL     OW13918   6.030   4.361   2.397
 4340SOL    HW113919   5.988   4.278   2.434
 4340SOL    HW213920   5.965   4.437   2.403
 4341SOL     OW13921   0.911   5.412   2.095
 4341SOL    HW113922   0.931   5.422   2.193
 4341SOL    HW213923   0.995   5.422   2.042
 4342SOL     OW13924   6.784   3.240   3.979
 4342SOL    HW113925   6.698   3.256   3.931
 4342SOL    HW213926   6.853   3.206   3.914
 4343SOL     OW13927   2.415   6.604   6.201
 4343SOL    HW113928   2.435   6.633   6.108
 4343SOL    HW213929   2.480   6.532   6.228
 4344SOL     OW13930   1.870   5.277   2.992
 4344SOL    HW113931   1.927   5.216   2.937
 4344SOL    HW213932   1.832   5.350   2.934
 4345SOL     OW13933   1.779   2.525   5.706
 4345SOL    HW113934   1.751   2.502   5.613
 4345SOL    HW213935   1.704   2.572   5.752
 4346SOL     OW13936   2.030   3.038   1.587
 4346SOL    HW113937   2.101   2.979   1.624
 4346SOL    HW213938   1.990   3.093   1.661
 4347SOL     OW13939   6.064   0.942   2.577
 4347SOL    HW113940   6.028   0.947   2.484
 4347SOL    HW213941   6.155   0.899   2.576
 4348SOL     OW13942   0.630   3.097   2.499
 4348SOL    HW113943   0.674   3.015   2.462
 4348SOL    HW213944   0.535   3.077   2.521
 4349SOL     OW13945   6.440   1.626   3.120
 4349SOL    HW113946   6.530   1.664   3.100
 4349SOL    HW213947   6.370   1.677   3.070
 4350SOL     OW13948   4.886   2.305   4.849
 4350SOL    HW113949   4.953   2.278   4.918
 4350SOL    HW213950   4.900   2.401   4.824
 4351SOL     OW13951   2.171   6.498   0.863
 4351SOL    HW113952   2.094   6.458   0.813
 4351SOL    HW213953   2.149   6.591   0.892
 4352SOL     OW13954   1.164   2.535   2.252
 4352SOL    HW113955   1.201   2.609   2.196
 4352SOL    HW213956   1.065   2.546   2.261
 4353SOL     OW13957   3.408   4.337   0.658
 4353SOL    HW113958   3.397   4.285   0.742
 4353SOL    HW213959   3.327   4.326   0.600
 4354SOL     OW13960   1.889   6.402   5.490
 4354SOL    HW113961   1.958   6.472   5.506
 4354SOL    HW213962   1.893   6.333   5.563
 4355SOL     OW13963   3.420   0.326   2.092
 4355SOL    HW113964   3.463   0.386   2.159
 4355SOL    HW213965   3.387   0.380   2.015
 4356SOL     OW13966   4.758   4.393   1.756
 4356SOL    HW113967   4.729   4.349   1.841
 4356SOL    HW213968   4.678   4.426   1.707
 4357SOL     OW13969   6.497   0.154   6.920
 4357SOL    HW113970   6.589   0.140   6.884
 4357SOL    HW213971   6.487   0.103   7.006
 4358SOL     OW13972   6.870   5.949   0.390
 4358SOL    HW113973   6.937   5.976   0.322
 4358SOL    HW213974   6.877   5.850   0.407
 4359SOL     OW13975   1.647   2.154   5.485
 4359SOL    HW113976   1.706   2.115   5.414
 4359SOL    HW213977   1.702   2.179   5.565
 4360SOL     OW13978   1.510   3.307   2.758
 4360SOL    HW113979   1.607   3.290   2.773
 4360SOL    HW213980   1.457   3.230   2.793
 4361SOL     OW13981   3.042   2.583   1.755
 4361SOL    HW113982   3.066   2.657   1.818
 4361SOL    HW213983   2.964   2.532   1.792
 4362SOL     OW13984   6.368   3.893   4.102
 4362SOL    HW113985   6.290   3.875   4.041
 4362SOL    HW213986   6.444   3.834   4.076
 4363SOL     OW13987   5.321   2.552   6.734
 4363SOL    HW113988   5.351   2.489   6.806
 4363SOL    HW213989   5.392   2.560   6.665
 4364SOL     OW13990   3.187   3.727   5.272
 4364SOL    HW113991   3.258   3.797   5.262
 4364SOL    HW213992   3.097   3.771   5.269
 4365SOL     OW13993   2.400   1.985   1.889
 4365SOL    HW113994   2.441   1.895   1.880
 4365SOL    HW213995   2.453   2.052   1.837
 4366SOL     OW13996   5.347   6.891   0.157
 4366SOL    HW113997   5.398   6.861   0.076
 4366SOL    HW213998   5.266   6.833   0.168
 4367SOL     OW13999   2.050   4.864   5.276
 4367SOL    HW114000   2.085   4.934   5.338
 4367SOL    HW214001   1.955   4.844   5.299
 4368SOL     OW14002   4.256   5.452   1.170
 4368SOL    HW114003   4.296   5.504   1.246
 4368SOL    HW214004   4.325   5.389   1.133
 4369SOL     OW14005   4.202   5.475   3.079
 4369SOL    HW114006   4.168   5.567   3.063
 4369SOL    HW214007   4.205   5.425   2.992
 4370SOL     OW14008   4.720   4.293   2.978
 4370SOL    HW114009   4.785   4.366   2.957
 4370SOL    HW214010   4.664   4.274   2.897
 4371SOL     OW14011   6.744   0.589   1.460
 4371SOL    HW114012   6.781   0.566   1.551
 4371SOL    HW214013   6.645   0.573   1.459
 4372SOL     OW14014   4.531   1.279   2.959
 4372SOL    HW114015   4.578   1.359   2.996
 4372SOL    HW214016   4.446   1.264   3.010
 4373SOL     OW14017   6.945   2.808   6.851
 4373SOL    HW114018   6.880   2.749   6.900
 4373SOL    HW214019   6.956   2.775   6.758
 4374SOL     OW14020   0.766   2.072   1.753
 4374SOL    HW114021   0.819   2.051   1.670
 4374SOL    HW214022   0.824   2.058   1.833
 4375SOL     OW14023   3.498   0.738   3.658
 4375SOL    HW114024   3.451   0.654   3.634
 4375SOL    HW214025   3.519   0.790   3.575
 4376SOL     OW14026   6.914   7.017   2.876
 4376SOL    HW114027   6.874   0.041   2.957
 4376SOL    HW214028   6.873   0.037   2.794
 4377SOL     OW14029   5.819   4.272   0.499
 4377SOL    HW114030   5.895   4.242   0.556
 4377SOL    HW214031   5.844   4.263   0.402
 4378SOL     OW14032   1.763   1.484   2.846
 4378SOL    HW114033   1.844   1.474   2.905
 4378SOL    HW214034   1.710   1.399   2.847
 4379SOL     OW14035   2.221   1.088   3.717
 4379SOL    HW114036   2.304   1.110   3.769
 4379SOL    HW214037   2.144   1.138   3.756
 4380SOL     OW14038   1.376   0.218   0.982
 4380SOL    HW114039   1.320   0.194   1.061
 4380SOL    HW214040   1.362   0.314   0.960
 4381SOL     OW14041   0.579   6.450   4.293
 4381SOL    HW114042   0.566   6.404   4.380
 4381SOL    HW214043   0.675   6.442   4.265
 4382SOL     OW14044   6.998   3.621   6.134
 4382SOL    HW114045   0.059   3.594   6.080
 4382SOL    HW214046   0.008   3.677   6.211
 4383SOL     OW14047   7.013   3.788   6.358
 4383SOL    HW114048   6.932   3.842   6.336
 4383SOL    HW214049   7.001   3.747   6.448
 4384SOL     OW14050   6.205   0.205   3.857
 4384SOL    HW114051   6.165   0.291   3.826
 4384SOL    HW214052   6.297   0.196   3.818
 4385SOL     OW14053   4.508   2.517   5.357
 4385SOL    HW114054   4.538   2.601   5.402
 4385SOL    HW214055   4.536   2.519   5.261
 4386SOL     OW14056   1.506   3.955   5.321
 4386SOL    HW114057   1.509   3.897   5.403
 4386SOL    HW214058   1.585   3.935   5.263
 4387SOL     OW14059   0.127   2.645   2.120
 4387SOL    HW114060   0.040   2.648   2.072
 4387SOL    HW214061   0.189   2.582   2.074
 4388SOL     OW14062   3.753   2.589   6.068
 4388SOL    HW114063   3.818   2.529   6.022
 4388SOL    HW214064   3.800   2.669   6.104
 4389SOL     OW14065   7.013   3.941   0.709
 4389SOL    HW114066   7.008   3.887   0.793
 4389SOL    HW214067   0.009   3.881   0.631
 4390SOL     OW14068   4.395   0.040   1.349
 4390SOL    HW114069   4.422   6.986   1.413
 4390SOL    HW214070   4.458   0.040   1.271
 4391SOL     OW14071   2.970   4.751   6.987
 4391SOL    HW114072   2.998   4.665   0.011
 4391SOL    HW214073   3.007   4.756   6.895
 4392SOL     OW14074   0.832   2.210   4.844
 4392SOL    HW114075   0.751   2.267   4.861
 4392SOL    HW214076   0.873   2.236   4.757
 4393SOL     OW14077   6.550   0.494   1.784
 4393SOL    HW114078   6.628   0.539   1.741
 4393SOL    HW214079   6.556   0.395   1.772
 4394SOL     OW14080   0.338   6.293   1.956
 4394SOL    HW114081   0.435   6.288   1.932
 4394SOL    HW214082   0.285   6.320   1.876
 4395SOL     OW14083   2.269   0.370   1.454
 4395SOL    HW114084   2.280   0.383   1.355
 4395SOL    HW214085   2.285   0.456   1.501
 4396SOL     OW14086   1.727   1.660   4.123
 4396SOL    HW114087   1.796   1.727   4.094
 4396SOL    HW214088   1.650   1.663   4.060
 4397SOL     OW14089   1.893   2.908   4.475
 4397SOL    HW114090   1.959   2.937   4.405
 4397SOL    HW214091   1.902   2.967   4.555
 4398SOL     OW14092   1.703   3.129   6.065
 4398SOL    HW114093   1.637   3.062   6.029
 4398SOL    HW214094   1.733   3.189   5.992
 4399SOL     OW14095   2.925   6.623   1.859
 4399SOL    HW114096   3.022   6.626   1.836
 4399SOL    HW214097   2.872   6.599   1.777
 4400SOL     OW14098   2.050   6.714   3.894
 4400SOL    HW114099   2.077   6.631   3.944
 4400SOL    HW214100   1.958   6.740   3.920
 4401SOL     OW14101   3.929   6.400   5.072
 4401SOL    HW114102   3.831   6.379   5.077
 4401SOL    HW214103   3.966   6.365   4.986
 4402SOL     OW14104   0.751   0.241   3.101
 4402SOL    HW114105   0.655   0.254   3.079
 4402SOL    HW214106   0.777   0.146   3.082
 4403SOL     OW14107   1.606   6.638   0.614
 4403SOL    HW114108   1.626   6.605   0.521
 4403SOL    HW214109   1.667   6.714   0.637
 4404SOL     OW14110   0.729   6.362   5.394
 4404SOL    HW114111   0.809   6.389   5.447
 4404SOL    HW214112   0.650   6.356   5.455
 4405SOL     OW14113   2.175   4.743   2.533
 4405SOL    HW114114   2.105   4.672   2.524
 4405SOL    HW214115   2.217   4.761   2.444
 4406SOL     OW14116   7.014   3.323   0.719
 4406SOL    HW114117   6.943   3.253   0.713
 4406SOL    HW214118   6.981   3.398   0.776
 4407SOL     OW14119   0.416   5.241   1.540
 4407SOL    HW114120   0.322   5.217   1.517
 4407SOL    HW214121   0.423   5.339   1.554
 4408SOL     OW14122   2.431   6.316   6.711
 4408SOL    HW114123   2.416   6.345   6.616
 4408SOL    HW214124   2.375   6.235   6.730
 4409SOL     OW14125   4.708   0.989   1.356
 4409SOL    HW114126   4.609   0.985   1.365
 4409SOL    HW214127   4.748   1.021   1.442
 4410SOL     OW14128   6.538   5.840   6.828
 4410SOL    HW114129   6.544   5.741   6.832
 4410SOL    HW214130   6.442   5.868   6.836
 4411SOL     OW14131   3.234   4.482   5.392
 4411SOL    HW114132   3.203   4.557   5.333
 4411SOL    HW214133   3.185   4.485   5.479
 4412SOL     OW14134   5.033   6.451   4.216
 4412SOL    HW114135   5.106   6.519   4.219
 4412SOL    HW214136   4.967   6.477   4.146
 4413SOL     OW14137   5.280   5.824   3.562
 4413SOL    HW114138   5.262   5.768   3.481
 4413SOL    HW214139   5.377   5.824   3.583
 4414SOL     OW14140   4.274   5.611   0.967
 4414SOL    HW114141   4.265   5.560   1.052
 4414SOL    HW214142   4.367   5.602   0.931
 4415SOL     OW14143   3.816   3.634   0.769
 4415SOL    HW114144   3.856   3.542   0.759
 4415SOL    HW214145   3.740   3.644   0.705
 4416SOL     OW14146   3.996   1.567   3.690
 4416SOL    HW114147   3.931   1.549   3.763
 4416SOL    HW214148   3.966   1.647   3.638
 4417SOL     OW14149   5.773   2.954   4.007
 4417SOL    HW114150   5.843   2.938   3.937
 4417SOL    HW214151   5.705   3.018   3.972
 4418SOL     OW14152   6.292   1.942   2.260
 4418SOL    HW114153   6.273   1.994   2.177
 4418SOL    HW214154   6.381   1.970   2.298
 4419SOL     OW14155   6.667   0.396   5.926
 4419SOL    HW114156   6.568   0.396   5.938
 4419SOL    HW214157   6.705   0.479   5.967
 4420SOL     OW14158   3.401   1.391   1.090
 4420SOL    HW114159   3.326   1.327   1.074
 4420SOL    HW214160   3.378   1.449   1.168
 4421SOL     OW14161   2.067   1.924   5.478
 4421SOL    HW114162   2.111   1.835   5.490
 4421SOL    HW214163   2.137   1.995   5.472
 4422SOL     OW14164   0.895   4.617   6.921
 4422SOL    HW114165   0.992   4.595   6.919
 4422SOL    HW214166   0.875   4.687   6.852
 4423SOL     OW14167   6.814   4.319   6.034
 4423SOL    HW114168   6.887   4.288   6.095
 4423SOL    HW214169   6.845   4.311   5.939
 4424SOL     OW14170   5.288   6.061   4.960
 4424SOL    HW114171   5.351   6.085   5.034
 4424SOL    HW214172   5.217   6.131   4.952
 4425SOL     OW14173   1.882   5.222   1.257
 4425SOL    HW114174   1.859   5.296   1.320
 4425SOL    HW214175   1.830   5.233   1.172
 4426SOL     OW14176   1.201   1.431   3.831
 4426SOL    HW114177   1.247   1.387   3.908
 4426SOL    HW214178   1.243   1.520   3.814
 4427SOL     OW14179   4.448   6.189   2.573
 4427SOL    HW114180   4.443   6.285   2.601
 4427SOL    HW214181   4.359   6.145   2.589
 4428SOL     OW14182   4.608   0.963   4.377
 4428SOL    HW114183   4.688   1.022   4.374
 4428SOL    HW214184   4.637   0.869   4.399
 4429SOL     OW14185   2.670   6.492   2.690
 4429SOL    HW114186   2.667   6.588   2.664
 4429SOL    HW214187   2.760   6.471   2.729
 4430SOL     OW14188   5.256   4.471   4.503
 4430SOL    HW114189   5.308   4.555   4.516
 4430SOL    HW214190   5.292   4.400   4.564
 4431SOL     OW14191   2.731   1.001   3.031
 4431SOL    HW114192   2.670   0.976   2.956
 4431SOL    HW214193   2.780   0.920   3.063
 4432SOL     OW14194   2.283   3.284   6.599
 4432SOL    HW114195   2.310   3.341   6.677
 4432SOL    HW214196   2.184   3.269   6.602
 4433SOL     OW14197   0.382   2.694   4.818
 4433SOL    HW114198   0.426   2.605   4.822
 4433SOL    HW214199   0.448   2.763   4.788
 4434SOL     OW14200   5.478   1.750   2.759
 4434SOL    HW114201   5.475   1.849   2.776
 4434SOL    HW214202   5.434   1.730   2.672
 4435SOL     OW14203   4.035   3.758   1.509
 4435SOL    HW114204   4.133   3.773   1.517
 4435SOL    HW214205   4.017   3.698   1.430
 4436SOL     OW14206   3.740   1.367   1.098
 4436SOL    HW114207   3.679   1.394   1.024
 4436SOL    HW214208   3.766   1.271   1.087
 4437SOL     OW14209   0.575   3.210   2.744
 4437SOL    HW114210   0.604   3.153   2.668
 4437SOL    HW214211   0.616   3.301   2.736
 4438SOL     OW14212   5.196   6.880   5.724
 4438SOL    HW114213   5.284   6.839   5.699
 4438SOL    HW214214   5.199   6.907   5.821
 4439SOL     OW14215   0.651   4.991   2.536
 4439SOL    HW114216   0.626   4.894   2.528
 4439SOL    HW214217   0.619   5.026   2.624
 4440SOL     OW14218   2.451   5.008   0.584
 4440SOL    HW114219   2.451   5.090   0.641
 4440SOL    HW214220   2.356   4.981   0.564
 4441SOL     OW14221   0.043   1.244   0.800
 4441SOL    HW114222   6.993   1.174   0.783
 4441SOL    HW214223   0.102   1.215   0.876
 4442SOL     OW14224   1.337   5.387   5.462
 4442SOL    HW114225   1.362   5.387   5.559
 4442SOL    HW214226   1.415   5.417   5.407
 4443SOL     OW14227   0.970   3.988   6.127
 4443SOL    HW114228   1.009   4.069   6.083
 4443SOL    HW214229   0.977   3.997   6.226
 4444SOL     OW14230   4.494   3.739   0.481
 4444SOL    HW114231   4.439   3.675   0.534
 4444SOL    HW214232   4.548   3.688   0.413
 4445SOL     OW14233   1.433   5.915   7.019
 4445SOL    HW114234   1.396   5.954   6.934
 4445SOL    HW214235   1.529   5.942   0.009
 4446SOL     OW14236   5.345   1.698   0.095
 4446SOL    HW114237   5.333   1.602   0.069
 4446SOL    HW214238   5.426   1.706   0.154
 4447SOL     OW14239   6.116   3.574   4.905
 4447SOL    HW114240   6.080   3.663   4.877
 4447SOL    HW214241   6.106   3.509   4.830
 4448SOL     OW14242   3.224   6.726   1.488
 4448SOL    HW114243   3.323   6.708   1.492
 4448SOL    HW214244   3.174   6.644   1.517
 4449SOL     OW14245   4.520   1.043   6.369
 4449SOL    HW114246   4.446   1.015   6.307
 4449SOL    HW214247   4.483   1.101   6.441
 4450SOL     OW14248   3.292   1.218   0.008
 4450SOL    HW114249   3.198   1.192   0.032
 4450SOL    HW214250   3.296   1.244   6.930
 4451SOL     OW14251   4.263   5.256   4.670
 4451SOL    HW114252   4.347   5.210   4.699
 4451SOL    HW214253   4.188   5.191   4.665
 4452SOL     OW14254   6.534   5.203   4.779
 4452SOL    HW114255   6.590   5.146   4.719
 4452SOL    HW214256   6.520   5.292   4.736
 4453SOL     OW14257   1.319   3.041   1.985
 4453SOL    HW114258   1.329   3.129   2.032
 4453SOL    HW214259   1.223   3.027   1.961
 4454SOL     OW14260   0.903   1.630   7.001
 4454SOL    HW114261   0.902   1.551   0.043
 4454SOL    HW214262   0.816   1.678   7.007
 4455SOL     OW14263   5.306   5.527   5.231
 4455SOL    HW114264   5.211   5.559   5.236
 4455SOL    HW214265   5.345   5.524   5.323
 4456SOL     OW14266   2.627   5.577   3.186
 4456SOL    HW114267   2.666   5.580   3.094
 4456SOL    HW214268   2.617   5.671   3.220
 4457SOL     OW14269   2.154   1.633   4.349
 4457SOL    HW114270   2.186   1.706   4.409
 4457SOL    HW214271   2.054   1.627   4.354
 4458SOL     OW14272   2.479   3.658   1.611
 4458SOL    HW114273   2.389   3.693   1.638
 4458SOL    HW214274   2.494   3.569   1.652
 4459SOL     OW14275   2.857   1.506   4.037
 4459SOL    HW114276   2.804   1.589   4.022
 4459SOL    HW214277   2.936   1.527   4.094
 4460SOL     OW14278   0.927   2.910   6.477
 4460SOL    HW114279   0.979   2.825   6.470
 4460SOL    HW214280   0.830   2.890   6.483
 4461SOL     OW14281   1.688   0.950   0.676
 4461SOL    HW114282   1.699   0.870   0.736
 4461SOL    HW214283   1.597   0.989   0.689
 4462SOL     OW14284   6.303   4.489   2.100
 4462SOL    HW114285   6.352   4.551   2.039
 4462SOL    HW214286   6.220   4.457   2.055
 4463SOL     OW14287   5.246   1.615   1.398
 4463SOL    HW114288   5.270   1.622   1.495
 4463SOL    HW214289   5.188   1.534   1.383
 4464SOL     OW14290   0.444   6.119   0.165
 4464SOL    HW114291   0.382   6.168   0.226
 4464SOL    HW214292   0.397   6.097   0.079
 4465SOL     OW14293   2.805   5.043   0.259
 4465SOL    HW114294   2.846   4.952   0.265
 4465SOL    HW214295   2.797   5.070   0.163
 4466SOL     OW14296   1.118   2.241   2.525
 4466SOL    HW114297   1.056   2.163   2.534
 4466SOL    HW214298   1.126   2.267   2.429
 4467SOL     OW14299   2.326   5.449   3.630
 4467SOL    HW114300   2.244   5.410   3.672
 4467SOL    HW214301   2.323   5.549   3.634
 4468SOL     OW14302   1.152   4.675   1.156
 4468SOL    HW114303   1.236   4.730   1.154
 4468SOL    HW214304   1.104   4.685   1.069
 4469SOL     OW14305   2.875   1.112   1.811
 4469SOL    HW114306   2.903   1.017   1.826
 4469SOL    HW214307   2.887   1.164   1.896
 4470SOL     OW14308   0.680   1.670   2.320
 4470SOL    HW114309   0.728   1.662   2.407
 4470SOL    HW214310   0.598   1.725   2.331
 4471SOL     OW14311   1.901   2.477   6.856
 4471SOL    HW114312   1.864   2.563   6.820
 4471SOL    HW214313   1.983   2.496   6.909
 4472SOL     OW14314   1.088   1.777   0.710
 4472SOL    HW114315   1.130   1.710   0.648
 4472SOL    HW214316   1.065   1.860   0.659
 4473SOL     OW14317   5.622   3.177   3.912
 4473SOL    HW114318   5.667   3.243   3.972
 4473SOL    HW214319   5.525   3.201   3.903
 4474SOL     OW14320   2.605   6.806   2.333
 4474SOL    HW114321   2.661   6.741   2.282
 4474SOL    HW214322   2.509   6.794   2.306
 4475SOL     OW14323   0.811   3.751   1.614
 4475SOL    HW114324   0.804   3.760   1.714
 4475SOL    HW214325   0.759   3.672   1.583
 4476SOL     OW14326   6.287   0.864   4.469
 4476SOL    HW114327   6.227   0.940   4.493
 4476SOL    HW214328   6.368   0.865   4.527
 4477SOL     OW14329   1.681   0.287   5.062
 4477SOL    HW114330   1.683   0.280   5.162
 4477SOL    HW214331   1.675   0.383   5.036
 4478SOL     OW14332   1.209   0.313   1.628
 4478SOL    HW114333   1.300   0.277   1.652
 4478SOL    HW214334   1.174   0.264   1.549
 4479SOL     OW14335   1.445   1.733   1.005
 4479SOL    HW114336   1.406   1.646   0.976
 4479SOL    HW214337   1.475   1.726   1.101
 4480SOL     OW14338   0.721   4.618   5.038
 4480SOL    HW114339   0.740   4.606   5.136
 4480SOL    HW214340   0.807   4.628   4.988
 4481SOL     OW14341   2.328   5.179   4.766
 4481SOL    HW114342   2.241   5.169   4.813
 4481SOL    HW214343   2.389   5.236   4.821
 4482SOL     OW14344   2.208   2.953   5.613
 4482SOL    HW114345   2.260   3.029   5.574
 4482SOL    HW214346   2.137   2.989   5.673
 4483SOL     OW14347   0.501   2.776   2.364
 4483SOL    HW114348   0.474   2.727   2.281
 4483SOL    HW214349   0.461   2.732   2.444
 4484SOL     OW14350   2.669   3.050   0.061
 4484SOL    HW114351   2.707   3.119   7.018
 4484SOL    HW214352   2.726   3.045   0.143
 4485SOL     OW14353   4.619   2.911   5.153
 4485SOL    HW114354   4.538   2.853   5.155
 4485SOL    HW214355   4.602   2.992   5.209
 4486SOL     OW14356   5.706   4.905   5.159
 4486SOL    HW114357   5.632   4.841   5.139
 4486SOL    HW214358   5.787   4.855   5.188
 4487SOL     OW14359   2.392   2.991   0.132
 4487SOL    HW114360   2.488   3.020   0.129
 4487SOL    HW214361   2.361   2.986   0.227
 4488SOL     OW14362   1.009   3.743   4.583
 4488SOL    HW114363   1.028   3.787   4.671
 4488SOL    HW214364   0.971   3.810   4.519
 4489SOL     OW14365   4.962   5.434   5.158
 4489SOL    HW114366   4.920   5.481   5.235
 4489SOL    HW214367   4.948   5.488   5.074
 4490SOL     OW14368   4.705   2.231   1.389
 4490SOL    HW114369   4.635   2.278   1.336
 4490SOL    HW214370   4.772   2.297   1.423
 4491SOL     OW14371   0.781   3.443   3.254
 4491SOL    HW114372   0.764   3.364   3.314
 4491SOL    HW214373   0.823   3.411   3.169
 4492SOL     OW14374   6.079   2.755   2.007
 4492SOL    HW114375   6.052   2.818   2.079
 4492SOL    HW214376   6.123   2.806   1.933
 4493SOL     OW14377   5.822   6.819   4.887
 4493SOL    HW114378   5.733   6.814   4.932
 4493SOL    HW214379   5.852   6.727   4.862
 4494SOL     OW14380   1.263   0.577   5.950
 4494SOL    HW114381   1.193   0.633   5.994
 4494SOL    HW214382   1.315   0.633   5.886
 4495SOL     OW14383   4.095   0.417   2.975
 4495SOL    HW114384   4.051   0.327   2.966
 4495SOL    HW214385   4.190   0.406   3.004
 4496SOL     OW14386   5.191   6.260   0.237
 4496SOL    HW114387   5.262   6.250   0.167
 4496SOL    HW214388   5.199   6.349   0.280
 4497SOL     OW14389   3.754   2.924   6.687
 4497SOL    HW114390   3.758   3.006   6.631
 4497SOL    HW214391   3.694   2.939   6.765
 4498SOL     OW14392   6.589   4.796   6.436
 4498SOL    HW114393   6.593   4.773   6.339
 4498SOL    HW214394   6.603   4.894   6.448
 4499SOL     OW14395   6.103   2.032   3.743
 4499SOL    HW114396   6.023   2.085   3.772
 4499SOL    HW214397   6.187   2.078   3.772
 4500SOL     OW14398   3.759   4.432   6.763
 4500SOL    HW114399   3.742   4.466   6.855
 4500SOL    HW214400   3.824   4.356   6.766
 4501SOL     OW14401   5.903   2.751   2.965
 4501SOL    HW114402   5.825   2.776   3.022
 4501SOL    HW214403   5.977   2.817   2.979
 4502SOL     OW14404   1.143   4.020   6.686
 4502SOL    HW114405   1.189   3.942   6.729
 4502SOL    HW214406   1.203   4.100   6.691
 4503SOL     OW14407   3.007   0.189   2.066
 4503SOL    HW114408   3.030   0.156   1.975
 4503SOL    HW214409   2.917   0.153   2.092
 4504SOL     OW14410   6.272   2.281   4.490
 4504SOL    HW114411   6.291   2.345   4.565
 4504SOL    HW214412   6.207   2.323   4.426
 4505SOL     OW14413   6.578   4.470   1.949
 4505SOL    HW114414   6.668   4.426   1.949
 4505SOL    HW214415   6.519   4.424   1.882
 4506SOL     OW14416   5.155   2.875   3.756
 4506SOL    HW114417   5.225   2.879   3.685
 4506SOL    HW214418   5.195   2.900   3.844
 4507SOL     OW14419   0.282   3.010   3.636
 4507SOL    HW114420   0.353   3.052   3.579
 4507SOL    HW214421   0.315   3.002   3.730
 4508SOL     OW14422   1.406   4.730   6.979
 4508SOL    HW114423   1.397   4.761   6.885
 4508SOL    HW214424   1.456   4.643   6.981
 4509SOL     OW14425   4.957   2.485   3.030
 4509SOL    HW114426   5.035   2.426   3.052
 4509SOL    HW214427   4.874   2.430   3.024
 4510SOL     OW14428   4.558   1.356   4.300
 4510SOL    HW114429   4.647   1.342   4.344
 4510SOL    HW214430   4.505   1.271   4.305
 4511SOL     OW14431   6.028   3.561   0.523
 4511SOL    HW114432   6.084   3.605   0.453
 4511SOL    HW214433   5.965   3.629   0.562
 4512SOL     OW14434   3.572   1.649   5.595
 4512SOL    HW114435   3.592   1.731   5.540
 4512SOL    HW214436   3.479   1.619   5.577
 4513SOL     OW14437   0.976   6.073   6.339
 4513SOL    HW114438   1.036   6.111   6.409
 4513SOL    HW214439   0.901   6.137   6.320
 4514SOL     OW14440   3.474   2.597   6.712
 4514SOL    HW114441   3.552   2.630   6.765
 4514SOL    HW214442   3.406   2.669   6.704
 4515SOL     OW14443   5.403   1.667   4.819
 4515SOL    HW114444   5.500   1.642   4.819
 4515SOL    HW214445   5.371   1.676   4.913
 4516SOL     OW14446   2.237   0.322   5.386
 4516SOL    HW114447   2.288   0.361   5.463
 4516SOL    HW214448   2.188   0.241   5.417
 4517SOL     OW14449   4.481   6.496   6.623
 4517SOL    HW114450   4.457   6.399   6.634
 4517SOL    HW214451   4.444   6.531   6.538
 4518SOL     OW14452   1.060   6.896   1.510
 4518SOL    HW114453   0.974   6.845   1.506
 4518SOL    HW214454   1.137   6.831   1.515
 4519SOL     OW14455   4.919   6.410   6.681
 4519SOL    HW114456   4.987   6.378   6.614
 4519SOL    HW214457   4.880   6.331   6.728
 4520SOL     OW14458   4.302   5.767   5.631
 4520SOL    HW114459   4.333   5.723   5.715
 4520SOL    HW214460   4.334   5.862   5.630
 4521SOL     OW14461   4.950   2.236   5.368
 4521SOL    HW114462   5.018   2.307   5.348
 4521SOL    HW214463   4.971   2.191   5.454
 4522SOL     OW14464   6.181   4.025   2.860
 4522SOL    HW114465   6.228   4.032   2.948
 4522SOL    HW214466   6.146   3.933   2.848
 4523SOL     OW14467   1.901   4.093   6.784
 4523SOL    HW114468   1.998   4.081   6.762
 4523SOL    HW214469   1.845   4.043   6.719
 4524SOL     OW14470   6.811   3.577   2.139
 4524SOL    HW114471   6.861   3.497   2.106
 4524SOL    HW214472   6.849   3.607   2.227
 4525SOL     OW14473   3.199   1.978   5.544
 4525SOL    HW114474   3.253   1.901   5.511
 4525SOL    HW214475   3.103   1.965   5.521
 4526SOL     OW14476   0.158   0.972   0.137
 4526SOL    HW114477   0.160   0.997   0.234
 4526SOL    HW214478   0.219   0.894   0.122
 4527SOL     OW14479   6.521   0.134   2.888
 4527SOL    HW114480   6.558   0.225   2.870
 4527SOL    HW214481   6.433   0.142   2.935
 4528SOL     OW14482   4.325   0.830   6.270
 4528SOL    HW114483   4.324   0.734   6.300
 4528SOL    HW214484   4.305   0.834   6.172
 4529SOL     OW14485   2.940   1.578   5.884
 4529SOL    HW114486   3.022   1.629   5.914
 4529SOL    HW214487   2.966   1.510   5.816
 4530SOL     OW14488   2.511   5.410   3.880
 4530SOL    HW114489   2.473   5.441   3.967
 4530SOL    HW214490   2.441   5.416   3.808
 4531SOL     OW14491   1.289   4.066   6.397
 4531SOL    HW114492   1.196   4.080   6.432
 4531SOL    HW214493   1.301   4.116   6.312
 4532SOL     OW14494   5.118   0.861   2.896
 4532SOL    HW114495   5.206   0.876   2.850
 4532SOL    HW214496   5.073   0.781   2.856
 4533SOL     OW14497   1.687   1.661   3.206
 4533SOL    HW114498   1.603   1.610   3.223
 4533SOL    HW214499   1.766   1.602   3.222
 4534SOL     OW14500   4.295   2.223   5.249
 4534SOL    HW114501   4.273   2.227   5.152
 4534SOL    HW214502   4.394   2.219   5.261
 4535SOL     OW14503   3.276   1.007   1.214
 4535SOL    HW114504   3.230   0.959   1.289
 4535SOL    HW214505   3.353   1.058   1.249
 4536SOL     OW14506   3.109   1.462   5.307
 4536SOL    HW114507   3.091   1.394   5.236
 4536SOL    HW214508   3.168   1.421   5.377
 4537SOL     OW14509   3.857   3.693   2.485
 4537SOL    HW114510   3.774   3.748   2.496
 4537SOL    HW214511   3.852   3.614   2.546
 4538SOL     OW14512   2.104   1.740   2.385
 4538SOL    HW114513   2.202   1.739   2.405
 4538SOL    HW214514   2.054   1.716   2.469
 4539SOL     OW14515   2.203   5.604   4.509
 4539SOL    HW114516   2.283   5.549   4.535
 4539SOL    HW214517   2.225   5.701   4.514
 4540SOL     OW14518   1.285   1.505   0.936
 4540SOL    HW114519   1.343   1.507   0.855
 4540SOL    HW214520   1.193   1.476   0.910
 4541SOL     OW14521   4.633   1.285   7.017
 4541SOL    HW114522   4.644   1.193   0.034
 4541SOL    HW214523   4.536   1.312   0.003
 4542SOL     OW14524   0.027   2.147   1.465
 4542SOL    HW114525   7.003   2.062   1.495
 4542SOL    HW214526   6.997   2.225   1.504
 4543SOL     OW14527   4.448   2.273   0.824
 4543SOL    HW114528   4.462   2.258   0.922
 4543SOL    HW214529   4.519   2.226   0.772
 4544SOL     OW14530   4.098   4.613   1.111
 4544SOL    HW114531   4.130   4.528   1.152
 4544SOL    HW214532   4.045   4.665   1.178
 4545SOL     OW14533   0.464   3.497   5.491
 4545SOL    HW114534   0.405   3.576   5.475
 4545SOL    HW214535   0.454   3.466   5.585
 4546SOL     OW14536   3.015   6.884   5.347
 4546SOL    HW114537   3.091   6.946   5.369
 4546SOL    HW214538   2.964   6.863   5.431
 4547SOL     OW14539   6.352   0.694   0.342
 4547SOL    HW114540   6.408   0.761   0.293
 4547SOL    HW214541   6.260   0.731   0.357
 4548SOL     OW14542   2.572   2.067   3.451
 4548SOL    HW114543   2.558   2.055   3.549
 4548SOL    HW214544   2.670   2.069   3.431
 4549SOL     OW14545   5.311   4.322   2.043
 4549SOL    HW114546   5.246   4.276   1.983
 4549SOL    HW214547   5.403   4.313   2.005
 4550SOL     OW14548   1.221   4.457   3.361
 4550SOL    HW114549   1.143   4.517   3.341
 4550SOL    HW214550   1.198   4.363   3.335
 4551SOL     OW14551   0.839   3.646   5.541
 4551SOL    HW114552   0.844   3.738   5.580
 4551SOL    HW214553   0.743   3.618   5.534
 4552SOL     OW14554   5.751   2.272   1.615
 4552SOL    HW114555   5.725   2.290   1.520
 4552SOL    HW214556   5.825   2.204   1.617
 4553SOL     OW14557   5.135   4.258   6.828
 4553SOL    HW114558   5.125   4.223   6.921
 4553SOL    HW214559   5.046   4.263   6.784
 4554SOL     OW14560   0.159   6.946   1.524
 4554SOL    HW114561   0.259   6.950   1.528
 4554SOL    HW214562   0.121   6.971   1.613
 4555SOL     OW14563   1.156   1.355   6.737
 4555SOL    HW114564   1.079   1.316   6.686
 4555SOL    HW214565   1.211   1.412   6.677
 4556SOL     OW14566   6.172   3.166   5.538
 4556SOL    HW114567   6.082   3.144   5.501
 4556SOL    HW214568   6.167   3.249   5.593
 4557SOL     OW14569   6.216   4.845   4.678
 4557SOL    HW114570   6.140   4.892   4.632
 4557SOL    HW214571   6.259   4.908   4.743
 4558SOL     OW14572   6.721   3.286   5.152
 4558SOL    HW114573   6.817   3.287   5.125
 4558SOL    HW214574   6.712   3.318   5.246
 4559SOL     OW14575   0.739   3.611   2.546
 4559SOL    HW114576   0.779   3.699   2.523
 4559SOL    HW214577   0.639   3.618   2.549
 4560SOL     OW14578   6.230   4.547   2.345
 4560SOL    HW114579   6.242   4.514   2.251
 4560SOL    HW214580   6.159   4.493   2.390
 4561SOL     OW14581   3.643   1.626   3.726
 4561SOL    HW114582   3.640   1.662   3.632
 4561SOL    HW214583   3.707   1.681   3.780
 4562SOL     OW14584   1.698   6.510   0.367
 4562SOL    HW114585   1.758   6.435   0.395
 4562SOL    HW214586   1.735   6.554   0.285
 4563SOL     OW14587   6.633   3.448   1.110
 4563SOL    HW114588   6.621   3.478   1.205
 4563SOL    HW214589   6.631   3.348   1.106
 4564SOL     OW14590   7.014   4.422   2.217
 4564SOL    HW114591   0.079   4.446   2.267
 4564SOL    HW214592   6.939   4.410   2.282
 4565SOL     OW14593   1.531   1.548   4.660
 4565SOL    HW114594   1.617   1.498   4.668
 4565SOL    HW214595   1.550   1.642   4.630
 4566SOL     OW14596   0.607   3.537   0.965
 4566SOL    HW114597   0.603   3.502   1.059
 4566SOL    HW214598   0.624   3.461   0.902
 4567SOL     OW14599   6.989   0.420   0.028
 4567SOL    HW114600   6.956   0.512   0.008
 4567SOL    HW214601   6.976   0.361   6.967
 4568SOL     OW14602   0.961   4.553   4.926
 4568SOL    HW114603   0.995   4.538   4.833
 4568SOL    HW214604   0.936   4.465   4.967
 4569SOL     OW14605   2.731   0.397   2.604
 4569SOL    HW114606   2.777   0.418   2.689
 4569SOL    HW214607   2.782   0.325   2.555
 4570SOL     OW14608   6.294   6.346   2.278
 4570SOL    HW114609   6.204   6.362   2.238
 4570SOL    HW214610   6.297   6.253   2.315
 4571SOL     OW14611   4.150   3.505   6.771
 4571SOL    HW114612   4.165   3.550   6.859
 4571SOL    HW214613   4.175   3.408   6.778
 4572SOL     OW14614   1.988   1.756   6.385
 4572SOL    HW114615   2.033   1.681   6.336
 4572SOL    HW214616   1.937   1.721   6.463
 4573SOL     OW14617   0.806   0.003   0.321
 4573SOL    HW114618   0.872   6.947   0.326
 4573SOL    HW214619   0.742   7.006   0.246
 4574SOL     OW14620   5.908   4.158   6.910
 4574SOL    HW114621   5.854   4.180   6.991
 4574SOL    HW214622   5.880   4.217   6.834
 4575SOL     OW14623   5.831   0.829   4.472
 4575SOL    HW114624   5.872   0.883   4.398
 4575SOL    HW214625   5.896   0.758   4.502
 4576SOL     OW14626   2.643   4.672   5.451
 4576SOL    HW114627   2.630   4.590   5.395
 4576SOL    HW214628   2.555   4.719   5.460
 4577SOL     OW14629   1.531   2.584   3.082
 4577SOL    HW114630   1.497   2.640   3.158
 4577SOL    HW214631   1.602   2.634   3.033
 4578SOL     OW14632   0.876   0.939   3.794
 4578SOL    HW114633   0.838   1.015   3.847
 4578SOL    HW214634   0.962   0.968   3.751
 4579SOL     OW14635   5.005   1.426   1.517
 4579SOL    HW114636   5.029   1.511   1.563
 4579SOL    HW214637   5.081   1.361   1.526
 4580SOL     OW14638   5.420   4.411   0.907
 4580SOL    HW114639   5.403   4.326   0.857
 4580SOL    HW214640   5.339   4.436   0.959
 4581SOL     OW14641   2.608   6.074   2.201
 4581SOL    HW114642   2.514   6.109   2.195
 4581SOL    HW214643   2.672   6.149   2.180
 4582SOL     OW14644   4.637   1.116   3.216
 4582SOL    HW114645   4.581   1.071   3.285
 4582SOL    HW214646   4.581   1.139   3.137
 4583SOL     OW14647   2.392   1.324   6.232
 4583SOL    HW114648   2.490   1.310   6.216
 4583SOL    HW214649   2.350   1.237   6.257
 4584SOL     OW14650   1.822   6.192   5.654
 4584SOL    HW114651   1.736   6.237   5.681
 4584SOL    HW214652   1.817   6.095   5.677
 4585SOL     OW14653   1.731   4.099   3.696
 4585SOL    HW114654   1.632   4.109   3.711
 4585SOL    HW214655   1.775   4.188   3.707
 4586SOL     OW14656   5.552   3.865   0.664
 4586SOL    HW114657   5.551   3.851   0.763
 4586SOL    HW214658   5.573   3.961   0.644
 4587SOL     OW14659   3.822   3.340   4.243
 4587SOL    HW114660   3.911   3.299   4.226
 4587SOL    HW214661   3.768   3.337   4.159
 4588SOL     OW14662   3.260   3.380   5.904
 4588SOL    HW114663   3.196   3.337   5.840
 4588SOL    HW214664   3.335   3.318   5.923
 4589SOL     OW14665   5.701   6.544   1.837
 4589SOL    HW114666   5.783   6.585   1.876
 4589SOL    HW214667   5.727   6.466   1.779
 4590SOL     OW14668   3.707   6.331   1.769
 4590SOL    HW114669   3.684   6.277   1.849
 4590SOL    HW214670   3.669   6.289   1.687
 4591SOL     OW14671   1.844   0.732   4.400
 4591SOL    HW114672   1.817   0.768   4.489
 4591SOL    HW214673   1.920   0.785   4.364
 4592SOL     OW14674   2.875   1.989   3.761
 4592SOL    HW114675   2.951   1.940   3.804
 4592SOL    HW214676   2.789   1.947   3.787
 4593SOL     OW14677   6.274   5.872   2.603
 4593SOL    HW114678   6.361   5.840   2.564
 4593SOL    HW214679   6.290   5.902   2.697
 4594SOL     OW14680   3.321   0.321   3.040
 4594SOL    HW114681   3.394   0.254   3.022
 4594SOL    HW214682   3.269   0.292   3.121
 4595SOL     OW14683   4.388   2.874   6.057
 4595SOL    HW114684   4.405   2.933   6.137
 4595SOL    HW214685   4.313   2.812   6.078
 4596SOL     OW14686   6.653   0.804   2.171
 4596SOL    HW114687   6.592   0.731   2.139
 4596SOL    HW214688   6.605   0.860   2.239
 4597SOL     OW14689   2.978   5.518   6.784
 4597SOL    HW114690   2.951   5.614   6.788
 4597SOL    HW214691   2.940   5.476   6.702
 4598SOL     OW14692   2.174   5.851   1.339
 4598SOL    HW114693   2.274   5.851   1.333
 4598SOL    HW214694   2.140   5.759   1.323
 4599SOL     OW14695   1.667   3.941   2.136
 4599SOL    HW114696   1.571   3.949   2.108
 4599SOL    HW214697   1.671   3.930   2.235
 4600SOL     OW14698   0.543   0.351   5.787
 4600SOL    HW114699   0.501   0.366   5.698
 4600SOL    HW214700   0.638   0.320   5.774
 4601SOL     OW14701   0.890   1.615   5.346
 4601SOL    HW114702   0.846   1.704   5.350
 4601SOL    HW214703   0.836   1.548   5.397
 4602SOL     OW14704   2.954   6.858   6.342
 4602SOL    HW114705   3.046   6.820   6.336
 4602SOL    HW214706   2.951   6.928   6.414
 4603SOL     OW14707   3.576   6.025   0.952
 4603SOL    HW114708   3.608   5.939   0.913
 4603SOL    HW214709   3.502   6.062   0.896
 4604SOL     OW14710   5.151   6.978   5.967
 4604SOL    HW114711   5.067   0.012   5.954
 4604SOL    HW214712   5.218   0.014   6.018
 4605SOL     OW14713   2.290   0.436   1.806
 4605SOL    HW114714   2.263   0.348   1.846
 4605SOL    HW214715   2.210   0.481   1.767
 4606SOL     OW14716   6.907   6.991   2.282
 4606SOL    HW114717   6.919   6.943   2.369
 4606SOL    HW214718   6.995   0.012   2.254
 4607SOL     OW14719   2.129   3.687   3.317
 4607SOL    HW114720   2.106   3.724   3.407
 4607SOL    HW214721   2.159   3.761   3.257
 4608SOL     OW14722   0.607   3.869   3.694
 4608SOL    HW114723   0.593   3.867   3.595
 4608SOL    HW214724   0.547   3.938   3.735
 4609SOL     OW14725   5.018   5.121   7.007
 4609SOL    HW114726   5.013   5.220   0.006
 4609SOL    HW214727   4.978   5.101   6.918
 4610SOL     OW14728   4.725   2.241   6.777
 4610SOL    HW114729   4.632   2.207   6.792
 4610SOL    HW214730   4.790   2.166   6.780
 4611SOL     OW14731   0.438   0.997   5.927
 4611SOL    HW114732   0.448   1.005   6.026
 4611SOL    HW214733   0.436   0.901   5.901
 4612SOL     OW14734   2.262   6.517   1.854
 4612SOL    HW114735   2.186   6.564   1.900
 4612SOL    HW214736   2.333   6.496   1.921
 4613SOL     OW14737   1.586   5.672   2.145
 4613SOL    HW114738   1.628   5.759   2.172
 4613SOL    HW214739   1.652   5.598   2.159
 4614SOL     OW14740   6.266   3.304   3.805
 4614SOL    HW114741   6.211   3.378   3.767
 4614SOL    HW214742   6.257   3.223   3.747
 4615SOL     OW14743   1.405   0.680   1.639
 4615SOL    HW114744   1.336   0.608   1.635
 4615SOL    HW214745   1.487   0.644   1.683
 4616SOL     OW14746   6.113   2.875   4.043
 4616SOL    HW114747   6.077   2.881   4.136
 4616SOL    HW214748   6.073   2.795   3.997
 4617SOL     OW14749   1.399   2.166   2.288
 4617SOL    HW114750   1.459   2.223   2.344
 4617SOL    HW214751   1.360   2.221   2.214
 4618SOL     OW14752   2.710   3.171   5.437
 4618SOL    HW114753   2.620   3.146   5.402
 4618SOL    HW214754   2.703   3.255   5.491
 4619SOL     OW14755   3.689   6.587   3.874
 4619SOL    HW114756   3.620   6.633   3.929
 4619SOL    HW214757   3.644   6.537   3.800
 4620SOL     OW14758   0.535   5.117   1.178
 4620SOL    HW114759   0.571   5.210   1.172
 4620SOL    HW214760   0.597   5.054   1.132
 4621SOL     OW14761   5.346   0.394   2.526
 4621SOL    HW114762   5.363   0.433   2.436
 4621SOL    HW214763   5.283   0.453   2.576
 4622SOL     OW14764   4.379   4.883   1.489
 4622SOL    HW114765   4.341   4.886   1.397
 4622SOL    HW214766   4.433   4.799   1.499
 4623SOL     OW14767   3.691   5.848   0.806
 4623SOL    HW114768   3.633   5.834   0.726
 4623SOL    HW214769   3.776   5.797   0.795
 4624SOL     OW14770   3.427   1.173   3.149
 4624SOL    HW114771   3.460   1.245   3.088
 4624SOL    HW214772   3.356   1.210   3.209
 4625SOL     OW14773   2.307   6.066   1.558
 4625SOL    HW114774   2.267   6.129   1.624
 4625SOL    HW214775   2.278   6.091   1.465
 4626SOL     OW14776   4.274   3.873   1.405
 4626SOL    HW114777   4.240   3.897   1.315
 4626SOL    HW214778   4.323   3.786   1.401
 4627SOL     OW14779   0.421   6.165   5.063
 4627SOL    HW114780   0.326   6.153   5.093
 4627SOL    HW214781   0.459   6.076   5.039
 4628SOL     OW14782   4.904   4.498   4.245
 4628SOL    HW114783   4.921   4.547   4.160
 4628SOL    HW214784   4.939   4.404   4.238
 4629SOL     OW14785   2.518   4.892   6.388
 4629SOL    HW114786   2.524   4.878   6.290
 4629SOL    HW214787   2.595   4.948   6.418
 4630SOL     OW14788   2.355   5.185   2.244
 4630SOL    HW114789   2.431   5.121   2.234
 4630SOL    HW214790   2.332   5.196   2.341
 4631SOL     OW14791   0.836   6.966   3.714
 4631SOL    HW114792   0.832   6.870   3.740
 4631SOL    HW214793   0.811   6.976   3.618
 4632SOL     OW14794   2.339   5.198   2.508
 4632SOL    HW114795   2.384   5.267   2.564
 4632SOL    HW214796   2.318   5.118   2.563
 4633SOL     OW14797   4.839   1.098   4.540
 4633SOL    HW114798   4.850   1.023   4.605
 4633SOL    HW214799   4.841   1.062   4.447
 4634SOL     OW14800   2.962   3.789   5.050
 4634SOL    HW114801   2.868   3.800   5.081
 4634SOL    HW214802   2.990   3.693   5.063
 4635SOL     OW14803   4.393   4.349   1.457
 4635SOL    HW114804   4.397   4.258   1.498
 4635SOL    HW214805   4.485   4.379   1.432
 4636SOL     OW14806   1.960   5.002   0.963
 4636SOL    HW114807   1.918   5.056   1.036
 4636SOL    HW214808   1.889   4.965   0.904
 4637SOL     OW14809   0.770   6.405   0.315
 4637SOL    HW114810   0.704   6.341   0.275
 4637SOL    HW214811   0.850   6.410   0.256
 4638SOL     OW14812   3.560   5.355   6.672
 4638SOL    HW114813   3.506   5.272   6.684
 4638SOL    HW214814   3.654   5.331   6.647
 4639SOL     OW14815   2.397   2.728   6.497
 4639SOL    HW114816   2.464   2.771   6.557
 4639SOL    HW214817   2.444   2.667   6.433
 4640SOL     OW14818   6.342   3.099   4.221
 4640SOL    HW114819   6.404   3.038   4.172
 4640SOL    HW214820   6.302   3.051   4.299
 4641SOL     OW14821   1.949   6.933   3.711
 4641SOL    HW114822   1.918   6.896   3.624
 4641SOL    HW214823   1.897   7.015   3.734
 4642SOL     OW14824   1.643   0.628   3.351
 4642SOL    HW114825   1.715   0.693   3.329
 4642SOL    HW214826   1.610   0.645   3.444
 4643SOL     OW14827   6.566   2.499   0.726
 4643SOL    HW114828   6.537   2.553   0.804
 4643SOL    HW214829   6.492   2.495   0.658
 4644SOL     OW14830   6.624   0.880   5.903
 4644SOL    HW114831   6.587   0.939   5.974
 4644SOL    HW214832   6.717   0.909   5.881
 4645SOL     OW14833   1.371   0.748   4.183
 4645SOL    HW114834   1.318   0.775   4.263
 4645SOL    HW214835   1.466   0.775   4.196
 4646SOL     OW14836   2.870   5.095   4.402
 4646SOL    HW114837   2.867   4.998   4.379
 4646SOL    HW214838   2.810   5.146   4.340
 4647SOL     OW14839   1.147   0.731   3.446
 4647SOL    HW114840   1.078   0.663   3.421
 4647SOL    HW214841   1.170   0.785   3.365
 4648SOL     OW14842   2.764   0.975   4.466
 4648SOL    HW114843   2.749   1.072   4.485
 4648SOL    HW214844   2.820   0.965   4.384
 4649SOL     OW14845   5.636   0.731   1.007
 4649SOL    HW114846   5.690   0.653   0.974
 4649SOL    HW214847   5.580   0.767   0.933
 4650SOL     OW14848   4.437   5.955   1.582
 4650SOL    HW114849   4.340   5.975   1.570
 4650SOL    HW214850   4.486   5.971   1.497
 4651SOL     OW14851   5.999   3.712   6.822
 4651SOL    HW114852   6.073   3.761   6.776
 4651SOL    HW214853   5.926   3.776   6.847
 4652SOL     OW14854   6.003   6.232   4.849
 4652SOL    HW114855   6.098   6.258   4.832
 4652SOL    HW214856   5.974   6.265   4.938
 4653SOL     OW14857   5.192   5.273   0.324
 4653SOL    HW114858   5.232   5.188   0.358
 4653SOL    HW214859   5.101   5.255   0.288
 4654SOL     OW14860   6.887   6.757   5.827
 4654SOL    HW114861   6.800   6.807   5.834
 4654SOL    HW214862   6.962   6.822   5.819
 4655SOL     OW14863   4.767   3.840   1.790
 4655SOL    HW114864   4.780   3.786   1.706
 4655SOL    HW214865   4.812   3.794   1.866
 4656SOL     OW14866   0.904   0.443   1.731
 4656SOL    HW114867   1.000   0.463   1.751
 4656SOL    HW214868   0.847   0.522   1.755
 4657SOL     OW14869   5.437   6.040   2.125
 4657SOL    HW114870   5.513   6.102   2.144
 4657SOL    HW214871   5.356   6.071   2.176
 4658SOL     OW14872   2.842   2.731   5.338
 4658SOL    HW114873   2.872   2.823   5.363
 4658SOL    HW214874   2.922   2.672   5.326
 4659SOL     OW14875   3.496   4.410   0.945
 4659SOL    HW114876   3.459   4.318   0.931
 4659SOL    HW214877   3.468   4.470   0.871
 4660SOL     OW14878   1.524   6.632   3.862
 4660SOL    HW114879   1.490   6.600   3.951
 4660SOL    HW214880   1.465   6.597   3.790
 4661SOL     OW14881   2.782   4.536   5.855
 4661SOL    HW114882   2.830   4.623   5.869
 4661SOL    HW214883   2.731   4.539   5.770
 4662SOL     OW14884   3.062   0.253   4.817
 4662SOL    HW114885   2.985   0.264   4.754
 4662SOL    HW214886   3.137   0.207   4.771
 4663SOL     OW14887   0.363   0.015   0.682
 4663SOL    HW114888   0.455   7.006   0.654
 4663SOL    HW214889   0.342   0.105   0.644
 4664SOL     OW14890   6.968   0.598   0.575
 4664SOL    HW114891   0.021   0.555   0.630
 4664SOL    HW214892   6.970   0.561   0.482
 4665SOL     OW14893   2.632   0.574   6.093
 4665SOL    HW114894   2.587   0.651   6.140
 4665SOL    HW214895   2.579   0.491   6.109
 4666SOL     OW14896   2.233   2.377   6.749
 4666SOL    HW114897   2.151   2.424   6.782
 4666SOL    HW214898   2.212   2.281   6.733
 4667SOL     OW14899   6.820   4.064   2.021
 4667SOL    HW114900   6.916   4.053   1.997
 4667SOL    HW214901   6.812   4.129   2.096
 4668SOL     OW14902   4.302   1.651   4.880
 4668SOL    HW114903   4.253   1.704   4.810
 4668SOL    HW214904   4.236   1.597   4.932
 4669SOL     OW14905   5.599   0.275   6.750
 4669SOL    HW114906   5.511   0.245   6.788
 4669SOL    HW214907   5.631   0.208   6.683
 4670SOL     OW14908   1.552   3.289   0.093
 4670SOL    HW114909   1.589   3.265   0.183
 4670SOL    HW214910   1.477   3.354   0.105
 4671SOL     OW14911   0.954   3.211   0.698
 4671SOL    HW114912   0.975   3.265   0.617
 4671SOL    HW214913   1.019   3.136   0.706
 4672SOL     OW14914   4.300   4.450   5.827
 4672SOL    HW114915   4.231   4.523   5.822
 4672SOL    HW214916   4.293   4.404   5.915
 4673SOL     OW14917   5.185   0.121   0.089
 4673SOL    HW114918   5.211   0.028   0.115
 4673SOL    HW214919   5.099   0.119   0.038
 4674SOL     OW14920   5.586   1.768   0.252
 4674SOL    HW114921   5.642   1.840   0.211
 4674SOL    HW214922   5.546   1.801   0.337
 4675SOL     OW14923   3.795   7.010   6.956
 4675SOL    HW114924   3.774   0.048   0.017
 4675SOL    HW214925   3.724   0.002   6.887
 4676SOL     OW14926   0.563   6.651   4.654
 4676SOL    HW114927   0.482   6.640   4.597
 4676SOL    HW214928   0.551   6.602   4.740
 4677SOL     OW14929   3.019   0.608   0.110
 4677SOL    HW114930   3.099   0.579   0.058
 4677SOL    HW214931   2.963   0.528   0.131
 4678SOL     OW14932   2.072   5.226   2.202
 4678SOL    HW114933   2.170   5.205   2.208
 4678SOL    HW214934   2.035   5.189   2.116
 4679SOL     OW14935   3.782   1.575   6.187
 4679SOL    HW114936   3.782   1.499   6.122
 4679SOL    HW214937   3.850   1.558   6.258
 4680SOL     OW14938   2.437   6.468   1.653
 4680SOL    HW114939   2.375   6.495   1.727
 4680SOL    HW214940   2.508   6.408   1.689
 4681SOL     OW14941   6.200   6.398   4.393
 4681SOL    HW114942   6.294   6.364   4.400
 4681SOL    HW214943   6.201   6.496   4.376
 4682SOL     OW14944   4.322   5.471   6.848
 4682SOL    HW114945   4.333   5.439   6.754
 4682SOL    HW214946   4.392   5.429   6.906
 4683SOL     OW14947   5.272   4.372   2.475
 4683SOL    HW114948   5.211   4.292   2.482
 4683SOL    HW214949   5.366   4.343   2.493
 4684SOL     OW14950   0.374   2.305   4.520
 4684SOL    HW114951   0.427   2.354   4.590
 4684SOL    HW214952   0.277   2.321   4.535
 4685SOL     OW14953   6.635   5.217   4.374
 4685SOL    HW114954   6.680   5.196   4.461
 4685SOL    HW214955   6.703   5.222   4.301
 4686SOL     OW14956   5.144   5.779   0.308
 4686SOL    HW114957   5.215   5.848   0.292
 4686SOL    HW214958   5.187   5.689   0.316
 4687SOL     OW14959   6.500   4.138   5.010
 4687SOL    HW114960   6.482   4.066   4.943
 4687SOL    HW214961   6.511   4.098   5.101
 4688SOL     OW14962   0.066   2.984   6.474
 4688SOL    HW114963   0.039   2.961   6.568
 4688SOL    HW214964   0.150   2.936   6.450
 4689SOL     OW14965   5.923   0.552   6.377
 4689SOL    HW114966   5.972   0.562   6.290
 4689SOL    HW214967   5.935   0.634   6.432
 4690SOL     OW14968   1.034   0.864   6.739
 4690SOL    HW114969   0.985   0.863   6.826
 4690SOL    HW214970   1.107   0.932   6.742
 4691SOL     OW14971   2.701   3.811   1.556
 4691SOL    HW114972   2.628   3.758   1.599
 4691SOL    HW214973   2.663   3.894   1.516
 4692SOL     OW14974   6.928   5.154   2.801
 4692SOL    HW114975   6.931   5.111   2.891
 4692SOL    HW214976   6.871   5.100   2.740
 4693SOL     OW14977   0.558   0.956   4.535
 4693SOL    HW114978   0.562   1.040   4.589
 4693SOL    HW214979   0.513   0.974   4.448
 4694SOL     OW14980   3.148   0.844   0.160
 4694SOL    HW114981   3.122   0.886   0.247
 4694SOL    HW214982   3.094   0.762   0.145
 4695SOL     OW14983   3.330   3.103   1.905
 4695SOL    HW114984   3.333   3.173   1.976
 4695SOL    HW214985   3.275   3.135   1.828
 4696SOL     OW14986   0.982   4.616   6.097
 4696SOL    HW114987   0.935   4.680   6.035
 4696SOL    HW214988   1.033   4.668   6.165
 4697SOL     OW14989   1.866   3.479   0.845
 4697SOL    HW114990   1.766   3.479   0.842
 4697SOL    HW214991   1.902   3.423   0.770
 4698SOL     OW14992   4.750   4.549   2.591
 4698SOL    HW114993   4.832   4.553   2.649
 4698SOL    HW214994   4.740   4.636   2.543
 4699SOL     OW14995   0.930   0.351   2.486
 4699SOL    HW114996   1.000   0.281   2.475
 4699SOL    HW214997   0.856   0.315   2.543
 4700SOL     OW14998   5.384   1.557   1.717
 4700SOL    HW114999   5.403   1.653   1.737
 4700SOL    HW215000   5.397   1.502   1.800
 4701SOL     OW15001   1.315   1.602   0.231
 4701SOL    HW115002   1.359   1.678   0.182
 4701SOL    HW215003   1.362   1.517   0.208
 4702SOL     OW15004   4.200   4.439   6.614
 4702SOL    HW115005   4.227   4.363   6.673
 4702SOL    HW215006   4.267   4.450   6.541
 4703SOL     OW15007   0.581   2.119   2.636
 4703SOL    HW115008   0.639   2.040   2.615
 4703SOL    HW215009   0.635   2.202   2.634
 4704SOL     OW15010   6.994   6.154   1.179
 4704SOL    HW115011   6.933   6.110   1.113
 4704SOL    HW215012   0.068   6.156   1.143
 4705SOL     OW15013   3.333   2.922   3.008
 4705SOL    HW115014   3.291   2.835   2.983
 4705SOL    HW215015   3.385   2.957   2.930
 4706SOL     OW15016   4.213   5.957   6.257
 4706SOL    HW115017   4.278   6.031   6.243
 4706SOL    HW215018   4.170   5.934   6.169
 4707SOL     OW15019   2.461   5.962   1.091
 4707SOL    HW115020   2.436   6.025   1.165
 4707SOL    HW215021   2.506   6.013   1.018
 4708SOL     OW15022   2.516   2.869   0.657
 4708SOL    HW115023   2.456   2.904   0.730
 4708SOL    HW215024   2.460   2.818   0.591
 4709SOL     OW15025   3.942   5.486   5.277
 4709SOL    HW115026   3.939   5.586   5.266
 4709SOL    HW215027   4.027   5.460   5.322
 4710SOL     OW15028   4.329   1.223   6.224
 4710SOL    HW115029   4.413   1.198   6.176
 4710SOL    HW215030   4.351   1.243   6.320
 4711SOL     OW15031   4.745   0.566   2.668
 4711SOL    HW115032   4.761   0.638   2.735
 4711SOL    HW215033   4.740   0.477   2.715
 4712SOL     OW15034   2.333   4.601   0.665
 4712SOL    HW115035   2.400   4.644   0.605
 4712SOL    HW215036   2.256   4.664   0.679
 4713SOL     OW15037   2.810   4.605   0.747
 4713SOL    HW115038   2.864   4.685   0.724
 4713SOL    HW215039   2.801   4.597   0.847
 4714SOL     OW15040   2.235   2.101   0.095
 4714SOL    HW115041   2.197   2.099   0.187
 4714SOL    HW215042   2.283   2.015   0.076
 4715SOL     OW15043   6.410   3.808   2.189
 4715SOL    HW115044   6.337   3.772   2.248
 4715SOL    HW215045   6.455   3.884   2.234
 4716SOL     OW15046   3.645   4.960   6.237
 4716SOL    HW115047   3.674   4.920   6.324
 4716SOL    HW215048   3.673   4.900   6.162
 4717SOL     OW15049   1.305   5.816   2.253
 4717SOL    HW115050   1.350   5.864   2.178
 4717SOL    HW215051   1.291   5.720   2.227
 4718SOL     OW15052   5.412   1.583   6.767
 4718SOL    HW115053   5.501   1.585   6.814
 4718SOL    HW215054   5.367   1.672   6.778
 4719SOL     OW15055   4.872   2.960   2.823
 4719SOL    HW115056   4.871   3.051   2.864
 4719SOL    HW215057   4.944   2.905   2.866
 4720SOL     OW15058   2.618   6.509   5.540
 4720SOL    HW115059   2.639   6.561   5.457
 4720SOL    HW215060   2.607   6.571   5.617
 4721SOL     OW15061   0.280   2.541   1.908
 4721SOL    HW115062   0.242   2.506   1.822
 4721SOL    HW215063   0.378   2.554   1.898
 4722SOL     OW15064   1.583   5.737   6.829
 4722SOL    HW115065   1.644   5.812   6.803
 4722SOL    HW215066   1.545   5.694   6.747
 4723SOL     OW15067   1.631   5.749   6.003
 4723SOL    HW115068   1.653   5.692   5.923
 4723SOL    HW215069   1.696   5.728   6.077
 4724SOL     OW15070   4.430   6.458   2.604
 4724SOL    HW115071   4.515   6.498   2.639
 4724SOL    HW215072   4.423   6.476   2.505
 4725SOL     OW15073   5.205   6.684   3.078
 4725SOL    HW115074   5.210   6.584   3.088
 4725SOL    HW215075   5.293   6.724   3.102
 4726SOL     OW15076   1.093   3.334   6.596
 4726SOL    HW115077   1.184   3.293   6.603
 4726SOL    HW215078   1.100   3.424   6.553
 4727SOL     OW15079   0.020   5.828   6.619
 4727SOL    HW115080   6.978   5.771   6.675
 4727SOL    HW215081   0.104   5.777   6.600
 4728SOL     OW15082   5.063   1.300   0.803
 4728SOL    HW115083   5.128   1.225   0.816
 4728SOL    HW215084   5.006   1.309   0.885
 4729SOL     OW15085   2.329   0.956   2.902
 4729SOL    HW115086   2.407   0.907   2.864
 4729SOL    HW215087   2.361   1.017   2.975
 4730SOL     OW15088   2.416   5.973   5.508
 4730SOL    HW115089   2.327   5.944   5.542
 4730SOL    HW215090   2.411   6.066   5.474
 4731SOL     OW15091   5.556   0.649   5.775
 4731SOL    HW115092   5.557   0.662   5.676
 4731SOL    HW215093   5.636   0.693   5.815
 4732SOL     OW15094   6.709   3.003   6.598
 4732SOL    HW115095   6.703   2.915   6.551
 4732SOL    HW215096   6.675   2.993   6.692
 4733SOL     OW15097   1.204   3.967   3.210
 4733SOL    HW115098   1.108   3.947   3.229
 4733SOL    HW215099   1.228   3.935   3.118
 4734SOL     OW15100   5.379   2.753   6.999
 4734SOL    HW115101   5.443   2.686   0.018
 4734SOL    HW215102   5.381   2.747   6.899
 4735SOL     OW15103   0.977   5.059   3.329
 4735SOL    HW115104   0.959   5.155   3.350
 4735SOL    HW215105   0.960   5.004   3.410
 4736SOL     OW15106   0.124   1.544   6.733
 4736SOL    HW115107   0.048   1.515   6.791
 4736SOL    HW215108   0.210   1.518   6.776
 4737SOL     OW15109   2.456   4.891   2.405
 4737SOL    HW115110   2.424   4.977   2.445
 4737SOL    HW215111   2.385   4.853   2.347
 4738SOL     OW15112   0.427   6.157   2.346
 4738SOL    HW115113   0.431   6.125   2.252
 4738SOL    HW215114   0.470   6.090   2.406
 4739SOL     OW15115   4.312   0.313   2.244
 4739SOL    HW115116   4.279   0.367   2.167
 4739SOL    HW215117   4.355   0.230   2.211
 4740SOL     OW15118   0.442   1.517   2.460
 4740SOL    HW115119   0.514   1.449   2.476
 4740SOL    HW215120   0.483   1.606   2.444
 4741SOL     OW15121   3.545   2.515   1.010
 4741SOL    HW115122   3.607   2.437   1.008
 4741SOL    HW215123   3.501   2.526   0.921
 4742SOL     OW15124   1.890   6.861   6.842
 4742SOL    HW115125   1.812   6.912   6.805
 4742SOL    HW215126   1.929   6.911   6.919
 4743SOL     OW15127   1.970   3.546   3.119
 4743SOL    HW115128   2.020   3.573   3.036
 4743SOL    HW215129   2.021   3.577   3.200
 4744SOL     OW15130   1.925   5.277   0.637
 4744SOL    HW115131   1.961   5.233   0.719
 4744SOL    HW215132   1.984   5.354   0.612
 4745SOL     OW15133   2.830   3.918   0.211
 4745SOL    HW115134   2.813   3.953   0.119
 4745SOL    HW215135   2.927   3.925   0.232
 4746SOL     OW15136   3.959   5.865   3.921
 4746SOL    HW115137   3.940   5.824   4.010
 4746SOL    HW215138   4.050   5.836   3.889
 4747SOL     OW15139   1.146   3.001   0.733
 4747SOL    HW115140   1.213   2.945   0.684
 4747SOL    HW215141   1.192   3.056   0.803
 4748SOL     OW15142   1.606   6.699   1.792
 4748SOL    HW115143   1.623   6.796   1.811
 4748SOL    HW215144   1.677   6.644   1.834
 4749SOL     OW15145   2.075   6.867   6.623
 4749SOL    HW115146   2.156   6.808   6.619
 4749SOL    HW215147   2.022   6.845   6.705
 4750SOL     OW15148   6.495   3.981   5.230
 4750SOL    HW115149   6.513   3.973   5.328
 4750SOL    HW215150   6.509   3.892   5.187
 4751SOL     OW15151   5.221   2.023   2.885
 4751SOL    HW115152   5.124   2.046   2.895
 4751SOL    HW215153   5.271   2.051   2.967
 4752SOL     OW15154   4.369   1.246   0.696
 4752SOL    HW115155   4.346   1.285   0.786
 4752SOL    HW215156   4.465   1.221   0.695
 4753SOL     OW15157   1.197   6.548   4.534
 4753SOL    HW115158   1.269   6.586   4.593
 4753SOL    HW215159   1.238   6.486   4.467
 4754SOL     OW15160   4.560   3.909   5.927
 4754SOL    HW115161   4.528   3.815   5.916
 4754SOL    HW215162   4.654   3.909   5.959
 4755SOL     OW15163   2.146   0.974   0.948
 4755SOL    HW115164   2.127   0.949   0.853
 4755SOL    HW215165   2.072   1.031   0.983
 4756SOL     OW15166   6.912   4.101   6.708
 4756SOL    HW115167   6.986   4.085   6.642
 4756SOL    HW215168   6.948   4.096   6.800
 4757SOL     OW15169   1.414   2.810   1.654
 4757SOL    HW115170   1.420   2.720   1.611
 4757SOL    HW215171   1.393   2.878   1.584
 4758SOL     OW15172   1.253   0.049   3.529
 4758SOL    HW115173   1.168   0.059   3.580
 4758SOL    HW215174   1.325   0.103   3.574
 4759SOL     OW15175   0.448   5.832   0.128
 4759SOL    HW115176   0.545   5.818   0.106
 4759SOL    HW215177   0.427   5.930   0.120
 4760SOL     OW15178   1.231   6.955   0.684
 4760SOL    HW115179   1.194   6.911   0.603
 4760SOL    HW215180   1.320   6.995   0.663
 4761SOL     OW15181   0.019   0.320   0.654
 4761SOL    HW115182   6.983   0.317   0.570
 4761SOL    HW215183   6.981   0.344   0.731
 4762SOL     OW15184   1.734   5.459   1.928
 4762SOL    HW115185   1.826   5.492   1.908
 4762SOL    HW215186   1.667   5.514   1.880
 4763SOL     OW15187   4.801   6.046   2.423
 4763SOL    HW115188   4.727   5.983   2.448
 4763SOL    HW215189   4.775   6.097   2.341
 4764SOL     OW15190   4.805   3.556   5.406
 4764SOL    HW115191   4.777   3.519   5.317
 4764SOL    HW215192   4.855   3.641   5.392
 4765SOL     OW15193   3.545   0.895   5.714
 4765SOL    HW115194   3.518   0.806   5.679
 4765SOL    HW215195   3.630   0.885   5.767
 4766SOL     OW15196   6.092   0.228   4.485
 4766SOL    HW115197   6.073   0.185   4.397
 4766SOL    HW215198   6.006   0.260   4.526
 4767SOL     OW15199   2.308   5.540   4.958
 4767SOL    HW115200   2.382   5.607   4.951
 4767SOL    HW215201   2.253   5.541   4.875
 4768SOL     OW15202   4.452   3.189   6.590
 4768SOL    HW115203   4.510   3.147   6.520
 4768SOL    HW215204   4.499   3.267   6.629
 4769SOL     OW15205   2.695   6.357   0.839
 4769SOL    HW115206   2.630   6.369   0.914
 4769SOL    HW215207   2.696   6.439   0.783
 4770SOL     OW15208   6.821   2.208   5.509
 4770SOL    HW115209   6.858   2.285   5.561
 4770SOL    HW215210   6.895   2.146   5.484
 4771SOL     OW15211   2.222   6.845   5.316
 4771SOL    HW115212   2.145   6.800   5.270
 4771SOL    HW215213   2.308   6.810   5.280
 4772SOL     OW15214   3.070   4.812   0.462
 4772SOL    HW115215   3.128   4.822   0.543
 4772SOL    HW215216   3.106   4.868   0.388
 4773SOL     OW15217   1.351   5.936   4.128
 4773SOL    HW115218   1.392   5.860   4.178
 4773SOL    HW215219   1.403   5.952   4.044
 4774SOL     OW15220   1.548   4.388   0.360
 4774SOL    HW115221   1.506   4.307   0.321
 4774SOL    HW215222   1.582   4.447   0.287
 4775SOL     OW15223   5.184   6.887   4.780
 4775SOL    HW115224   5.207   6.796   4.746
 4775SOL    HW215225   5.107   6.923   4.728
 4776SOL     OW15226   1.459   0.946   4.902
 4776SOL    HW115227   1.443   0.948   4.803
 4776SOL    HW215228   1.557   0.951   4.920
 4777SOL     OW15229   1.567   5.886   0.434
 4777SOL    HW115230   1.536   5.828   0.509
 4777SOL    HW215231   1.571   5.981   0.465
 4778SOL     OW15232   0.774   2.563   4.634
 4778SOL    HW115233   0.716   2.638   4.603
 4778SOL    HW215234   0.840   2.540   4.562
 4779SOL     OW15235   6.186   0.333   4.076
 4779SOL    HW115236   6.198   0.274   3.997
 4779SOL    HW215237   6.189   0.428   4.048
 4780SOL     OW15238   5.760   2.701   5.932
 4780SOL    HW115239   5.679   2.656   5.895
 4780SOL    HW215240   5.823   2.724   5.858
 4781SOL     OW15241   2.561   5.794   2.182
 4781SOL    HW115242   2.576   5.892   2.181
 4781SOL    HW215243   2.473   5.774   2.225
 4782SOL     OW15244   6.058   5.420   5.549
 4782SOL    HW115245   6.088   5.432   5.643
 4782SOL    HW215246   5.991   5.490   5.526
 4783SOL     OW15247   5.973   3.905   0.409
 4783SOL    HW115248   5.960   3.887   0.312
 4783SOL    HW215249   6.040   3.978   0.421
 4784SOL     OW15250   6.203   2.180   6.091
 4784SOL    HW115251   6.190   2.269   6.049
 4784SOL    HW215252   6.114   2.143   6.119
 4785SOL     OW15253   0.139   6.323   3.092
 4785SOL    HW115254   0.041   6.341   3.102
 4785SOL    HW215255   0.182   6.399   3.043
 4786SOL     OW15256   2.799   0.241   0.860
 4786SOL    HW115257   2.731   0.207   0.925
 4786SOL    HW215258   2.890   0.208   0.887
 4787SOL     OW15259   4.719   2.255   4.548
 4787SOL    HW115260   4.654   2.317   4.505
 4787SOL    HW215261   4.716   2.266   4.647
 4788SOL     OW15262   6.036   5.673   6.961
 4788SOL    HW115263   6.086   5.648   6.878
 4788SOL    HW215264   5.955   5.727   6.937
 4789SOL     OW15265   4.971   1.885   2.242
 4789SOL    HW115266   5.061   1.853   2.211
 4789SOL    HW215267   4.956   1.977   2.208
 4790SOL     OW15268   5.412   1.620   5.755
 4790SOL    HW115269   5.422   1.521   5.759
 4790SOL    HW215270   5.473   1.663   5.823
 4791SOL     OW15271   0.220   2.758   0.755
 4791SOL    HW115272   0.305   2.773   0.704
 4791SOL    HW215273   0.152   2.826   0.726
 4792SOL     OW15274   1.640   5.156   4.634
 4792SOL    HW115275   1.609   5.118   4.721
 4792SOL    HW215276   1.637   5.086   4.563
 4793SOL     OW15277   1.171   3.806   6.020
 4793SOL    HW115278   1.093   3.860   6.054
 4793SOL    HW215279   1.241   3.868   5.985
 4794SOL     OW15280   4.570   0.332   3.913
 4794SOL    HW115281   4.545   0.315   4.009
 4794SOL    HW215282   4.541   0.424   3.887
 4795SOL     OW15283   6.983   1.825   4.355
 4795SOL    HW115284   0.015   1.817   4.269
 4795SOL    HW215285   6.885   1.824   4.336
 4796SOL     OW15286   3.795   0.841   5.825
 4796SOL    HW115287   3.843   0.805   5.745
 4796SOL    HW215288   3.810   0.780   5.903
 4797SOL     OW15289   0.042   5.830   4.629
 4797SOL    HW115290   0.088   5.888   4.561
 4797SOL    HW215291   0.110   5.796   4.695
 4798SOL     OW15292   5.692   4.951   6.099
 4798SOL    HW115293   5.742   4.993   6.023
 4798SOL    HW215294   5.722   4.857   6.112
 4799SOL     OW15295   3.457   1.650   6.749
 4799SOL    HW115296   3.450   1.748   6.767
 4799SOL    HW215297   3.368   1.617   6.716
 4800SOL     OW15298   1.707   4.563   0.193
 4800SOL    HW115299   1.776   4.498   0.224
 4800SOL    HW215300   1.730   4.654   0.226
 4801SOL     OW15301   4.584   2.546   0.849
 4801SOL    HW115302   4.600   2.565   0.752
 4801SOL    HW215303   4.538   2.458   0.859
 4802SOL     OW15304   6.926   6.315   2.148
 4802SOL    HW115305   6.964   6.343   2.060
 4802SOL    HW215306   6.905   6.396   2.202
 4803SOL     OW15307   5.577   4.973   0.696
 4803SOL    HW115308   5.597   4.935   0.787
 4803SOL    HW215309   5.576   5.073   0.700
 4804SOL     OW15310   5.126   1.680   0.320
 4804SOL    HW115311   5.045   1.735   0.298
 4804SOL    HW215312   5.191   1.685   0.244
 4805SOL     OW15313   6.299   1.682   2.225
 4805SOL    HW115314   6.285   1.781   2.229
 4805SOL    HW215315   6.254   1.638   2.303
 4806SOL     OW15316   1.342   3.653   3.134
 4806SOL    HW115317   1.346   3.753   3.127
 4806SOL    HW215318   1.251   3.621   3.107
 4807SOL     OW15319   1.573   3.467   6.223
 4807SOL    HW115320   1.620   3.460   6.135
 4807SOL    HW215321   1.475   3.481   6.206
 4808SOL     OW15322   4.016   6.018   0.777
 4808SOL    HW115323   3.957   5.982   0.705
 4808SOL    HW215324   3.960   6.047   0.855
 4809SOL     OW15325   3.702   4.914   1.562
 4809SOL    HW115326   3.749   4.987   1.511
 4809SOL    HW215327   3.623   4.882   1.509
 4810SOL     OW15328   0.940   4.101   4.467
 4810SOL    HW115329   1.004   4.170   4.501
 4810SOL    HW215330   0.876   4.144   4.403
 4811SOL     OW15331   3.836   4.060   4.336
 4811SOL    HW115332   3.748   4.067   4.383
 4811SOL    HW215333   3.851   4.141   4.280
 4812SOL     OW15334   0.957   0.010   1.841
 4812SOL    HW115335   0.884   0.028   1.775
 4812SOL    HW215336   0.932   0.047   1.930
 4813SOL     OW15337   5.584   1.795   6.949
 4813SOL    HW115338   5.486   1.810   6.933
 4813SOL    HW215339   5.600   1.781   0.027
 4814SOL     OW15340   0.067   3.730   2.723
 4814SOL    HW115341   0.067   3.814   2.669
 4814SOL    HW215342   0.031   3.749   2.814
 4815SOL     OW15343   5.012   5.075   3.102
 4815SOL    HW115344   4.949   5.118   3.037
 4815SOL    HW215345   5.098   5.126   3.104
 4816SOL     OW15346   1.867   0.286   1.318
 4816SOL    HW115347   1.788   0.312   1.263
 4816SOL    HW215348   1.886   0.357   1.386
 4817SOL     OW15349   3.841   0.801   1.687
 4817SOL    HW115350   3.882   0.840   1.769
 4817SOL    HW215351   3.899   0.819   1.608
 4818SOL     OW15352   2.144   0.318   4.323
 4818SOL    HW115353   2.056   0.272   4.322
 4818SOL    HW215354   2.178   0.327   4.230
 4819SOL     OW15355   3.015   2.000   0.990
 4819SOL    HW115356   3.088   2.029   0.928
 4819SOL    HW215357   2.965   1.924   0.948
 4820SOL     OW15358   6.626   3.176   1.094
 4820SOL    HW115359   6.726   3.177   1.093
 4820SOL    HW215360   6.592   3.185   1.000
 4821SOL     OW15361   6.368   5.430   1.737
 4821SOL    HW115362   6.374   5.422   1.836
 4821SOL    HW215363   6.363   5.338   1.697
 4822SOL     OW15364   1.909   3.328   3.791
 4822SOL    HW115365   1.883   3.409   3.737
 4822SOL    HW215366   2.008   3.322   3.796
 4823SOL     OW15367   0.281   0.259   3.611
 4823SOL    HW115368   0.295   0.317   3.691
 4823SOL    HW215369   0.297   0.313   3.528
 4824SOL     OW15370   5.455   2.221   3.371
 4824SOL    HW115371   5.427   2.243   3.465
 4824SOL    HW215372   5.550   2.249   3.359
 4825SOL     OW15373   1.458   2.764   4.370
 4825SOL    HW115374   1.491   2.793   4.460
 4825SOL    HW215375   1.499   2.822   4.299
 4826SOL     OW15376   0.208   6.475   0.654
 4826SOL    HW115377   0.147   6.554   0.657
 4826SOL    HW215378   0.155   6.391   0.643
 4827SOL     OW15379   5.203   0.823   1.670
 4827SOL    HW115380   5.112   0.838   1.707
 4827SOL    HW215381   5.202   0.833   1.571
 4828SOL     OW15382   5.820   4.372   1.845
 4828SOL    HW115383   5.763   4.453   1.829
 4828SOL    HW215384   5.843   4.331   1.757
 4829SOL     OW15385   3.827   6.763   6.064
 4829SOL    HW115386   3.796   6.774   6.159
 4829SOL    HW215387   3.770   6.818   6.003
 4830SOL     OW15388   5.055   5.595   4.017
 4830SOL    HW115389   5.000   5.512   4.022
 4830SOL    HW215390   4.996   5.672   3.991
 4831SOL     OW15391   0.034   4.936   5.459
 4831SOL    HW115392   6.965   4.937   5.506
 4831SOL    HW215393   0.024   4.975   5.367
 4832SOL     OW15394   3.025   2.277   6.121
 4832SOL    HW115395   2.999   2.258   6.026
 4832SOL    HW215396   3.106   2.336   6.122
 4833SOL     OW15397   4.901   1.801   2.952
 4833SOL    HW115398   4.819   1.777   2.900
 4833SOL    HW215399   4.874   1.854   3.033
 4834SOL     OW15400   3.832   7.015   0.952
 4834SOL    HW115401   3.775   0.051   1.013
 4834SOL    HW215402   3.828   6.919   0.981
 4835SOL     OW15403   1.887   6.883   6.430
 4835SOL    HW115404   1.842   6.806   6.475
 4835SOL    HW215405   1.975   6.901   6.475
 4836SOL     OW15406   4.383   2.337   3.591
 4836SOL    HW115407   4.299   2.299   3.552
 4836SOL    HW215408   4.456   2.269   3.584
 4837SOL     OW15409   3.511   2.749   1.776
 4837SOL    HW115410   3.580   2.771   1.708
 4837SOL    HW215411   3.456   2.672   1.745
 4838SOL     OW15412   2.981   4.867   2.426
 4838SOL    HW115413   2.972   4.917   2.340
 4838SOL    HW215414   3.070   4.821   2.428
 4839SOL     OW15415   0.720   4.059   5.795
 4839SOL    HW115416   0.754   3.980   5.846
 4839SOL    HW215417   0.643   4.100   5.845
 4840SOL     OW15418   6.639   0.028   6.533
 4840SOL    HW115419   6.615   0.035   6.436
 4840SOL    HW215420   6.681   0.113   6.564
 4841SOL     OW15421   3.621   5.678   2.009
 4841SOL    HW115422   3.702   5.721   1.970
 4841SOL    HW215423   3.646   5.589   2.047
 4842SOL     OW15424   3.502   5.276   1.555
 4842SOL    HW115425   3.451   5.236   1.479
 4842SOL    HW215426   3.579   5.217   1.578
 4843SOL     OW15427   6.031   4.218   0.689
 4843SOL    HW115428   6.087   4.150   0.736
 4843SOL    HW215429   6.089   4.297   0.665
 4844SOL     OW15430   6.765   3.598   6.829
 4844SOL    HW115431   6.735   3.645   6.746
 4844SOL    HW215432   6.711   3.514   6.841
 4845SOL     OW15433   6.887   5.283   4.458
 4845SOL    HW115434   6.920   5.298   4.364
 4845SOL    HW215435   6.838   5.364   4.489
 4846SOL     OW15436   0.165   3.655   1.053
 4846SOL    HW115437   0.094   3.613   1.111
 4846SOL    HW215438   0.198   3.588   0.988
 4847SOL     OW15439   3.875   1.609   5.405
 4847SOL    HW115440   3.788   1.602   5.356
 4847SOL    HW215441   3.915   1.699   5.389
 4848SOL     OW15442   1.483   1.199   4.578
 4848SOL    HW115443   1.539   1.212   4.659
 4848SOL    HW215444   1.392   1.239   4.593
 4849SOL     OW15445   1.841   6.649   0.130
 4849SOL    HW115446   1.884   6.736   0.104
 4849SOL    HW215447   1.847   6.585   0.053
 4850SOL     OW15448   3.970   0.844   1.927
 4850SOL    HW115449   4.055   0.813   1.970
 4850SOL    HW215450   3.901   0.860   1.998
 4851SOL     OW15451   3.681   6.222   5.005
 4851SOL    HW115452   3.599   6.275   5.026
 4851SOL    HW215453   3.662   6.159   4.930
 4852SOL     OW15454   1.418   0.546   6.379
 4852SOL    HW115455   1.467   0.558   6.465
 4852SOL    HW215456   1.468   0.483   6.320
 4853SOL     OW15457   3.441   1.736   2.436
 4853SOL    HW115458   3.531   1.724   2.395
 4853SOL    HW215459   3.450   1.749   2.535
 4854SOL     OW15460   4.657   6.179   2.770
 4854SOL    HW115461   4.618   6.174   2.862
 4854SOL    HW215462   4.589   6.148   2.703
 4855SOL     OW15463   5.740   2.464   2.202
 4855SOL    HW115464   5.681   2.392   2.238
 4855SOL    HW215465   5.827   2.425   2.173
 4856SOL     OW15466   1.992   4.124   2.875
 4856SOL    HW115467   1.957   4.214   2.848
 4856SOL    HW215468   2.085   4.133   2.911
 4857SOL     OW15469   1.481   1.744   6.070
 4857SOL    HW115470   1.432   1.729   5.984
 4857SOL    HW215471   1.531   1.831   6.065
 4858SOL     OW15472   1.912   0.749   3.961
 4858SOL    HW115473   1.941   0.844   3.970
 4858SOL    HW215474   1.941   0.698   4.042
 4859SOL     OW15475   1.093   6.296   4.068
 4859SOL    HW115476   1.093   6.233   4.146
 4859SOL    HW215477   1.023   6.366   4.082
 4860SOL     OW15478   3.742   5.154   2.618
 4860SOL    HW115479   3.719   5.108   2.533
 4860SOL    HW215480   3.670   5.138   2.685
 4861SOL     OW15481   5.481   5.269   0.305
 4861SOL    HW115482   5.469   5.299   0.211
 4861SOL    HW215483   5.398   5.222   0.336
 4862SOL     OW15484   1.978   5.132   4.068
 4862SOL    HW115485   1.973   5.032   4.061
 4862SOL    HW215486   1.931   5.174   3.990
 4863SOL     OW15487   5.544   4.943   0.280
 4863SOL    HW115488   5.638   4.934   0.314
 4863SOL    HW215489   5.520   5.040   0.273
 4864SOL     OW15490   3.472   1.226   4.221
 4864SOL    HW115491   3.518   1.146   4.182
 4864SOL    HW215492   3.427   1.278   4.148
 4865SOL     OW15493   1.548   0.021   5.129
 4865SOL    HW115494   1.571   0.103   5.077
 4865SOL    HW215495   1.493   6.979   5.072
 4866SOL     OW15496   6.377   3.904   1.359
 4866SOL    HW115497   6.323   3.987   1.376
 4866SOL    HW215498   6.388   3.890   1.261
 4867SOL     OW15499   4.477   5.667   2.113
 4867SOL    HW115500   4.574   5.690   2.122
 4867SOL    HW215501   4.448   5.681   2.019
 4868SOL     OW15502   6.785   4.657   2.133
 4868SOL    HW115503   6.735   4.738   2.103
 4868SOL    HW215504   6.722   4.579   2.137
 4869SOL     OW15505   1.701   1.587   0.836
 4869SOL    HW115506   1.691   1.662   0.902
 4869SOL    HW215507   1.712   1.501   0.884
 4870SOL     OW15508   0.295   6.104   1.497
 4870SOL    HW115509   0.378   6.131   1.546
 4870SOL    HW215510   0.291   6.004   1.491
 4871SOL     OW15511   1.150   0.292   3.895
 4871SOL    HW115512   1.133   0.279   3.992
 4871SOL    HW215513   1.088   0.361   3.859
 4872SOL     OW15514   6.566   6.824   3.094
 4872SOL    HW115515   6.636   6.772   3.045
 4872SOL    HW215516   6.607   6.870   3.173
 4873SOL     OW15517   6.512   5.684   4.421
 4873SOL    HW115518   6.561   5.743   4.485
 4873SOL    HW215519   6.578   5.642   4.358
 4874SOL     OW15520   5.093   3.231   2.455
 4874SOL    HW115521   5.047   3.154   2.411
 4874SOL    HW215522   5.042   3.315   2.436
 4875SOL     OW15523   5.600   0.249   0.278
 4875SOL    HW115524   5.543   0.251   0.196
 4875SOL    HW215525   5.584   0.163   0.328
 4876SOL     OW15526   6.868   0.949   3.898
 4876SOL    HW115527   6.926   0.898   3.834
 4876SOL    HW215528   6.879   0.912   3.990
 4877SOL     OW15529   0.579   1.978   5.633
 4877SOL    HW115530   0.671   2.015   5.643
 4877SOL    HW215531   0.584   1.880   5.615
 4878SOL     OW15532   6.818   1.716   1.889
 4878SOL    HW115533   6.872   1.768   1.822
 4878SOL    HW215534   6.796   1.626   1.850
 4879SOL     OW15535   4.496   2.318   1.876
 4879SOL    HW115536   4.402   2.295   1.901
 4879SOL    HW215537   4.516   2.281   1.786
 4880SOL     OW15538   6.165   3.709   0.334
 4880SOL    HW115539   6.174   3.703   0.234
 4880SOL    HW215540   6.101   3.782   0.357
 4881SOL     OW15541   1.792   1.430   6.908
 4881SOL    HW115542   1.842   1.425   6.822
 4881SOL    HW215543   1.812   1.517   6.953
 4882SOL     OW15544   3.913   1.925   5.405
 4882SOL    HW115545   3.914   1.979   5.489
 4882SOL    HW215546   3.926   1.985   5.327
 4883SOL     OW15547   5.365   4.178   0.798
 4883SOL    HW115548   5.274   4.175   0.755
 4883SOL    HW215549   5.382   4.092   0.845
 4884SOL     OW15550   3.619   5.343   1.256
 4884SOL    HW115551   3.585   5.437   1.262
 4884SOL    HW215552   3.700   5.334   1.315
 4885SOL     OW15553   2.383   4.258   1.377
 4885SOL    HW115554   2.395   4.293   1.470
 4885SOL    HW215555   2.302   4.301   1.336
 4886SOL     OW15556   2.949   6.855   1.539
 4886SOL    HW115557   3.039   6.830   1.574
 4886SOL    HW215558   2.945   6.836   1.441
 4887SOL     OW15559   0.522   6.171   1.593
 4887SOL    HW115560   0.548   6.115   1.672
 4887SOL    HW215561   0.580   6.252   1.589
 4888SOL     OW15562   2.388   6.874   2.806
 4888SOL    HW115563   2.432   6.805   2.862
 4888SOL    HW215564   2.456   6.939   2.773
 4889SOL     OW15565   6.619   1.830   5.469
 4889SOL    HW115566   6.600   1.732   5.475
 4889SOL    HW215567   6.561   1.871   5.399
 4890SOL     OW15568   0.526   1.525   5.326
 4890SOL    HW115569   0.571   1.600   5.278
 4890SOL    HW215570   0.442   1.559   5.369
 4891SOL     OW15571   2.991   5.216   0.394
 4891SOL    HW115572   3.046   5.226   0.310
 4891SOL    HW215573   2.917   5.152   0.377
 4892SOL     OW15574   5.314   5.760   2.313
 4892SOL    HW115575   5.347   5.772   2.220
 4892SOL    HW215576   5.336   5.841   2.367
 4893SOL     OW15577   6.342   3.427   1.867
 4893SOL    HW115578   6.405   3.421   1.791
 4893SOL    HW215579   6.343   3.519   1.905
 4894SOL     OW15580   3.517   0.276   2.660
 4894SOL    HW115581   3.437   0.274   2.601
 4894SOL    HW215582   3.490   0.294   2.754
 4895SOL     OW15583   0.917   4.895   3.540
 4895SOL    HW115584   0.832   4.841   3.540
 4895SOL    HW215585   0.929   4.939   3.629
 4896SOL     OW15586   2.446   4.835   2.801
 4896SOL    HW115587   2.497   4.763   2.755
 4896SOL    HW215588   2.456   4.824   2.900
 4897SOL     OW15589   1.838   5.457   5.019
 4897SOL    HW115590   1.847   5.436   4.921
 4897SOL    HW215591   1.742   5.465   5.042
 4898SOL     OW15592   4.144   1.049   4.952
 4898SOL    HW115593   4.146   1.143   4.917
 4898SOL    HW215594   4.212   0.994   4.903
 4899SOL     OW15595   6.507   5.056   2.998
 4899SOL    HW115596   6.480   5.003   2.918
 4899SOL    HW215597   6.434   5.120   3.023
 4900SOL     OW15598   4.075   5.881   6.019
 4900SOL    HW115599   4.043   5.939   5.944
 4900SOL    HW215600   3.997   5.829   6.057
 4901SOL     OW15601   2.136   1.243   5.618
 4901SOL    HW115602   2.194   1.308   5.569
 4901SOL    HW215603   2.049   1.285   5.641
 4902SOL     OW15604   1.076   1.215   5.488
 4902SOL    HW115605   1.133   1.291   5.455
 4902SOL    HW215606   1.105   1.130   5.446
 4903SOL     OW15607   4.528   5.351   0.649
 4903SOL    HW115608   4.522   5.430   0.588
 4903SOL    HW215609   4.442   5.300   0.644
 4904SOL     OW15610   2.062   0.559   5.489
 4904SOL    HW115611   2.095   0.481   5.436
 4904SOL    HW215612   2.005   0.526   5.564
 4905SOL     OW15613   2.214   0.815   3.656
 4905SOL    HW115614   2.117   0.792   3.667
 4905SOL    HW215615   2.223   0.915   3.651
 4906SOL     OW15616   4.375   2.989   6.286
 4906SOL    HW115617   4.420   2.948   6.365
 4906SOL    HW215618   4.287   3.028   6.314
 4907SOL     OW15619   4.717   0.620   1.278
 4907SOL    HW115620   4.729   0.673   1.195
 4907SOL    HW215621   4.799   0.628   1.336
 4908SOL     OW15622   5.089   6.774   0.207
 4908SOL    HW115623   5.044   6.706   0.150
 4908SOL    HW215624   5.027   6.851   0.222
 4909SOL     OW15625   6.776   4.992   3.370
 4909SOL    HW115626   6.694   4.968   3.423
 4909SOL    HW215627   6.772   5.089   3.345
 4910SOL     OW15628   5.481   0.452   4.250
 4910SOL    HW115629   5.481   0.418   4.156
 4910SOL    HW215630   5.542   0.531   4.257
 4911SOL     OW15631   1.758   3.545   3.365
 4911SOL    HW115632   1.801   3.629   3.333
 4911SOL    HW215633   1.768   3.473   3.296
 4912SOL     OW15634   5.584   1.751   5.931
 4912SOL    HW115635   5.668   1.780   5.975
 4912SOL    HW215636   5.522   1.829   5.921
 4913SOL     OW15637   4.626   3.646   5.706
 4913SOL    HW115638   4.534   3.684   5.712
 4913SOL    HW215639   4.641   3.607   5.615
 4914SOL     OW15640   4.406   6.874   5.211
 4914SOL    HW115641   4.461   6.950   5.177
 4914SOL    HW215642   4.348   6.905   5.286
 4915SOL     OW15643   3.030   6.537   5.627
 4915SOL    HW115644   3.129   6.527   5.642
 4915SOL    HW215645   2.999   6.469   5.561
 4916SOL     OW15646   0.507   1.058   3.717
 4916SOL    HW115647   0.543   0.974   3.676
 4916SOL    HW215648   0.441   1.034   3.789
 4917SOL     OW15649   3.926   5.813   0.606
 4917SOL    HW115650   4.009   5.828   0.553
 4917SOL    HW215651   3.931   5.723   0.651
 4918SOL     OW15652   5.944   6.120   2.188
 4918SOL    HW115653   5.982   6.178   2.260
 4918SOL    HW215654   5.914   6.033   2.227
 4919SOL     OW15655   3.274   2.955   2.461
 4919SOL    HW115656   3.218   2.979   2.541
 4919SOL    HW215657   3.369   2.982   2.477
 4920SOL     OW15658   5.751   0.369   5.041
 4920SOL    HW115659   5.780   0.293   4.984
 4920SOL    HW215660   5.656   0.392   5.020
 4921SOL     OW15661   1.638   5.088   0.124
 4921SOL    HW115662   1.618   5.035   0.041
 4921SOL    HW215663   1.573   5.164   0.132
 4922SOL     OW15664   3.288   2.101   4.795
 4922SOL    HW115665   3.259   2.161   4.869
 4922SOL    HW215666   3.270   2.145   4.707
 4923SOL     OW15667   2.560   1.281   2.740
 4923SOL    HW115668   2.482   1.243   2.690
 4923SOL    HW215669   2.606   1.349   2.683
 4924SOL     OW15670   2.586   1.898   4.608
 4924SOL    HW115671   2.542   1.827   4.552
 4924SOL    HW215672   2.551   1.988   4.580
 4925SOL     OW15673   5.006   0.413   2.971
 4925SOL    HW115674   4.954   0.484   3.020
 4925SOL    HW215675   4.978   0.323   3.004
 4926SOL     OW15676   5.636   2.037   1.695
 4926SOL    HW115677   5.655   2.119   1.641
 4926SOL    HW215678   5.712   1.973   1.686
 4927SOL     OW15679   3.060   2.985   5.709
 4927SOL    HW115680   3.149   3.013   5.747
 4927SOL    HW215681   2.994   2.974   5.784
 4928SOL     OW15682   1.451   0.841   6.720
 4928SOL    HW115683   1.393   0.860   6.799
 4928SOL    HW215684   1.417   0.890   6.640
 4929SOL     OW15685   6.777   6.995   3.620
 4929SOL    HW115686   6.725   0.028   3.688
 4929SOL    HW215687   6.849   0.035   3.583
 4930SOL     OW15688   5.833   0.206   2.736
 4930SOL    HW115689   5.847   0.124   2.679
 4930SOL    HW215690   5.821   0.285   2.677
 4931SOL     OW15691   6.402   6.446   1.418
 4931SOL    HW115692   6.385   6.488   1.329
 4931SOL    HW215693   6.333   6.376   1.436
 4932SOL     OW15694   3.647   3.754   3.396
 4932SOL    HW115695   3.631   3.784   3.302
 4932SOL    HW215696   3.599   3.814   3.459
 4933SOL     OW15697   2.279   6.525   2.811
 4933SOL    HW115698   2.352   6.465   2.842
 4933SOL    HW215699   2.198   6.511   2.868
 4934SOL     OW15700   3.746   6.529   2.651
 4934SOL    HW115701   3.768   6.626   2.643
 4934SOL    HW215702   3.736   6.504   2.747
 4935SOL     OW15703   1.640   1.689   6.502
 4935SOL    HW115704   1.680   1.711   6.413
 4935SOL    HW215705   1.595   1.600   6.497
 4936SOL     OW15706   2.611   5.062   0.909
 4936SOL    HW115707   2.709   5.045   0.922
 4936SOL    HW215708   2.598   5.123   0.831
 4937SOL     OW15709   4.910   3.050   5.626
 4937SOL    HW115710   4.815   3.041   5.658
 4937SOL    HW215711   4.933   2.969   5.571
 4938SOL     OW15712   2.952   5.476   5.860
 4938SOL    HW115713   3.024   5.474   5.930
 4938SOL    HW215714   2.877   5.534   5.891
 4939SOL     OW15715   5.542   2.369   4.870
 4939SOL    HW115716   5.557   2.464   4.842
 4939SOL    HW215717   5.614   2.311   4.832
 4940SOL     OW15718   1.271   0.801   4.597
 4940SOL    HW115719   1.229   0.842   4.678
 4940SOL    HW215720   1.369   0.823   4.595
 4941SOL     OW15721   3.632   1.822   6.018
 4941SOL    HW115722   3.603   1.837   6.113
 4941SOL    HW215723   3.583   1.885   5.958
 4942SOL     OW15724   4.954   3.512   5.652
 4942SOL    HW115725   4.883   3.484   5.718
 4942SOL    HW215726   4.911   3.553   5.572
 4943SOL     OW15727   4.165   2.337   0.321
 4943SOL    HW115728   4.139   2.418   0.373
 4943SOL    HW215729   4.265   2.335   0.311
 4944SOL     OW15730   2.197   3.883   3.150
 4944SOL    HW115731   2.219   3.886   3.052
 4944SOL    HW215732   2.216   3.972   3.191
 4945SOL     OW15733   1.109   1.032   3.731
 4945SOL    HW115734   1.175   1.054   3.803
 4945SOL    HW215735   1.126   1.090   3.651
 4946SOL     OW15736   0.491   2.866   1.370
 4946SOL    HW115737   0.565   2.931   1.388
 4946SOL    HW215738   0.509   2.818   1.284
 4947SOL     OW15739   1.386   6.551   1.038
 4947SOL    HW115740   1.396   6.453   1.053
 4947SOL    HW215741   1.399   6.571   0.941
 4948SOL     OW15742   2.579   0.656   2.320
 4948SOL    HW115743   2.580   0.687   2.224
 4948SOL    HW215744   2.490   0.678   2.360
 4949SOL     OW15745   4.581   0.672   5.648
 4949SOL    HW115746   4.505   0.736   5.637
 4949SOL    HW215747   4.588   0.645   5.744
 4950SOL     OW15748   3.049   5.313   3.557
 4950SOL    HW115749   3.008   5.308   3.466
 4950SOL    HW215750   3.146   5.339   3.548
 4951SOL     OW15751   5.169   1.469   4.660
 4951SOL    HW115752   5.199   1.565   4.660
 4951SOL    HW215753   5.127   1.448   4.748
 4952SOL     OW15754   0.296   0.109   5.224
 4952SOL    HW115755   0.388   0.130   5.194
 4952SOL    HW215756   0.248   0.193   5.246
 4953SOL     OW15757   2.416   5.587   1.842
 4953SOL    HW115758   2.451   5.681   1.841
 4953SOL    HW215759   2.373   5.565   1.755
 4954SOL     OW15760   4.264   4.604   0.129
 4954SOL    HW115761   4.327   4.535   0.095
 4954SOL    HW215762   4.310   4.693   0.130
 4955SOL     OW15763   2.018   5.590   6.642
 4955SOL    HW115764   1.996   5.610   6.737
 4955SOL    HW215765   2.081   5.659   6.606
 4956SOL     OW15766   4.091   0.094   5.085
 4956SOL    HW115767   4.029   0.145   5.026
 4956SOL    HW215768   4.052   0.004   5.106
 4957SOL     OW15769   6.976   1.408   3.955
 4957SOL    HW115770   6.876   1.405   3.957
 4957SOL    HW215771   7.009   1.456   4.036
 4958SOL     OW15772   0.487   6.329   6.245
 4958SOL    HW115773   0.408   6.285   6.202
 4958SOL    HW215774   0.479   6.428   6.235
 4959SOL     OW15775   0.527   1.039   0.203
 4959SOL    HW115776   0.449   1.091   0.239
 4959SOL    HW215777   0.495   0.974   0.135
 4960SOL     OW15778   3.311   6.443   4.304
 4960SOL    HW115779   3.265   6.438   4.393
 4960SOL    HW215780   3.381   6.371   4.300
 4961SOL     OW15781   5.417   1.415   5.145
 4961SOL    HW115782   5.427   1.512   5.170
 4961SOL    HW215783   5.358   1.407   5.065
 4962SOL     OW15784   5.671   3.443   1.958
 4962SOL    HW115785   5.748   3.487   2.003
 4962SOL    HW215786   5.590   3.451   2.016
 4963SOL     OW15787   6.193   6.093   1.544
 4963SOL    HW115788   6.289   6.105   1.519
 4963SOL    HW215789   6.175   6.142   1.629
 4964SOL     OW15790   3.492   6.463   2.702
 4964SOL    HW115791   3.571   6.433   2.649
 4964SOL    HW215792   3.513   6.551   2.745
 4965SOL     OW15793   0.445   6.964   4.970
 4965SOL    HW115794   0.347   6.985   4.974
 4965SOL    HW215795   0.488   0.001   4.899
 4966SOL     OW15796   1.990   5.854   4.472
 4966SOL    HW115797   2.000   5.834   4.569
 4966SOL    HW215798   2.078   5.883   4.435
 4967SOL     OW15799   3.622   3.496   6.718
 4967SOL    HW115800   3.716   3.487   6.683
 4967SOL    HW215801   3.625   3.524   6.814
 4968SOL     OW15802   5.303   3.135   3.188
 4968SOL    HW115803   5.304   3.197   3.109
 4968SOL    HW215804   5.328   3.186   3.270
 4969SOL     OW15805   1.932   1.036   2.842
 4969SOL    HW115806   1.903   0.995   2.928
 4969SOL    HW215807   1.931   1.135   2.850
 4970SOL     OW15808   1.262   2.576   5.007
 4970SOL    HW115809   1.191   2.591   5.076
 4970SOL    HW215810   1.331   2.648   5.013
 4971SOL     OW15811   6.247   5.563   3.545
 4971SOL    HW115812   6.323   5.527   3.490
 4971SOL    HW215813   6.284   5.610   3.625
 4972SOL     OW15814   2.588   3.123   0.506
 4972SOL    HW115815   2.520   3.190   0.476
 4972SOL    HW215816   2.542   3.039   0.533
 4973SOL     OW15817   6.733   6.436   1.947
 4973SOL    HW115818   6.649   6.399   1.907
 4973SOL    HW215819   6.734   6.536   1.937
 4974SOL     OW15820   6.088   5.012   1.294
 4974SOL    HW115821   6.131   4.948   1.231
 4974SOL    HW215822   6.129   5.103   1.282
 4975SOL     OW15823   6.087   6.145   0.935
 4975SOL    HW115824   6.031   6.108   0.861
 4975SOL    HW215825   6.176   6.101   0.935
 4976SOL     OW15826   3.343   0.496   3.740
 4976SOL    HW115827   3.400   0.524   3.817
 4976SOL    HW215828   3.365   0.402   3.714
 4977SOL     OW15829   5.157   3.522   0.768
 4977SOL    HW115830   5.222   3.446   0.760
 4977SOL    HW215831   5.064   3.487   0.760
 4978SOL     OW15832   6.760   3.392   5.380
 4978SOL    HW115833   6.859   3.380   5.389
 4978SOL    HW215834   6.720   3.401   5.471
 4979SOL     OW15835   6.687   2.473   5.004
 4979SOL    HW115836   6.753   2.546   5.023
 4979SOL    HW215837   6.688   2.452   4.906
 4980SOL     OW15838   4.160   6.887   2.971
 4980SOL    HW115839   4.187   6.859   2.880
 4980SOL    HW215840   4.239   6.886   3.032
 4981SOL     OW15841   4.640   6.276   5.644
 4981SOL    HW115842   4.716   6.298   5.705
 4981SOL    HW215843   4.668   6.203   5.581
 4982SOL     OW15844   2.261   1.681   6.786
 4982SOL    HW115845   2.297   1.671   6.693
 4982SOL    HW215846   2.215   1.596   6.812
 4983SOL     OW15847   5.129   3.280   4.001
 4983SOL    HW115848   5.194   3.356   4.002
 4983SOL    HW215849   5.049   3.304   4.056
 4984SOL     OW15850   5.504   3.661   4.531
 4984SOL    HW115851   5.496   3.608   4.615
 4984SOL    HW215852   5.416   3.659   4.483
 4985SOL     OW15853   6.118   6.017   3.951
 4985SOL    HW115854   6.076   6.100   3.914
 4985SOL    HW215855   6.209   6.037   3.985
 4986SOL     OW15856   5.985   4.478   2.861
 4986SOL    HW115857   6.002   4.576   2.872
 4986SOL    HW215858   6.024   4.428   2.939
 4987SOL     OW15859   0.734   2.225   1.010
 4987SOL    HW115860   0.806   2.202   0.944
 4987SOL    HW215861   0.645   2.201   0.972
 4988SOL     OW15862   6.698   1.353   3.931
 4988SOL    HW115863   6.646   1.351   3.846
 4988SOL    HW215864   6.637   1.340   4.009
 4989SOL     OW15865   5.333   1.293   1.578
 4989SOL    HW115866   5.347   1.378   1.630
 4989SOL    HW215867   5.342   1.215   1.639
 4990SOL     OW15868   1.015   2.441   6.269
 4990SOL    HW115869   0.992   2.498   6.191
 4990SOL    HW215870   0.943   2.447   6.338
 4991SOL     OW15871   0.618   3.289   3.983
 4991SOL    HW115872   0.652   3.319   3.894
 4991SOL    HW215873   0.644   3.194   3.999
 4992SOL     OW15874   4.128   0.613   4.351
 4992SOL    HW115875   4.160   0.578   4.263
 4992SOL    HW215876   4.121   0.713   4.348
 4993SOL     OW15877   2.631   4.747   3.804
 4993SOL    HW115878   2.630   4.700   3.892
 4993SOL    HW215879   2.588   4.837   3.813
 4994SOL     OW15880   1.414   0.062   2.502
 4994SOL    HW115881   1.329   0.009   2.511
 4994SOL    HW215882   1.491   0.006   2.531
 4995SOL     OW15883   7.008   2.835   6.129
 4995SOL    HW115884   6.951   2.861   6.207
 4995SOL    HW215885   0.045   2.913   6.102
 4996SOL     OW15886   0.458   0.674   1.853
 4996SOL    HW115887   0.362   0.645   1.857
 4996SOL    HW215888   0.476   0.738   1.928
 4997SOL     OW15889   6.808   2.329   2.853
 4997SOL    HW115890   6.895   2.375   2.873
 4997SOL    HW215891   6.827   2.235   2.822
 4998SOL     OW15892   2.202   4.608   5.317
 4998SOL    HW115893   2.178   4.705   5.319
 4998SOL    HW215894   2.160   4.565   5.237
 4999SOL     OW15895   5.083   5.792   1.439
 4999SOL    HW115896   5.043   5.884   1.444
 4999SOL    HW215897   5.065   5.744   1.525
 5000SOL     OW15898   0.691   0.792   4.154
 5000SOL    HW115899   0.720   0.887   4.168
 5000SOL    HW215900   0.743   0.753   4.078
 5001SOL     OW15901   1.966   3.970   6.099
 5001SOL    HW115902   1.923   4.013   6.178
 5001SOL    HW215903   2.065   3.971   6.111
 5002SOL     OW15904   1.274   2.738   3.131
 5002SOL    HW115905   1.338   2.815   3.139
 5002SOL    HW215906   1.204   2.760   3.063
 5003SOL     OW15907   0.532   6.697   3.387
 5003SOL    HW115908   0.436   6.722   3.402
 5003SOL    HW215909   0.584   6.712   3.471
 5004SOL     OW15910   3.035   5.730   5.677
 5004SOL    HW115911   3.041   5.633   5.697
 5004SOL    HW215912   3.005   5.780   5.758
 5005SOL     OW15913   3.546   1.970   0.551
 5005SOL    HW115914   3.483   2.029   0.501
 5005SOL    HW215915   3.509   1.951   0.642
 5006SOL     OW15916   5.705   0.063   5.883
 5006SOL    HW115917   5.702   0.034   5.788
 5006SOL    HW215918   5.800   0.084   5.908
 5007SOL     OW15919   2.775   0.371   5.889
 5007SOL    HW115920   2.840   0.297   5.906
 5007SOL    HW215921   2.823   0.449   5.850
 5008SOL     OW15922   6.090   0.631   3.069
 5008SOL    HW115923   6.036   0.547   3.061
 5008SOL    HW215924   6.033   0.710   3.043
 5009SOL     OW15925   1.530   6.215   1.615
 5009SOL    HW115926   1.606   6.153   1.634
 5009SOL    HW215927   1.501   6.259   1.700
 5010SOL     OW15928   3.075   3.795   4.072
 5010SOL    HW115929   3.150   3.852   4.039
 5010SOL    HW215930   3.042   3.831   4.160
 5011SOL     OW15931   1.911   3.286   2.211
 5011SOL    HW115932   1.945   3.257   2.301
 5011SOL    HW215933   1.976   3.349   2.170
 5012SOL     OW15934   6.343   3.001   6.034
 5012SOL    HW115935   6.390   3.078   5.991
 5012SOL    HW215936   6.304   3.030   6.122
 5013SOL     OW15937   4.302   0.535   6.310
 5013SOL    HW115938   4.215   0.490   6.292
 5013SOL    HW215939   4.377   0.472   6.288
 5014SOL     OW15940   6.325   6.004   0.919
 5014SOL    HW115941   6.309   5.927   0.857
 5014SOL    HW215942   6.412   6.047   0.897
 5015SOL     OW15943   4.454   1.830   3.967
 5015SOL    HW115944   4.374   1.886   3.946
 5015SOL    HW215945   4.536   1.886   3.961
 5016SOL     OW15946   2.153   1.230   2.947
 5016SOL    HW115947   2.159   1.140   2.902
 5016SOL    HW215948   2.236   1.282   2.926
 5017SOL     OW15949   2.234   2.485   0.602
 5017SOL    HW115950   2.199   2.435   0.523
 5017SOL    HW215951   2.228   2.428   0.684
 5018SOL     OW15952   0.610   4.074   2.116
 5018SOL    HW115953   0.602   4.164   2.157
 5018SOL    HW215954   0.702   4.061   2.080
 5019SOL     OW15955   1.874   4.391   0.297
 5019SOL    HW115956   1.961   4.419   0.259
 5019SOL    HW215957   1.882   4.380   0.396
 5020SOL     OW15958   5.944   5.904   5.572
 5020SOL    HW115959   5.993   5.852   5.642
 5020SOL    HW215960   5.939   5.851   5.488
 5021SOL     OW15961   1.114   4.463   6.333
 5021SOL    HW115962   1.073   4.425   6.415
 5021SOL    HW215963   1.042   4.483   6.266
 5022SOL     OW15964   1.770   6.809   0.387
 5022SOL    HW115965   1.825   6.726   0.378
 5022SOL    HW215966   1.781   6.865   0.305
 5023SOL     OW15967   6.401   2.443   1.243
 5023SOL    HW115968   6.341   2.521   1.261
 5023SOL    HW215969   6.459   2.427   1.323
 5024SOL     OW15970   6.749   4.081   2.710
 5024SOL    HW115971   6.709   4.054   2.622
 5024SOL    HW215972   6.719   4.174   2.733
 5025SOL     OW15973   4.610   2.007   2.346
 5025SOL    HW115974   4.604   2.074   2.420
 5025SOL    HW215975   4.661   2.047   2.269
 5026SOL     OW15976   6.340   5.946   5.887
 5026SOL    HW115977   6.282   5.865   5.884
 5026SOL    HW215978   6.348   5.978   5.981
 5027SOL     OW15979   0.845   6.996   3.115
 5027SOL    HW115980   0.917   6.956   3.171
 5027SOL    HW215981   0.764   6.937   3.118
 5028SOL     OW15982   0.533   5.777   1.907
 5028SOL    HW115983   0.477   5.768   1.825
 5028SOL    HW215984   0.590   5.695   1.918
 5029SOL     OW15985   6.868   2.972   2.591
 5029SOL    HW115986   6.884   3.064   2.628
 5029SOL    HW215987   6.781   2.937   2.625
 5030SOL     OW15988   0.046   0.017   0.073
 5030SOL    HW115989   0.102   6.955   0.060
 5030SOL    HW215990   0.024   0.058   7.003
 5031SOL     OW15991   6.080   1.045   4.495
 5031SOL    HW115992   6.011   1.107   4.532
 5031SOL    HW215993   6.050   1.009   4.407
 5032SOL     OW15994   1.159   4.860   0.758
 5032SOL    HW115995   1.254   4.831   0.756
 5032SOL    HW215996   1.105   4.799   0.699
 5033SOL     OW15997   2.865   5.399   5.365
 5033SOL    HW115998   2.836   5.487   5.328
 5033SOL    HW215999   2.809   5.326   5.326
 5034SOL     OW16000   6.613   3.311   1.570
 5034SOL    HW116001   6.516   3.289   1.555
 5034SOL    HW216002   6.634   3.299   1.667
 5035SOL     OW16003   5.343   5.089   0.899
 5035SOL    HW116004   5.390   5.138   0.826
 5035SOL    HW216005   5.396   5.008   0.924
 5036SOL     OW16006   1.552   6.150   6.250
 5036SOL    HW116007   1.481   6.089   6.214
 5036SOL    HW216008   1.642   6.111   6.229
 5037SOL     OW16009   4.211   1.936   3.439
 5037SOL    HW116010   4.205   1.881   3.355
 5037SOL    HW216011   4.302   1.926   3.478
 5038SOL     OW16012   1.459   6.162   5.839
 5038SOL    HW116013   1.361   6.174   5.854
 5038SOL    HW216014   1.474   6.114   5.753
 5039SOL     OW16015   2.126   3.132   4.966
 5039SOL    HW116016   2.148   3.228   4.984
 5039SOL    HW216017   2.202   3.074   4.996
 5040SOL     OW16018   2.470   3.489   6.673
 5040SOL    HW116019   2.564   3.457   6.656
 5040SOL    HW216020   2.444   3.467   6.767
 5041SOL     OW16021   0.689   3.943   1.291
 5041SOL    HW116022   0.668   4.036   1.323
 5041SOL    HW216023   0.774   3.912   1.334
 5042SOL     OW16024   6.477   2.868   6.932
 5042SOL    HW116025   6.483   2.793   6.866
 5042SOL    HW216026   6.389   2.914   6.922
 5043SOL     OW16027   3.649   1.604   5.192
 5043SOL    HW116028   3.656   1.692   5.145
 5043SOL    HW216029   3.711   1.538   5.150
 5044SOL     OW16030   5.967   6.202   3.821
 5044SOL    HW116031   5.956   6.288   3.871
 5044SOL    HW216032   5.901   6.199   3.746
 5045SOL     OW16033   5.488   3.347   0.519
 5045SOL    HW116034   5.560   3.413   0.543
 5045SOL    HW216035   5.489   3.271   0.583
 5046SOL     OW16036   3.531   2.900   4.908
 5046SOL    HW116037   3.624   2.936   4.911
 5046SOL    HW216038   3.508   2.859   4.996
 5047SOL     OW16039   5.830   1.134   2.465
 5047SOL    HW116040   5.782   1.072   2.528
 5047SOL    HW216041   5.835   1.225   2.504
 5048SOL     OW16042   6.645   2.478   2.264
 5048SOL    HW116043   6.583   2.534   2.317
 5048SOL    HW216044   6.649   2.386   2.303
 5049SOL     OW16045   0.282   1.347   2.962
 5049SOL    HW116046   0.353   1.332   2.892
 5049SOL    HW216047   0.259   1.259   3.004
 5050SOL     OW16048   0.135   1.665   1.885
 5050SOL    HW116049   0.193   1.638   1.962
 5050SOL    HW216050   0.095   1.583   1.843
 5051SOL     OW16051   3.032   4.094   1.324
 5051SOL    HW116052   3.029   3.996   1.346
 5051SOL    HW216053   3.080   4.143   1.397
 5052SOL     OW16054   3.565   4.579   0.638
 5052SOL    HW116055   3.650   4.552   0.591
 5052SOL    HW216056   3.513   4.497   0.663
 5053SOL     OW16057   2.111   4.245   2.301
 5053SOL    HW116058   2.041   4.279   2.364
 5053SOL    HW216059   2.076   4.247   2.208
 5054SOL     OW16060   3.677   5.808   5.392
 5054SOL    HW116061   3.696   5.773   5.484
 5054SOL    HW216062   3.607   5.752   5.349
 5055SOL     OW16063   0.629   2.074   5.075
 5055SOL    HW116064   0.554   2.008   5.079
 5055SOL    HW216065   0.706   2.034   5.024
 5056SOL     OW16066   0.188   3.975   6.716
 5056SOL    HW116067   0.212   4.028   6.635
 5056SOL    HW216068   0.157   3.884   6.689
 5057SOL     OW16069   1.092   5.088   2.978
 5057SOL    HW116070   1.159   5.018   2.957
 5057SOL    HW216071   1.128   5.178   2.954
 5058SOL     OW16072   3.538   3.910   0.007
 5058SOL    HW116073   3.479   3.875   6.953
 5058SOL    HW216074   3.633   3.888   7.004
 5059SOL     OW16075   4.552   2.457   4.496
 5059SOL    HW116076   4.561   2.555   4.477
 5059SOL    HW216077   4.540   2.444   4.595
 5060SOL     OW16078   6.812   2.971   5.361
 5060SOL    HW116079   6.827   2.896   5.425
 5060SOL    HW216080   6.780   3.052   5.410
 5061SOL     OW16081   2.863   3.404   4.390
 5061SOL    HW116082   2.874   3.502   4.406
 5061SOL    HW216083   2.879   3.384   4.293
 5062SOL     OW16084   5.072   1.747   2.566
 5062SOL    HW116085   5.063   1.847   2.563
 5062SOL    HW216086   5.150   1.722   2.623
 5063SOL     OW16087   1.617   6.715   1.510
 5063SOL    HW116088   1.644   6.702   1.606
 5063SOL    HW216089   1.518   6.704   1.502
 5064SOL     OW16090   4.579   5.004   0.998
 5064SOL    HW116091   4.581   4.924   0.938
 5064SOL    HW216092   4.637   5.076   0.960
 5065SOL     OW16093   1.403   0.454   3.365
 5065SOL    HW116094   1.367   0.484   3.277
 5065SOL    HW216095   1.488   0.503   3.384
 5066SOL     OW16096   2.290   4.045   1.980
 5066SOL    HW116097   2.325   4.039   1.887
 5066SOL    HW216098   2.256   3.956   2.009
 5067SOL     OW16099   3.976   1.969   1.930
 5067SOL    HW116100   3.887   1.927   1.950
 5067SOL    HW216101   4.048   1.907   1.961
 5068SOL     OW16102   3.324   5.926   0.383
 5068SOL    HW116103   3.347   5.999   0.447
 5068SOL    HW216104   3.229   5.898   0.397
 5069SOL     OW16105   2.240   3.373   5.827
 5069SOL    HW116106   2.278   3.316   5.901
 5069SOL    HW216107   2.141   3.362   5.825
 5070SOL     OW16108   5.836   3.319   4.031
 5070SOL    HW116109   5.849   3.277   3.941
 5070SOL    HW216110   5.867   3.257   4.102
 5071SOL     OW16111   3.991   1.813   3.546
 5071SOL    HW116112   3.921   1.858   3.491
 5071SOL    HW216113   4.081   1.848   3.520
 5072SOL     OW16114   1.354   1.063   0.974
 5072SOL    HW116115   1.399   1.055   1.064
 5072SOL    HW216116   1.280   1.130   0.979
 5073SOL     OW16117   2.196   6.453   2.289
 5073SOL    HW116118   2.181   6.356   2.273
 5073SOL    HW216119   2.164   6.478   2.381
 5074SOL     OW16120   3.497   1.609   1.617
 5074SOL    HW116121   3.577   1.669   1.619
 5074SOL    HW216122   3.427   1.644   1.679
 5075SOL     OW16123   0.983   3.023   0.250
 5075SOL    HW116124   1.051   3.031   0.323
 5075SOL    HW216125   1.026   2.985   0.168
 5076SOL     OW16126   5.325   0.413   6.910
 5076SOL    HW116127   5.385   0.486   6.876
 5076SOL    HW216128   5.232   0.429   6.877
 5077SOL     OW16129   1.716   3.708   5.290
 5077SOL    HW116130   1.805   3.734   5.251
 5077SOL    HW216131   1.699   3.611   5.274
 5078SOL     OW16132   0.410   1.356   4.505
 5078SOL    HW116133   0.367   1.284   4.559
 5078SOL    HW216134   0.509   1.354   4.520
 5079SOL     OW16135   2.217   1.616   5.769
 5079SOL    HW116136   2.146   1.545   5.763
 5079SOL    HW216137   2.295   1.580   5.820
 5080SOL     OW16138   6.331   5.465   5.447
 5080SOL    HW116139   6.251   5.416   5.482
 5080SOL    HW216140   6.414   5.430   5.490
 5081SOL     OW16141   2.636   4.972   5.085
 5081SOL    HW116142   2.653   4.876   5.107
 5081SOL    HW216143   2.543   4.997   5.113
 5082SOL     OW16144   4.631   6.707   0.029
 5082SOL    HW116145   4.582   6.702   0.116
 5082SOL    HW216146   4.619   6.622   6.997
 5083SOL     OW16147   2.946   0.860   1.904
 5083SOL    HW116148   3.041   0.830   1.915
 5083SOL    HW216149   2.886   0.801   1.957
 5084SOL     OW16150   0.878   4.843   4.857
 5084SOL    HW116151   0.852   4.758   4.813
 5084SOL    HW216152   0.975   4.861   4.843
 5085SOL     OW16153   1.140   2.477   5.958
 5085SOL    HW116154   1.076   2.523   6.019
 5085SOL    HW216155   1.198   2.415   6.010
 5086SOL     OW16156   0.592   4.342   2.206
 5086SOL    HW116157   0.579   4.380   2.114
 5086SOL    HW216158   0.644   4.407   2.262
 5087SOL     OW16159   6.921   5.364   2.620
 5087SOL    HW116160   6.919   5.281   2.675
 5087SOL    HW216161   6.862   5.353   2.540
 5088SOL     OW16162   4.324   5.766   2.814
 5088SOL    HW116163   4.399   5.736   2.755
 5088SOL    HW216164   4.251   5.803   2.758
 5089SOL     OW16165   5.928   4.334   4.177
 5089SOL    HW116166   5.960   4.408   4.119
 5089SOL    HW216167   5.829   4.338   4.186
 5090SOL     OW16168   2.046   0.286   3.563
 5090SOL    HW116169   2.023   0.209   3.504
 5090SOL    HW216170   1.968   0.349   3.567
 5091SOL     OW16171   6.495   7.006   0.739
 5091SOL    HW116172   6.492   0.086   0.723
 5091SOL    HW216173   6.505   6.988   0.836
 5092SOL     OW16174   4.110   3.491   4.294
 5092SOL    HW116175   4.078   3.526   4.207
 5092SOL    HW216176   4.145   3.397   4.283
 5093SOL     OW16177   2.356   1.500   2.135
 5093SOL    HW116178   2.388   1.418   2.086
 5093SOL    HW216179   2.256   1.503   2.131
 5094SOL     OW16180   2.253   6.221   6.246
 5094SOL    HW116181   2.181   6.259   6.189
 5094SOL    HW216182   2.290   6.139   6.202
 5095SOL     OW16183   0.274   1.733   3.460
 5095SOL    HW116184   0.297   1.649   3.509
 5095SOL    HW216185   0.321   1.810   3.502
 5096SOL     OW16186   5.854   4.699   6.540
 5096SOL    HW116187   5.756   4.703   6.555
 5096SOL    HW216188   5.880   4.769   6.473
 5097SOL     OW16189   6.491   7.004   0.374
 5097SOL    HW116190   6.418   6.992   0.307
 5097SOL    HW216191   6.497   0.082   0.400
 5098SOL     OW16192   3.986   2.260   1.534
 5098SOL    HW116193   4.031   2.348   1.519
 5098SOL    HW216194   3.965   2.250   1.631
 5099SOL     OW16195   0.178   6.354   1.440
 5099SOL    HW116196   0.215   6.262   1.455
 5099SOL    HW216197   0.211   6.414   1.513
 5100SOL     OW16198   4.499   5.593   3.059
 5100SOL    HW116199   4.405   5.562   3.071
 5100SOL    HW216200   4.499   5.689   3.033
 5101SOL     OW16201   4.180   0.514   4.591
 5101SOL    HW116202   4.113   0.567   4.643
 5101SOL    HW216203   4.166   0.530   4.493
 5102SOL     OW16204   5.022   5.298   4.290
 5102SOL    HW116205   4.985   5.343   4.370
 5102SOL    HW216206   5.107   5.250   4.315
 5103SOL     OW16207   0.612   0.703   4.453
 5103SOL    HW116208   0.659   0.710   4.365
 5103SOL    HW216209   0.586   0.795   4.484
 5104SOL     OW16210   3.427   5.882   2.062
 5104SOL    HW116211   3.494   5.810   2.045
 5104SOL    HW216212   3.388   5.913   1.975
 5105SOL     OW16213   3.077   3.209   0.105
 5105SOL    HW116214   3.150   3.273   0.079
 5105SOL    HW216215   3.105   3.116   0.080
 5106SOL     OW16216   3.779   1.680   0.965
 5106SOL    HW116217   3.808   1.739   0.890
 5106SOL    HW216218   3.701   1.625   0.936
 5107SOL     OW16219   5.656   2.916   1.352
 5107SOL    HW116220   5.686   2.982   1.421
 5107SOL    HW216221   5.628   2.831   1.398
 5108SOL     OW16222   4.323   3.964   5.557
 5108SOL    HW116223   4.411   3.998   5.588
 5108SOL    HW216224   4.310   3.870   5.590
 5109SOL     OW16225   1.394   2.432   0.709
 5109SOL    HW116226   1.417   2.419   0.805
 5109SOL    HW216227   1.439   2.514   0.675
 5110SOL     OW16228   0.419   0.020   6.366
 5110SOL    HW116229   0.463   6.962   6.321
 5110SOL    HW216230   0.413   0.097   6.303
 5111SOL     OW16231   1.085   6.874   4.455
 5111SOL    HW116232   1.009   6.810   4.453
 5111SOL    HW216233   1.054   6.963   4.490
 5112SOL     OW16234   0.014   0.641   2.563
 5112SOL    HW116235   0.098   0.695   2.559
 5112SOL    HW216236   6.968   0.685   2.625
 5113SOL     OW16237   1.561   5.722   1.000
 5113SOL    HW116238   1.596   5.638   1.042
 5113SOL    HW216239   1.598   5.801   1.049
 5114SOL     OW16240   3.804   6.720   0.391
 5114SOL    HW116241   3.757   6.800   0.353
 5114SOL    HW216242   3.861   6.679   0.320
 5115SOL     OW16243   1.790   3.583   1.822
 5115SOL    HW116244   1.867   3.647   1.827
 5115SOL    HW216245   1.771   3.561   1.726
 5116SOL     OW16246   2.281   5.952   6.768
 5116SOL    HW116247   2.338   6.001   6.834
 5116SOL    HW216248   2.264   6.010   6.689
 5117SOL     OW16249   0.995   3.495   4.084
 5117SOL    HW116250   1.088   3.506   4.049
 5117SOL    HW216251   0.952   3.585   4.092
 5118SOL     OW16252   6.147   6.634   0.288
 5118SOL    HW116253   6.201   6.586   0.357
 5118SOL    HW216254   6.169   6.598   0.197
 5119SOL     OW16255   4.905   1.363   1.034
 5119SOL    HW116256   4.943   1.455   1.026
 5119SOL    HW216257   4.884   1.344   1.130
 5120SOL     OW16258   4.828   7.018   4.945
 5120SOL    HW116259   4.881   6.933   4.953
 5120SOL    HW216260   4.889   0.074   4.921
 5121SOL     OW16261   3.441   3.772   0.479
 5121SOL    HW116262   3.450   3.853   0.420
 5121SOL    HW216263   3.344   3.751   0.490
 5122SOL     OW16264   3.678   6.133   2.858
 5122SOL    HW116265   3.579   6.126   2.849
 5122SOL    HW216266   3.707   6.085   2.941
 5123SOL     OW16267   5.649   2.602   2.973
 5123SOL    HW116268   5.681   2.565   3.060
 5123SOL    HW216269   5.716   2.581   2.901
 5124SOL     OW16270   1.925   6.225   3.406
 5124SOL    HW116271   1.987   6.234   3.483
 5124SOL    HW216272   1.970   6.177   3.331
 5125SOL     OW16273   0.183   2.063   2.988
 5125SOL    HW116274   0.176   2.143   2.930
 5125SOL    HW216275   0.192   2.091   3.084
 5126SOL     OW16276   1.309   6.225   6.937
 5126SOL    HW116277   1.314   6.269   6.847
 5126SOL    HW216278   1.363   6.277   7.002
 5127SOL     OW16279   1.211   5.389   6.984
 5127SOL    HW116280   1.125   5.375   6.935
 5127SOL    HW216281   1.252   5.476   6.957
 5128SOL     OW16282   6.938   6.121   0.839
 5128SOL    HW116283   6.886   6.093   0.920
 5128SOL    HW216284   6.881   6.110   0.757
 5129SOL     OW16285   5.113   6.497   1.853
 5129SOL    HW116286   5.019   6.529   1.851
 5129SOL    HW216287   5.174   6.568   1.818
 5130SOL     OW16288   0.089   4.811   2.794
 5130SOL    HW116289   0.149   4.809   2.715
 5130SOL    HW216290   0.137   4.851   2.872
 5131SOL     OW16291   1.424   3.353   4.120
 5131SOL    HW116292   1.473   3.439   4.131
 5131SOL    HW216293   1.485   3.277   4.140
 5132SOL     OW16294   4.082   3.151   6.416
 5132SOL    HW116295   4.105   3.058   6.444
 5132SOL    HW216296   4.166   3.203   6.401
 5133SOL     OW16297   3.401   4.770   0.516
 5133SOL    HW116298   3.455   4.701   0.565
 5133SOL    HW216299   3.345   4.821   0.581
 5134SOL     OW16300   0.320   2.820   1.553
 5134SOL    HW116301   0.379   2.848   1.478
 5134SOL    HW216302   0.373   2.817   1.638
 5135SOL     OW16303   6.204   2.000   5.497
 5135SOL    HW116304   6.257   2.085   5.505
 5135SOL    HW216305   6.238   1.947   5.420
 5136SOL     OW16306   5.319   0.585   5.475
 5136SOL    HW116307   5.266   0.559   5.395
 5136SOL    HW216308   5.413   0.606   5.447
 5137SOL     OW16309   5.753   3.154   6.607
 5137SOL    HW116310   5.667   3.196   6.634
 5137SOL    HW216311   5.824   3.175   6.674
 5138SOL     OW16312   3.636   3.126   6.287
 5138SOL    HW116313   3.617   3.040   6.240
 5138SOL    HW216314   3.731   3.154   6.269
 5139SOL     OW16315   1.133   6.787   3.613
 5139SOL    HW116316   1.039   6.780   3.644
 5139SOL    HW216317   1.161   6.883   3.612
 5140SOL     OW16318   2.905   1.628   6.962
 5140SOL    HW116319   2.858   1.554   6.914
 5140SOL    HW216320   3.003   1.623   6.941
 5141SOL     OW16321   6.176   3.256   0.849
 5141SOL    HW116322   6.160   3.184   0.916
 5141SOL    HW216323   6.159   3.220   0.757
 5142SOL     OW16324   5.986   1.597   4.117
 5142SOL    HW116325   5.962   1.633   4.027
 5142SOL    HW216326   5.929   1.640   4.186
 5143SOL     OW16327   0.681   4.330   3.840
 5143SOL    HW116328   0.761   4.329   3.779
 5143SOL    HW216329   0.692   4.259   3.910
 5144SOL     OW16330   1.555   6.602   6.461
 5144SOL    HW116331   1.474   6.583   6.405
 5144SOL    HW216332   1.626   6.643   6.404
 5145SOL     OW16333   2.740   5.366   6.437
 5145SOL    HW116334   2.759   5.426   6.359
 5145SOL    HW216335   2.815   5.372   6.503
 5146SOL     OW16336   4.553   3.695   6.619
 5146SOL    HW116337   4.622   3.709   6.549
 5146SOL    HW216338   4.488   3.625   6.590
 5147SOL     OW16339   0.097   4.044   1.851
 5147SOL    HW116340   0.078   3.948   1.831
 5147SOL    HW216341   0.132   4.089   1.768
 5148SOL     OW16342   0.240   6.279   1.159
 5148SOL    HW116343   0.264   6.335   1.079
 5148SOL    HW216344   0.238   6.337   1.240
 5149SOL     OW16345   6.021   6.926   3.919
 5149SOL    HW116346   6.008   6.838   3.963
 5149SOL    HW216347   6.113   6.930   3.879
 5150SOL     OW16348   1.942   5.719   3.681
 5150SOL    HW116349   1.923   5.634   3.631
 5150SOL    HW216350   1.869   5.784   3.665
 5151SOL     OW16351   5.201   1.022   0.126
 5151SOL    HW116352   5.251   1.017   0.213
 5151SOL    HW216353   5.266   1.037   0.052
 5152SOL     OW16354   2.188   4.801   6.337
 5152SOL    HW116355   2.243   4.882   6.319
 5152SOL    HW216356   2.164   4.757   6.250
 5153SOL     OW16357   2.412   0.910   6.599
 5153SOL    HW116358   2.476   0.969   6.649
 5153SOL    HW216359   2.422   0.926   6.501
 5154SOL     OW16360   1.910   3.045   6.208
 5154SOL    HW116361   1.837   3.090   6.157
 5154SOL    HW216362   1.884   2.950   6.227
 5155SOL     OW16363   4.400   6.766   2.084
 5155SOL    HW116364   4.446   6.775   1.995
 5155SOL    HW216365   4.301   6.761   2.071
 5156SOL     OW16366   6.796   2.395   6.412
 5156SOL    HW116367   6.784   2.446   6.326
 5156SOL    HW216368   6.768   2.300   6.398
 5157SOL     OW16369   4.902   2.649   3.687
 5157SOL    HW116370   4.875   2.578   3.751
 5157SOL    HW216371   4.968   2.612   3.621
 5158SOL     OW16372   3.058   1.526   1.282
 5158SOL    HW116373   3.156   1.514   1.301
 5158SOL    HW216374   3.036   1.624   1.282
 5159SOL     OW16375   0.981   3.674   5.038
 5159SOL    HW116376   0.996   3.755   4.982
 5159SOL    HW216377   0.883   3.654   5.043
 5160SOL     OW16378   1.306   3.819   4.492
 5160SOL    HW116379   1.248   3.772   4.425
 5160SOL    HW216380   1.287   3.783   4.583
 5161SOL     OW16381   1.152   4.310   5.191
 5161SOL    HW116382   1.189   4.403   5.189
 5161SOL    HW216383   1.061   4.309   5.149
 5162SOL     OW16384   0.239   5.323   4.278
 5162SOL    HW116385   0.165   5.255   4.271
 5162SOL    HW216386   0.326   5.276   4.294
 5163SOL     OW16387   4.189   5.071   1.547
 5163SOL    HW116388   4.243   5.149   1.578
 5163SOL    HW216389   4.247   4.990   1.540
 5164SOL     OW16390   5.980   2.567   6.107
 5164SOL    HW116391   5.905   2.611   6.058
 5164SOL    HW216392   6.026   2.503   6.045
 5165SOL     OW16393   5.886   4.473   4.823
 5165SOL    HW116394   5.838   4.473   4.735
 5165SOL    HW216395   5.965   4.534   4.818
 5166SOL     OW16396   1.668   5.236   1.804
 5166SOL    HW116397   1.698   5.310   1.865
 5166SOL    HW216398   1.641   5.275   1.716
 5167SOL     OW16399   6.084   0.185   5.535
 5167SOL    HW116400   6.039   0.102   5.567
 5167SOL    HW216401   6.028   0.227   5.463
 5168SOL     OW16402   5.134   2.533   3.565
 5168SOL    HW116403   5.211   2.542   3.501
 5168SOL    HW216404   5.165   2.490   3.650
 5169SOL     OW16405   3.269   3.111   6.345
 5169SOL    HW116406   3.282   3.197   6.394
 5169SOL    HW216407   3.340   3.046   6.372
 5170SOL     OW16408   6.774   3.987   6.336
 5170SOL    HW116409   6.682   3.996   6.374
 5170SOL    HW216410   6.806   4.077   6.304
 5171SOL     OW16411   2.347   4.654   4.544
 5171SOL    HW116412   2.377   4.713   4.619
 5171SOL    HW216413   2.314   4.567   4.581
 5172SOL     OW16414   1.147   3.203   1.699
 5172SOL    HW116415   1.101   3.272   1.643
 5172SOL    HW216416   1.172   3.125   1.642
 5173SOL     OW16417   5.911   4.222   6.543
 5173SOL    HW116418   5.883   4.132   6.577
 5173SOL    HW216419   5.843   4.256   6.478
 5174SOL     OW16420   1.854   4.897   4.516
 5174SOL    HW116421   1.813   4.847   4.439
 5174SOL    HW216422   1.824   4.856   4.602
 5175SOL     OW16423   2.314   4.303   6.325
 5175SOL    HW116424   2.377   4.375   6.354
 5175SOL    HW216425   2.221   4.341   6.318
 5176SOL     OW16426   3.667   3.076   0.856
 5176SOL    HW116427   3.720   3.014   0.914
 5176SOL    HW216428   3.602   3.023   0.801
 5177SOL     OW16429   5.227   0.581   5.730
 5177SOL    HW116430   5.181   0.498   5.760
 5177SOL    HW216431   5.266   0.567   5.639
 5178SOL     OW16432   2.428   2.446   0.914
 5178SOL    HW116433   2.457   2.537   0.884
 5178SOL    HW216434   2.484   2.377   0.870
 5179SOL     OW16435   4.911   5.858   5.256
 5179SOL    HW116436   4.845   5.826   5.188
 5179SOL    HW216437   4.927   5.956   5.244
 5180SOL     OW16438   3.082   2.749   6.462
 5180SOL    HW116439   3.077   2.815   6.387
 5180SOL    HW216440   3.020   2.673   6.444
 5181SOL     OW16441   3.950   1.347   2.894
 5181SOL    HW116442   3.897   1.327   2.976
 5181SOL    HW216443   3.935   1.276   2.826
 5182SOL     OW16444   5.449   5.021   1.461
 5182SOL    HW116445   5.442   5.119   1.448
 5182SOL    HW216446   5.430   4.999   1.557
 5183SOL     OW16447   4.516   6.769   1.844
 5183SOL    HW116448   4.438   6.766   1.782
 5183SOL    HW216449   4.585   6.833   1.808
 5184SOL     OW16450   0.705   1.949   3.884
 5184SOL    HW116451   0.701   2.020   3.814
 5184SOL    HW216452   0.646   1.872   3.857
 5185SOL     OW16453   4.374   0.399   2.994
 5185SOL    HW116454   4.414   0.478   2.947
 5185SOL    HW216455   4.426   0.317   2.972
 5186SOL     OW16456   6.238   4.122   0.884
 5186SOL    HW116457   6.182   4.201   0.910
 5186SOL    HW216458   6.333   4.140   0.909
 5187SOL     OW16459   6.373   0.867   3.810
 5187SOL    HW116460   6.438   0.943   3.808
 5187SOL    HW216461   6.419   0.784   3.778
 5188SOL     OW16462   0.135   5.354   0.683
 5188SOL    HW116463   0.151   5.269   0.733
 5188SOL    HW216464   0.222   5.400   0.665
 5189SOL     OW16465   4.631   5.157   0.355
 5189SOL    HW116466   4.701   5.163   0.426
 5189SOL    HW216467   4.605   5.249   0.326
 5190SOL     OW16468   1.072   2.066   4.544
 5190SOL    HW116469   1.027   1.999   4.602
 5190SOL    HW216470   1.027   2.155   4.554
 5191SOL     OW16471   3.613   1.154   1.553
 5191SOL    HW116472   3.561   1.079   1.514
 5191SOL    HW216473   3.614   1.146   1.652
 5192SOL     OW16474   4.761   5.681   2.646
 5192SOL    HW116475   4.745   5.728   2.732
 5192SOL    HW216476   4.819   5.738   2.587
 5193SOL     OW16477   4.590   4.414   3.674
 5193SOL    HW116478   4.494   4.435   3.691
 5193SOL    HW216479   4.646   4.495   3.693
 5194SOL     OW16480   5.220   0.341   5.918
 5194SOL    HW116481   5.316   0.367   5.916
 5194SOL    HW216482   5.188   0.340   6.013
 5195SOL     OW16483   6.230   6.665   4.768
 5195SOL    HW116484   6.138   6.643   4.800
 5195SOL    HW216485   6.226   6.694   4.672
 5196SOL     OW16486   0.926   3.988   1.447
 5196SOL    HW116487   0.890   3.997   1.540
 5196SOL    HW216488   1.008   4.044   1.437
 5197SOL     OW16489   1.846   6.214   3.850
 5197SOL    HW116490   1.806   6.301   3.821
 5197SOL    HW216491   1.945   6.216   3.836
 5198SOL     OW16492   2.726   0.086   4.753
 5198SOL    HW116493   2.702   0.173   4.796
 5198SOL    HW216494   2.653   0.058   4.692
 5199SOL     OW16495   2.405   5.351   1.231
 5199SOL    HW116496   2.320   5.322   1.274
 5199SOL    HW216497   2.423   5.294   1.151
 5200SOL     OW16498   1.103   2.397   4.892
 5200SOL    HW116499   1.163   2.468   4.929
 5200SOL    HW216500   1.155   2.342   4.826
 5201SOL     OW16501   5.516   5.374   4.604
 5201SOL    HW116502   5.428   5.365   4.558
 5201SOL    HW216503   5.590   5.364   4.537
 5202SOL     OW16504   5.344   3.141   6.975
 5202SOL    HW116505   5.284   3.094   6.911
 5202SOL    HW216506   5.312   3.125   0.050
 5203SOL     OW16507   1.665   0.450   5.969
 5203SOL    HW116508   1.596   0.378   5.957
 5203SOL    HW216509   1.721   0.429   6.049
 5204SOL     OW16510   3.194   6.872   6.794
 5204SOL    HW116511   3.242   6.917   6.869
 5204SOL    HW216512   3.257   6.859   6.717
 5205SOL     OW16513   6.832   5.400   6.999
 5205SOL    HW116514   6.830   5.360   0.072
 5205SOL    HW216515   6.762   5.356   6.942
 5206SOL     OW16516   0.734   4.653   5.317
 5206SOL    HW116517   0.702   4.679   5.408
 5206SOL    HW216518   0.782   4.730   5.275
 5207SOL     OW16519   6.921   0.065   4.226
 5207SOL    HW116520   6.881   0.045   4.315
 5207SOL    HW216521   6.854   0.113   4.170
 5208SOL     OW16522   4.665   2.808   0.028
 5208SOL    HW116523   4.647   2.797   6.950
 5208SOL    HW216524   4.581   2.792   0.080
 5209SOL     OW16525   4.955   0.157   3.058
 5209SOL    HW116526   4.962   0.064   3.022
 5209SOL    HW216527   4.859   0.180   3.070
 5210SOL     OW16528   5.247   4.103   1.146
 5210SOL    HW116529   5.260   4.199   1.123
 5210SOL    HW216530   5.184   4.096   1.223
 5211SOL     OW16531   4.952   2.171   4.438
 5211SOL    HW116532   5.016   2.157   4.514
 5211SOL    HW216533   4.866   2.207   4.474
 5212SOL     OW16534   1.293   2.151   0.662
 5212SOL    HW116535   1.298   2.183   0.757
 5212SOL    HW216536   1.238   2.215   0.609
 5213SOL     OW16537   3.834   3.721   2.139
 5213SOL    HW116538   3.859   3.677   2.225
 5213SOL    HW216539   3.916   3.763   2.099
 5214SOL     OW16540   4.881   4.411   6.232
 5214SOL    HW116541   4.830   4.391   6.148
 5214SOL    HW216542   4.963   4.463   6.209
 5215SOL     OW16543   6.953   3.100   4.151
 5215SOL    HW116544   0.011   3.163   4.161
 5215SOL    HW216545   6.877   3.145   4.104
 5216SOL     OW16546   5.145   5.474   1.038
 5216SOL    HW116547   5.233   5.427   1.035
 5216SOL    HW216548   5.098   5.450   1.123
 5217SOL     OW16549   3.219   5.384   3.988
 5217SOL    HW116550   3.297   5.335   3.950
 5217SOL    HW216551   3.168   5.428   3.913
 5218SOL     OW16552   0.418   1.518   0.772
 5218SOL    HW116553   0.357   1.452   0.728
 5218SOL    HW216554   0.382   1.610   0.760
 5219SOL     OW16555   3.559   1.419   4.684
 5219SOL    HW116556   3.484   1.420   4.750
 5219SOL    HW216557   3.522   1.418   4.591
 5220SOL     OW16558   1.612   5.239   3.110
 5220SOL    HW116559   1.706   5.232   3.079
 5220SOL    HW216560   1.574   5.147   3.124
 5221SOL     OW16561   0.135   0.215   1.436
 5221SOL    HW116562   0.079   0.149   1.485
 5221SOL    HW216563   0.097   0.229   1.344
 5222SOL     OW16564   3.941   5.276   1.708
 5222SOL    HW116565   3.982   5.191   1.739
 5222SOL    HW216566   3.913   5.330   1.788
 5223SOL     OW16567   0.245   2.266   0.855
 5223SOL    HW116568   0.326   2.289   0.910
 5223SOL    HW216569   0.164   2.308   0.895
 5224SOL     OW16570   0.855   1.538   4.543
 5224SOL    HW116571   0.952   1.561   4.536
 5224SOL    HW216572   0.812   1.547   4.453
 5225SOL     OW16573   6.611   1.625   4.410
 5225SOL    HW116574   6.529   1.681   4.409
 5225SOL    HW216575   6.587   1.529   4.397
 5226SOL     OW16576   0.140   5.425   3.621
 5226SOL    HW116577   0.072   5.355   3.641
 5226SOL    HW216578   0.136   5.449   3.524
 5227SOL     OW16579   0.187   3.725   5.863
 5227SOL    HW116580   0.095   3.691   5.846
 5227SOL    HW216581   0.203   3.808   5.810
 5228SOL     OW16582   1.239   2.633   6.886
 5228SOL    HW116583   1.204   2.669   6.972
 5228SOL    HW216584   1.260   2.708   6.824
 5229SOL     OW16585   3.588   6.001   6.654
 5229SOL    HW116586   3.520   5.982   6.583
 5229SOL    HW216587   3.623   5.915   6.691
 5230SOL     OW16588   6.984   0.470   2.378
 5230SOL    HW116589   6.900   0.416   2.380
 5230SOL    HW216590   6.995   0.518   2.466
 5231SOL     OW16591   5.432   1.589   3.526
 5231SOL    HW116592   5.469   1.652   3.593
 5231SOL    HW216593   5.426   1.634   3.437
 5232SOL     OW16594   1.721   3.939   5.934
 5232SOL    HW116595   1.810   3.978   5.959
 5232SOL    HW216596   1.734   3.873   5.860
 5233SOL     OW16597   3.462   1.145   2.444
 5233SOL    HW116598   3.376   1.176   2.486
 5233SOL    HW216599   3.532   1.216   2.454
 5234SOL     OW16600   2.314   3.252   0.413
 5234SOL    HW116601   2.287   3.162   0.446
 5234SOL    HW216602   2.333   3.248   0.315
 5235SOL     OW16603   2.267   2.356   0.374
 5235SOL    HW116604   2.223   2.266   0.367
 5235SOL    HW216605   2.365   2.344   0.392
 5236SOL     OW16606   2.862   4.897   1.990
 5236SOL    HW116607   2.847   4.949   1.906
 5236SOL    HW216608   2.866   4.799   1.969
 5237SOL     OW16609   1.912   1.812   4.587
 5237SOL    HW116610   1.866   1.869   4.519
 5237SOL    HW216611   1.878   1.835   4.678
 5238SOL     OW16612   1.151   4.485   2.309
 5238SOL    HW116613   1.058   4.515   2.291
 5238SOL    HW216614   1.201   4.558   2.357
 5239SOL     OW16615   3.625   4.126   1.152
 5239SOL    HW116616   3.613   4.027   1.147
 5239SOL    HW216617   3.536   4.171   1.164
 5240SOL     OW16618   2.686   2.813   5.599
 5240SOL    HW116619   2.741   2.835   5.518
 5240SOL    HW216620   2.622   2.739   5.576
 5241SOL     OW16621   1.422   6.205   2.219
 5241SOL    HW116622   1.361   6.276   2.183
 5241SOL    HW216623   1.481   6.245   2.289
 5242SOL     OW16624   5.180   0.411   1.657
 5242SOL    HW116625   5.110   0.467   1.613
 5242SOL    HW216626   5.271   0.447   1.635
 5243SOL     OW16627   2.213   6.235   1.759
 5243SOL    HW116628   2.208   6.335   1.760
 5243SOL    HW216629   2.256   6.203   1.843
 5244SOL     OW16630   4.739   3.440   0.529
 5244SOL    HW116631   4.773   3.426   0.436
 5244SOL    HW216632   4.745   3.355   0.580
 5245SOL     OW16633   3.846   3.995   0.453
 5245SOL    HW116634   3.791   3.987   0.537
 5245SOL    HW216635   3.937   3.958   0.470
 5246SOL     OW16636   6.520   2.458   2.581
 5246SOL    HW116637   6.506   2.381   2.519
 5246SOL    HW216638   6.523   2.543   2.528
 5247SOL     OW16639   3.975   1.331   5.414
 5247SOL    HW116640   3.950   1.413   5.466
 5247SOL    HW216641   4.005   1.357   5.322
 5248SOL     OW16642   6.832   2.032   2.877
 5248SOL    HW116643   6.846   1.955   2.815
 5248SOL    HW216644   6.885   2.017   2.961
 5249SOL     OW16645   1.431   5.203   6.840
 5249SOL    HW116646   1.338   5.203   6.805
 5249SOL    HW216647   1.474   5.291   6.821
 5250SOL     OW16648   1.843   5.666   0.513
 5250SOL    HW116649   1.826   5.661   0.414
 5250SOL    HW216650   1.765   5.627   0.562
 5251SOL     OW16651   0.768   4.616   1.273
 5251SOL    HW116652   0.842   4.610   1.340
 5251SOL    HW216653   0.753   4.712   1.249
 5252SOL     OW16654   2.792   0.050   2.205
 5252SOL    HW116655   2.705   0.033   2.160
 5252SOL    HW216656   2.857   6.996   2.182
 5253SOL     OW16657   5.987   4.346   5.280
 5253SOL    HW116658   6.016   4.356   5.185
 5253SOL    HW216659   5.903   4.398   5.295
 5254SOL     OW16660   5.596   0.462   3.649
 5254SOL    HW116661   5.553   0.455   3.559
 5254SOL    HW216662   5.585   0.376   3.698
 5255SOL     OW16663   5.264   2.308   4.587
 5255SOL    HW116664   5.178   2.265   4.618
 5255SOL    HW216665   5.293   2.265   4.502
 5256SOL     OW16666   5.016   1.512   3.286
 5256SOL    HW116667   5.042   1.562   3.369
 5256SOL    HW216668   4.929   1.464   3.303
 5257SOL     OW16669   4.701   0.110   0.593
 5257SOL    HW116670   4.602   0.100   0.596
 5257SOL    HW216671   4.730   0.133   0.500
 5258SOL     OW16672   5.691   2.017   2.552
 5258SOL    HW116673   5.651   2.036   2.642
 5258SOL    HW216674   5.711   2.104   2.506
 5259SOL     OW16675   4.956   5.460   2.824
 5259SOL    HW116676   4.917   5.548   2.850
 5259SOL    HW216677   5.021   5.473   2.749
 5260SOL     OW16678   3.170   5.207   0.102
 5260SOL    HW116679   3.085   5.158   0.081
 5260SOL    HW216680   3.167   5.298   0.061
 5261SOL     OW16681   0.070   4.652   0.477
 5261SOL    HW116682   6.997   4.639   0.514
 5261SOL    HW216683   0.106   4.564   0.446
 5262SOL     OW16684   2.332   0.779   3.194
 5262SOL    HW116685   2.406   0.828   3.148
 5262SOL    HW216686   2.368   0.731   3.275
 5263SOL     OW16687   2.028   1.473   2.983
 5263SOL    HW116688   2.083   1.552   2.956
 5263SOL    HW216689   2.083   1.389   2.972
 5264SOL     OW16690   6.572   2.012   2.252
 5264SOL    HW116691   6.604   1.974   2.164
 5264SOL    HW216692   6.575   1.940   2.322
 5265SOL     OW16693   5.699   2.960   4.625
 5265SOL    HW116694   5.652   2.911   4.699
 5265SOL    HW216695   5.767   3.022   4.664
 5266SOL     OW16696   2.198   6.721   1.582
 5266SOL    HW116697   2.113   6.726   1.634
 5266SOL    HW216698   2.191   6.652   1.511
 5267SOL     OW16699   4.605   2.276   4.891
 5267SOL    HW116700   4.704   2.271   4.881
 5267SOL    HW216701   4.582   2.296   4.987
 5268SOL     OW16702   5.117   0.706   6.530
 5268SOL    HW116703   5.177   0.710   6.610
 5268SOL    HW216704   5.025   0.679   6.559
 5269SOL     OW16705   0.698   6.589   2.698
 5269SOL    HW116706   0.689   6.594   2.599
 5269SOL    HW216707   0.775   6.645   2.727
 5270SOL     OW16708   5.434   1.679   1.042
 5270SOL    HW116709   5.340   1.702   1.066
 5270SOL    HW216710   5.494   1.755   1.065
 5271SOL     OW16711   6.379   4.642   5.236
 5271SOL    HW116712   6.435   4.560   5.229
 5271SOL    HW216713   6.411   4.711   5.171
 5272SOL     OW16714   3.826   6.145   0.938
 5272SOL    HW116715   3.741   6.092   0.939
 5272SOL    HW216716   3.841   6.186   1.028
 5273SOL     OW16717   0.885   3.079   2.658
 5273SOL    HW116718   0.823   3.095   2.582
 5273SOL    HW216719   0.848   3.006   2.716
 5274SOL     OW16720   5.228   6.536   2.753
 5274SOL    HW116721   5.179   6.608   2.704
 5274SOL    HW216722   5.306   6.575   2.801
 5275SOL     OW16723   2.825   0.927   1.100
 5275SOL    HW116724   2.737   0.962   1.131
 5275SOL    HW216725   2.893   1.000   1.102
 5276SOL     OW16726   2.359   0.509   2.093
 5276SOL    HW116727   2.441   0.565   2.084
 5276SOL    HW216728   2.326   0.483   2.002
 5277SOL     OW16729   2.866   1.047   2.492
 5277SOL    HW116730   2.767   1.043   2.508
 5277SOL    HW216731   2.915   1.029   2.577
 5278SOL     OW16732   4.847   4.607   3.720
 5278SOL    HW116733   4.931   4.553   3.722
 5278SOL    HW216734   4.857   4.681   3.653
 5279SOL     OW16735   2.419   5.540   1.035
 5279SOL    HW116736   2.401   5.488   1.119
 5279SOL    HW216737   2.504   5.508   0.993
 5280SOL     OW16738   2.980   6.249   4.940
 5280SOL    HW116739   3.025   6.333   4.971
 5280SOL    HW216740   2.883   6.267   4.923
 5281SOL     OW16741   6.839   2.214   2.256
 5281SOL    HW116742   6.904   2.288   2.246
 5281SOL    HW216743   6.886   2.133   2.291
 5282SOL     OW16744   2.397   1.402   3.446
 5282SOL    HW116745   2.373   1.308   3.469
 5282SOL    HW216746   2.450   1.442   3.521
 5283SOL     OW16747   5.312   6.430   1.333
 5283SOL    HW116748   5.372   6.480   1.396
 5283SOL    HW216749   5.322   6.332   1.349
 5284SOL     OW16750   5.577   4.435   2.600
 5284SOL    HW116751   5.519   4.496   2.654
 5284SOL    HW216752   5.659   4.412   2.652
 5285SOL     OW16753   3.227   4.983   4.040
 5285SOL    HW116754   3.300   4.932   4.086
 5285SOL    HW216755   3.180   5.041   4.106
 5286SOL     OW16756   2.602   4.215   1.096
 5286SOL    HW116757   2.646   4.290   1.146
 5286SOL    HW216758   2.519   4.188   1.143
 5287SOL     OW16759   2.798   1.699   0.571
 5287SOL    HW116760   2.766   1.765   0.640
 5287SOL    HW216761   2.877   1.649   0.606
 5288SOL     OW16762   3.760   0.386   1.326
 5288SOL    HW116763   3.801   0.461   1.378
 5288SOL    HW216764   3.766   0.406   1.229
 5289SOL     OW16765   0.760   5.292   0.253
 5289SOL    HW116766   0.835   5.346   0.216
 5289SOL    HW216767   0.739   5.217   0.190
 5290SOL     OW16768   3.610   5.795   6.857
 5290SOL    HW116769   3.675   5.784   6.932
 5290SOL    HW216770   3.575   5.705   6.830
 5291SOL     OW16771   2.335   5.359   5.863
 5291SOL    HW116772   2.404   5.296   5.897
 5291SOL    HW216773   2.247   5.339   5.907
 5292SOL     OW16774   5.388   3.432   6.892
 5292SOL    HW116775   5.384   3.333   6.877
 5292SOL    HW216776   5.404   3.450   6.989
 5293SOL     OW16777   1.101   0.963   4.759
 5293SOL    HW116778   1.073   1.039   4.701
 5293SOL    HW216779   1.022   0.928   4.809
 5294SOL     OW16780   5.667   2.795   6.613
 5294SOL    HW116781   5.593   2.802   6.680
 5294SOL    HW216782   5.643   2.847   6.531
 5295SOL     OW16783   5.194   1.243   2.812
 5295SOL    HW116784   5.250   1.201   2.741
 5295SOL    HW216785   5.241   1.323   2.849
 5296SOL     OW16786   1.927   4.806   0.137
 5296SOL    HW116787   1.979   4.765   0.212
 5296SOL    HW216788   1.922   4.905   0.150
 5297SOL     OW16789   2.168   1.590   0.662
 5297SOL    HW116790   2.125   1.648   0.731
 5297SOL    HW216791   2.106   1.581   0.583
 5298SOL     OW16792   6.610   4.864   2.080
 5298SOL    HW116793   6.547   4.807   2.027
 5298SOL    HW216794   6.629   4.948   2.029
 5299SOL     OW16795   2.434   0.910   1.536
 5299SOL    HW116796   2.478   0.970   1.468
 5299SOL    HW216797   2.395   0.966   1.609
 5300SOL     OW16798   0.345   5.637   3.517
 5300SOL    HW116799   0.399   5.556   3.543
 5300SOL    HW216800   0.249   5.612   3.507
 5301SOL     OW16801   4.386   1.637   0.052
 5301SOL    HW116802   4.312   1.702   0.071
 5301SOL    HW216803   4.465   1.660   0.108
 5302SOL     OW16804   0.052   4.567   2.901
 5302SOL    HW116805   0.072   4.653   2.855
 5302SOL    HW216806   7.000   4.517   2.851
 5303SOL     OW16807   6.436   4.720   3.932
 5303SOL    HW116808   6.523   4.741   3.976
 5303SOL    HW216809   6.387   4.651   3.986
 5304SOL     OW16810   4.784   2.117   6.002
 5304SOL    HW116811   4.854   2.186   6.020
 5304SOL    HW216812   4.749   2.128   5.909
 5305SOL     OW16813   2.251   0.559   4.133
 5305SOL    HW116814   2.232   0.540   4.037
 5305SOL    HW216815   2.164   0.572   4.182
 5306SOL     OW16816   2.317   6.453   5.633
 5306SOL    HW116817   2.408   6.478   5.599
 5306SOL    HW216818   2.328   6.386   5.707
 5307SOL     OW16819   4.387   6.595   6.384
 5307SOL    HW116820   4.464   6.607   6.322
 5307SOL    HW216821   4.339   6.682   6.395
 5308SOL     OW16822   6.854   0.238   3.901
 5308SOL    HW116823   6.842   0.296   3.982
 5308SOL    HW216824   6.939   0.186   3.909
 5309SOL     OW16825   3.513   3.537   3.658
 5309SOL    HW116826   3.510   3.463   3.590
 5309SOL    HW216827   3.603   3.581   3.655
 5310SOL     OW16828   5.580   2.689   1.476
 5310SOL    HW116829   5.532   2.605   1.450
 5310SOL    HW216830   5.556   2.713   1.570
 5311SOL     OW16831   2.521   5.540   0.024
 5311SOL    HW116832   2.592   5.487   0.071
 5311SOL    HW216833   2.564   5.607   6.982
 5312SOL     OW16834   1.415   4.637   2.661
 5312SOL    HW116835   1.483   4.587   2.607
 5312SOL    HW216836   1.343   4.671   2.600
 5313SOL     OW16837   0.934   5.758   6.449
 5313SOL    HW116838   0.851   5.789   6.404
 5313SOL    HW216839   1.006   5.827   6.439
 5314SOL     OW16840   4.557   5.501   0.066
 5314SOL    HW116841   4.470   5.551   0.067
 5314SOL    HW216842   4.539   5.403   0.058
 5315SOL     OW16843   5.659   4.064   1.707
 5315SOL    HW116844   5.596   4.125   1.756
 5315SOL    HW216845   5.743   4.054   1.760
 5316SOL     OW16846   6.886   4.925   4.680
 5316SOL    HW116847   6.813   4.859   4.664
 5316SOL    HW216848   6.961   4.909   4.615
 5317SOL     OW16849   5.615   0.612   2.606
 5317SOL    HW116850   5.539   0.670   2.578
 5317SOL    HW216851   5.579   0.526   2.643
 5318SOL     OW16852   0.098   2.814   4.676
 5318SOL    HW116853   0.188   2.825   4.718
 5318SOL    HW216854   0.108   2.795   4.579
 5319SOL     OW16855   5.653   0.055   6.992
 5319SOL    HW116856   5.684   7.016   0.049
 5319SOL    HW216857   5.572   0.106   0.001
 5320SOL     OW16858   5.293   3.565   0.113
 5320SOL    HW116859   5.268   3.651   0.158
 5320SOL    HW216860   5.247   3.559   0.025
 5321SOL     OW16861   2.065   5.778   5.414
 5321SOL    HW116862   2.070   5.679   5.427
 5321SOL    HW216863   2.063   5.798   5.316
 5322SOL     OW16864   4.406   5.773   6.217
 5322SOL    HW116865   4.344   5.848   6.239
 5322SOL    HW216866   4.427   5.722   6.300
 5323SOL     OW16867   3.925   1.863   0.037
 5323SOL    HW116868   3.865   1.867   0.117
 5323SOL    HW216869   3.873   1.836   6.976
 5324SOL     OW16870   4.033   3.043   1.357
 5324SOL    HW116871   3.972   3.116   1.386
 5324SOL    HW216872   4.032   3.035   1.257
 5325SOL     OW16873   4.928   6.557   2.209
 5325SOL    HW116874   4.921   6.650   2.172
 5325SOL    HW216875   4.880   6.494   2.148
 5326SOL     OW16876   6.817   5.604   1.754
 5326SOL    HW116877   6.744   5.539   1.773
 5326SOL    HW216878   6.894   5.585   1.814
 5327SOL     OW16879   6.574   6.677   4.664
 5327SOL    HW116880   6.522   6.721   4.738
 5327SOL    HW216881   6.596   6.746   4.595
 5328SOL     OW16882   3.777   3.836   6.944
 5328SOL    HW116883   3.847   3.849   7.014
 5328SOL    HW216884   3.821   3.830   6.854
 5329SOL     OW16885   0.492   4.528   0.587
 5329SOL    HW116886   0.521   4.448   0.638
 5329SOL    HW216887   0.488   4.607   0.648
 5330SOL     OW16888   3.602   3.845   1.193
 5330SOL    HW116889   3.599   3.891   1.282
 5330SOL    HW216890   3.515   3.800   1.176
 5331SOL     OW16891   4.274   1.856   0.402
 5331SOL    HW116892   4.336   1.779   0.386
 5331SOL    HW216893   4.309   1.912   0.477
 5332SOL     OW16894   6.140   5.412   0.811
 5332SOL    HW116895   6.158   5.499   0.856
 5332SOL    HW216896   6.163   5.337   0.873
 5333SOL     OW16897   1.671   1.384   3.775
 5333SOL    HW116898   1.767   1.388   3.746
 5333SOL    HW216899   1.613   1.371   3.695
 5334SOL     OW16900   4.593   4.344   3.349
 5334SOL    HW116901   4.652   4.263   3.339
 5334SOL    HW216902   4.577   4.361   3.446
 5335SOL     OW16903   0.113   4.905   1.559
 5335SOL    HW116904   0.098   4.998   1.526
 5335SOL    HW216905   0.185   4.862   1.506
 5336SOL     OW16906   2.011   2.010   4.311
 5336SOL    HW116907   2.072   1.995   4.388
 5336SOL    HW216908   2.047   2.083   4.253
 5337SOL     OW16909   6.618   4.486   1.383
 5337SOL    HW116910   6.646   4.478   1.288
 5337SOL    HW216911   6.696   4.465   1.443
 5338SOL     OW16912   6.316   2.977   0.215
 5338SOL    HW116913   6.270   2.916   0.150
 5338SOL    HW216914   6.415   2.967   0.205
 5339SOL     OW16915   6.210   2.408   2.757
 5339SOL    HW116916   6.245   2.435   2.667
 5339SOL    HW216917   6.283   2.365   2.810
 5340SOL     OW16918   5.663   2.981   2.295
 5340SOL    HW116919   5.626   2.889   2.283
 5340SOL    HW216920   5.641   3.014   2.387
 5341SOL     OW16921   4.848   4.707   3.443
 5341SOL    HW116922   4.827   4.671   3.352
 5341SOL    HW216923   4.772   4.765   3.474
 5342SOL     OW16924   6.199   6.970   5.312
 5342SOL    HW116925   6.247   6.927   5.388
 5342SOL    HW216926   6.138   0.021   5.347
 5343SOL     OW16927   3.959   3.643   5.429
 5343SOL    HW116928   3.953   3.732   5.474
 5343SOL    HW216929   3.989   3.654   5.335
 5344SOL     OW16930   0.372   1.565   6.840
 5344SOL    HW116931   0.413   1.520   6.920
 5344SOL    HW216932   0.366   1.663   6.858
 5345SOL     OW16933   5.376   1.096   6.954
 5345SOL    HW116934   5.379   1.184   6.906
 5345SOL    HW216935   5.465   1.078   6.996
 5346SOL     OW16936   2.792   5.413   3.815
 5346SOL    HW116937   2.802   5.349   3.739
 5346SOL    HW216938   2.696   5.440   3.823
 5347SOL     OW16939   6.277   2.287   4.086
 5347SOL    HW116940   6.211   2.278   4.161
 5347SOL    HW216941   6.335   2.367   4.103
 5348SOL     OW16942   5.278   2.075   4.115
 5348SOL    HW116943   5.191   2.091   4.068
 5348SOL    HW216944   5.313   1.985   4.090
 5349SOL     OW16945   1.036   2.865   1.720
 5349SOL    HW116946   1.099   2.880   1.644
 5349SOL    HW216947   0.955   2.815   1.688
 5350SOL     OW16948   1.900   6.507   5.888
 5350SOL    HW116949   1.947   6.581   5.936
 5350SOL    HW216950   1.875   6.435   5.953
 5351SOL     OW16951   0.444   5.511   1.569
 5351SOL    HW116952   0.439   5.591   1.628
 5351SOL    HW216953   0.520   5.522   1.504
 5352SOL     OW16954   1.768   3.970   3.950
 5352SOL    HW116955   1.732   3.994   3.860
 5352SOL    HW216956   1.757   4.047   4.012
 5353SOL     OW16957   4.561   5.512   3.379
 5353SOL    HW116958   4.527   5.461   3.299
 5353SOL    HW216959   4.652   5.478   3.403
 5354SOL     OW16960   3.954   5.521   0.590
 5354SOL    HW116961   3.963   5.467   0.674
 5354SOL    HW216962   4.038   5.514   0.536
 5355SOL     OW16963   5.404   4.980   5.354
 5355SOL    HW116964   5.371   5.074   5.344
 5355SOL    HW216965   5.341   4.918   5.307
 5356SOL     OW16966   0.215   4.441   1.471
 5356SOL    HW116967   0.128   4.392   1.467
 5356SOL    HW216968   0.270   4.417   1.391
 5357SOL     OW16969   4.449   5.023   1.948
 5357SOL    HW116970   4.454   4.941   1.892
 5357SOL    HW216971   4.425   5.101   1.891
 5358SOL     OW16972   4.350   1.350   0.003
 5358SOL    HW116973   4.350   1.450   0.008
 5358SOL    HW216974   4.256   1.317   0.009
 5359SOL     OW16975   1.645   2.015   0.385
 5359SOL    HW116976   1.675   1.983   0.475
 5359SOL    HW216977   1.545   2.016   0.382
 5360SOL     OW16978   5.662   4.585   3.903
 5360SOL    HW116979   5.752   4.614   3.872
 5360SOL    HW216980   5.603   4.569   3.824
 5361SOL     OW16981   3.373   6.420   2.443
 5361SOL    HW116982   3.387   6.509   2.487
 5361SOL    HW216983   3.396   6.348   2.508
 5362SOL     OW16984   5.103   6.917   2.063
 5362SOL    HW116985   5.088   7.013   2.087
 5362SOL    HW216986   5.187   6.885   2.106
 5363SOL     OW16987   5.733   5.458   4.874
 5363SOL    HW116988   5.687   5.534   4.919
 5363SOL    HW216989   5.832   5.465   4.887
 5364SOL     OW16990   4.798   0.782   2.792
 5364SOL    HW116991   4.738   0.794   2.871
 5364SOL    HW216992   4.812   0.870   2.747
 5365SOL     OW16993   3.010   3.465   4.139
 5365SOL    HW116994   2.998   3.377   4.093
 5365SOL    HW216995   2.995   3.539   4.073
 5366SOL     OW16996   6.507   6.817   1.511
 5366SOL    HW116997   6.564   6.738   1.491
 5366SOL    HW216998   6.552   6.874   1.580
 5367SOL     OW16999   6.902   6.420   0.841
 5367SOL    HW117000   6.919   6.322   0.830
 5367SOL    HW217001   6.805   6.438   0.825
 5368SOL     OW17002   6.650   5.528   3.384
 5368SOL    HW117003   6.669   5.625   3.395
 5368SOL    HW217004   6.726   5.484   3.336
 5369SOL     OW17005   2.974   5.332   2.107
 5369SOL    HW117006   2.924   5.320   2.021
 5369SOL    HW217007   3.043   5.403   2.096
 5370SOL     OW17008   3.286   3.879   1.618
 5370SOL    HW117009   3.380   3.849   1.629
 5370SOL    HW217010   3.226   3.799   1.611
 5371SOL     OW17011   7.003   5.182   5.694
 5371SOL    HW117012   0.069   5.131   5.675
 5371SOL    HW217013   0.004   5.279   5.697
 5372SOL     OW17014   0.913   0.612   2.488
 5372SOL    HW117015   0.995   0.642   2.537
 5372SOL    HW217016   0.899   0.514   2.503
 5373SOL     OW17017   4.182   6.866   5.658
 5373SOL    HW117018   4.116   6.937   5.634
 5373SOL    HW217019   4.159   6.828   5.748
 5374SOL     OW17020   2.885   4.967   1.229
 5374SOL    HW117021   2.853   4.956   1.135
 5374SOL    HW217022   2.836   5.042   1.272
 5375SOL     OW17023   0.581   5.902   5.039
 5375SOL    HW117024   0.663   5.849   5.017
 5375SOL    HW217025   0.558   5.890   5.135
 5376SOL     OW17026   1.701   1.624   0.337
 5376SOL    HW117027   1.622   1.665   0.293
 5376SOL    HW217028   1.711   1.661   0.429
 5377SOL     OW17029   2.140   0.576   3.240
 5377SOL    HW117030   2.203   0.641   3.198
 5377SOL    HW217031   2.142   0.586   3.339
 5378SOL     OW17032   5.828   0.828   1.655
 5378SOL    HW117033   5.860   0.919   1.628
 5378SOL    HW217034   5.857   0.810   1.749
 5379SOL     OW17035   0.412   2.944   6.150
 5379SOL    HW117036   0.453   3.035   6.143
 5379SOL    HW217037   0.433   2.891   6.068
 5380SOL     OW17038   4.836   6.963   1.496
 5380SOL    HW117039   4.843   0.040   1.470
 5380SOL    HW217040   4.904   6.942   1.566
 5381SOL     OW17041   4.998   6.703   2.920
 5381SOL    HW117042   5.068   6.722   2.990
 5381SOL    HW217043   4.996   6.779   2.854
 5382SOL     OW17044   3.976   1.740   2.359
 5382SOL    HW117045   4.012   1.781   2.275
 5382SOL    HW217046   4.046   1.741   2.430
 5383SOL     OW17047   1.614   3.165   4.175
 5383SOL    HW117048   1.696   3.166   4.118
 5383SOL    HW217049   1.587   3.071   4.194
 5384SOL     OW17050   4.541   5.874   5.413
 5384SOL    HW117051   4.586   5.806   5.471
 5384SOL    HW217052   4.449   5.842   5.390
 5385SOL     OW17053   6.009   2.686   5.726
 5385SOL    HW117054   5.968   2.653   5.640
 5385SOL    HW217055   6.086   2.627   5.750
 5386SOL     OW17056   6.554   4.313   3.789
 5386SOL    HW117057   6.645   4.292   3.825
 5386SOL    HW217058   6.550   4.291   3.692
 5387SOL     OW17059   2.175   0.999   2.402
 5387SOL    HW117060   2.175   0.904   2.430
 5387SOL    HW217061   2.144   1.006   2.307
 5388SOL     OW17062   0.848   6.859   2.532
 5388SOL    HW117063   0.815   6.780   2.480
 5388SOL    HW217064   0.902   6.827   2.610
 5389SOL     OW17065   4.640   1.850   4.237
 5389SOL    HW117066   4.735   1.866   4.209
 5389SOL    HW217067   4.590   1.937   4.234
 5390SOL     OW17068   6.624   3.521   3.704
 5390SOL    HW117069   6.703   3.499   3.646
 5390SOL    HW217070   6.562   3.581   3.653
 5391SOL     OW17071   2.059   2.513   0.271
 5391SOL    HW117072   2.039   2.511   0.173
 5391SOL    HW217073   2.125   2.441   0.293
 5392SOL     OW17074   5.136   1.608   3.505
 5392SOL    HW117075   5.130   1.701   3.542
 5392SOL    HW217076   5.231   1.579   3.503
 5393SOL     OW17077   3.856   1.157   5.600
 5393SOL    HW117078   3.901   1.208   5.527
 5393SOL    HW217079   3.760   1.184   5.605
 5394SOL     OW17080   2.378   0.340   0.693
 5394SOL    HW117081   2.407   0.252   0.731
 5394SOL    HW217082   2.408   0.346   0.597
 5395SOL     OW17083   5.015   2.367   1.356
 5395SOL    HW117084   5.046   2.375   1.261
 5395SOL    HW217085   4.949   2.440   1.376
 5396SOL     OW17086   6.138   5.533   2.768
 5396SOL    HW117087   6.063   5.576   2.719
 5396SOL    HW217088   6.209   5.506   2.704
 5397SOL     OW17089   6.199   1.261   3.047
 5397SOL    HW117090   6.221   1.215   2.960
 5397SOL    HW217091   6.160   1.195   3.111
 5398SOL     OW17092   4.977   2.497   3.342
 5398SOL    HW117093   4.890   2.545   3.331
 5398SOL    HW217094   5.012   2.512   3.435
 5399SOL     OW17095   1.841   6.827   5.416
 5399SOL    HW117096   1.795   6.762   5.356
 5399SOL    HW217097   1.858   6.912   5.367
 5400SOL     OW17098   3.476   3.250   1.486
 5400SOL    HW117099   3.495   3.155   1.511
 5400SOL    HW217100   3.528   3.311   1.545
 5401SOL     OW17101   5.745   4.445   2.388
 5401SOL    HW117102   5.674   4.448   2.458
 5401SOL    HW217103   5.705   4.464   2.298
 5402SOL     OW17104   2.055   0.215   0.916
 5402SOL    HW117105   2.094   0.223   1.008
 5402SOL    HW217106   2.091   0.288   0.859
 5403SOL     OW17107   4.865   3.489   0.244
 5403SOL    HW117108   4.900   3.397   0.228
 5403SOL    HW217109   4.928   3.541   0.301
 5404SOL     OW17110   6.266   1.099   0.853
 5404SOL    HW117111   6.267   1.071   0.949
 5404SOL    HW217112   6.340   1.053   0.804
 5405SOL     OW17113   5.321   5.526   0.024
 5405SOL    HW117114   5.378   5.608   0.034
 5405SOL    HW217115   5.379   5.445   0.026
 5406SOL     OW17116   2.863   0.205   4.285
 5406SOL    HW117117   2.912   0.243   4.206
 5406SOL    HW217118   2.764   0.210   4.268
 5407SOL     OW17119   2.329   0.642   1.519
 5407SOL    HW117120   2.284   0.654   1.430
 5407SOL    HW217121   2.407   0.705   1.525
 5408SOL     OW17122   2.536   2.443   4.695
 5408SOL    HW117123   2.513   2.385   4.617
 5408SOL    HW217124   2.629   2.423   4.725
 5409SOL     OW17125   0.833   2.619   1.240
 5409SOL    HW117126   0.921   2.591   1.203
 5409SOL    HW217127   0.847   2.671   1.324
 5410SOL     OW17128   0.921   2.165   0.805
 5410SOL    HW117129   0.959   2.237   0.747
 5410SOL    HW217130   0.898   2.086   0.749
 5411SOL     OW17131   3.887   5.191   6.961
 5411SOL    HW117132   3.903   5.215   6.866
 5411SOL    HW217133   3.927   5.100   6.979
 5412SOL     OW17134   0.383   2.041   6.340
 5412SOL    HW117135   0.356   1.979   6.266
 5412SOL    HW217136   0.457   1.998   6.393
 5413SOL     OW17137   6.692   6.572   5.209
 5413SOL    HW117138   6.664   6.570   5.113
 5413SOL    HW217139   6.730   6.483   5.235
 5414SOL     OW17140   6.595   4.347   5.676
 5414SOL    HW117141   6.643   4.332   5.589
 5414SOL    HW217142   6.576   4.258   5.718
 5415SOL     OW17143   3.356   0.392   0.988
 5415SOL    HW117144   3.426   0.391   1.060
 5415SOL    HW217145   3.401   0.391   0.899
 5416SOL     OW17146   3.337   4.821   5.287
 5416SOL    HW117147   3.368   4.823   5.382
 5416SOL    HW217148   3.259   4.759   5.278
 5417SOL     OW17149   4.790   6.007   3.587
 5417SOL    HW117150   4.707   5.958   3.560
 5417SOL    HW217151   4.858   5.941   3.618
 5418SOL     OW17152   6.236   4.218   4.356
 5418SOL    HW117153   6.209   4.136   4.307
 5418SOL    HW217154   6.200   4.215   4.450
 5419SOL     OW17155   3.779   6.853   6.629
 5419SOL    HW117156   3.772   6.754   6.621
 5419SOL    HW217157   3.799   6.892   6.539
 5420SOL     OW17158   1.629   1.310   1.233
 5420SOL    HW117159   1.541   1.358   1.235
 5420SOL    HW217160   1.613   1.212   1.221
 5421SOL     OW17161   3.616   5.005   2.425
 5421SOL    HW117162   3.582   4.934   2.487
 5421SOL    HW217163   3.542   5.034   2.364
 5422SOL     OW17164   2.169   5.997   3.938
 5422SOL    HW117165   2.076   5.972   3.964
 5422SOL    HW217166   2.171   6.091   3.906
 5423SOL     OW17167   6.761   6.088   2.660
 5423SOL    HW117168   6.675   6.135   2.637
 5423SOL    HW217169   6.796   6.123   2.746
 5424SOL     OW17170   4.567   4.209   5.291
 5424SOL    HW117171   4.496   4.139   5.301
 5424SOL    HW217172   4.635   4.177   5.225
 5425SOL     OW17173   0.326   3.613   6.457
 5425SOL    HW117174   0.298   3.707   6.436
 5425SOL    HW217175   0.342   3.564   6.371
 5426SOL     OW17176   5.660   5.322   2.324
 5426SOL    HW117177   5.630   5.232   2.354
 5426SOL    HW217178   5.580   5.383   2.315
 5427SOL     OW17179   4.775   2.473   6.651
 5427SOL    HW117180   4.755   2.386   6.696
 5427SOL    HW217181   4.873   2.489   6.651
 5428SOL     OW17182   6.666   5.223   3.139
 5428SOL    HW117183   6.589   5.167   3.107
 5428SOL    HW217184   6.730   5.238   3.064
 5429SOL     OW17185   2.757   0.232   3.840
 5429SOL    HW117186   2.745   0.225   3.741
 5429SOL    HW217187   2.668   0.235   3.884
 5430SOL     OW17188   2.442   3.751   6.485
 5430SOL    HW117189   2.488   3.838   6.467
 5430SOL    HW217190   2.442   3.734   6.583
 5431SOL     OW17191   3.056   5.144   5.580
 5431SOL    HW117192   3.058   5.063   5.520
 5431SOL    HW217193   2.979   5.137   5.642
 5432SOL     OW17194   5.641   5.956   1.385
 5432SOL    HW117195   5.630   6.046   1.344
 5432SOL    HW217196   5.724   5.913   1.352
 5433SOL     OW17197   1.601   0.146   0.833
 5433SOL    HW117198   1.598   0.050   0.805
 5433SOL    HW217199   1.517   0.168   0.883
 5434SOL     OW17200   4.962   0.796   5.371
 5434SOL    HW117201   4.923   0.751   5.451
 5434SOL    HW217202   4.888   0.820   5.307
 5435SOL     OW17203   6.122   3.923   1.054
 5435SOL    HW117204   6.131   3.980   0.972
 5435SOL    HW217205   6.205   3.932   1.110
 5436SOL     OW17206   1.620   5.234   2.617
 5436SOL    HW117207   1.522   5.235   2.638
 5436SOL    HW217208   1.637   5.289   2.535
 5437SOL     OW17209   3.728   5.731   0.209
 5437SOL    HW117210   3.777   5.818   0.200
 5437SOL    HW217211   3.746   5.692   0.299
 5438SOL     OW17212   4.568   4.394   2.740
 5438SOL    HW117213   4.591   4.462   2.671
 5438SOL    HW217214   4.584   4.302   2.704
 5439SOL     OW17215   0.986   4.621   1.492
 5439SOL    HW117216   1.027   4.543   1.445
 5439SOL    HW217217   0.917   4.588   1.558
 5440SOL     OW17218   5.428   6.187   3.400
 5440SOL    HW117219   5.417   6.148   3.491
 5440SOL    HW217220   5.496   6.260   3.402
 5441SOL     OW17221   4.626   2.430   3.508
 5441SOL    HW117222   4.702   2.414   3.571
 5441SOL    HW217223   4.540   2.432   3.559
 5442SOL     OW17224   5.177   0.146   4.718
 5442SOL    HW117225   5.116   0.118   4.644
 5442SOL    HW217226   5.215   0.065   4.763
 5443SOL     OW17227   4.995   6.983   4.598
 5443SOL    HW117228   4.942   0.048   4.595
 5443SOL    HW217229   4.987   6.934   4.511
 5444SOL     OW17230   0.311   1.021   3.943
 5444SOL    HW117231   0.227   1.057   3.901
 5444SOL    HW217232   0.288   0.980   4.031
 5445SOL     OW17233   5.414   5.727   5.534
 5445SOL    HW117234   5.396   5.630   5.517
 5445SOL    HW217235   5.344   5.783   5.489
 5446SOL     OW17236   0.788   4.323   5.743
 5446SOL    HW117237   0.821   4.312   5.837
 5446SOL    HW217238   0.753   4.236   5.709
 5447SOL     OW17239   1.266   1.394   0.565
 5447SOL    HW117240   1.283   1.301   0.533
 5447SOL    HW217241   1.344   1.425   0.620
 5448SOL     OW17242   3.861   5.922   3.686
 5448SOL    HW117243   3.899   5.902   3.776
 5448SOL    HW217244   3.934   5.917   3.618
 5449SOL     OW17245   3.245   1.606   2.043
 5449SOL    HW117246   3.155   1.648   2.031
 5449SOL    HW217247   3.309   1.675   2.077
 5450SOL     OW17248   4.226   5.664   1.786
 5450SOL    HW117249   4.153   5.696   1.726
 5450SOL    HW217250   4.314   5.670   1.739
 5451SOL     OW17251   1.283   0.503   3.120
 5451SOL    HW117252   1.234   0.589   3.103
 5451SOL    HW217253   1.218   0.427   3.117
 5452SOL     OW17254   2.171   4.657   1.882
 5452SOL    HW117255   2.123   4.689   1.963
 5452SOL    HW217256   2.270   4.664   1.898
 5453SOL     OW17257   5.725   4.253   3.017
 5453SOL    HW117258   5.808   4.210   3.054
 5453SOL    HW217259   5.659   4.182   2.992
 5454SOL     OW17260   6.103   5.375   3.700
 5454SOL    HW117261   6.013   5.405   3.668
 5454SOL    HW217262   6.171   5.398   3.630
 5455SOL     OW17263   0.269   1.838   2.849
 5455SOL    HW117264   0.357   1.869   2.810
 5455SOL    HW217265   0.231   1.910   2.905
 5456SOL     OW17266   5.136   1.160   6.366
 5456SOL    HW117267   5.235   1.156   6.355
 5456SOL    HW217268   5.106   1.089   6.429
 5457SOL     OW17269   6.176   2.120   0.595
 5457SOL    HW117270   6.156   2.023   0.597
 5457SOL    HW217271   6.091   2.172   0.590
 5458SOL     OW17272   5.949   4.621   1.083
 5458SOL    HW117273   5.946   4.720   1.067
 5458SOL    HW217274   5.923   4.573   1.000
 5459SOL     OW17275   2.273   4.456   5.778
 5459SOL    HW117276   2.329   4.375   5.796
 5459SOL    HW217277   2.273   4.475   5.679
 5460SOL     OW17278   1.678   0.194   0.318
 5460SOL    HW117279   1.738   0.186   0.238
 5460SOL    HW217280   1.730   0.171   0.400
 5461SOL     OW17281   6.972   1.292   6.889
 5461SOL    HW117282   6.899   1.224   6.880
 5461SOL    HW217283   0.041   1.245   6.896
 5462SOL     OW17284   4.923   6.133   6.475
 5462SOL    HW117285   4.980   6.051   6.472
 5462SOL    HW217286   4.982   6.214   6.477
 5463SOL     OW17287   0.131   2.768   0.043
 5463SOL    HW117288   0.120   2.818   0.128
 5463SOL    HW217289   0.068   2.804   6.993
 5464SOL     OW17290   6.010   6.477   5.488
 5464SOL    HW117291   6.035   6.385   5.518
 5464SOL    HW217292   5.950   6.471   5.409
 5465SOL     OW17293   0.119   6.334   3.494
 5465SOL    HW117294   0.135   6.425   3.458
 5465SOL    HW217295   0.070   6.279   3.426
 5466SOL     OW17296   5.987   2.716   5.254
 5466SOL    HW117297   5.970   2.698   5.351
 5466SOL    HW217298   5.901   2.724   5.205
 5467SOL     OW17299   5.611   3.449   3.420
 5467SOL    HW117300   5.673   3.417   3.492
 5467SOL    HW217301   5.562   3.530   3.452
 5468SOL     OW17302   6.737   1.832   2.461
 5468SOL    HW117303   6.705   1.781   2.380
 5468SOL    HW217304   6.738   1.771   2.540
 5469SOL     OW17305   1.806   0.895   5.477
 5469SOL    HW117306   1.809   0.892   5.577
 5469SOL    HW217307   1.862   0.821   5.440
 5470SOL     OW17308   3.948   5.421   4.387
 5470SOL    HW117309   3.920   5.418   4.483
 5470SOL    HW217310   4.027   5.482   4.377
 5471SOL     OW17311   5.066   0.114   2.391
 5471SOL    HW117312   5.162   0.114   2.362
 5471SOL    HW217313   5.056   0.171   2.473
 5472SOL     OW17314   3.250   1.467   5.899
 5472SOL    HW117315   3.233   1.517   5.814
 5472SOL    HW217316   3.259   1.369   5.879
 5473SOL     OW17317   1.988   4.431   1.353
 5473SOL    HW117318   1.920   4.409   1.283
 5473SOL    HW217319   2.062   4.484   1.313
 5474SOL     OW17320   0.622   5.474   3.412
 5474SOL    HW117321   0.602   5.556   3.359
 5474SOL    HW217322   0.679   5.498   3.491
 5475SOL     OW17323   0.460   1.824   6.745
 5475SOL    HW117324   0.557   1.808   6.726
 5475SOL    HW217325   0.451   1.905   6.803
 5476SOL     OW17326   2.669   6.497   5.962
 5476SOL    HW117327   2.592   6.557   5.941
 5476SOL    HW217328   2.753   6.538   5.928
 5477SOL     OW17329   2.175   5.230   4.219
 5477SOL    HW117330   2.085   5.214   4.179
 5477SOL    HW217331   2.180   5.186   4.309
 5478SOL     OW17332   5.945   4.880   6.367
 5478SOL    HW117333   6.024   4.819   6.368
 5478SOL    HW217334   5.965   4.960   6.310
 5479SOL     OW17335   4.218   1.838   4.700
 5479SOL    HW117336   4.302   1.875   4.741
 5479SOL    HW217337   4.233   1.821   4.603
 5480SOL     OW17338   6.482   4.438   5.078
 5480SOL    HW117339   6.387   4.457   5.056
 5480SOL    HW217340   6.501   4.341   5.066
 5481SOL     OW17341   4.112   1.073   6.136
 5481SOL    HW117342   4.016   1.092   6.156
 5481SOL    HW217343   4.170   1.141   6.181
 5482SOL     OW17344   3.396   3.716   1.917
 5482SOL    HW117345   3.397   3.792   1.981
 5482SOL    HW217346   3.307   3.670   1.921
 5483SOL     OW17347   6.413   3.265   5.861
 5483SOL    HW117348   6.492   3.206   5.878
 5483SOL    HW217349   6.443   3.349   5.814
 5484SOL     OW17350   6.782   6.153   3.982
 5484SOL    HW117351   6.870   6.141   3.936
 5484SOL    HW217352   6.795   6.147   4.081
 5485SOL     OW17353   3.895   0.013   4.883
 5485SOL    HW117354   3.831   6.988   4.820
 5485SOL    HW217355   3.945   6.961   4.933
 5486SOL     OW17356   1.792   0.484   3.600
 5486SOL    HW117357   1.738   0.405   3.569
 5486SOL    HW217358   1.741   0.534   3.669
 5487SOL     OW17359   6.110   4.612   0.495
 5487SOL    HW117360   6.191   4.596   0.439
 5487SOL    HW217361   6.109   4.547   0.571
 5488SOL     OW17362   4.717   2.191   0.039
 5488SOL    HW117363   4.714   2.252   6.979
 5488SOL    HW217364   4.695   2.098   0.010
 5489SOL     OW17365   1.673   4.202   2.648
 5489SOL    HW117366   1.671   4.224   2.745
 5489SOL    HW217367   1.586   4.158   2.623
 5490SOL     OW17368   3.559   0.333   0.761
 5490SOL    HW117369   3.656   0.326   0.784
 5490SOL    HW217370   3.517   0.243   0.767
 5491SOL     OW17371   1.357   4.923   0.422
 5491SOL    HW117372   1.382   4.827   0.413
 5491SOL    HW217373   1.404   4.963   0.500
 5492SOL     OW17374   1.300   1.780   6.378
 5492SOL    HW117375   1.226   1.814   6.319
 5492SOL    HW217376   1.388   1.805   6.338
 5493SOL     OW17377   3.618   3.021   5.770
 5493SOL    HW117378   3.625   3.076   5.687
 5493SOL    HW217379   3.704   3.026   5.821
 5494SOL     OW17380   6.870   3.482   0.913
 5494SOL    HW117381   6.795   3.477   0.980
 5494SOL    HW217382   6.892   3.577   0.894
 5495SOL     OW17383   3.701   4.004   1.696
 5495SOL    HW117384   3.631   4.070   1.725
 5495SOL    HW217385   3.723   4.020   1.600
 5496SOL     OW17386   3.750   6.061   1.951
 5496SOL    HW117387   3.774   5.995   1.880
 5496SOL    HW217388   3.677   6.022   2.008
 5497SOL     OW17389   0.622   1.853   3.092
 5497SOL    HW117390   0.717   1.854   3.061
 5497SOL    HW217391   0.616   1.804   3.179
 5498SOL     OW17392   4.540   1.144   6.084
 5498SOL    HW117393   4.569   1.151   5.988
 5498SOL    HW217394   4.590   1.069   6.127
 5499SOL     OW17395   0.369   0.816   3.592
 5499SOL    HW117396   0.346   0.724   3.559
 5499SOL    HW217397   0.448   0.811   3.653
 5500SOL     OW17398   2.183   5.541   0.069
 5500SOL    HW117399   2.135   5.533   0.157
 5500SOL    HW217400   2.242   5.461   0.056
 5501SOL     OW17401   2.582   0.316   1.977
 5501SOL    HW117402   2.595   0.374   1.897
 5501SOL    HW217403   2.632   0.354   2.054
 5502SOL     OW17404   5.951   3.833   5.626
 5502SOL    HW117405   5.915   3.921   5.656
 5502SOL    HW217406   6.019   3.848   5.555
 5503SOL     OW17407   1.020   4.696   2.994
 5503SOL    HW117408   0.971   4.610   2.985
 5503SOL    HW217409   1.116   4.684   2.968
 5504SOL     OW17410   3.416   0.536   4.713
 5504SOL    HW117411   3.513   0.556   4.698
 5504SOL    HW217412   3.372   0.521   4.624
 5505SOL     OW17413   2.157   6.129   4.918
 5505SOL    HW117414   2.105   6.213   4.937
 5505SOL    HW217415   2.151   6.068   4.998
 5506SOL     OW17416   6.720   0.611   4.692
 5506SOL    HW117417   6.791   0.545   4.666
 5506SOL    HW217418   6.736   0.697   4.643
 5507SOL     OW17419   2.303   6.127   3.042
 5507SOL    HW117420   2.344   6.045   3.004
 5507SOL    HW217421   2.360   6.207   3.021
 5508SOL     OW17422   2.723   0.469   6.376
 5508SOL    HW117423   2.757   0.429   6.291
 5508SOL    HW217424   2.744   0.566   6.379
 5509SOL     OW17425   6.059   6.072   0.176
 5509SOL    HW117426   5.967   6.032   0.183
 5509SOL    HW217427   6.064   6.153   0.235
 5510SOL     OW17428   4.234   6.830   6.433
 5510SOL    HW117429   4.228   6.913   6.489
 5510SOL    HW217430   4.256   6.855   6.339
 5511SOL     OW17431   1.049   0.573   2.230
 5511SOL    HW117432   0.987   0.600   2.305
 5511SOL    HW217433   1.131   0.531   2.269
 5512SOL     OW17434   6.601   2.205   0.584
 5512SOL    HW117435   6.619   2.286   0.640
 5512SOL    HW217436   6.687   2.161   0.559
 5513SOL     OW17437   4.753   4.429   4.692
 5513SOL    HW117438   4.795   4.493   4.628
 5513SOL    HW217439   4.656   4.451   4.702
 5514SOL     OW17440   6.008   4.859   3.046
 5514SOL    HW117441   5.974   4.891   2.957
 5514SOL    HW217442   5.974   4.919   3.118
 5515SOL     OW17443   6.716   2.675   1.568
 5515SOL    HW117444   6.715   2.751   1.633
 5515SOL    HW217445   6.811   2.650   1.549
 5516SOL     OW17446   1.795   3.024   0.032
 5516SOL    HW117447   1.722   3.059   6.992
 5516SOL    HW217448   1.869   2.989   6.994
 5517SOL     OW17449   3.434   2.381   1.540
 5517SOL    HW117450   3.505   2.319   1.572
 5517SOL    HW217451   3.476   2.458   1.491
 5518SOL     OW17452   5.586   5.137   6.272
 5518SOL    HW117453   5.619   5.070   6.206
 5518SOL    HW217454   5.640   5.130   6.356
 5519SOL     OW17455   5.193   3.731   3.095
 5519SOL    HW117456   5.108   3.724   3.042
 5519SOL    HW217457   5.211   3.644   3.141
 5520SOL     OW17458   1.571   4.070   3.094
 5520SOL    HW117459   1.559   4.132   3.016
 5520SOL    HW217460   1.621   4.117   3.167
 5521SOL     OW17461   4.941   6.142   1.897
 5521SOL    HW117462   4.949   6.157   1.996
 5521SOL    HW217463   5.019   6.183   1.851
 5522SOL     OW17464   2.278   3.584   1.367
 5522SOL    HW117465   2.292   3.565   1.270
 5522SOL    HW217466   2.356   3.551   1.419
 5523SOL     OW17467   3.618   6.927   2.966
 5523SOL    HW117468   3.676   6.937   3.046
 5523SOL    HW217469   3.525   6.957   2.989
 5524SOL     OW17470   0.264   5.570   5.000
 5524SOL    HW117471   0.326   5.576   5.078
 5524SOL    HW217472   0.232   5.476   4.989
 5525SOL     OW17473   6.555   4.956   0.009
 5525SOL    HW117474   6.551   5.046   0.052
 5525SOL    HW217475   6.494   4.893   0.057
 5526SOL     OW17476   6.116   3.831   4.023
 5526SOL    HW117477   6.135   3.743   4.067
 5526SOL    HW217478   6.024   3.862   4.048
 5527SOL     OW17479   0.793   2.872   2.390
 5527SOL    HW117480   0.764   2.810   2.463
 5527SOL    HW217481   0.762   2.836   2.302
 5528SOL     OW17482   0.177   2.441   5.615
 5528SOL    HW117483   0.151   2.440   5.712
 5528SOL    HW217484   0.234   2.521   5.597
 5529SOL     OW17485   2.047   6.997   4.883
 5529SOL    HW117486   1.959   0.023   4.868
 5529SOL    HW217487   2.081   0.000   4.974
 5530SOL     OW17488   0.223   2.394   1.672
 5530SOL    HW117489   0.205   2.432   1.581
 5530SOL    HW217490   0.306   2.338   1.669
 5531SOL     OW17491   4.026   3.339   4.643
 5531SOL    HW117492   4.025   3.345   4.743
 5531SOL    HW217493   4.051   3.428   4.604
 5532SOL     OW17494   1.220   0.979   0.518
 5532SOL    HW117495   1.142   0.964   0.578
 5532SOL    HW217496   1.193   0.960   0.423
 5533SOL     OW17497   2.609   1.000   2.766
 5533SOL    HW117498   2.603   1.088   2.718
 5533SOL    HW217499   2.577   0.927   2.705
 5534SOL     OW17500   0.812   3.002   6.908
 5534SOL    HW117501   0.798   3.094   6.947
 5534SOL    HW217502   0.726   2.968   6.872
 5535SOL     OW17503   6.757   3.365   2.917
 5535SOL    HW117504   6.804   3.279   2.936
 5535SOL    HW217505   6.730   3.367   2.821
 5536SOL     OW17506   2.348   0.830   4.222
 5536SOL    HW117507   2.419   0.838   4.292
 5536SOL    HW217508   2.350   0.737   4.184
 5537SOL     OW17509   3.710   0.550   4.612
 5537SOL    HW117510   3.682   0.639   4.576
 5537SOL    HW217511   3.767   0.563   4.693
 5538SOL     OW17512   4.150   0.207   5.331
 5538SOL    HW117513   4.118   0.171   5.243
 5538SOL    HW217514   4.134   0.306   5.334
 5539SOL     OW17515   0.674   1.860   1.567
 5539SOL    HW117516   0.761   1.814   1.583
 5539SOL    HW217517   0.670   1.942   1.624
 5540SOL     OW17518   4.992   2.985   1.306
 5540SOL    HW117519   4.945   3.023   1.386
 5540SOL    HW217520   5.077   3.035   1.291
 5541SOL     OW17521   5.112   3.278   5.627
 5541SOL    HW117522   5.056   3.356   5.598
 5541SOL    HW217523   5.054   3.197   5.639
 5542SOL     OW17524   5.841   5.589   5.598
 5542SOL    HW117525   5.802   5.522   5.661
 5542SOL    HW217526   5.769   5.628   5.542
 5543SOL     OW17527   2.608   5.725   6.859
 5543SOL    HW117528   2.564   5.702   6.772
 5543SOL    HW217529   2.701   5.759   6.841
 5544SOL     OW17530   5.521   5.240   5.604
 5544SOL    HW117531   5.606   5.281   5.640
 5544SOL    HW217532   5.536   5.209   5.511
 5545SOL     OW17533   4.545   1.377   2.477
 5545SOL    HW117534   4.476   1.349   2.544
 5545SOL    HW217535   4.610   1.440   2.521
 5546SOL     OW17536   0.654   6.696   4.226
 5546SOL    HW117537   0.636   6.728   4.133
 5546SOL    HW217538   0.603   6.612   4.243
 5547SOL     OW17539   3.668   0.940   5.207
 5547SOL    HW117540   3.595   1.005   5.190
 5547SOL    HW217541   3.750   0.968   5.157
 5548SOL     OW17542   6.460   4.162   6.065
 5548SOL    HW117543   6.428   4.088   6.124
 5548SOL    HW217544   6.394   4.238   6.069
 5549SOL     OW17545   4.346   3.230   1.736
 5549SOL    HW117546   4.361   3.151   1.677
 5549SOL    HW217547   4.434   3.273   1.757
 5550SOL     OW17548   2.452   4.490   3.056
 5550SOL    HW117549   2.522   4.505   3.126
 5550SOL    HW217550   2.424   4.579   3.019
 5551SOL     OW17551   1.211   6.537   2.675
 5551SOL    HW117552   1.209   6.472   2.751
 5551SOL    HW217553   1.226   6.487   2.589
 5552SOL     OW17554   6.106   0.741   6.444
 5552SOL    HW117555   6.154   0.689   6.514
 5552SOL    HW217556   6.165   0.814   6.410
 5553SOL     OW17557   4.311   6.795   6.168
 5553SOL    HW117558   4.251   6.751   6.101
 5553SOL    HW217559   4.406   6.790   6.136
 5554SOL     OW17560   4.969   3.318   2.096
 5554SOL    HW117561   4.941   3.354   2.007
 5554SOL    HW217562   4.963   3.218   2.095
 5555SOL     OW17563   1.397   3.316   2.024
 5555SOL    HW117564   1.338   3.356   1.954
 5555SOL    HW217565   1.397   3.374   2.105
 5556SOL     OW17566   6.265   0.598   3.980
 5556SOL    HW117567   6.263   0.645   4.068
 5556SOL    HW217568   6.360   0.593   3.947
 5557SOL     OW17569   3.874   5.416   1.930
 5557SOL    HW117570   3.872   5.515   1.924
 5557SOL    HW217571   3.815   5.385   2.004
 5558SOL     OW17572   3.591   3.286   6.970
 5558SOL    HW117573   3.593   3.380   7.005
 5558SOL    HW217574   3.684   3.255   6.952
 5559SOL     OW17575   1.618   0.506   2.158
 5559SOL    HW117576   1.542   0.443   2.143
 5559SOL    HW217577   1.695   0.456   2.197
 5560SOL     OW17578   0.322   5.651   1.170
 5560SOL    HW117579   0.289   5.558   1.156
 5560SOL    HW217580   0.413   5.660   1.130
 5561SOL     OW17581   2.584   0.503   4.466
 5561SOL    HW117582   2.540   0.593   4.470
 5561SOL    HW217583   2.572   0.464   4.374
 5562SOL     OW17584   4.444   3.336   0.295
 5562SOL    HW117585   4.490   3.247   0.289
 5562SOL    HW217586   4.510   3.409   0.282
 5563SOL     OW17587   2.985   5.316   2.937
 5563SOL    HW117588   3.006   5.289   3.032
 5563SOL    HW217589   2.982   5.416   2.931
 5564SOL     OW17590   4.536   6.946   6.336
 5564SOL    HW117591   4.528   0.022   6.365
 5564SOL    HW217592   4.588   6.895   6.404
 5565SOL     OW17593   3.601   2.652   6.418
 5565SOL    HW117594   3.684   2.704   6.437
 5565SOL    HW217595   3.558   2.626   6.505
 5566SOL     OW17596   2.027   4.339   6.900
 5566SOL    HW117597   2.026   4.249   6.856
 5566SOL    HW217598   2.004   4.409   6.832
 5567SOL     OW17599   0.132   4.072   1.570
 5567SOL    HW117600   0.079   4.148   1.533
 5567SOL    HW217601   0.108   3.988   1.521
 5568SOL     OW17602   4.719   1.250   3.622
 5568SOL    HW117603   4.763   1.241   3.711
 5568SOL    HW217604   4.683   1.343   3.613
 5569SOL     OW17605   1.747   2.053   2.544
 5569SOL    HW117606   1.823   2.115   2.563
 5569SOL    HW217607   1.709   2.020   2.631
 5570SOL     OW17608   5.795   3.820   3.721
 5570SOL    HW117609   5.773   3.866   3.635
 5570SOL    HW217610   5.741   3.861   3.795
 5571SOL     OW17611   6.419   5.649   2.236
 5571SOL    HW117612   6.467   5.631   2.322
 5571SOL    HW217613   6.456   5.733   2.194
 5572SOL     OW17614   1.081   4.508   4.687
 5572SOL    HW117615   1.034   4.543   4.607
 5572SOL    HW217616   1.152   4.572   4.716
 5573SOL     OW17617   1.250   5.812   4.970
 5573SOL    HW117618   1.227   5.869   4.891
 5573SOL    HW217619   1.272   5.870   5.048
 5574SOL     OW17620   0.238   2.720   1.023
 5574SOL    HW117621   0.240   2.713   0.923
 5574SOL    HW217622   0.157   2.673   1.058
 5575SOL     OW17623   6.683   1.179   0.692
 5575SOL    HW117624   6.684   1.202   0.595
 5575SOL    HW217625   6.669   1.262   0.746
 5576SOL     OW17626   1.577   4.565   2.460
 5576SOL    HW117627   1.619   4.475   2.449
 5576SOL    HW217628   1.576   4.613   2.372
 5577SOL     OW17629   2.788   2.511   6.520
 5577SOL    HW117630   2.702   2.464   6.497
 5577SOL    HW217631   2.803   2.586   6.455
 5578SOL     OW17632   3.833   4.014   1.971
 5578SOL    HW117633   3.818   4.027   1.873
 5578SOL    HW217634   3.909   3.951   1.985
 5579SOL     OW17635   0.817   4.042   0.555
 5579SOL    HW117636   0.857   3.976   0.491
 5579SOL    HW217637   0.791   4.124   0.504
 5580SOL     OW17638   4.937   1.981   5.645
 5580SOL    HW117639   4.936   1.953   5.548
 5580SOL    HW217640   5.013   2.043   5.661
 5581SOL     OW17641   1.670   0.639   1.934
 5581SOL    HW117642   1.763   0.668   1.908
 5581SOL    HW217643   1.673   0.596   2.024
 5582SOL     OW17644   3.449   4.106   6.482
 5582SOL    HW117645   3.534   4.124   6.433
 5582SOL    HW217646   3.467   4.102   6.580
 5583SOL     OW17647   4.674   1.066   2.855
 5583SOL    HW117648   4.774   1.073   2.853
 5583SOL    HW217649   4.635   1.150   2.891
 5584SOL     OW17650   6.751   3.877   4.384
 5584SOL    HW117651   6.796   3.790   4.364
 5584SOL    HW217652   6.806   3.952   4.348
 5585SOL     OW17653   5.633   5.573   3.171
 5585SOL    HW117654   5.724   5.555   3.209
 5585SOL    HW217655   5.573   5.495   3.191
 5586SOL     OW17656   0.395   3.841   6.081
 5586SOL    HW117657   0.311   3.825   6.029
 5586SOL    HW217658   0.472   3.797   6.035
 5587SOL     OW17659   4.193   6.790   0.340
 5587SOL    HW117660   4.213   6.860   0.271
 5587SOL    HW217661   4.121   6.729   0.305
 5588SOL     OW17662   2.271   5.442   2.811
 5588SOL    HW117663   2.216   5.513   2.767
 5588SOL    HW217664   2.340   5.408   2.747
 5589SOL     OW17665   6.340   3.777   5.833
 5589SOL    HW117666   6.307   3.854   5.778
 5589SOL    HW217667   6.425   3.804   5.879
 5590SOL     OW17668   0.071   6.019   3.899
 5590SOL    HW117669   0.160   5.979   3.875
 5590SOL    HW217670   0.064   6.110   3.858
 5591SOL     OW17671   6.354   2.041   1.787
 5591SOL    HW117672   6.418   2.017   1.714
 5591SOL    HW217673   6.385   2.124   1.833
 5592SOL     OW17674   2.252   5.409   3.377
 5592SOL    HW117675   2.187   5.472   3.335
 5592SOL    HW217676   2.270   5.438   3.471
 5593SOL     OW17677   0.736   3.264   6.975
 5593SOL    HW117678   0.698   3.238   0.044
 5593SOL    HW217679   0.665   3.258   6.905
 5594SOL     OW17680   5.291   1.146   5.584
 5594SOL    HW117681   5.335   1.126   5.672
 5594SOL    HW217682   5.241   1.065   5.554
 5595SOL     OW17683   0.731   1.752   4.720
 5595SOL    HW117684   0.796   1.827   4.707
 5595SOL    HW217685   0.723   1.699   4.635
 5596SOL     OW17686   4.362   0.650   2.835
 5596SOL    HW117687   4.292   0.609   2.775
 5596SOL    HW217688   4.412   0.720   2.784
 5597SOL     OW17689   4.734   2.850   4.695
 5597SOL    HW117690   4.701   2.921   4.757
 5597SOL    HW217691   4.795   2.890   4.626
 5598SOL     OW17692   5.221   3.561   4.406
 5598SOL    HW117693   5.195   3.636   4.345
 5598SOL    HW217694   5.159   3.559   4.485
 5599SOL     OW17695   0.993   2.023   3.928
 5599SOL    HW117696   1.017   2.001   4.023
 5599SOL    HW217697   0.907   1.979   3.904
 5600SOL     OW17698   1.147   1.296   2.055
 5600SOL    HW117699   1.176   1.213   2.007
 5600SOL    HW217700   1.060   1.328   2.016
 5601SOL     OW17701   2.145   0.927   5.295
 5601SOL    HW117702   2.126   0.968   5.385
 5601SOL    HW217703   2.209   0.851   5.307
 5602SOL     OW17704   6.248   1.702   1.479
 5602SOL    HW117705   6.210   1.670   1.392
 5602SOL    HW217706   6.173   1.717   1.545
 5603SOL     OW17707   5.714   2.061   6.498
 5603SOL    HW117708   5.810   2.034   6.491
 5603SOL    HW217709   5.683   2.049   6.593
 5604SOL     OW17710   6.220   1.783   4.858
 5604SOL    HW117711   6.174   1.782   4.947
 5604SOL    HW217712   6.179   1.713   4.799
 5605SOL     OW17713   0.262   1.225   5.118
 5605SOL    HW117714   0.350   1.193   5.153
 5605SOL    HW217715   0.271   1.320   5.087
 5606SOL     OW17716   4.905   6.633   0.003
 5606SOL    HW117717   4.808   6.649   7.007
 5606SOL    HW217718   4.952   6.627   6.934
 5607SOL     OW17719   5.416   0.795   2.563
 5607SOL    HW117720   5.395   0.809   2.660
 5607SOL    HW217721   5.386   0.874   2.511
 5608SOL     OW17722   4.974   0.221   4.891
 5608SOL    HW117723   5.061   0.200   4.846
 5608SOL    HW217724   4.988   0.294   4.958
 5609SOL     OW17725   3.005   6.539   1.274
 5609SOL    HW117726   3.067   6.527   1.351
 5609SOL    HW217727   2.975   6.450   1.240
 5610SOL     OW17728   4.030   6.504   0.841
 5610SOL    HW117729   4.084   6.508   0.925
 5610SOL    HW217730   3.933   6.510   0.865
 5611SOL     OW17731   1.207   5.377   2.543
 5611SOL    HW117732   1.280   5.347   2.605
 5611SOL    HW217733   1.192   5.307   2.473
 5612SOL     OW17734   3.961   2.186   6.941
 5612SOL    HW117735   3.989   2.278   6.917
 5612SOL    HW217736   3.936   2.183   0.019
 5613SOL     OW17737   5.432   4.109   3.841
 5613SOL    HW117738   5.492   4.175   3.795
 5613SOL    HW217739   5.432   4.128   3.939
 5614SOL     OW17740   4.628   2.311   4.133
 5614SOL    HW117741   4.719   2.273   4.154
 5614SOL    HW217742   4.624   2.407   4.161
 5615SOL     OW17743   0.237   1.534   4.650
 5615SOL    HW117744   0.297   1.470   4.603
 5615SOL    HW217745   0.152   1.545   4.598
 5616SOL     OW17746   2.627   1.939   4.873
 5616SOL    HW117747   2.640   1.919   4.775
 5616SOL    HW217748   2.694   1.887   4.926
 5617SOL     OW17749   3.147   0.467   5.993
 5617SOL    HW117750   3.128   0.430   6.083
 5617SOL    HW217751   3.235   0.432   5.960
 5618SOL     OW17752   0.086   4.407   4.036
 5618SOL    HW117753   0.134   4.323   4.011
 5618SOL    HW217754   7.006   4.391   4.033
 5619SOL     OW17755   2.752   3.963   5.845
 5619SOL    HW117756   2.804   3.882   5.869
 5619SOL    HW217757   2.811   4.027   5.795
 5620SOL     OW17758   4.143   2.890   0.908
 5620SOL    HW117759   4.131   2.791   0.913
 5620SOL    HW217760   4.072   2.935   0.962
 5621SOL     OW17761   1.849   2.186   6.466
 5621SOL    HW117762   1.792   2.236   6.402
 5621SOL    HW217763   1.903   2.118   6.417
 5622SOL     OW17764   4.937   0.677   5.931
 5622SOL    HW117765   4.994   0.718   5.860
 5622SOL    HW217766   4.988   0.670   6.016
 5623SOL     OW17767   2.526   6.199   5.149
 5623SOL    HW117768   2.467   6.119   5.156
 5623SOL    HW217769   2.470   6.280   5.133
 5624SOL     OW17770   0.800   4.537   3.432
 5624SOL    HW117771   0.786   4.627   3.392
 5624SOL    HW217772   0.720   4.512   3.487
 5625SOL     OW17773   6.634   1.408   4.847
 5625SOL    HW117774   6.707   1.341   4.857
 5625SOL    HW217775   6.656   1.470   4.772
 5626SOL     OW17776   2.513   6.344   3.802
 5626SOL    HW117777   2.545   6.421   3.857
 5626SOL    HW217778   2.534   6.258   3.849
 5627SOL     OW17779   0.843   5.411   6.389
 5627SOL    HW117780   0.772   5.469   6.428
 5627SOL    HW217781   0.889   5.459   6.314
 5628SOL     OW17782   1.294   2.748   0.110
 5628SOL    HW117783   1.380   2.791   0.082
 5628SOL    HW217784   1.230   2.818   0.141
 5629SOL     OW17785   3.331   4.003   2.619
 5629SOL    HW117786   3.352   3.907   2.635
 5629SOL    HW217787   3.268   4.035   2.690
 5630SOL     OW17788   1.942   4.690   0.740
 5630SOL    HW117789   2.014   4.737   0.690
 5630SOL    HW217790   1.860   4.748   0.742
 5631SOL     OW17791   4.456   1.566   0.334
 5631SOL    HW117792   4.389   1.502   0.296
 5631SOL    HW217793   4.455   1.559   0.434
 5632SOL     OW17794   3.420   2.426   5.899
 5632SOL    HW117795   3.439   2.467   5.988
 5632SOL    HW217796   3.323   2.402   5.894
 5633SOL     OW17797   6.756   3.476   4.122
 5633SOL    HW117798   6.763   3.392   4.068
 5633SOL    HW217799   6.731   3.553   4.063
 5634SOL     OW17800   2.421   5.476   4.577
 5634SOL    HW117801   2.503   5.474   4.634
 5634SOL    HW217802   2.427   5.404   4.508
 5635SOL     OW17803   2.022   4.121   5.633
 5635SOL    HW117804   2.072   4.148   5.551
 5635SOL    HW217805   1.978   4.033   5.618
 5636SOL     OW17806   3.933   6.706   3.982
 5636SOL    HW117807   3.948   6.798   3.945
 5636SOL    HW217808   3.873   6.655   3.921
 5637SOL     OW17809   4.770   6.719   3.502
 5637SOL    HW117810   4.674   6.697   3.517
 5637SOL    HW217811   4.806   6.661   3.428
 5638SOL     OW17812   6.181   3.541   1.458
 5638SOL    HW117813   6.089   3.553   1.495
 5638SOL    HW217814   6.245   3.602   1.505
 5639SOL     OW17815   0.823   0.551   0.337
 5639SOL    HW117816   0.882   0.608   0.394
 5639SOL    HW217817   0.742   0.525   0.389
 5640SOL     OW17818   3.102   0.386   3.756
 5640SOL    HW117819   3.187   0.437   3.751
 5640SOL    HW217820   3.027   0.443   3.722
 5641SOL     OW17821   0.768   5.374   5.235
 5641SOL    HW117822   0.692   5.318   5.203
 5641SOL    HW217823   0.847   5.316   5.252
 5642SOL     OW17824   2.039   6.849   5.825
 5642SOL    HW117825   2.048   6.838   5.726
 5642SOL    HW217826   2.006   6.940   5.847
 5643SOL     OW17827   4.762   1.755   5.246
 5643SOL    HW117828   4.825   1.685   5.211
 5643SOL    HW217829   4.711   1.794   5.169
 5644SOL     OW17830   3.432   0.189   4.870
 5644SOL    HW117831   3.385   0.277   4.866
 5644SOL    HW217832   3.531   0.204   4.870
 5645SOL     OW17833   6.536   4.269   3.520
 5645SOL    HW117834   6.582   4.198   3.467
 5645SOL    HW217835   6.564   4.359   3.487
 5646SOL     OW17836   1.381   5.409   3.162
 5646SOL    HW117837   1.386   5.488   3.101
 5646SOL    HW217838   1.460   5.350   3.147
 5647SOL     OW17839   5.063   6.725   1.089
 5647SOL    HW117840   5.133   6.672   1.137
 5647SOL    HW217841   4.987   6.666   1.063
 5648SOL     OW17842   1.745   5.689   2.613
 5648SOL    HW117843   1.713   5.643   2.530
 5648SOL    HW217844   1.739   5.627   2.691
 5649SOL     OW17845   0.849   6.679   3.800
 5649SOL    HW117846   0.870   6.581   3.806
 5649SOL    HW217847   0.885   6.725   3.881
 5650SOL     OW17848   1.107   4.875   1.594
 5650SOL    HW117849   1.017   4.918   1.586
 5650SOL    HW217850   1.099   4.778   1.575
 5651SOL     OW17851   1.571   0.936   0.253
 5651SOL    HW117852   1.669   0.930   0.272
 5651SOL    HW217853   1.521   0.874   0.314
 5652SOL     OW17854   6.759   6.046   1.041
 5652SOL    HW117855   6.744   5.953   1.075
 5652SOL    HW217856   6.696   6.064   0.966
 5653SOL     OW17857   0.047   6.054   6.818
 5653SOL    HW117858   6.986   6.065   6.758
 5653SOL    HW217859   0.113   5.994   6.775
 5654SOL     OW17860   0.774   5.610   4.308
 5654SOL    HW117861   0.720   5.665   4.372
 5654SOL    HW217862   0.796   5.664   4.227
 5655SOL     OW17863   7.003   2.998   3.207
 5655SOL    HW117864   0.046   2.965   3.136
 5655SOL    HW217865   6.958   2.920   3.251
 5656SOL     OW17866   6.725   3.779   6.603
 5656SOL    HW117867   6.627   3.792   6.589
 5656SOL    HW217868   6.766   3.863   6.638
 5657SOL     OW17869   5.006   4.143   5.257
 5657SOL    HW117870   4.937   4.149   5.329
 5657SOL    HW217871   5.096   4.128   5.298
 5658SOL     OW17872   2.763   3.391   5.585
 5658SOL    HW117873   2.695   3.465   5.584
 5658SOL    HW217874   2.848   3.425   5.625
 5659SOL     OW17875   3.923   3.735   6.428
 5659SOL    HW117876   3.832   3.776   6.418
 5659SOL    HW217877   3.992   3.806   6.418
 5660SOL     OW17878   4.412   6.506   5.886
 5660SOL    HW117879   4.430   6.503   5.787
 5660SOL    HW217880   4.462   6.583   5.926
 5661SOL     OW17881   1.739   5.642   4.505
 5661SOL    HW117882   1.759   5.671   4.411
 5661SOL    HW217883   1.756   5.544   4.514
 5662SOL     OW17884   2.485   0.309   2.645
 5662SOL    HW117885   2.450   0.298   2.552
 5662SOL    HW217886   2.579   0.342   2.642
 5663SOL     OW17887   2.384   1.995   0.581
 5663SOL    HW117888   2.384   1.895   0.588
 5663SOL    HW217889   2.344   2.023   0.494
 5664SOL     OW17890   6.556   3.300   3.849
 5664SOL    HW117891   6.461   3.295   3.819
 5664SOL    HW217892   6.608   3.357   3.785
 5665SOL     OW17893   1.101   6.308   0.430
 5665SOL    HW117894   1.161   6.262   0.365
 5665SOL    HW217895   1.138   6.399   0.450
 5666SOL     OW17896   6.426   6.966   3.479
 5666SOL    HW117897   6.365   6.900   3.521
 5666SOL    HW217898   6.408   0.038   3.517
 5667SOL     OW17899   1.096   5.271   4.944
 5667SOL    HW117900   1.059   5.362   4.925
 5667SOL    HW217901   1.022   5.203   4.937
 5668SOL     OW17902   6.213   3.044   3.347
 5668SOL    HW117903   6.239   2.957   3.304
 5668SOL    HW217904   6.263   3.119   3.304
 5669SOL     OW17905   6.644   4.918   0.629
 5669SOL    HW117906   6.738   4.936   0.656
 5669SOL    HW217907   6.583   4.981   0.676
 5670SOL     OW17908   1.769   3.112   3.722
 5670SOL    HW117909   1.832   3.189   3.738
 5670SOL    HW217910   1.678   3.148   3.699
 5671SOL     OW17911   6.453   5.796   5.652
 5671SOL    HW117912   6.440   5.876   5.710
 5671SOL    HW217913   6.423   5.714   5.700
 5672SOL     OW17914   5.272   4.093   5.388
 5672SOL    HW117915   5.236   4.142   5.467
 5672SOL    HW217916   5.371   4.093   5.391
 5673SOL     OW17917   0.960   6.470   0.926
 5673SOL    HW117918   0.962   6.451   0.828
 5673SOL    HW217919   0.945   6.386   0.977
 5674SOL     OW17920   2.120   4.626   4.774
 5674SOL    HW117921   2.125   4.539   4.725
 5674SOL    HW217922   2.031   4.635   4.818
 5675SOL     OW17923   4.747   2.411   0.233
 5675SOL    HW117924   4.751   2.326   0.181
 5675SOL    HW217925   4.784   2.396   0.324
 5676SOL     OW17926   2.775   1.937   2.597
 5676SOL    HW117927   2.785   1.975   2.505
 5676SOL    HW217928   2.847   1.869   2.613
 5677SOL     OW17929   0.625   0.552   0.534
 5677SOL    HW117930   0.636   0.643   0.494
 5677SOL    HW217931   0.552   0.555   0.602
 5678SOL     OW17932   4.640   1.150   2.264
 5678SOL    HW117933   4.635   1.072   2.326
 5678SOL    HW217934   4.617   1.234   2.313
 5679SOL     OW17935   5.409   1.197   4.488
 5679SOL    HW117936   5.471   1.187   4.565
 5679SOL    HW217937   5.317   1.220   4.521
 5680SOL     OW17938   2.066   5.326   6.681
 5680SOL    HW117939   2.070   5.423   6.661
 5680SOL    HW217940   1.971   5.296   6.684
 5681SOL     OW17941   0.527   3.781   2.327
 5681SOL    HW117942   0.482   3.868   2.350
 5681SOL    HW217943   0.516   3.717   2.404
 5682SOL     OW17944   2.203   5.603   4.010
 5682SOL    HW117945   2.113   5.563   4.025
 5682SOL    HW217946   2.268   5.564   4.074
 5683SOL     OW17947   3.557   2.423   6.180
 5683SOL    HW117948   3.623   2.497   6.172
 5683SOL    HW217949   3.501   2.436   6.262
 5684SOL     OW17950   1.897   3.641   6.031
 5684SOL    HW117951   1.888   3.730   6.075
 5684SOL    HW217952   1.955   3.649   5.951
 5685SOL     OW17953   2.291   2.112   3.308
 5685SOL    HW117954   2.235   2.075   3.234
 5685SOL    HW217955   2.387   2.109   3.281
 5686SOL     OW17956   3.264   1.289   4.703
 5686SOL    HW117957   3.301   1.198   4.724
 5686SOL    HW217958   3.274   1.348   4.783
 5687SOL     OW17959   1.358   5.996   6.145
 5687SOL    HW117960   1.327   5.930   6.076
 5687SOL    HW217961   1.292   6.071   6.151
 5688SOL     OW17962   1.721   2.894   2.754
 5688SOL    HW117963   1.730   2.818   2.690
 5688SOL    HW217964   1.741   2.980   2.707
 5689SOL     OW17965   2.600   0.776   1.738
 5689SOL    HW117966   2.564   0.817   1.653
 5689SOL    HW217967   2.572   0.680   1.743
 5690SOL     OW17968   1.617   5.402   6.573
 5690SOL    HW117969   1.673   5.323   6.547
 5690SOL    HW217970   1.622   5.416   6.672
 5691SOL     OW17971   3.711   0.996   2.335
 5691SOL    HW117972   3.683   0.906   2.369
 5691SOL    HW217973   3.635   1.061   2.347
 5692SOL     OW17974   4.906   4.713   1.182
 5692SOL    HW117975   4.867   4.633   1.137
 5692SOL    HW217976   4.833   4.770   1.220
 5693SOL     OW17977   4.207   0.171   1.516
 5693SOL    HW117978   4.293   0.217   1.537
 5693SOL    HW217979   4.225   0.083   1.473
 5694SOL     OW17980   0.612   0.241   2.514
 5694SOL    HW117981   0.557   0.304   2.568
 5694SOL    HW217982   0.666   0.183   2.575
 5695SOL     OW17983   1.250   1.373   2.683
 5695SOL    HW117984   1.344   1.377   2.718
 5695SOL    HW217985   1.250   1.399   2.586
 5696SOL     OW17986   1.239   6.923   3.950
 5696SOL    HW117987   1.218   6.831   3.984
 5696SOL    HW217988   1.170   6.950   3.883
 5697SOL     OW17989   5.801   2.238   2.378
 5697SOL    HW117990   5.850   2.262   2.294
 5697SOL    HW217991   5.709   2.208   2.355
 5698SOL     OW17992   1.596   4.340   4.565
 5698SOL    HW117993   1.575   4.405   4.638
 5698SOL    HW217994   1.518   4.280   4.551
 5699SOL     OW17995   2.034   2.837   2.622
 5699SOL    HW117996   1.990   2.863   2.537
 5699SOL    HW217997   2.082   2.750   2.610
 5700SOL     OW17998   6.638   6.896   3.338
 5700SOL    HW117999   6.591   6.927   3.421
 5700SOL    HW218000   6.641   6.796   3.336
 5701SOL     OW18001   6.842   0.516   1.222
 5701SOL    HW118002   6.819   0.554   1.312
 5701SOL    HW218003   6.785   0.559   1.152
 5702SOL     OW18004   1.476   6.552   4.109
 5702SOL    HW118005   1.392   6.606   4.107
 5702SOL    HW218006   1.455   6.460   4.141
 5703SOL     OW18007   6.645   4.159   6.684
 5703SOL    HW118008   6.745   4.155   6.671
 5703SOL    HW218009   6.600   4.122   6.603
 5704SOL     OW18010   4.915   3.809   2.987
 5704SOL    HW118011   4.875   3.895   3.016
 5704SOL    HW218012   4.895   3.738   3.055
 5705SOL     OW18013   5.304   5.786   6.537
 5705SOL    HW118014   5.321   5.692   6.506
 5705SOL    HW218015   5.356   5.804   6.620
 5706SOL     OW18016   5.188   2.737   1.917
 5706SOL    HW118017   5.226   2.683   1.841
 5706SOL    HW218018   5.095   2.706   1.936
 5707SOL     OW18019   6.140   0.454   0.750
 5707SOL    HW118020   6.124   0.516   0.673
 5707SOL    HW218021   6.204   0.496   0.814
 5708SOL     OW18022   5.145   6.318   2.564
 5708SOL    HW118023   5.067   6.260   2.587
 5708SOL    HW218024   5.159   6.385   2.637
 5709SOL     OW18025   0.664   0.645   2.928
 5709SOL    HW118026   0.662   0.700   2.845
 5709SOL    HW218027   0.706   0.556   2.908
 5710SOL     OW18028   3.164   1.796   0.440
 5710SOL    HW118029   3.184   1.773   0.535
 5710SOL    HW218030   3.223   1.742   0.380
 5711SOL     OW18031   5.266   0.426   1.981
 5711SOL    HW118032   5.252   0.522   1.957
 5711SOL    HW218033   5.277   0.372   1.897
 5712SOL     OW18034   6.472   6.613   0.227
 5712SOL    HW118035   6.468   6.660   0.139
 5712SOL    HW218036   6.487   6.681   0.299
 5713SOL     OW18037   3.314   4.986   1.409
 5713SOL    HW118038   3.377   4.934   1.351
 5713SOL    HW218039   3.339   4.974   1.505
 5714SOL     OW18040   6.806   6.128   0.594
 5714SOL    HW118041   6.721   6.169   0.561
 5714SOL    HW218042   6.834   6.054   0.532
 5715SOL     OW18043   6.897   0.455   2.905
 5715SOL    HW118044   6.989   0.490   2.921
 5715SOL    HW218045   6.870   0.396   2.981
 5716SOL     OW18046   0.819   5.851   6.090
 5716SOL    HW118047   0.794   5.929   6.031
 5716SOL    HW218048   0.875   5.787   6.038
 5717SOL     OW18049   2.157   5.394   1.686
 5717SOL    HW118050   2.230   5.452   1.648
 5717SOL    HW218051   2.197   5.309   1.722
 5718SOL     OW18052   1.327   3.461   0.064
 5718SOL    HW118053   1.277   3.375   0.062
 5718SOL    HW218054   1.285   3.523   0.130
 5719SOL     OW18055   2.909   3.807   0.809
 5719SOL    HW118056   2.904   3.846   0.718
 5719SOL    HW218057   2.821   3.818   0.855
 5720SOL     OW18058   1.990   6.330   4.461
 5720SOL    HW118059   2.047   6.315   4.380
 5720SOL    HW218060   1.904   6.371   4.434
 5721SOL     OW18061   5.717   4.502   0.634
 5721SOL    HW118062   5.648   4.564   0.595
 5721SOL    HW218063   5.746   4.437   0.564
 5722SOL     OW18064   6.875   2.349   5.252
 5722SOL    HW118065   6.907   2.313   5.340
 5722SOL    HW218066   6.838   2.441   5.265
 5723SOL     OW18067   4.174   3.663   7.005
 5723SOL    HW118068   4.181   3.744   0.044
 5723SOL    HW218069   4.180   3.580   0.043
 5724SOL     OW18070   5.948   3.180   3.809
 5724SOL    HW118071   6.032   3.169   3.863
 5724SOL    HW218072   5.932   3.097   3.756
 5725SOL     OW18073   6.676   5.068   4.612
 5725SOL    HW118074   6.607   4.999   4.590
 5725SOL    HW218075   6.754   5.025   4.657
 5726SOL     OW18076   6.318   5.151   4.482
 5726SOL    HW118077   6.316   5.242   4.440
 5726SOL    HW218078   6.225   5.118   4.494
 5727SOL     OW18079   0.084   2.513   4.850
 5727SOL    HW118080   0.020   2.569   4.798
 5727SOL    HW218081   0.154   2.571   4.890
 5728SOL     OW18082   5.179   5.807   4.978
 5728SOL    HW118083   5.226   5.895   4.971
 5728SOL    HW218084   5.085   5.818   4.946
 5729SOL     OW18085   1.576   2.004   6.108
 5729SOL    HW118086   1.645   2.075   6.125
 5729SOL    HW218087   1.499   2.016   6.171
 5730SOL     OW18088   6.172   4.091   6.591
 5730SOL    HW118089   6.154   4.162   6.660
 5730SOL    HW218090   6.088   4.070   6.542
 5731SOL     OW18091   0.148   0.311   2.240
 5731SOL    HW118092   0.074   0.369   2.274
 5731SOL    HW218093   0.116   0.218   2.228
 5732SOL     OW18094   0.873   6.679   3.486
 5732SOL    HW118095   0.806   6.605   3.482
 5732SOL    HW218096   0.828   6.766   3.464
 5733SOL     OW18097   4.243   6.472   5.282
 5733SOL    HW118098   4.331   6.426   5.295
 5733SOL    HW218099   4.225   6.533   5.359
 5734SOL     OW18100   1.241   6.805   5.019
 5734SOL    HW118101   1.181   6.852   4.954
 5734SOL    HW218102   1.217   6.708   5.021
 5735SOL     OW18103   2.923   1.404   1.080
 5735SOL    HW118104   2.915   1.309   1.110
 5735SOL    HW218105   2.970   1.457   1.151
 5736SOL     OW18106   0.156   4.560   0.164
 5736SOL    HW118107   0.118   4.509   0.241
 5736SOL    HW218108   0.224   4.504   0.117
 5737SOL     OW18109   5.328   6.488   0.019
 5737SOL    HW118110   5.290   6.524   0.104
 5737SOL    HW218111   5.263   6.425   6.996
 5738SOL     OW18112   1.525   3.370   6.672
 5738SOL    HW118113   1.462   3.330   6.605
 5738SOL    HW218114   1.476   3.438   6.727
 5739SOL     OW18115   1.695   1.096   6.304
 5739SOL    HW118116   1.698   1.153   6.386
 5739SOL    HW218117   1.766   1.127   6.240
 5740SOL     OW18118   4.186   5.791   0.206
 5740SOL    HW118119   4.197   5.702   0.162
 5740SOL    HW218120   4.276   5.833   0.218
 5741SOL     OW18121   6.690   5.560   4.280
 5741SOL    HW118122   6.788   5.573   4.268
 5741SOL    HW218123   6.652   5.517   4.198
 5742SOL     OW18124   5.164   6.477   2.332
 5742SOL    HW118125   5.160   6.415   2.410
 5742SOL    HW218126   5.072   6.500   2.302
 5743SOL     OW18127   3.056   6.966   4.737
 5743SOL    HW118128   2.979   6.946   4.798
 5743SOL    HW218129   3.023   6.980   4.644
 5744SOL     OW18130   4.439   0.545   0.530
 5744SOL    HW118131   4.452   0.480   0.455
 5744SOL    HW218132   4.464   0.637   0.500
 5745SOL     OW18133   2.930   1.580   4.475
 5745SOL    HW118134   2.867   1.618   4.542
 5745SOL    HW218135   3.023   1.584   4.510
 5746SOL     OW18136   4.958   0.553   0.444
 5746SOL    HW118137   4.895   0.619   0.403
 5746SOL    HW218138   4.906   0.476   0.483
 5747SOL     OW18139   0.410   5.339   2.770
 5747SOL    HW118140   0.346   5.266   2.745
 5747SOL    HW218141   0.420   5.402   2.693
 5748SOL     OW18142   1.990   4.603   1.561
 5748SOL    HW118143   1.973   4.551   1.478
 5748SOL    HW218144   2.063   4.559   1.614
 5749SOL     OW18145   2.345   1.193   4.278
 5749SOL    HW118146   2.269   1.170   4.339
 5749SOL    HW218147   2.344   1.131   4.199
 5750SOL     OW18148   5.863   5.042   4.956
 5750SOL    HW118149   5.805   4.991   5.018
 5750SOL    HW218150   5.811   5.117   4.915
 5751SOL     OW18151   2.209   2.476   4.909
 5751SOL    HW118152   2.142   2.521   4.967
 5751SOL    HW218153   2.291   2.533   4.902
 5752SOL     OW18154   6.290   0.795   6.007
 5752SOL    HW118155   6.217   0.767   6.070
 5752SOL    HW218156   6.252   0.857   5.938
 5753SOL     OW18157   3.315   3.314   6.521
 5753SOL    HW118158   3.225   3.355   6.503
 5753SOL    HW218159   3.324   3.295   6.618
 5754SOL     OW18160   5.807   5.437   1.887
 5754SOL    HW118161   5.836   5.387   1.805
 5754SOL    HW218162   5.792   5.533   1.865
 5755SOL     OW18163   2.780   3.588   6.448
 5755SOL    HW118164   2.846   3.622   6.382
 5755SOL    HW218165   2.746   3.664   6.504
 5756SOL     OW18166   6.476   4.623   3.397
 5756SOL    HW118167   6.463   4.637   3.495
 5756SOL    HW218168   6.557   4.566   3.382
 5757SOL     OW18169   6.449   6.146   1.417
 5757SOL    HW118170   6.490   6.237   1.426
 5757SOL    HW218171   6.515   6.077   1.447
 5758SOL     OW18172   2.777   2.360   4.781
 5758SOL    HW118173   2.776   2.355   4.881
 5758SOL    HW218174   2.854   2.307   4.746
 5759SOL     OW18175   5.002   2.238   6.172
 5759SOL    HW118176   5.091   2.191   6.169
 5759SOL    HW218177   5.012   2.323   6.223
 5760SOL     OW18178   1.533   6.244   2.462
 5760SOL    HW118179   1.616   6.299   2.450
 5760SOL    HW218180   1.496   6.259   2.554
 5761SOL     OW18181   5.920   0.067   5.152
 5761SOL    HW118182   5.881   6.995   5.168
 5761SOL    HW218183   6.009   0.058   5.109
 5762SOL     OW18184   5.785   6.922   0.218
 5762SOL    HW118185   5.801   6.871   0.302
 5762SOL    HW218186   5.870   6.962   0.186
 5763SOL     OW18187   0.869   6.697   0.613
 5763SOL    HW118188   0.939   6.749   0.565
 5763SOL    HW218189   0.882   6.599   0.596
 5764SOL     OW18190   5.991   4.387   5.707
 5764SOL    HW118191   5.934   4.467   5.726
 5764SOL    HW218192   6.050   4.405   5.629
 5765SOL     OW18193   6.172   4.214   6.827
 5765SOL    HW118194   6.086   4.179   6.864
 5765SOL    HW218195   6.247   4.154   6.854
 5766SOL     OW18196   3.238   1.329   2.032
 5766SOL    HW118197   3.169   1.287   1.973
 5766SOL    HW218198   3.245   1.427   2.010
 5767SOL     OW18199   1.217   6.321   0.809
 5767SOL    HW118200   1.137   6.262   0.799
 5767SOL    HW218201   1.295   6.266   0.839
 5768SOL     OW18202   7.006   0.569   3.229
 5768SOL    HW118203   6.985   0.665   3.247
 5768SOL    HW218204   0.037   0.562   3.143
 5769SOL     OW18205   2.482   6.703   3.039
 5769SOL    HW118206   2.524   6.613   3.051
 5769SOL    HW218207   2.550   6.774   3.057
 5770SOL     OW18208   6.925   6.888   0.933
 5770SOL    HW118209   6.908   6.831   1.014
 5770SOL    HW218210   6.983   6.965   0.958
 5771SOL     OW18211   1.340   0.490   0.898
 5771SOL    HW118212   1.421   0.522   0.849
 5771SOL    HW218213   1.326   0.547   0.979
 5772SOL     OW18214   5.963   2.259   0.627
 5772SOL    HW118215   5.948   2.293   0.534
 5772SOL    HW218216   5.926   2.324   0.693
 5773SOL     OW18217   5.511   6.576   4.013
 5773SOL    HW118218   5.533   6.541   4.105
 5773SOL    HW218219   5.412   6.573   3.999
 5774SOL     OW18220   2.579   4.519   3.315
 5774SOL    HW118221   2.529   4.433   3.323
 5774SOL    HW218222   2.590   4.560   3.406
 5775SOL     OW18223   0.300   0.296   0.325
 5775SOL    HW118224   0.365   0.282   0.399
 5775SOL    HW218225   0.218   0.241   0.341
 5776SOL     OW18226   5.594   0.824   6.376
 5776SOL    HW118227   5.627   0.848   6.285
 5776SOL    HW218228   5.648   0.872   6.445
 5777SOL     OW18229   5.904   0.776   4.131
 5777SOL    HW118230   5.909   0.805   4.035
 5777SOL    HW218231   5.936   0.682   4.138
 5778SOL     OW18232   1.773   0.455   2.533
 5778SOL    HW118233   1.768   0.394   2.612
 5778SOL    HW218234   1.819   0.408   2.458
 5779SOL     OW18235   3.751   1.099   1.039
 5779SOL    HW118236   3.698   1.020   1.010
 5779SOL    HW218237   3.831   1.109   0.980
 5780SOL     OW18238   6.456   4.725   1.925
 5780SOL    HW118239   6.377   4.731   1.864
 5780SOL    HW218240   6.511   4.645   1.901
 5781SOL     OW18241   1.944   4.122   4.973
 5781SOL    HW118242   1.942   4.023   4.987
 5781SOL    HW218243   1.966   4.141   4.878
 5782SOL     OW18244   1.787   0.989   1.523
 5782SOL    HW118245   1.805   1.085   1.503
 5782SOL    HW218246   1.694   0.979   1.559
 5783SOL     OW18247   1.456   0.355   0.474
 5783SOL    HW118248   1.547   0.314   0.472
 5783SOL    HW218249   1.404   0.326   0.395
 5784SOL     OW18250   0.550   6.376   7.013
 5784SOL    HW118251   0.602   6.430   6.947
 5784SOL    HW218252   0.598   6.290   0.013
 5785SOL     OW18253   1.103   0.910   0.961
 5785SOL    HW118254   1.125   1.003   0.990
 5785SOL    HW218255   1.161   0.845   1.009
 5786SOL     OW18256   1.536   3.449   1.566
 5786SOL    HW118257   1.470   3.438   1.640
 5786SOL    HW218258   1.595   3.369   1.562
 5787SOL     OW18259   6.016   2.879   4.287
 5787SOL    HW118260   6.087   2.904   4.353
 5787SOL    HW218261   5.936   2.844   4.336
 5788SOL     OW18262   3.226   0.620   2.104
 5788SOL    HW118263   3.240   0.612   2.203
 5788SOL    HW218264   3.223   0.716   2.079
 5789SOL     OW18265   3.543   3.622   0.684
 5789SOL    HW118266   3.519   3.527   0.665
 5789SOL    HW218267   3.514   3.680   0.607
 5790SOL     OW18268   5.709   5.202   4.780
 5790SOL    HW118269   5.698   5.296   4.814
 5790SOL    HW218270   5.628   5.149   4.804
 5791SOL     OW18271   3.770   1.346   2.611
 5791SOL    HW118272   3.810   1.433   2.638
 5791SOL    HW218273   3.819   1.271   2.655
 5792SOL     OW18274   4.933   3.251   2.898
 5792SOL    HW118275   4.867   3.302   2.844
 5792SOL    HW218276   4.925   3.277   2.994
 5793SOL     OW18277   6.055   2.783   4.981
 5793SOL    HW118278   6.038   2.785   5.080
 5793SOL    HW218279   6.076   2.876   4.949
 5794SOL     OW18280   2.584   6.729   5.685
 5794SOL    HW118281   2.499   6.776   5.709
 5794SOL    HW218282   2.657   6.759   5.747
 5795SOL     OW18283   0.931   5.083   1.523
 5795SOL    HW118284   0.833   5.104   1.514
 5795SOL    HW218285   0.972   5.078   1.432
 5796SOL     OW18286   4.223   1.526   6.124
 5796SOL    HW118287   4.218   1.435   6.083
 5796SOL    HW218288   4.274   1.587   6.062
 5797SOL     OW18289   4.928   1.802   6.768
 5797SOL    HW118290   4.829   1.784   6.775
 5797SOL    HW218291   4.976   1.748   6.837
 5798SOL     OW18292   1.244   3.588   5.103
 5798SOL    HW118293   1.146   3.600   5.085
 5798SOL    HW218294   1.292   3.673   5.083
 5799SOL     OW18295   1.276   6.540   3.211
 5799SOL    HW118296   1.194   6.577   3.167
 5799SOL    HW218297   1.260   6.532   3.309
 5800SOL     OW18298   0.226   6.994   0.910
 5800SOL    HW118299   0.276   0.004   0.828
 5800SOL    HW218300   0.288   6.989   0.988
 5801SOL     OW18301   2.158   2.674   2.276
 5801SOL    HW118302   2.236   2.647   2.219
 5801SOL    HW218303   2.174   2.645   2.370
 5802SOL     OW18304   6.698   1.715   2.954
 5802SOL    HW118305   6.688   1.717   2.855
 5802SOL    HW218306   6.695   1.809   2.990
 5803SOL     OW18307   1.197   5.400   4.681
 5803SOL    HW118308   1.189   5.470   4.610
 5803SOL    HW218309   1.133   5.420   4.755
 5804SOL     OW18310   5.860   6.430   3.490
 5804SOL    HW118311   5.894   6.436   3.584
 5804SOL    HW218312   5.937   6.434   3.427
 5805SOL     OW18313   2.494   3.162   0.856
 5805SOL    HW118314   2.404   3.141   0.818
 5805SOL    HW218315   2.535   3.238   0.804
 5806SOL     OW18316   0.732   3.242   3.679
 5806SOL    HW118317   0.767   3.159   3.723
 5806SOL    HW218318   0.736   3.230   3.580
 5807SOL     OW18319   1.264   6.147   0.255
 5807SOL    HW118320   1.299   6.189   0.171
 5807SOL    HW218321   1.263   6.048   0.245
 5808SOL     OW18322   5.954   0.509   4.231
 5808SOL    HW118323   5.898   0.428   4.208
 5808SOL    HW218324   5.993   0.497   4.322
 5809SOL     OW18325   0.264   2.667   6.201
 5809SOL    HW118326   0.193   2.604   6.170
 5809SOL    HW218327   0.349   2.617   6.215
 5810SOL     OW18328   4.137   6.808   4.774
 5810SOL    HW118329   4.118   6.906   4.783
 5810SOL    HW218330   4.194   6.792   4.694
 5811SOL     OW18331   3.001   3.221   6.040
 5811SOL    HW118332   3.076   3.155   6.035
 5811SOL    HW218333   2.914   3.173   6.033
 5812SOL     OW18334   5.756   2.707   0.584
 5812SOL    HW118335   5.714   2.649   0.515
 5812SOL    HW218336   5.845   2.669   0.610
 5813SOL     OW18337   4.511   6.038   0.743
 5813SOL    HW118338   4.504   6.129   0.704
 5813SOL    HW218339   4.420   5.997   0.749
 5814SOL     OW18340   5.902   1.868   2.441
 5814SOL    HW118341   5.997   1.898   2.452
 5814SOL    HW218342   5.841   1.932   2.488
 5815SOL     OW18343   6.512   0.744   4.169
 5815SOL    HW118344   6.534   0.718   4.075
 5815SOL    HW218345   6.427   0.798   4.169
 5816SOL     OW18346   0.285   4.315   2.654
 5816SOL    HW118347   0.195   4.312   2.696
 5816SOL    HW218348   0.328   4.225   2.659
 5817SOL     OW18349   5.514   4.256   4.363
 5817SOL    HW118350   5.445   4.262   4.435
 5817SOL    HW218351   5.549   4.347   4.342
 5818SOL     OW18352   1.686   6.822   4.532
 5818SOL    HW118353   1.655   6.807   4.438
 5818SOL    HW218354   1.654   6.911   4.564
 5819SOL     OW18355   3.984   4.946   6.994
 5819SOL    HW118356   4.051   4.879   0.009
 5819SOL    HW218357   3.893   4.921   0.006
 5820SOL     OW18358   5.580   5.076   2.380
 5820SOL    HW118359   5.551   5.107   2.470
 5820SOL    HW218360   5.511   5.013   2.342
 5821SOL     OW18361   6.282   0.947   1.073
 5821SOL    HW118362   6.223   0.901   1.139
 5821SOL    HW218363   6.366   0.977   1.119
 5822SOL     OW18364   1.304   2.506   2.494
 5822SOL    HW118365   1.261   2.581   2.544
 5822SOL    HW218366   1.268   2.502   2.401
 5823SOL     OW18367   2.412   6.495   3.608
 5823SOL    HW118368   2.438   6.437   3.685
 5823SOL    HW218369   2.447   6.456   3.523
 5824SOL     OW18370   1.148   6.887   2.208
 5824SOL    HW118371   1.214   6.817   2.234
 5824SOL    HW218372   1.175   6.928   2.120
 5825SOL     OW18373   6.290   0.383   4.324
 5825SOL    HW118374   6.254   0.360   4.233
 5825SOL    HW218375   6.218   0.372   4.392
 5826SOL     OW18376   0.176   0.329   5.335
 5826SOL    HW118377   0.148   0.323   5.430
 5826SOL    HW218378   0.103   0.371   5.281
 5827SOL     OW18379   1.865   4.225   5.289
 5827SOL    HW118380   1.952   4.230   5.339
 5827SOL    HW218381   1.789   4.241   5.353
 5828SOL     OW18382   4.784   6.920   4.180
 5828SOL    HW118383   4.714   6.861   4.141
 5828SOL    HW218384   4.771   7.014   4.146
 5829SOL     OW18385   2.681   0.659   3.776
 5829SOL    HW118386   2.586   0.660   3.745
 5829SOL    HW218387   2.687   0.605   3.861
 5830SOL     OW18388   3.541   5.634   5.235
 5830SOL    HW118389   3.491   5.639   5.149
 5830SOL    HW218390   3.603   5.556   5.233
 5831SOL     OW18391   1.636   1.360   5.114
 5831SOL    HW118392   1.687   1.310   5.184
 5831SOL    HW218393   1.539   1.337   5.121
 5832SOL     OW18394   3.512   4.843   1.295
 5832SOL    HW118395   3.520   4.818   1.198
 5832SOL    HW218396   3.557   4.931   1.310
 5833SOL     OW18397   4.184   3.567   5.578
 5833SOL    HW118398   4.106   3.609   5.531
 5833SOL    HW218399   4.227   3.500   5.518
 5834SOL     OW18400   6.522   4.569   0.112
 5834SOL    HW118401   6.496   4.543   0.019
 5834SOL    HW218402   6.618   4.600   0.111
 5835SOL     OW18403   5.807   0.698   2.766
 5835SOL    HW118404   5.889   0.690   2.709
 5835SOL    HW218405   5.729   0.658   2.718
 5836SOL     OW18406   4.549   6.891   1.497
 5836SOL    HW118407   4.587   6.822   1.559
 5836SOL    HW218408   4.622   6.929   1.440
 5837SOL     OW18409   3.229   4.076   0.474
 5837SOL    HW118410   3.313   4.058   0.422
 5837SOL    HW218411   3.150   4.076   0.413
 5838SOL     OW18412   2.930   1.809   1.237
 5838SOL    HW118413   2.843   1.760   1.244
 5838SOL    HW218414   2.916   1.905   1.258
 5839SOL     OW18415   1.523   2.600   2.023
 5839SOL    HW118416   1.602   2.559   2.069
 5839SOL    HW218417   1.527   2.578   1.925
 5840SOL     OW18418   0.610   3.346   2.404
 5840SOL    HW118419   0.698   3.383   2.372
 5840SOL    HW218420   0.624   3.254   2.439
 5841SOL     OW18421   4.459   1.036   0.458
 5841SOL    HW118422   4.511   1.107   0.505
 5841SOL    HW218423   4.366   1.031   0.496
 5842SOL     OW18424   2.877   1.380   0.591
 5842SOL    HW118425   2.926   1.302   0.630
 5842SOL    HW218426   2.851   1.443   0.664
 5843SOL     OW18427   1.795   3.269   1.234
 5843SOL    HW118428   1.829   3.216   1.157
 5843SOL    HW218429   1.859   3.343   1.256
 5844SOL     OW18430   0.621   0.716   4.908
 5844SOL    HW118431   0.657   0.639   4.960
 5844SOL    HW218432   0.694   0.782   4.890
 5845SOL     OW18433   0.614   6.346   1.938
 5845SOL    HW118434   0.646   6.267   1.991
 5845SOL    HW218435   0.692   6.393   1.897
 5846SOL     OW18436   6.576   3.798   5.954
 5846SOL    HW118437   6.639   3.722   5.970
 5846SOL    HW218438   6.608   3.879   6.002
 5847SOL     OW18439   2.800   2.924   0.670
 5847SOL    HW118440   2.701   2.911   0.678
 5847SOL    HW218441   2.820   3.021   0.656
 5848SOL     OW18442   2.123   6.251   3.835
 5848SOL    HW118443   2.172   6.305   3.903
 5848SOL    HW218444   2.146   6.283   3.743
 5849SOL     OW18445   1.955   6.154   5.339
 5849SOL    HW118446   1.878   6.121   5.284
 5849SOL    HW218447   1.933   6.243   5.377
 5850SOL     OW18448   1.586   2.492   1.790
 5850SOL    HW118449   1.685   2.484   1.777
 5850SOL    HW218450   1.546   2.542   1.713
 5851SOL     OW18451   5.694   3.553   4.800
 5851SOL    HW118452   5.606   3.522   4.766
 5851SOL    HW218453   5.721   3.637   4.752
 5852SOL     OW18454   5.285   5.141   3.530
 5852SOL    HW118455   5.297   5.082   3.450
 5852SOL    HW218456   5.375   5.164   3.568
 5853SOL     OW18457   3.598   4.929   5.750
 5853SOL    HW118458   3.682   4.940   5.698
 5853SOL    HW218459   3.563   5.019   5.778
 5854SOL     OW18460   2.596   4.598   6.160
 5854SOL    HW118461   2.645   4.551   6.233
 5854SOL    HW218462   2.641   4.685   6.141
 5855SOL     OW18463   2.224   2.460   3.751
 5855SOL    HW118464   2.236   2.390   3.822
 5855SOL    HW218465   2.129   2.460   3.720
 5856SOL     OW18466   1.505   6.883   2.876
 5856SOL    HW118467   1.470   6.806   2.930
 5856SOL    HW218468   1.484   6.969   2.922
 5857SOL     OW18469   0.799   3.519   6.109
 5857SOL    HW118470   0.724   3.580   6.136
 5857SOL    HW218471   0.803   3.513   6.009
 5858SOL     OW18472   2.172   1.783   3.204
 5858SOL    HW118473   2.104   1.852   3.179
 5858SOL    HW218474   2.209   1.741   3.121
 5859SOL     OW18475   6.227   0.056   2.732
 5859SOL    HW118476   6.286   0.056   2.814
 5859SOL    HW218477   6.233   0.146   2.688
 5860SOL     OW18478   0.161   3.366   3.543
 5860SOL    HW118479   0.238   3.427   3.561
 5860SOL    HW218480   0.089   3.382   3.611
 5861SOL     OW18481   5.987   1.033   4.890
 5861SOL    HW118482   5.907   1.036   4.950
 5861SOL    HW218483   6.041   0.952   4.911
 5862SOL     OW18484   0.195   5.091   2.706
 5862SOL    HW118485   0.109   5.125   2.744
 5862SOL    HW218486   0.185   5.076   2.608
 5863SOL     OW18487   3.680   0.325   4.766
 5863SOL    HW118488   3.712   0.236   4.735
 5863SOL    HW218489   3.677   0.388   4.688
 5864SOL     OW18490   3.516   3.885   3.190
 5864SOL    HW118491   3.453   3.808   3.178
 5864SOL    HW218492   3.519   3.939   3.106
 5865SOL     OW18493   6.160   0.875   5.656
 5865SOL    HW118494   6.208   0.940   5.714
 5865SOL    HW218495   6.064   0.902   5.647
 5866SOL     OW18496   4.144   3.536   2.177
 5866SOL    HW118497   4.185   3.448   2.203
 5866SOL    HW218498   4.139   3.595   2.257
 5867SOL     OW18499   2.474   2.104   1.034
 5867SOL    HW118500   2.567   2.130   1.009
 5867SOL    HW218501   2.435   2.173   1.095
 5868SOL     OW18502   0.335   1.698   6.295
 5868SOL    HW118503   0.419   1.649   6.272
 5868SOL    HW218504   0.316   1.689   6.393
 5869SOL     OW18505   0.766   4.603   4.006
 5869SOL    HW118506   0.708   4.545   4.063
 5869SOL    HW218507   0.709   4.654   3.941
 5870SOL     OW18508   4.354   4.725   5.159
 5870SOL    HW118509   4.258   4.749   5.168
 5870SOL    HW218510   4.364   4.653   5.090
 5871SOL     OW18511   3.270   3.069   3.538
 5871SOL    HW118512   3.316   3.035   3.620
 5871SOL    HW218513   3.181   3.106   3.563
 5872SOL     OW18514   4.477   6.273   2.322
 5872SOL    HW118515   4.465   6.194   2.262
 5872SOL    HW218516   4.478   6.242   2.417
 5873SOL     OW18517   3.603   4.913   2.844
 5873SOL    HW118518   3.572   4.903   2.939
 5873SOL    HW218519   3.532   4.878   2.783
 5874SOL     OW18520   2.133   4.224   5.406
 5874SOL    HW118521   2.148   4.161   5.330
 5874SOL    HW218522   2.210   4.288   5.413
 5875SOL     OW18523   3.222   1.770   0.176
 5875SOL    HW118524   3.164   1.739   0.101
 5875SOL    HW218525   3.313   1.793   0.142
 5876SOL     OW18526   4.145   3.113   1.886
 5876SOL    HW118527   4.226   3.159   1.850
 5876SOL    HW218528   4.173   3.050   1.959
 5877SOL     OW18529   5.921   6.035   1.100
 5877SOL    HW118530   5.982   6.086   1.039
 5877SOL    HW218531   5.969   6.011   1.184
 5878SOL     OW18532   1.783   4.861   2.392
 5878SOL    HW118533   1.760   4.892   2.484
 5878SOL    HW218534   1.850   4.923   2.351
 5879SOL     OW18535   6.293   3.967   0.208
 5879SOL    HW118536   6.309   3.998   0.115
 5879SOL    HW218537   6.356   3.893   0.229
 5880SOL     OW18538   3.180   6.224   1.490
 5880SOL    HW118539   3.127   6.299   1.528
 5880SOL    HW218540   3.242   6.259   1.420
 5881SOL     OW18541   0.593   4.535   3.691
 5881SOL    HW118542   0.634   4.459   3.741
 5881SOL    HW218543   0.499   4.511   3.664
 5882SOL     OW18544   5.124   0.490   0.933
 5882SOL    HW118545   5.045   0.500   0.873
 5882SOL    HW218546   5.109   0.412   0.994
 5883SOL     OW18547   6.916   2.710   6.597
 5883SOL    HW118548   7.003   2.671   6.566
 5883SOL    HW218549   6.863   2.641   6.645
 5884SOL     OW18550   1.172   1.271   3.602
 5884SOL    HW118551   1.171   1.343   3.670
 5884SOL    HW218552   1.131   1.304   3.517
 5885SOL     OW18553   6.401   6.927   1.275
 5885SOL    HW118554   6.430   6.889   1.363
 5885SOL    HW218555   6.427   0.005   1.271
 5886SOL     OW18556   0.716   2.611   5.442
 5886SOL    HW118557   0.641   2.603   5.508
 5886SOL    HW218558   0.737   2.708   5.427
 5887SOL     OW18559   3.769   0.800   4.145
 5887SOL    HW118560   3.785   0.739   4.222
 5887SOL    HW218561   3.738   0.747   4.066
 5888SOL     OW18562   1.826   6.285   2.939
 5888SOL    HW118563   1.865   6.231   3.013
 5888SOL    HW218564   1.742   6.242   2.907
 5889SOL     OW18565   2.271   0.462   1.200
 5889SOL    HW118566   2.245   0.555   1.225
 5889SOL    HW218567   2.341   0.465   1.129
 5890SOL     OW18568   1.042   6.579   5.320
 5890SOL    HW118569   0.952   6.557   5.281
 5890SOL    HW218570   1.112   6.523   5.275
 5891SOL     OW18571   3.589   3.568   6.972
 5891SOL    HW118572   3.657   3.641   6.979
 5891SOL    HW218573   3.499   3.608   6.953
 5892SOL     OW18574   1.097   6.076   1.166
 5892SOL    HW118575   1.019   6.137   1.150
 5892SOL    HW218576   1.101   6.053   1.264
 5893SOL     OW18577   1.409   2.980   3.196
 5893SOL    HW118578   1.474   2.968   3.121
 5893SOL    HW218579   1.457   2.970   3.284
 5894SOL     OW18580   1.737   4.651   3.637
 5894SOL    HW118581   1.703   4.693   3.721
 5894SOL    HW218582   1.835   4.665   3.629
 5895SOL     OW18583   5.294   2.438   4.974
 5895SOL    HW118584   5.374   2.394   4.934
 5895SOL    HW218585   5.323   2.510   5.037
 5896SOL     OW18586   3.672   2.288   6.758
 5896SOL    HW118587   3.696   2.349   6.833
 5896SOL    HW218588   3.648   2.198   6.795
 5897SOL     OW18589   3.969   0.173   1.388
 5897SOL    HW118590   4.049   0.201   1.440
 5897SOL    HW218591   3.904   0.249   1.383
 5898SOL     OW18592   1.088   0.141   1.456
 5898SOL    HW118593   1.096   0.046   1.487
 5898SOL    HW218594   0.995   0.174   1.472
 5899SOL     OW18595   6.073   6.783   5.126
 5899SOL    HW118596   6.091   6.877   5.157
 5899SOL    HW218597   6.007   6.785   5.051
 5900SOL     OW18598   4.547   5.039   2.919
 5900SOL    HW118599   4.632   5.073   2.877
 5900SOL    HW218600   4.568   4.960   2.977
 5901SOL     OW18601   1.897   6.564   6.897
 5901SOL    HW118602   1.809   6.526   6.868
 5901SOL    HW218603   1.903   6.659   6.866
 5902SOL     OW18604   6.832   2.282   0.745
 5902SOL    HW118605   6.861   2.204   0.800
 5902SOL    HW218606   6.842   2.366   0.798
 5903SOL     OW18607   5.632   4.647   0.388
 5903SOL    HW118608   5.574   4.724   0.416
 5903SOL    HW218609   5.574   4.572   0.356
 5904SOL     OW18610   0.455   3.573   2.492
 5904SOL    HW118611   0.507   3.511   2.434
 5904SOL    HW218612   0.363   3.535   2.508
 5905SOL     OW18613   6.814   6.417   2.986
 5905SOL    HW118614   6.723   6.449   2.960
 5905SOL    HW218615   6.883   6.477   2.945
 5906SOL     OW18616   5.423   0.597   3.990
 5906SOL    HW118617   5.346   0.540   4.017
 5906SOL    HW218618   5.497   0.539   3.955
 5907SOL     OW18619   1.267   6.450   1.386
 5907SOL    HW118620   1.292   6.469   1.292
 5907SOL    HW218621   1.315   6.369   1.418
 5908SOL     OW18622   0.820   2.085   5.570
 5908SOL    HW118623   0.817   2.160   5.503
 5908SOL    HW218624   0.798   1.999   5.524
 5909SOL     OW18625   1.017   5.922   0.089
 5909SOL    HW118626   0.985   5.836   0.130
 5909SOL    HW218627   1.075   5.902   0.010
 5910SOL     OW18628   0.778   3.182   3.394
 5910SOL    HW118629   0.833   3.100   3.382
 5910SOL    HW218630   0.699   3.179   3.333
 5911SOL     OW18631   6.926   5.846   6.226
 5911SOL    HW118632   6.995   5.917   6.208
 5911SOL    HW218633   6.886   5.861   6.316
 5912SOL     OW18634   5.763   1.522   5.341
 5912SOL    HW118635   5.758   1.461   5.420
 5912SOL    HW218636   5.832   1.592   5.357
 5913SOL     OW18637   5.575   2.613   0.384
 5913SOL    HW118638   5.602   2.696   0.335
 5913SOL    HW218639   5.494   2.632   0.439
 5914SOL     OW18640   0.957   6.810   6.708
 5914SOL    HW118641   0.967   6.719   6.748
 5914SOL    HW218642   0.893   6.864   6.764
 5915SOL     OW18643   3.126   6.382   6.915
 5915SOL    HW118644   3.171   6.415   6.998
 5915SOL    HW218645   3.038   6.428   6.905
 5916SOL     OW18646   0.476   6.592   2.020
 5916SOL    HW118647   0.520   6.513   1.976
 5916SOL    HW218648   0.527   6.675   2.001
 5917SOL     OW18649   2.929   3.904   6.246
 5917SOL    HW118650   2.925   4.004   6.238
 5917SOL    HW218651   2.839   3.866   6.226
 5918SOL     OW18652   2.624   6.039   5.689
 5918SOL    HW118653   2.554   5.988   5.640
 5918SOL    HW218654   2.621   6.135   5.661
 5919SOL     OW18655   2.993   3.632   3.341
 5919SOL    HW118656   3.022   3.561   3.405
 5919SOL    HW218657   2.925   3.691   3.384
 5920SOL     OW18658   5.448   1.168   6.163
 5920SOL    HW118659   5.536   1.182   6.119
 5920SOL    HW218660   5.385   1.241   6.136
 5921SOL     OW18661   4.026   4.575   7.001
 5921SOL    HW118662   4.121   4.573   0.014
 5921SOL    HW218663   3.980   4.490   0.010
 5922SOL     OW18664   6.348   3.812   3.794
 5922SOL    HW118665   6.254   3.780   3.778
 5922SOL    HW218666   6.346   3.909   3.818
 5923SOL     OW18667   6.359   1.229   1.503
 5923SOL    HW118668   6.349   1.195   1.596
 5923SOL    HW218669   6.453   1.213   1.472
 5924SOL     OW18670   5.556   6.881   3.001
 5924SOL    HW118671   5.631   6.824   3.034
 5924SOL    HW218672   5.589   6.973   2.985
 5925SOL     OW18673   4.132   5.986   1.511
 5925SOL    HW118674   4.157   5.939   1.427
 5925SOL    HW218675   4.119   6.084   1.492
 5926SOL     OW18676   4.180   4.974   3.420
 5926SOL    HW118677   4.222   4.943   3.335
 5926SOL    HW218678   4.226   5.057   3.452
 5927SOL     OW18679   1.597   4.185   1.894
 5927SOL    HW118680   1.660   4.125   1.845
 5927SOL    HW218681   1.533   4.129   1.947
 5928SOL     OW18682   4.035   6.946   1.239
 5928SOL    HW118683   4.009   0.003   1.299
 5928SOL    HW218684   3.957   6.885   1.227
 5929SOL     OW18685   6.754   0.478   5.420
 5929SOL    HW118686   6.697   0.541   5.366
 5929SOL    HW218687   6.737   0.492   5.517
 5930SOL     OW18688   1.195   2.998   1.513
 5930SOL    HW118689   1.286   3.034   1.532
 5930SOL    HW218690   1.186   2.979   1.415
 5931SOL     OW18691   6.161   6.264   2.818
 5931SOL    HW118692   6.075   6.218   2.794
 5931SOL    HW218693   6.151   6.307   2.907
 5932SOL     OW18694   3.302   6.968   6.504
 5932SOL    HW118695   3.396   6.970   6.538
 5932SOL    HW218696   3.259   0.038   6.520
 5933SOL     OW18697   6.942   5.600   4.265
 5933SOL    HW118698   0.004   5.588   4.322
 5933SOL    HW218699   6.964   5.659   4.187
 5934SOL     OW18700   3.754   3.608   5.994
 5934SOL    HW118701   3.724   3.659   6.075
 5934SOL    HW218702   3.737   3.663   5.912
 5935SOL     OW18703   0.411   6.079   5.495
 5935SOL    HW118704   0.367   6.002   5.449
 5935SOL    HW218705   0.505   6.055   5.519
 5936SOL     OW18706   3.059   3.038   2.646
 5936SOL    HW118707   2.983   2.973   2.647
 5936SOL    HW218708   3.040   3.110   2.579
 5937SOL     OW18709   6.712   2.627   2.035
 5937SOL    HW118710   6.697   2.574   2.119
 5937SOL    HW218711   6.631   2.622   1.977
 5938SOL     OW18712   5.968   5.512   5.095
 5938SOL    HW118713   6.033   5.579   5.133
 5938SOL    HW218714   5.946   5.444   5.165
 5939SOL     OW18715   3.537   6.257   4.214
 5939SOL    HW118716   3.577   6.166   4.201
 5939SOL    HW218717   3.488   6.284   4.131
 5940SOL     OW18718   4.586   5.105   3.271
 5940SOL    HW118719   4.544   5.018   3.244
 5940SOL    HW218720   4.684   5.102   3.252
 5941SOL     OW18721   5.971   2.606   2.620
 5941SOL    HW118722   5.950   2.575   2.528
 5941SOL    HW218723   6.010   2.531   2.673
 5942SOL     OW18724   5.783   3.384   5.947
 5942SOL    HW118725   5.686   3.366   5.959
 5942SOL    HW218726   5.813   3.451   6.015
 5943SOL     OW18727   4.324   3.607   0.630
 5943SOL    HW118728   4.242   3.581   0.580
 5943SOL    HW218729   4.329   3.555   0.716
 5944SOL     OW18730   0.859   2.459   0.372
 5944SOL    HW118731   0.848   2.454   0.272
 5944SOL    HW218732   0.770   2.452   0.416
 5945SOL     OW18733   0.648   6.336   5.129
 5945SOL    HW118734   0.662   6.349   5.227
 5945SOL    HW218735   0.566   6.282   5.114
 5946SOL     OW18736   3.419   4.765   0.039
 5946SOL    HW118737   3.389   4.685   7.007
 5946SOL    HW218738   3.419   4.845   6.998
 5947SOL     OW18739   2.980   3.161   4.497
 5947SOL    HW118740   2.999   3.180   4.593
 5947SOL    HW218741   2.908   3.222   4.464
 5948SOL     OW18742   5.041   4.255   1.849
 5948SOL    HW118743   4.973   4.215   1.787
 5948SOL    HW218744   5.012   4.346   1.876
 5949SOL     OW18745   5.873   5.508   1.534
 5949SOL    HW118746   5.901   5.423   1.578
 5949SOL    HW218747   5.786   5.538   1.571
 5950SOL     OW18748   5.266   2.339   5.513
 5950SOL    HW118749   5.310   2.283   5.443
 5950SOL    HW218750   5.248   2.430   5.475
 5951SOL     OW18751   0.709   5.660   5.270
 5951SOL    HW118752   0.721   5.565   5.244
 5951SOL    HW218753   0.736   5.719   5.194
 5952SOL     OW18754   3.903   5.354   2.976
 5952SOL    HW118755   3.866   5.262   2.990
 5952SOL    HW218756   3.990   5.348   2.927
 5953SOL     OW18757   6.270   3.348   4.377
 5953SOL    HW118758   6.187   3.397   4.403
 5953SOL    HW218759   6.265   3.322   4.281
 5954SOL     OW18760   0.421   5.182   5.590
 5954SOL    HW118761   0.475   5.132   5.522
 5954SOL    HW218762   0.346   5.124   5.621
 5955SOL     OW18763   4.499   5.370   1.380
 5955SOL    HW118764   4.458   5.324   1.301
 5955SOL    HW218765   4.598   5.357   1.379
 5956SOL     OW18766   5.401   2.210   4.333
 5956SOL    HW118767   5.362   2.191   4.243
 5956SOL    HW218768   5.435   2.125   4.373
 5957SOL     OW18769   1.541   1.221   3.022
 5957SOL    HW118770   1.535   1.129   2.983
 5957SOL    HW218771   1.485   1.226   3.105
 5958SOL     OW18772   3.871   0.575   2.959
 5958SOL    HW118773   3.962   0.535   2.972
 5958SOL    HW218774   3.828   0.591   3.048
 5959SOL     OW18775   4.603   2.728   5.544
 5959SOL    HW118776   4.550   2.812   5.533
 5959SOL    HW218777   4.593   2.693   5.637
 5960SOL     OW18778   3.355   6.417   4.786
 5960SOL    HW118779   3.296   6.498   4.785
 5960SOL    HW218780   3.303   6.338   4.753
 5961SOL     OW18781   3.722   1.811   2.347
 5961SOL    HW118782   3.725   1.910   2.335
 5961SOL    HW218783   3.814   1.778   2.370
 5962SOL     OW18784   5.295   6.138   5.991
 5962SOL    HW118785   5.299   6.043   5.963
 5962SOL    HW218786   5.291   6.144   6.091
 5963SOL     OW18787   3.380   4.528   6.949
 5963SOL    HW118788   3.290   4.485   6.941
 5963SOL    HW218789   3.411   4.557   6.859
 5964SOL     OW18790   2.269   6.804   3.237
 5964SOL    HW118791   2.336   6.874   3.262
 5964SOL    HW218792   2.313   6.734   3.182
 5965SOL     OW18793   1.905   0.247   6.488
 5965SOL    HW118794   2.002   0.224   6.501
 5965SOL    HW218795   1.896   0.345   6.472
 5966SOL     OW18796   1.675   6.960   5.627
 5966SOL    HW118797   1.692   0.039   5.617
 5966SOL    HW218798   1.752   6.909   5.588
 5967SOL     OW18799   2.820   1.792   4.979
 5967SOL    HW118800   2.771   1.729   5.039
 5967SOL    HW218801   2.918   1.773   4.984
 5968SOL     OW18802   5.577   2.186   0.507
 5968SOL    HW118803   5.498   2.149   0.459
 5968SOL    HW218804   5.551   2.208   0.601
 5969SOL     OW18805   4.770   0.578   6.368
 5969SOL    HW118806   4.861   0.593   6.330
 5969SOL    HW218807   4.725   0.667   6.381
 5970SOL     OW18808   0.130   4.482   0.745
 5970SOL    HW118809   0.086   4.402   0.704
 5970SOL    HW218810   0.187   4.453   0.823
 5971SOL     OW18811   6.218   0.442   2.065
 5971SOL    HW118812   6.270   0.358   2.079
 5971SOL    HW218813   6.149   0.451   2.137
 5972SOL     OW18814   5.522   5.101   6.676
 5972SOL    HW118815   5.614   5.073   6.703
 5972SOL    HW218816   5.491   5.047   6.598
 5973SOL     OW18817   2.074   3.763   2.484
 5973SOL    HW118818   2.090   3.665   2.467
 5973SOL    HW218819   2.074   3.812   2.397
 5974SOL     OW18820   4.858   0.355   0.088
 5974SOL    HW118821   4.923   0.426   0.115
 5974SOL    HW218822   4.792   0.392   0.023
 5975SOL     OW18823   4.984   5.307   1.247
 5975SOL    HW118824   4.974   5.272   1.154
 5975SOL    HW218825   4.897   5.344   1.280
 5976SOL     OW18826   3.308   3.578   5.704
 5976SOL    HW118827   3.389   3.620   5.663
 5976SOL    HW218828   3.330   3.485   5.734
 5977SOL     OW18829   0.831   5.688   0.187
 5977SOL    HW118830   0.812   5.721   0.279
 5977SOL    HW218831   0.848   5.590   0.189
 5978SOL     OW18832   3.606   5.043   0.605
 5978SOL    HW118833   3.542   5.077   0.536
 5978SOL    HW218834   3.583   5.083   0.694
 5979SOL     OW18835   6.474   0.558   2.070
 5979SOL    HW118836   6.402   0.488   2.072
 5979SOL    HW218837   6.508   0.567   1.976
 5980SOL     OW18838   3.404   2.853   1.994
 5980SOL    HW118839   3.404   2.945   1.954
 5980SOL    HW218840   3.463   2.793   1.939
 5981SOL     OW18841   4.721   1.608   0.294
 5981SOL    HW118842   4.775   1.535   0.251
 5981SOL    HW218843   4.624   1.586   0.287
 5982SOL     OW18844   5.563   2.248   2.220
 5982SOL    HW118845   5.478   2.298   2.240
 5982SOL    HW218846   5.557   2.207   2.129
 5983SOL     OW18847   1.173   0.766   3.882
 5983SOL    HW118848   1.201   0.706   3.957
 5983SOL    HW218849   1.239   0.760   3.808
 5984SOL     OW18850   5.461   6.405   3.686
 5984SOL    HW118851   5.524   6.477   3.659
 5984SOL    HW218852   5.503   6.348   3.757
 5985SOL     OW18853   6.240   2.499   3.815
 5985SOL    HW118854   6.252   2.506   3.716
 5985SOL    HW218855   6.322   2.458   3.855
 5986SOL     OW18856   4.202   3.956   5.852
 5986SOL    HW118857   4.222   3.859   5.838
 5986SOL    HW218858   4.283   4.010   5.831
 5987SOL     OW18859   6.239   0.874   4.180
 5987SOL    HW118860   6.229   0.872   4.280
 5987SOL    HW218861   6.151   0.901   4.139
 5988SOL     OW18862   3.288   1.264   6.754
 5988SOL    HW118863   3.248   1.337   6.697
 5988SOL    HW218864   3.379   1.242   6.718
 5989SOL     OW18865   1.833   5.407   6.281
 5989SOL    HW118866   1.811   5.472   6.354
 5989SOL    HW218867   1.763   5.413   6.209
 5990SOL     OW18868   3.845   3.956   0.941
 5990SOL    HW118869   3.746   3.941   0.934
 5990SOL    HW218870   3.885   3.958   0.850
 5991SOL     OW18871   4.243   5.552   0.090
 5991SOL    HW118872   4.220   5.480   0.155
 5991SOL    HW218873   4.220   5.522   7.016
 5992SOL     OW18874   2.738   6.962   2.508
 5992SOL    HW118875   2.674   6.934   2.436
 5992SOL    HW218876   2.824   6.911   2.498
 5993SOL     OW18877   5.573   3.804   6.553
 5993SOL    HW118878   5.539   3.731   6.612
 5993SOL    HW218879   5.607   3.879   6.609
 5994SOL     OW18880   0.024   2.997   0.693
 5994SOL    HW118881   6.987   3.045   0.761
 5994SOL    HW218882   7.001   3.008   0.602
 5995SOL     OW18883   4.478   3.015   1.597
 5995SOL    HW118884   4.548   2.998   1.667
 5995SOL    HW218885   4.514   3.081   1.531
 5996SOL     OW18886   2.017   6.075   1.303
 5996SOL    HW118887   2.074   5.993   1.313
 5996SOL    HW218888   2.020   6.105   1.208
 5997SOL     OW18889   0.187   6.567   3.644
 5997SOL    HW118890   0.152   6.600   3.556
 5997SOL    HW218891   0.272   6.516   3.630
 5998SOL     OW18892   5.450   0.495   1.668
 5998SOL    HW118893   5.479   0.580   1.623
 5998SOL    HW218894   5.451   0.508   1.767
 5999SOL     OW18895   3.662   3.433   1.253
 5999SOL    HW118896   3.563   3.435   1.240
 5999SOL    HW218897   3.700   3.521   1.225
 6000SOL     OW18898   0.288   6.026   6.991
 6000SOL    HW118899   0.237   5.941   6.982
 6000SOL    HW218900   0.233   6.103   6.958
 6001SOL     OW18901   5.578   6.040   6.632
 6001SOL    HW118902   5.664   6.006   6.671
 6001SOL    HW218903   5.598   6.097   6.552
 6002SOL     OW18904   6.853   6.960   5.503
 6002SOL    HW118905   6.756   6.939   5.509
 6002SOL    HW218906   6.867   0.029   5.458
 6003SOL     OW18907   6.577   2.423   4.681
 6003SOL    HW118908   6.651   2.373   4.725
 6003SOL    HW218909   6.581   2.408   4.582
 6004SOL     OW18910   5.728   2.520   3.581
 6004SOL    HW118911   5.733   2.605   3.528
 6004SOL    HW218912   5.647   2.468   3.552
 6005SOL     OW18913   5.429   4.537   5.209
 6005SOL    HW118914   5.366   4.499   5.141
 6005SOL    HW218915   5.466   4.623   5.174
 6006SOL     OW18916   3.631   0.226   5.352
 6006SOL    HW118917   3.711   0.221   5.292
 6006SOL    HW218918   3.553   0.264   5.302
 6007SOL     OW18919   0.032   3.538   0.061
 6007SOL    HW118920   6.994   3.591   7.017
 6007SOL    HW218921   0.072   3.599   0.129
 6008SOL     OW18922   2.393   4.477   5.485
 6008SOL    HW118923   2.317   4.524   5.440
 6008SOL    HW218924   2.458   4.444   5.416
 6009SOL     OW18925   4.825   5.706   3.484
 6009SOL    HW118926   4.771   5.757   3.417
 6009SOL    HW218927   4.881   5.638   3.436
 6010SOL     OW18928   0.492   4.013   4.340
 6010SOL    HW118929   0.491   3.916   4.316
 6010SOL    HW218930   0.398   4.046   4.347
 6011SOL     OW18931   4.469   2.386   2.552
 6011SOL    HW118932   4.505   2.477   2.571
 6011SOL    HW218933   4.470   2.370   2.453
 6012SOL     OW18934   6.159   0.712   0.037
 6012SOL    HW118935   6.093   0.758   6.996
 6012SOL    HW218936   6.118   0.699   0.127
 6013SOL     OW18937   4.918   1.273   2.570
 6013SOL    HW118938   4.908   1.348   2.634
 6013SOL    HW218939   4.855   1.285   2.493
 6014SOL     OW18940   3.687   3.384   4.014
 6014SOL    HW118941   3.664   3.304   3.958
 6014SOL    HW218942   3.615   3.452   4.005
 6015SOL     OW18943   5.893   3.240   4.449
 6015SOL    HW118944   5.930   3.201   4.365
 6015SOL    HW218945   5.860   3.332   4.431
 6016SOL     OW18946   5.268   1.946   5.740
 6016SOL    HW118947   5.250   2.042   5.761
 6016SOL    HW218948   5.307   1.901   5.820
 6017SOL     OW18949   0.214   4.049   4.930
 6017SOL    HW118950   0.290   4.016   4.873
 6017SOL    HW218951   0.133   4.061   4.873
 6018SOL     OW18952   3.416   1.060   4.575
 6018SOL    HW118953   3.346   1.051   4.504
 6018SOL    HW218954   3.505   1.077   4.532
 6019SOL     OW18955   0.842   3.196   5.890
 6019SOL    HW118956   0.837   3.227   5.984
 6019SOL    HW218957   0.927   3.146   5.875
 6020SOL     OW18958   1.151   5.080   0.910
 6020SOL    HW118959   1.150   5.010   0.839
 6020SOL    HW218960   1.073   5.141   0.898
 6021SOL     OW18961   4.741   0.306   2.798
 6021SOL    HW118962   4.741   0.235   2.727
 6021SOL    HW218963   4.747   0.262   2.888
 6022SOL     OW18964   6.432   1.715   3.424
 6022SOL    HW118965   6.388   1.729   3.513
 6022SOL    HW218966   6.366   1.674   3.361
 6023SOL     OW18967   5.282   0.109   1.222
 6023SOL    HW118968   5.314   0.099   1.316
 6023SOL    HW218969   5.361   0.126   1.162
 6024SOL     OW18970   0.328   4.741   0.731
 6024SOL    HW118971   0.238   4.699   0.727
 6024SOL    HW218972   0.377   4.709   0.812
 6025SOL     OW18973   2.804   1.141   3.623
 6025SOL    HW118974   2.793   1.234   3.658
 6025SOL    HW218975   2.779   1.075   3.694
 6026SOL     OW18976   6.165   4.572   4.691
 6026SOL    HW118977   6.183   4.670   4.696
 6026SOL    HW218978   6.122   4.549   4.604
 6027SOL     OW18979   6.450   3.800   6.257
 6027SOL    HW118980   6.442   3.757   6.346
 6027SOL    HW218981   6.496   3.738   6.193
 6028SOL     OW18982   5.462   5.307   1.423
 6028SOL    HW118983   5.468   5.369   1.345
 6028SOL    HW218984   5.519   5.341   1.497
 6029SOL     OW18985   1.872   6.813   3.445
 6029SOL    HW118986   1.781   6.775   3.462
 6029SOL    HW218987   1.897   6.797   3.350
 6030SOL     OW18988   5.032   3.482   4.790
 6030SOL    HW118989   4.981   3.489   4.876
 6030SOL    HW218990   5.064   3.388   4.779
 6031SOL     OW18991   1.482   5.688   3.573
 6031SOL    HW118992   1.423   5.661   3.497
 6031SOL    HW218993   1.553   5.619   3.586
 6032SOL     OW18994   3.096   5.585   3.425
 6032SOL    HW118995   3.127   5.655   3.489
 6032SOL    HW218996   3.001   5.562   3.444
 6033SOL     OW18997   2.149   2.567   2.530
 6033SOL    HW118998   2.135   2.484   2.476
 6033SOL    HW218999   2.220   2.551   2.598
 6034SOL     OW19000   0.918   0.369   6.394
 6034SOL    HW119001   1.003   0.421   6.395
 6034SOL    HW219002   0.843   0.426   6.427
 6035SOL     OW19003   0.718   0.752   2.608
 6035SOL    HW119004   0.631   0.713   2.576
 6035SOL    HW219005   0.793   0.717   2.552
 6036SOL     OW19006   6.209   4.620   1.554
 6036SOL    HW119007   6.267   4.613   1.473
 6036SOL    HW219008   6.154   4.703   1.549
 6037SOL     OW19009   4.040   0.252   1.083
 6037SOL    HW119010   3.985   0.200   1.148
 6037SOL    HW219011   4.134   0.261   1.117
 6038SOL     OW19012   0.375   2.319   6.387
 6038SOL    HW119013   0.436   2.239   6.389
 6038SOL    HW219014   0.326   2.325   6.474
 6039SOL     OW19015   3.919   3.903   4.085
 6039SOL    HW119016   3.890   3.900   4.180
 6039SOL    HW219017   3.960   3.815   4.060
 6040SOL     OW19018   1.768   1.177   6.950
 6040SOL    HW119019   1.771   1.276   6.962
 6040SOL    HW219020   1.749   1.133   0.019
 6041SOL     OW19021   3.145   2.907   5.381
 6041SOL    HW119022   3.060   2.925   5.431
 6041SOL    HW219023   3.175   2.991   5.335
 6042SOL     OW19024   3.953   6.245   3.178
 6042SOL    HW119025   4.002   6.317   3.129
 6042SOL    HW219026   3.857   6.271   3.187
 6043SOL     OW19027   1.215   0.555   4.064
 6043SOL    HW119028   1.269   0.622   4.116
 6043SOL    HW219029   1.125   0.545   4.107
 6044SOL     OW19030   2.114   1.949   1.853
 6044SOL    HW119031   2.214   1.944   1.850
 6044SOL    HW219032   2.085   1.980   1.943
 6045SOL     OW19033   4.907   3.233   3.686
 6045SOL    HW119034   4.919   3.178   3.769
 6045SOL    HW219035   4.866   3.176   3.614
 6046SOL     OW19036   3.195   2.996   1.014
 6046SOL    HW119037   3.190   3.086   1.056
 6046SOL    HW219038   3.187   3.005   0.915
 6047SOL     OW19039   5.451   2.478   1.304
 6047SOL    HW119040   5.386   2.554   1.308
 6047SOL    HW219041   5.449   2.438   1.212
 6048SOL     OW19042   5.094   5.223   5.315
 6048SOL    HW119043   5.110   5.273   5.400
 6048SOL    HW219044   5.034   5.276   5.256
 6049SOL     OW19045   5.642   4.511   6.056
 6049SOL    HW119046   5.698   4.588   6.088
 6049SOL    HW219047   5.602   4.534   5.967
 6050SOL     OW19048   2.895   5.057   0.927
 6050SOL    HW119049   2.950   5.130   0.887
 6050SOL    HW219050   2.918   4.970   0.884
 6051SOL     OW19051   1.191   0.712   2.666
 6051SOL    HW119052   1.280   0.757   2.657
 6051SOL    HW219053   1.180   0.644   2.594
 6052SOL     OW19054   5.569   0.953   1.381
 6052SOL    HW119055   5.483   0.976   1.335
 6052SOL    HW219056   5.563   0.861   1.420
 6053SOL     OW19057   4.218   0.280   6.135
 6053SOL    HW119058   4.141   0.297   6.196
 6053SOL    HW219059   4.221   0.353   6.066
 6054SOL     OW19060   3.590   5.154   0.857
 6054SOL    HW119061   3.524   5.211   0.906
 6054SOL    HW219062   3.665   5.130   0.918
 6055SOL     OW19063   3.339   5.359   6.412
 6055SOL    HW119064   3.343   5.407   6.325
 6055SOL    HW219065   3.424   5.310   6.428
 6056SOL     OW19066   5.705   2.670   5.108
 6056SOL    HW119067   5.696   2.758   5.061
 6056SOL    HW219068   5.708   2.597   5.040
 6057SOL     OW19069   6.008   0.532   2.348
 6057SOL    HW119070   6.001   0.597   2.271
 6057SOL    HW219071   5.917   0.501   2.373
 6058SOL     OW19072   5.762   3.209   0.471
 6058SOL    HW119073   5.693   3.198   0.542
 6058SOL    HW219074   5.794   3.304   0.470
 6059SOL     OW19075   4.968   3.940   5.565
 6059SOL    HW119076   5.043   3.893   5.613
 6059SOL    HW219077   4.884   3.931   5.617
 6060SOL     OW19078   3.197   3.222   0.528
 6060SOL    HW119079   3.236   3.257   0.613
 6060SOL    HW219080   3.219   3.125   0.518
 6061SOL     OW19081   4.452   4.437   0.839
 6061SOL    HW119082   4.383   4.507   0.858
 6061SOL    HW219083   4.498   4.457   0.753
 6062SOL     OW19084   2.630   2.113   6.634
 6062SOL    HW119085   2.596   2.156   6.551
 6062SOL    HW219086   2.660   2.183   6.699
 6063SOL     OW19087   3.689   4.222   5.347
 6063SOL    HW119088   3.670   4.126   5.330
 6063SOL    HW219089   3.605   4.268   5.377
 6064SOL     OW19090   0.768   0.395   1.077
 6064SOL    HW119091   0.720   0.365   0.994
 6064SOL    HW219092   0.858   0.430   1.052
 6065SOL     OW19093   0.734   5.969   1.354
 6065SOL    HW119094   0.636   5.990   1.355
 6065SOL    HW219095   0.770   5.977   1.447
 6066SOL     OW19096   5.231   0.977   3.916
 6066SOL    HW119097   5.235   0.962   4.015
 6066SOL    HW219098   5.274   1.064   3.894
 6067SOL     OW19099   4.849   0.992   5.738
 6067SOL    HW119100   4.825   1.021   5.831
 6067SOL    HW219101   4.939   0.947   5.740
 6068SOL     OW19102   5.072   2.250   5.079
 6068SOL    HW119103   5.132   2.176   5.107
 6068SOL    HW219104   5.127   2.329   5.050
 6069SOL     OW19105   6.848   2.966   6.316
 6069SOL    HW119106   6.771   3.027   6.336
 6069SOL    HW219107   6.925   2.990   6.375
 6070SOL     OW19108   3.642   2.239   1.612
 6070SOL    HW119109   3.663   2.247   1.709
 6070SOL    HW219110   3.700   2.302   1.560
 6071SOL     OW19111   0.225   5.976   4.494
 6071SOL    HW119112   0.191   6.041   4.562
 6071SOL    HW219113   0.299   6.018   4.442
 6072SOL     OW19114   6.514   1.625   1.308
 6072SOL    HW119115   6.541   1.630   1.404
 6072SOL    HW219116   6.483   1.532   1.288
 6073SOL     OW19117   5.101   2.935   0.933
 6073SOL    HW119118   5.001   2.930   0.926
 6073SOL    HW219119   5.128   3.029   0.951
 6074SOL     OW19120   1.985   0.130   2.018
 6074SOL    HW119121   1.903   0.178   1.987
 6074SOL    HW219122   2.038   0.189   2.078
 6075SOL     OW19123   4.649   0.269   5.547
 6075SOL    HW119124   4.745   0.251   5.526
 6075SOL    HW219125   4.592   0.240   5.470
 6076SOL     OW19126   2.764   5.168   3.663
 6076SOL    HW119127   2.831   5.120   3.720
 6076SOL    HW219128   2.794   5.164   3.568
 6077SOL     OW19129   5.153   6.433   0.875
 6077SOL    HW119130   5.203   6.492   0.939
 6077SOL    HW219131   5.071   6.397   0.920
 6078SOL     OW19132   4.358   4.219   1.118
 6078SOL    HW119133   4.281   4.259   1.069
 6078SOL    HW219134   4.416   4.169   1.054
 6079SOL     OW19135   4.972   4.588   6.448
 6079SOL    HW119136   5.052   4.580   6.507
 6079SOL    HW219137   5.001   4.593   6.352
 6080SOL     OW19138   0.667   5.124   1.554
 6080SOL    HW119139   0.650   5.032   1.519
 6080SOL    HW219140   0.580   5.169   1.573
 6081SOL     OW19141   6.917   2.931   5.848
 6081SOL    HW119142   6.962   2.914   5.936
 6081SOL    HW219143   6.970   2.997   5.795
 6082SOL     OW19144   3.151   6.221   2.397
 6082SOL    HW119145   3.131   6.219   2.299
 6082SOL    HW219146   3.194   6.308   2.420
 6083SOL     OW19147   5.571   6.048   0.439
 6083SOL    HW119148   5.493   6.006   0.392
 6083SOL    HW219149   5.547   6.140   0.469
 6084SOL     OW19150   1.014   6.415   2.047
 6084SOL    HW119151   1.037   6.319   2.064
 6084SOL    HW219152   0.938   6.419   1.983
 6085SOL     OW19153   6.011   6.075   6.062
 6085SOL    HW119154   5.969   6.064   5.972
 6085SOL    HW219155   6.039   6.170   6.074
 6086SOL     OW19156   3.483   2.886   5.966
 6086SOL    HW119157   3.416   2.834   5.912
 6086SOL    HW219158   3.527   2.954   5.907
 6087SOL     OW19159   4.813   6.058   1.010
 6087SOL    HW119160   4.766   5.989   1.065
 6087SOL    HW219161   4.885   6.015   0.956
 6088SOL     OW19162   6.103   6.257   5.248
 6088SOL    HW119163   6.069   6.230   5.338
 6088SOL    HW219164   6.186   6.313   5.259
 6089SOL     OW19165   6.353   2.675   2.924
 6089SOL    HW119166   6.337   2.640   3.016
 6089SOL    HW219167   6.427   2.623   2.882
 6090SOL     OW19168   2.872   5.187   4.658
 6090SOL    HW119169   2.832   5.112   4.712
 6090SOL    HW219170   2.866   5.165   4.561
 6091SOL     OW19171   3.071   1.658   0.683
 6091SOL    HW119172   3.011   1.600   0.740
 6091SOL    HW219173   3.075   1.750   0.723
 6092SOL     OW19174   4.286   1.001   1.797
 6092SOL    HW119175   4.242   1.090   1.806
 6092SOL    HW219176   4.266   0.946   1.878
 6093SOL     OW19177   2.539   2.424   2.166
 6093SOL    HW119178   2.530   2.348   2.230
 6093SOL    HW219179   2.588   2.394   2.084
 6094SOL     OW19180   1.026   6.208   3.254
 6094SOL    HW119181   0.944   6.153   3.272
 6094SOL    HW219182   1.056   6.252   3.339
 6095SOL     OW19183   4.520   4.890   6.644
 6095SOL    HW119184   4.433   4.899   6.692
 6095SOL    HW219185   4.590   4.855   6.707
 6096SOL     OW19186   5.459   6.595   1.916
 6096SOL    HW119187   5.444   6.549   2.004
 6096SOL    HW219188   5.549   6.571   1.881
 6097SOL     OW19189   1.324   5.358   1.740
 6097SOL    HW119190   1.309   5.453   1.712
 6097SOL    HW219191   1.412   5.327   1.705
 6098SOL     OW19192   6.589   0.850   5.638
 6098SOL    HW119193   6.609   0.853   5.736
 6098SOL    HW219194   6.500   0.805   5.624
 6099SOL     OW19195   4.926   6.080   5.539
 6099SOL    HW119196   4.844   6.098   5.485
 6099SOL    HW219197   4.900   6.030   5.622
 6100SOL     OW19198   0.165   5.870   1.780
 6100SOL    HW119199   0.196   5.932   1.852
 6100SOL    HW219200   0.079   5.903   1.742
 6101SOL     OW19201   6.088   2.945   2.998
 6101SOL    HW119202   6.081   3.031   3.049
 6101SOL    HW219203   6.181   2.936   2.962
 6102SOL     OW19204   3.986   6.386   2.614
 6102SOL    HW119205   3.889   6.410   2.604
 6102SOL    HW219206   4.041   6.450   2.561
 6103SOL     OW19207   6.501   1.090   1.194
 6103SOL    HW119208   6.526   1.187   1.183
 6103SOL    HW219209   6.567   1.045   1.253
 6104SOL     OW19210   6.180   0.859   5.020
 6104SOL    HW119211   6.197   0.764   4.993
 6104SOL    HW219212   6.259   0.915   4.994
 6105SOL     OW19213   1.967   5.663   5.747
 6105SOL    HW119214   2.016   5.750   5.754
 6105SOL    HW219215   2.011   5.605   5.680
 6106SOL     OW19216   1.094   5.270   0.278
 6106SOL    HW119217   1.037   5.223   0.346
 6106SOL    HW219218   1.126   5.203   0.210
 6107SOL     OW19219   4.357   5.504   3.695
 6107SOL    HW119220   4.303   5.496   3.778
 6107SOL    HW219221   4.342   5.423   3.638
 6108SOL     OW19222   1.390   2.174   3.026
 6108SOL    HW119223   1.452   2.235   3.075
 6108SOL    HW219224   1.435   2.139   2.944
 6109SOL     OW19225   5.390   1.317   4.809
 6109SOL    HW119226   5.330   1.256   4.862
 6109SOL    HW219227   5.334   1.384   4.760
 6110SOL     OW19228   1.699   2.799   6.901
 6110SOL    HW119229   1.634   2.724   6.893
 6110SOL    HW219230   1.725   2.811   6.997
 6111SOL     OW19231   1.332   3.385   1.755
 6111SOL    HW119232   1.267   3.450   1.794
 6111SOL    HW219233   1.282   3.309   1.713
 6112SOL     OW19234   4.508   0.700   2.582
 6112SOL    HW119235   4.571   0.640   2.630
 6112SOL    HW219236   4.430   0.646   2.548
 6113SOL     OW19237   2.596   3.446   6.312
 6113SOL    HW119238   2.672   3.501   6.346
 6113SOL    HW219239   2.577   3.470   6.217
 6114SOL     OW19240   5.370   3.187   2.383
 6114SOL    HW119241   5.343   3.135   2.301
 6114SOL    HW219242   5.290   3.208   2.438
 6115SOL     OW19243   6.765   1.567   5.614
 6115SOL    HW119244   6.771   1.576   5.713
 6115SOL    HW219245   6.669   1.570   5.586
 6116SOL     OW19246   4.186   2.326   5.529
 6116SOL    HW119247   4.189   2.249   5.593
 6116SOL    HW219248   4.119   2.306   5.458
 6117SOL     OW19249   1.164   2.213   3.196
 6117SOL    HW119250   1.225   2.188   3.121
 6117SOL    HW219251   1.182   2.154   3.275
 6118SOL     OW19252   5.362   1.077   1.729
 6118SOL    HW119253   5.311   0.991   1.719
 6118SOL    HW219254   5.459   1.060   1.714
 6119SOL     OW19255   0.642   2.838   0.482
 6119SOL    HW119256   0.637   2.860   0.385
 6119SOL    HW219257   0.736   2.820   0.508
 6120SOL     OW19258   1.716   6.488   5.687
 6120SOL    HW119259   1.781   6.487   5.611
 6120SOL    HW219260   1.755   6.540   5.764
 6121SOL     OW19261   0.832   3.856   5.936
 6121SOL    HW119262   0.871   3.904   6.015
 6121SOL    HW219263   0.906   3.819   5.880
 6122SOL     OW19264   4.923   5.194   6.277
 6122SOL    HW119265   4.935   5.289   6.250
 6122SOL    HW219266   4.833   5.162   6.246
 6123SOL     OW19267   5.378   1.084   5.260
 6123SOL    HW119268   5.380   0.984   5.258
 6123SOL    HW219269   5.354   1.114   5.353
 6124SOL     OW19270   0.759   6.636   5.489
 6124SOL    HW119271   0.666   6.626   5.525
 6124SOL    HW219272   0.777   6.733   5.471
 6125SOL     OW19273   2.549   3.970   0.001
 6125SOL    HW119274   2.541   4.033   0.078
 6125SOL    HW219275   2.563   3.877   0.036
 6126SOL     OW19276   1.114   1.805   5.713
 6126SOL    HW119277   1.121   1.839   5.619
 6126SOL    HW219278   1.046   1.732   5.717
 6127SOL     OW19279   4.227   0.660   1.592
 6127SOL    HW119280   4.314   0.656   1.641
 6127SOL    HW219281   4.231   0.601   1.511
 6128SOL     OW19282   5.434   5.361   0.551
 6128SOL    HW119283   5.441   5.460   0.561
 6128SOL    HW219284   5.463   5.335   0.460
 6129SOL     OW19285   1.356   3.845   3.744
 6129SOL    HW119286   1.364   3.856   3.843
 6129SOL    HW219287   1.426   3.900   3.698
 6130SOL     OW19288   6.160   2.187   3.096
 6130SOL    HW119289   6.248   2.209   3.054
 6130SOL    HW219290   6.170   2.108   3.156
 6131SOL     OW19291   0.832   2.322   2.304
 6131SOL    HW119292   0.906   2.260   2.280
 6131SOL    HW219293   0.760   2.317   2.235
 6132SOL     OW19294   3.692   1.921   6.431
 6132SOL    HW119295   3.611   1.979   6.421
 6132SOL    HW219296   3.670   1.843   6.489
 6133SOL     OW19297   1.537   2.329   3.203
 6133SOL    HW119298   1.506   2.326   3.299
 6133SOL    HW219299   1.503   2.411   3.159
 6134SOL     OW19300   4.177   0.069   6.576
 6134SOL    HW119301   4.207   0.164   6.590
 6134SOL    HW219302   4.146   0.031   6.663
 6135SOL     OW19303   6.094   6.072   0.494
 6135SOL    HW119304   6.083   6.161   0.449
 6135SOL    HW219305   6.084   5.999   0.426
 6136SOL     OW19306   1.357   2.583   1.158
 6136SOL    HW119307   1.283   2.540   1.106
 6136SOL    HW219308   1.414   2.637   1.096
 6137SOL     OW19309   0.945   3.812   2.216
 6137SOL    HW119310   0.985   3.754   2.286
 6137SOL    HW219311   0.895   3.887   2.260
 6138SOL     OW19312   3.834   0.158   2.545
 6138SOL    HW119313   3.771   0.112   2.608
 6138SOL    HW219314   3.805   0.253   2.534
 6139SOL     OW19315   0.574   0.092   5.562
 6139SOL    HW119316   0.547   0.010   5.512
 6139SOL    HW219317   0.556   0.173   5.507
 6140SOL     OW19318   0.586   1.426   3.284
 6140SOL    HW119319   0.562   1.517   3.252
 6140SOL    HW219320   0.508   1.386   3.332
 6141SOL     OW19321   1.027   0.489   5.788
 6141SOL    HW119322   1.094   0.521   5.856
 6141SOL    HW219323   0.959   0.433   5.834
 6142SOL     OW19324   1.178   6.900   5.905
 6142SOL    HW119325   1.243   6.963   5.947
 6142SOL    HW219326   1.091   6.905   5.955
 6143SOL     OW19327   6.916   4.255   0.815
 6143SOL    HW119328   6.976   4.249   0.895
 6143SOL    HW219329   6.970   4.241   0.732
 6144SOL     OW19330   5.261   4.294   3.061
 6144SOL    HW119331   5.236   4.380   3.017
 6144SOL    HW219332   5.207   4.219   3.023
 6145SOL     OW19333   5.857   4.425   4.519
 6145SOL    HW119334   5.848   4.330   4.487
 6145SOL    HW219335   5.768   4.471   4.510
 6146SOL     OW19336   3.381   6.351   4.003
 6146SOL    HW119337   3.371   6.302   3.916
 6146SOL    HW219338   3.393   6.449   3.984
 6147SOL     OW19339   2.107   2.714   4.591
 6147SOL    HW119340   2.079   2.781   4.522
 6147SOL    HW219341   2.162   2.759   4.661
 6148SOL     OW19342   3.830   5.272   6.679
 6148SOL    HW119343   3.874   5.207   6.617
 6148SOL    HW219344   3.880   5.359   6.678
 6149SOL     OW19345   1.775   0.278   1.848
 6149SOL    HW119346   1.686   0.281   1.893
 6149SOL    HW219347   1.764   0.259   1.751
 6150SOL     OW19348   5.817   3.879   6.928
 6150SOL    HW119349   5.719   3.890   6.946
 6150SOL    HW219350   5.865   3.962   6.957
 6151SOL     OW19351   4.847   5.036   4.544
 6151SOL    HW119352   4.804   4.966   4.488
 6151SOL    HW219353   4.946   5.033   4.531
 6152SOL     OW19354   0.698   5.632   4.693
 6152SOL    HW119355   0.717   5.729   4.704
 6152SOL    HW219356   0.618   5.607   4.748
 6153SOL     OW19357   5.038   4.997   1.289
 6153SOL    HW119358   5.120   4.963   1.244
 6153SOL    HW219359   5.038   5.097   1.287
 6154SOL     OW19360   5.513   3.208   2.745
 6154SOL    HW119361   5.582   3.222   2.816
 6154SOL    HW219362   5.515   3.286   2.681
 6155SOL     OW19363   3.030   0.706   2.586
 6155SOL    HW119364   2.933   0.693   2.567
 6155SOL    HW219365   3.045   0.796   2.626
 6156SOL     OW19366   4.970   4.552   1.707
 6156SOL    HW119367   4.931   4.643   1.693
 6156SOL    HW219368   4.898   4.490   1.740
 6157SOL     OW19369   0.632   2.475   3.183
 6157SOL    HW119370   0.671   2.565   3.203
 6157SOL    HW219371   0.645   2.452   3.087
 6158SOL     OW19372   2.959   1.927   6.963
 6158SOL    HW119373   2.936   1.832   6.943
 6158SOL    HW219374   2.899   1.960   0.017
 6159SOL     OW19375   5.388   2.844   0.834
 6159SOL    HW119376   5.458   2.907   0.868
 6159SOL    HW219377   5.299   2.870   0.869
 6160SOL     OW19378   0.157   6.806   6.850
 6160SOL    HW119379   0.193   6.743   6.782
 6160SOL    HW219380   0.159   6.762   6.940
 6161SOL     OW19381   4.941   0.965   0.257
 6161SOL    HW119382   4.961   1.046   0.311
 6161SOL    HW219383   5.021   0.941   0.201
 6162SOL     OW19384   5.735   6.225   3.661
 6162SOL    HW119385   5.763   6.282   3.584
 6162SOL    HW219386   5.638   6.205   3.654
 6163SOL     OW19387   5.393   5.928   2.552
 6163SOL    HW119388   5.483   5.907   2.516
 6163SOL    HW219389   5.395   5.927   2.652
 6164SOL     OW19390   3.573   4.123   4.714
 6164SOL    HW119391   3.572   4.223   4.725
 6164SOL    HW219392   3.502   4.083   4.771
 6165SOL     OW19393   3.667   2.205   6.071
 6165SOL    HW119394   3.641   2.289   6.118
 6165SOL    HW219395   3.631   2.205   5.978
 6166SOL     OW19396   6.055   1.802   0.107
 6166SOL    HW119397   6.033   1.844   0.195
 6166SOL    HW219398   6.133   1.740   0.118
 6167SOL     OW19399   0.697   4.757   3.293
 6167SOL    HW119400   0.620   4.703   3.258
 6167SOL    HW219401   0.703   4.843   3.242
 6168SOL     OW19402   0.348   2.415   3.233
 6168SOL    HW119403   0.435   2.386   3.192
 6168SOL    HW219404   0.365   2.485   3.302
 6169SOL     OW19405   0.703   1.091   6.147
 6169SOL    HW119406   0.794   1.050   6.153
 6169SOL    HW219407   0.634   1.020   6.159
 6170SOL     OW19408   3.277   4.405   6.120
 6170SOL    HW119409   3.258   4.310   6.096
 6170SOL    HW219410   3.219   4.465   6.066
 6171SOL     OW19411   1.546   3.388   1.232
 6171SOL    HW119412   1.560   3.437   1.318
 6171SOL    HW219413   1.626   3.332   1.212
 6172SOL     OW19414   6.834   0.719   2.780
 6172SOL    HW119415   6.864   0.799   2.832
 6172SOL    HW219416   6.846   0.637   2.836
 6173SOL     OW19417   6.897   4.763   2.629
 6173SOL    HW119418   6.933   4.743   2.538
 6173SOL    HW219419   6.973   4.781   2.692
 6174SOL     OW19420   5.928   4.627   3.160
 6174SOL    HW119421   6.009   4.583   3.198
 6174SOL    HW219422   5.953   4.713   3.117
 6175SOL     OW19423   5.594   0.061   3.461
 6175SOL    HW119424   5.608   0.121   3.539
 6175SOL    HW219425   5.529   0.104   3.397
 6176SOL     OW19426   6.189   2.812   0.048
 6176SOL    HW119427   6.216   2.738   0.110
 6176SOL    HW219428   6.169   2.774   6.977
 6177SOL     OW19429   5.499   1.783   1.312
 6177SOL    HW119430   5.493   1.882   1.322
 6177SOL    HW219431   5.408   1.747   1.291
 6178SOL     OW19432   4.778   5.603   1.565
 6178SOL    HW119433   4.776   5.696   1.529
 6178SOL    HW219434   4.780   5.606   1.665
 6179SOL     OW19435   0.000   3.975   4.760
 6179SOL    HW119436   0.037   3.912   4.692
 6179SOL    HW219437   6.953   4.036   4.717
 6180SOL     OW19438   2.945   6.527   6.145
 6180SOL    HW119439   3.003   6.580   6.084
 6180SOL    HW219440   2.943   6.432   6.115
 6181SOL     OW19441   5.250   6.556   0.353
 6181SOL    HW119442   5.329   6.580   0.410
 6181SOL    HW219443   5.217   6.637   0.306
 6182SOL     OW19444   5.310   4.566   5.488
 6182SOL    HW119445   5.355   4.565   5.399
 6182SOL    HW219446   5.351   4.497   5.547
 6183SOL     OW19447   2.622   0.157   3.156
 6183SOL    HW119448   2.718   0.176   3.175
 6183SOL    HW219449   2.608   0.148   3.058
 6184SOL     OW19450   1.684   6.705   6.252
 6184SOL    HW119451   1.742   6.671   6.178
 6184SOL    HW219452   1.591   6.720   6.218
 6185SOL     OW19453   1.629   4.536   6.924
 6185SOL    HW119454   1.660   4.448   6.888
 6185SOL    HW219455   1.648   4.540   0.003
 6186SOL     OW19456   5.675   6.578   3.632
 6186SOL    HW119457   5.730   6.600   3.713
 6186SOL    HW219458   5.736   6.550   3.558
 6187SOL     OW19459   4.685   4.349   4.382
 6187SOL    HW119460   4.699   4.362   4.480
 6187SOL    HW219461   4.759   4.396   4.332
 6188SOL     OW19462   2.405   6.142   1.266
 6188SOL    HW119463   2.470   6.142   1.343
 6188SOL    HW219464   2.370   6.234   1.253
 6189SOL     OW19465   4.438   4.570   3.929
 6189SOL    HW119466   4.497   4.651   3.927
 6189SOL    HW219467   4.465   4.512   4.006
 6190SOL     OW19468   6.284   4.007   6.203
 6190SOL    HW119469   6.333   3.922   6.220
 6190SOL    HW219470   6.196   3.986   6.160
 6191SOL     OW19471   4.520   2.372   0.549
 6191SOL    HW119472   4.492   2.345   0.641
 6191SOL    HW219473   4.538   2.290   0.495
 6192SOL     OW19474   3.427   3.273   0.805
 6192SOL    HW119475   3.494   3.232   0.866
 6192SOL    HW219476   3.471   3.304   0.721
 6193SOL     OW19477   4.190   1.216   2.603
 6193SOL    HW119478   4.257   1.270   2.654
 6193SOL    HW219479   4.105   1.209   2.657
 6194SOL     OW19480   2.123   6.407   0.319
 6194SOL    HW119481   2.115   6.449   0.229
 6194SOL    HW219482   2.219   6.388   0.340
 6195SOL     OW19483   3.562   5.300   5.419
 6195SOL    HW119484   3.572   5.201   5.432
 6195SOL    HW219485   3.631   5.333   5.355
 6196SOL     OW19486   6.096   2.174   1.079
 6196SOL    HW119487   6.147   2.163   0.993
 6196SOL    HW219488   6.146   2.130   1.153
 6197SOL     OW19489   4.667   3.644   0.753
 6197SOL    HW119490   4.663   3.590   0.668
 6197SOL    HW219491   4.757   3.687   0.760
 6198SOL     OW19492   3.132   5.591   2.402
 6198SOL    HW119493   3.139   5.570   2.499
 6198SOL    HW219494   3.040   5.570   2.369
 6199SOL     OW19495   0.440   0.008   1.065
 6199SOL    HW119496   0.495   0.090   1.076
 6199SOL    HW219497   0.476   6.954   1.123
 6200SOL     OW19498   2.097   0.999   5.544
 6200SOL    HW119499   2.085   0.952   5.632
 6200SOL    HW219500   2.124   1.094   5.561
 6201SOL     OW19501   2.139   3.622   5.536
 6201SOL    HW119502   2.151   3.524   5.547
 6201SOL    HW219503   2.206   3.658   5.472
 6202SOL     OW19504   3.899   1.850   1.526
 6202SOL    HW119505   3.852   1.913   1.588
 6202SOL    HW219506   3.882   1.756   1.555
 6203SOL     OW19507   5.085   0.020   3.646
 6203SOL    HW119508   5.118   6.957   3.694
 6203SOL    HW219509   5.115   0.017   3.551
 6204SOL     OW19510   0.868   5.116   4.948
 6204SOL    HW119511   0.798   5.168   4.898
 6204SOL    HW219512   0.866   5.021   4.919
 6205SOL     OW19513   5.717   6.605   6.616
 6205SOL    HW119514   5.712   6.505   6.608
 6205SOL    HW219515   5.629   6.645   6.589
 6206SOL     OW19516   6.569   0.127   2.382
 6206SOL    HW119517   6.470   0.143   2.378
 6206SOL    HW219518   6.595   0.064   2.309
 6207SOL     OW19519   1.377   3.881   5.114
 6207SOL    HW119520   1.425   3.909   5.197
 6207SOL    HW219521   1.301   3.943   5.096
 6208SOL     OW19522   6.242   0.549   6.703
 6208SOL    HW119523   6.260   0.644   6.728
 6208SOL    HW219524   6.287   0.489   6.769
 6209SOL     OW19525   4.949   5.520   6.785
 6209SOL    HW119526   4.871   5.477   6.738
 6209SOL    HW219527   4.915   5.575   6.861
 6210SOL     OW19528   5.883   4.913   3.655
 6210SOL    HW119529   5.803   4.924   3.596
 6210SOL    HW219530   5.948   4.988   3.637
 6211SOL     OW19531   3.610   6.459   4.678
 6211SOL    HW119532   3.531   6.407   4.709
 6211SOL    HW219533   3.616   6.455   4.579
 6212SOL     OW19534   1.354   5.224   2.729
 6212SOL    HW119535   1.316   5.136   2.701
 6212SOL    HW219536   1.294   5.266   2.797
 6213SOL     OW19537   4.918   0.060   6.534
 6213SOL    HW119538   4.969   0.126   6.590
 6213SOL    HW219539   4.935   0.077   6.437
 6214SOL     OW19540   5.873   4.930   3.293
 6214SOL    HW119541   5.799   4.911   3.358
 6214SOL    HW219542   5.958   4.894   3.330
 6215SOL     OW19543   3.885   1.621   6.539
 6215SOL    HW119544   3.785   1.626   6.530
 6215SOL    HW219545   3.919   1.546   6.482
 6216SOL     OW19546   6.462   2.685   2.437
 6216SOL    HW119547   6.377   2.705   2.485
 6216SOL    HW219548   6.450   2.701   2.339
 6217SOL     OW19549   6.590   2.871   2.622
 6217SOL    HW119550   6.543   2.956   2.599
 6217SOL    HW219551   6.574   2.803   2.550
 6218SOL     OW19552   3.295   5.178   4.668
 6218SOL    HW119553   3.248   5.192   4.755
 6218SOL    HW219554   3.308   5.080   4.652
 6219SOL     OW19555   0.710   1.409   4.760
 6219SOL    HW119556   0.690   1.475   4.832
 6219SOL    HW219557   0.772   1.451   4.693
 6220SOL     OW19558   1.146   3.540   5.803
 6220SOL    HW119559   1.148   3.502   5.896
 6220SOL    HW219560   1.238   3.534   5.763
 6221SOL     OW19561   6.453   5.520   6.201
 6221SOL    HW119562   6.407   5.471   6.275
 6221SOL    HW219563   6.459   5.617   6.224
 6222SOL     OW19564   0.971   6.572   1.243
 6222SOL    HW119565   0.961   6.472   1.240
 6222SOL    HW219566   1.044   6.600   1.181
 6223SOL     OW19567   0.072   3.819   4.501
 6223SOL    HW119568   0.148   3.754   4.508
 6223SOL    HW219569   7.005   3.769   4.491
 6224SOL     OW19570   2.022   2.007   6.328
 6224SOL    HW119571   1.991   1.914   6.344
 6224SOL    HW219572   2.101   2.027   6.386
 6225SOL     OW19573   3.250   3.240   1.194
 6225SOL    HW119574   3.242   3.324   1.140
 6225SOL    HW219575   3.292   3.260   1.282
 6226SOL     OW19576   5.549   2.066   4.654
 6226SOL    HW119577   5.566   2.020   4.741
 6226SOL    HW219578   5.466   2.122   4.662
 6227SOL     OW19579   3.588   5.235   6.389
 6227SOL    HW119580   3.576   5.159   6.325
 6227SOL    HW219581   3.677   5.278   6.374
 6228SOL     OW19582   0.157   3.096   2.233
 6228SOL    HW119583   0.077   3.042   2.259
 6228SOL    HW219584   0.214   3.112   2.314
 6229SOL     OW19585   0.897   3.078   2.211
 6229SOL    HW119586   0.884   3.016   2.289
 6229SOL    HW219587   0.970   3.043   2.153
 6230SOL     OW19588   1.096   1.023   4.009
 6230SOL    HW119589   1.065   0.976   4.092
 6230SOL    HW219590   1.113   0.955   3.938
 6231SOL     OW19591   6.894   4.781   1.464
 6231SOL    HW119592   6.915   4.717   1.389
 6231SOL    HW219593   6.978   4.812   1.507
 6232SOL     OW19594   6.260   1.822   0.827
 6232SOL    HW119595   6.301   1.847   0.915
 6232SOL    HW219596   6.234   1.726   0.829
 6233SOL     OW19597   5.750   0.888   0.033
 6233SOL    HW119598   5.697   0.969   0.061
 6233SOL    HW219599   5.836   0.918   7.009
 6234SOL     OW19600   6.976   1.311   5.924
 6234SOL    HW119601   0.020   1.355   5.989
 6234SOL    HW219602   0.000   1.306   5.834
 6235SOL     OW19603   1.376   0.336   2.085
 6235SOL    HW119604   1.408   0.252   2.040
 6235SOL    HW219605   1.281   0.353   2.059
 6236SOL     OW19606   0.681   4.918   0.318
 6236SOL    HW119607   0.708   4.945   0.410
 6236SOL    HW219608   0.582   4.923   0.309
 6237SOL     OW19609   3.104   6.129   0.204
 6237SOL    HW119610   3.186   6.086   0.166
 6237SOL    HW219611   3.131   6.198   0.271
 6238SOL     OW19612   4.230   4.904   3.127
 6238SOL    HW119613   4.236   4.810   3.092
 6238SOL    HW219614   4.160   4.954   3.076
 6239SOL     OW19615   2.811   6.510   1.622
 6239SOL    HW119616   2.783   6.473   1.534
 6239SOL    HW219617   2.746   6.580   1.651
 6240SOL     OW19618   2.975   2.464   0.064
 6240SOL    HW119619   2.886   2.510   0.062
 6240SOL    HW219620   3.048   2.533   0.058
 6241SOL     OW19621   2.317   0.720   2.334
 6241SOL    HW119622   2.267   0.730   2.420
 6241SOL    HW219623   2.286   0.638   2.286
 6242SOL     OW19624   5.278   0.691   3.453
 6242SOL    HW119625   5.279   0.619   3.383
 6242SOL    HW219626   5.369   0.701   3.492
 6243SOL     OW19627   5.166   6.623   3.545
 6243SOL    HW119628   5.106   6.651   3.470
 6243SOL    HW219629   5.191   6.527   3.534
 6244SOL     OW19630   1.864   2.239   2.125
 6244SOL    HW119631   1.950   2.291   2.122
 6244SOL    HW219632   1.787   2.302   2.123
 6245SOL     OW19633   2.180   4.608   1.189
 6245SOL    HW119634   2.115   4.601   1.114
 6245SOL    HW219635   2.201   4.704   1.207
 6246SOL     OW19636   2.330   3.216   6.027
 6246SOL    HW119637   2.425   3.225   6.057
 6246SOL    HW219638   2.269   3.227   6.105
 6247SOL     OW19639   0.500   6.476   3.665
 6247SOL    HW119640   0.548   6.404   3.614
 6247SOL    HW219641   0.549   6.563   3.655
 6248SOL     OW19642   2.303   3.879   1.019
 6248SOL    HW119643   2.209   3.884   1.054
 6248SOL    HW219644   2.358   3.821   1.079
 6249SOL     OW19645   0.678   4.692   0.102
 6249SOL    HW119646   0.648   4.742   0.184
 6249SOL    HW219647   0.599   4.651   0.058
 6250SOL     OW19648   6.614   5.652   0.242
 6250SOL    HW119649   6.645   5.741   0.275
 6250SOL    HW219650   6.565   5.605   0.315
 6251SOL     OW19651   3.524   6.606   6.961
 6251SOL    HW119652   3.501   6.627   6.866
 6251SOL    HW219653   3.511   6.687   7.018
 6252SOL     OW19654   1.706   6.710   4.800
 6252SOL    HW119655   1.697   6.761   4.714
 6252SOL    HW219656   1.665   6.762   4.874
 6253SOL     OW19657   2.086   4.091   2.574
 6253SOL    HW119658   2.137   4.069   2.491
 6253SOL    HW219659   2.007   4.146   2.551
 6254SOL     OW19660   5.218   1.075   0.779
 6254SOL    HW119661   5.153   1.003   0.803
 6254SOL    HW219662   5.299   1.068   0.838
 6255SOL     OW19663   1.982   0.887   1.339
 6255SOL    HW119664   1.914   0.927   1.400
 6255SOL    HW219665   1.937   0.828   1.272
 6256SOL     OW19666   3.423   5.779   2.747
 6256SOL    HW119667   3.509   5.811   2.705
 6256SOL    HW219668   3.419   5.679   2.743
 6257SOL     OW19669   5.640   2.393   1.072
 6257SOL    HW119670   5.549   2.418   1.040
 6257SOL    HW219671   5.706   2.405   0.998
 6258SOL     OW19672   4.360   0.245   3.570
 6258SOL    HW119673   4.378   0.149   3.592
 6258SOL    HW219674   4.308   0.287   3.644
 6259SOL     OW19675   2.907   2.106   0.705
 6259SOL    HW119676   3.003   2.080   0.707
 6259SOL    HW219677   2.880   2.127   0.611
 6260SOL     OW19678   2.514   4.333   6.844
 6260SOL    HW119679   2.429   4.321   6.896
 6260SOL    HW219680   2.494   4.379   6.758
 6261SOL     OW19681   3.110   0.303   6.254
 6261SOL    HW119682   3.187   0.242   6.272
 6261SOL    HW219683   3.077   0.342   6.340
 6262SOL     OW19684   1.570   4.463   0.986
 6262SOL    HW119685   1.510   4.386   1.006
 6262SOL    HW219686   1.648   4.462   1.049
 6263SOL     OW19687   6.998   0.506   5.983
 6263SOL    HW119688   0.006   0.534   5.891
 6263SOL    HW219689   6.928   0.569   6.018
 6264SOL     OW19690   1.697   6.890   0.848
 6264SOL    HW119691   1.696   6.796   0.883
 6264SOL    HW219692   1.756   6.946   0.906
 6265SOL     OW19693   3.369   4.180   0.895
 6265SOL    HW119694   3.343   4.094   0.851
 6265SOL    HW219695   3.339   4.179   0.990
 6266SOL     OW19696   4.389   0.317   4.599
 6266SOL    HW119697   4.320   0.388   4.595
 6266SOL    HW219698   4.358   0.243   4.659
 6267SOL     OW19699   3.345   0.303   0.231
 6267SOL    HW119700   3.331   0.220   0.176
 6267SOL    HW219701   3.262   0.321   0.284
 6268SOL     OW19702   3.116   6.538   3.025
 6268SOL    HW119703   3.091   6.604   2.953
 6268SOL    HW219704   3.050   6.463   3.024
 6269SOL     OW19705   6.636   5.799   2.137
 6269SOL    HW119706   6.677   5.802   2.046
 6269SOL    HW219707   6.653   5.885   2.184
 6270SOL     OW19708   1.632   0.028   4.688
 6270SOL    HW119709   1.720   0.072   4.707
 6270SOL    HW219710   1.566   0.053   4.759
 6271SOL     OW19711   5.960   2.552   5.491
 6271SOL    HW119712   6.039   2.490   5.488
 6271SOL    HW219713   5.876   2.498   5.485
 6272SOL     OW19714   1.130   2.661   5.673
 6272SOL    HW119715   1.038   2.688   5.702
 6272SOL    HW219716   1.177   2.616   5.749
 6273SOL     OW19717   1.824   0.347   2.250
 6273SOL    HW119718   1.922   0.361   2.238
 6273SOL    HW219719   1.806   0.252   2.273
 6274SOL     OW19720   2.372   5.630   5.842
 6274SOL    HW119721   2.412   5.620   5.751
 6274SOL    HW219722   2.351   5.540   5.879
 6275SOL     OW19723   1.905   6.295   4.967
 6275SOL    HW119724   1.920   6.390   4.993
 6275SOL    HW219725   1.924   6.284   4.869
 6276SOL     OW19726   1.564   5.159   3.750
 6276SOL    HW119727   1.530   5.240   3.797
 6276SOL    HW219728   1.503   5.082   3.768
 6277SOL     OW19729   5.423   3.147   1.979
 6277SOL    HW119730   5.494   3.116   2.041
 6277SOL    HW219731   5.363   3.212   2.025
 6278SOL     OW19732   4.921   0.208   4.566
 6278SOL    HW119733   4.952   0.244   4.478
 6278SOL    HW219734   4.853   0.271   4.605
 6279SOL     OW19735   3.855   0.818   6.408
 6279SOL    HW119736   3.940   0.765   6.403
 6279SOL    HW219737   3.777   0.757   6.399
 6280SOL     OW19738   0.607   1.994   6.106
 6280SOL    HW119739   0.519   1.984   6.059
 6280SOL    HW219740   0.652   2.078   6.075
 6281SOL     OW19741   1.711   5.429   4.757
 6281SOL    HW119742   1.658   5.508   4.726
 6281SOL    HW219743   1.698   5.352   4.695
 6282SOL     OW19744   1.126   0.494   4.916
 6282SOL    HW119745   1.096   0.530   4.828
 6282SOL    HW219746   1.135   0.570   4.981
 6283SOL     OW19747   6.306   2.914   5.500
 6283SOL    HW119748   6.264   2.999   5.530
 6283SOL    HW219749   6.253   2.875   5.424
 6284SOL     OW19750   2.038   5.470   5.201
 6284SOL    HW119751   2.118   5.479   5.141
 6284SOL    HW219752   1.956   5.456   5.146
 6285SOL     OW19753   1.337   2.746   3.522
 6285SOL    HW119754   1.303   2.794   3.604
 6285SOL    HW219755   1.278   2.769   3.444
 6286SOL     OW19756   6.299   2.137   3.865
 6286SOL    HW119757   6.299   2.048   3.910
 6286SOL    HW219758   6.290   2.209   3.933
 6287SOL     OW19759   4.020   5.021   2.979
 6287SOL    HW119760   3.963   4.961   2.924
 6287SOL    HW219761   4.086   5.068   2.920
 6288SOL     OW19762   5.752   4.706   2.404
 6288SOL    HW119763   5.696   4.714   2.487
 6288SOL    HW219764   5.765   4.609   2.382
 6289SOL     OW19765   1.276   4.641   2.900
 6289SOL    HW119766   1.318   4.642   2.810
 6289SOL    HW219767   1.312   4.565   2.953
 6290SOL     OW19768   6.193   3.930   4.314
 6290SOL    HW119769   6.267   3.902   4.254
 6290SOL    HW219770   6.181   3.861   4.385
 6291SOL     OW19771   3.635   3.194   3.821
 6291SOL    HW119772   3.717   3.141   3.843
 6291SOL    HW219773   3.648   3.241   3.734
 6292SOL     OW19774   0.988   2.644   3.648
 6292SOL    HW119775   1.020   2.690   3.730
 6292SOL    HW219776   1.027   2.552   3.643
 6293SOL     OW19777   4.316   6.964   6.906
 6293SOL    HW119778   4.366   6.979   6.821
 6293SOL    HW219779   4.341   6.875   6.945
 6294SOL     OW19780   3.452   4.878   4.148
 6294SOL    HW119781   3.451   4.891   4.247
 6294SOL    HW219782   3.518   4.941   4.107
 6295SOL     OW19783   5.012   4.993   5.413
 6295SOL    HW119784   4.921   4.964   5.384
 6295SOL    HW219785   5.044   5.067   5.355
 6296SOL     OW19786   6.907   6.640   4.881
 6296SOL    HW119787   6.809   6.620   4.872
 6296SOL    HW219788   6.947   6.579   4.949
 6297SOL     OW19789   5.028   6.817   5.237
 6297SOL    HW119790   5.024   6.908   5.194
 6297SOL    HW219791   5.035   6.747   5.166
 6298SOL     OW19792   1.614   2.331   5.979
 6298SOL    HW119793   1.578   2.275   5.904
 6298SOL    HW219794   1.690   2.284   6.023
 6299SOL     OW19795   4.800   1.608   0.611
 6299SOL    HW119796   4.857   1.526   0.604
 6299SOL    HW219797   4.769   1.634   0.520
 6300SOL     OW19798   5.147   0.617   5.270
 6300SOL    HW119799   5.139   0.610   5.171
 6300SOL    HW219800   5.063   0.659   5.307
 6301SOL     OW19801   2.628   0.951   1.339
 6301SOL    HW119802   2.661   0.859   1.358
 6301SOL    HW219803   2.675   1.017   1.399
 6302SOL     OW19804   1.333   1.763   4.013
 6302SOL    HW119805   1.373   1.673   3.994
 6302SOL    HW219806   1.406   1.827   4.035
 6303SOL     OW19807   2.132   1.039   4.731
 6303SOL    HW119808   2.093   0.970   4.791
 6303SOL    HW219809   2.214   1.078   4.774
 6304SOL     OW19810   2.073   1.276   0.490
 6304SOL    HW119811   2.139   1.201   0.484
 6304SOL    HW219812   1.982   1.239   0.513
 6305SOL     OW19813   6.163   6.863   0.834
 6305SOL    HW119814   6.182   6.953   0.873
 6305SOL    HW219815   6.064   6.851   0.825
 6306SOL     OW19816   1.395   4.184   4.456
 6306SOL    HW119817   1.424   4.145   4.369
 6306SOL    HW219818   1.438   4.133   4.531
 6307SOL     OW19819   3.953   3.883   5.556
 6307SOL    HW119820   3.954   3.889   5.656
 6307SOL    HW219821   3.960   3.975   5.517
 6308SOL     OW19822   1.403   1.940   4.944
 6308SOL    HW119823   1.349   1.984   5.017
 6308SOL    HW219824   1.438   1.852   4.978
 6309SOL     OW19825   4.815   3.882   4.545
 6309SOL    HW119826   4.839   3.939   4.466
 6309SOL    HW219827   4.716   3.877   4.554
 6310SOL     OW19828   2.093   5.371   3.755
 6310SOL    HW119829   2.019   5.399   3.817
 6310SOL    HW219830   2.132   5.285   3.787
 6311SOL     OW19831   5.918   0.570   5.548
 6311SOL    HW119832   6.008   0.562   5.505
 6311SOL    HW219833   5.901   0.489   5.604
 6312SOL     OW19834   5.857   5.096   5.627
 6312SOL    HW119835   5.955   5.077   5.619
 6312SOL    HW219836   5.807   5.041   5.560
 6313SOL     OW19837   1.573   5.850   2.954
 6313SOL    HW119838   1.567   5.808   3.044
 6313SOL    HW219839   1.491   5.826   2.901
 6314SOL     OW19840   4.232   6.263   1.488
 6314SOL    HW119841   4.243   6.264   1.588
 6314SOL    HW219842   4.260   6.351   1.450
 6315SOL     OW19843   3.656   3.193   6.558
 6315SOL    HW119844   3.638   3.190   6.459
 6315SOL    HW219845   3.741   3.241   6.575
 6316SOL     OW19846   4.557   2.149   6.440
 6316SOL    HW119847   4.510   2.150   6.529
 6316SOL    HW219848   4.616   2.069   6.434
 6317SOL     OW19849   5.196   5.374   3.442
 6317SOL    HW119850   5.226   5.282   3.466
 6317SOL    HW219851   5.251   5.441   3.492
 6318SOL     OW19852   3.081   1.857   4.804
 6318SOL    HW119853   3.141   1.936   4.792
 6318SOL    HW219854   3.136   1.778   4.830
 6319SOL     OW19855   0.140   2.238   3.268
 6319SOL    HW119856   0.164   2.192   3.354
 6319SOL    HW219857   0.208   2.308   3.248
 6320SOL     OW19858   6.057   4.354   5.025
 6320SOL    HW119859   5.978   4.391   4.976
 6320SOL    HW219860   6.111   4.298   4.963
 6321SOL     OW19861   3.245   4.877   0.952
 6321SOL    HW119862   3.222   4.968   0.987
 6321SOL    HW219863   3.204   4.807   1.011
 6322SOL     OW19864   1.583   2.592   6.581
 6322SOL    HW119865   1.569   2.557   6.488
 6322SOL    HW219866   1.635   2.524   6.634
 6323SOL     OW19867   3.788   2.867   0.982
 6323SOL    HW119868   3.743   2.843   1.069
 6323SOL    HW219869   3.777   2.792   0.917
 6324SOL     OW19870   4.904   0.363   5.851
 6324SOL    HW119871   4.901   0.458   5.880
 6324SOL    HW219872   4.993   0.342   5.811
 6325SOL     OW19873   1.032   2.133   2.191
 6325SOL    HW119874   1.012   2.054   2.248
 6325SOL    HW219875   1.056   2.103   2.099
 6326SOL     OW19876   4.775   6.416   1.952
 6326SOL    HW119877   4.694   6.454   1.907
 6326SOL    HW219878   4.802   6.332   1.905
 6327SOL     OW19879   0.252   0.702   5.418
 6327SOL    HW119880   0.185   0.762   5.375
 6327SOL    HW219881   0.207   0.620   5.453
 6328SOL     OW19882   1.713   4.116   0.701
 6328SOL    HW119883   1.782   4.103   0.773
 6328SOL    HW219884   1.731   4.202   0.653
 6329SOL     OW19885   2.345   2.768   3.329
 6329SOL    HW119886   2.292   2.696   3.283
 6329SOL    HW219887   2.442   2.749   3.319
 6330SOL     OW19888   4.719   0.915   1.722
 6330SOL    HW119889   4.642   0.964   1.681
 6330SOL    HW219890   4.691   0.878   1.810
 6331SOL     OW19891   5.974   1.925   0.346
 6331SOL    HW119892   5.876   1.920   0.368
 6331SOL    HW219893   6.025   1.861   0.403
 6332SOL     OW19894   6.925   3.925   2.338
 6332SOL    HW119895   6.976   4.002   2.299
 6332SOL    HW219896   6.946   3.842   2.285
 6333SOL     OW19897   4.041   4.849   4.163
 6333SOL    HW119898   4.067   4.803   4.248
 6333SOL    HW219899   4.114   4.838   4.095
 6334SOL     OW19900   2.129   0.325   2.172
 6334SOL    HW119901   2.149   0.415   2.133
 6334SOL    HW219902   2.214   0.272   2.179
 6335SOL     OW19903   4.606   1.303   0.891
 6335SOL    HW119904   4.703   1.322   0.902
 6335SOL    HW219905   4.552   1.373   0.938
 6336SOL     OW19906   0.074   1.521   6.066
 6336SOL    HW119907   0.162   1.483   6.037
 6336SOL    HW219908   0.087   1.615   6.097
 6337SOL     OW19909   4.741   3.972   6.329
 6337SOL    HW119910   4.673   4.001   6.262
 6337SOL    HW219911   4.832   3.991   6.293
 6338SOL     OW19912   2.689   2.191   2.682
 6338SOL    HW119913   2.722   2.261   2.619
 6338SOL    HW219914   2.727   2.102   2.656
 6339SOL     OW19915   0.517   3.027   3.528
 6339SOL    HW119916   0.547   3.087   3.454
 6339SOL    HW219917   0.596   2.977   3.564
 6340SOL     OW19918   1.984   4.839   2.994
 6340SOL    HW119919   2.018   4.752   3.028
 6340SOL    HW219920   1.970   4.902   3.070
 6341SOL     OW19921   0.730   5.019   3.838
 6341SOL    HW119922   0.829   5.026   3.825
 6341SOL    HW219923   0.698   4.931   3.804
 6342SOL     OW19924   2.703   1.854   1.708
 6342SOL    HW119925   2.696   1.942   1.662
 6342SOL    HW219926   2.776   1.800   1.667
 6343SOL     OW19927   4.981   2.494   6.317
 6343SOL    HW119928   5.074   2.514   6.349
 6343SOL    HW219929   4.917   2.502   6.393
 6344SOL     OW19930   6.063   3.406   5.666
 6344SOL    HW119931   6.058   3.439   5.572
 6344SOL    HW219932   6.079   3.483   5.728
 6345SOL     OW19933   4.425   1.547   2.277
 6345SOL    HW119934   4.448   1.504   2.364
 6345SOL    HW219935   4.509   1.575   2.230
 6346SOL     OW19936   6.943   3.437   3.792
 6346SOL    HW119937   6.900   3.448   3.703
 6346SOL    HW219938   6.979   3.343   3.800
 6347SOL     OW19939   2.205   0.704   1.275
 6347SOL    HW119940   2.279   0.757   1.232
 6347SOL    HW219941   2.129   0.764   1.297
 6348SOL     OW19942   1.190   4.071   5.069
 6348SOL    HW119943   1.167   4.158   5.113
 6348SOL    HW219944   1.113   4.041   5.013
 6349SOL     OW19945   3.141   0.535   1.505
 6349SOL    HW119946   3.142   0.484   1.591
 6349SOL    HW219947   3.079   0.490   1.440
 6350SOL     OW19948   2.384   4.927   3.930
 6350SOL    HW119949   2.384   4.923   4.030
 6350SOL    HW219950   2.462   4.982   3.899
 6351SOL     OW19951   6.556   3.151   2.273
 6351SOL    HW119952   6.519   3.217   2.207
 6351SOL    HW219953   6.655   3.159   2.276
 6352SOL     OW19954   2.257   5.129   4.482
 6352SOL    HW119955   2.303   5.169   4.562
 6352SOL    HW219956   2.230   5.035   4.502
 6353SOL     OW19957   6.502   0.775   6.209
 6353SOL    HW119958   6.585   0.830   6.217
 6353SOL    HW219959   6.433   0.826   6.158
 6354SOL     OW19960   1.240   0.468   2.409
 6354SOL    HW119961   1.216   0.408   2.485
 6354SOL    HW219962   1.329   0.510   2.425
 6355SOL     OW19963   1.666   4.665   5.687
 6355SOL    HW119964   1.613   4.749   5.699
 6355SOL    HW219965   1.610   4.596   5.640
 6356SOL     OW19966   4.017   4.808   2.542
 6356SOL    HW119967   4.097   4.749   2.542
 6356SOL    HW219968   3.985   4.821   2.448
 6357SOL     OW19969   4.879   2.592   1.857
 6357SOL    HW119970   4.857   2.496   1.875
 6357SOL    HW219971   4.852   2.647   1.937
 6358SOL     OW19972   0.829   2.168   6.066
 6358SOL    HW119973   0.864   2.205   5.980
 6358SOL    HW219974   0.904   2.160   6.131
 6359SOL     OW19975   5.979   6.963   5.624
 6359SOL    HW119976   5.881   6.945   5.619
 6359SOL    HW219977   6.029   6.879   5.606
 6360SOL     OW19978   1.986   3.989   4.240
 6360SOL    HW119979   1.949   4.072   4.197
 6360SOL    HW219980   2.034   4.015   4.324
 6361SOL     OW19981   6.217   0.237   0.213
 6361SOL    HW119982   6.139   0.255   0.273
 6361SOL    HW219983   6.187   0.177   0.138
 6362SOL     OW19984   6.216   5.349   6.349
 6362SOL    HW119985   6.201   5.445   6.323
 6362SOL    HW219986   6.306   5.339   6.390
 6363SOL     OW19987   2.451   4.778   3.077
 6363SOL    HW119988   2.386   4.852   3.097
 6363SOL    HW219989   2.505   4.758   3.159
 6364SOL     OW19990   3.293   1.218   5.822
 6364SOL    HW119991   3.267   1.126   5.794
 6364SOL    HW219992   3.365   1.213   5.891
 6365SOL     OW19993   5.240   6.888   4.250
 6365SOL    HW119994   5.266   6.799   4.287
 6365SOL    HW219995   5.299   6.959   4.289
 6366SOL     OW19996   0.377   5.769   6.420
 6366SOL    HW119997   0.338   5.861   6.424
 6366SOL    HW219998   0.472   5.775   6.388
 6367SOL     OW19999   3.919   0.584   4.009
 6367SOL    HW120000   3.898   0.488   3.993
 6367SOL    HW220001   3.908   0.606   4.106
 6368SOL     OW20002   3.634   0.371   3.395
 6368SOL    HW120003   3.716   0.429   3.400
 6368SOL    HW220004   3.641   0.298   3.463
 6369SOL     OW20005   2.492   4.962   4.730
 6369SOL    HW120006   2.433   4.893   4.774
 6369SOL    HW220007   2.453   5.052   4.745
 6370SOL     OW20008   1.590   3.192   2.456
 6370SOL    HW120009   1.617   3.287   2.435
 6370SOL    HW220010   1.566   3.146   2.371
 6371SOL     OW20011   4.913   3.370   4.144
 6371SOL    HW120012   4.899   3.460   4.103
 6371SOL    HW220013   4.842   3.308   4.112
 6372SOL     OW20014   3.403   0.063   1.788
 6372SOL    HW120015   3.380   0.110   1.703
 6372SOL    HW220016   3.494   0.093   1.819
 6373SOL     OW20017   5.913   4.274   3.868
 6373SOL    HW120018   5.993   4.319   3.908
 6373SOL    HW220019   5.858   4.233   3.941
 6374SOL     OW20020   3.705   3.984   3.921
 6374SOL    HW120021   3.776   3.945   3.978
 6374SOL    HW220022   3.738   3.992   3.827
 6375SOL     OW20023   0.074   1.723   3.932
 6375SOL    HW120024   0.077   1.811   3.980
 6375SOL    HW220025   0.060   1.650   3.998
 6376SOL     OW20026   6.375   2.225   5.488
 6376SOL    HW120027   6.452   2.220   5.424
 6376SOL    HW220028   6.406   2.262   5.575
 6377SOL     OW20029   6.371   1.581   5.688
 6377SOL    HW120030   6.280   1.622   5.691
 6377SOL    HW220031   6.425   1.614   5.765
 6378SOL     OW20032   4.986   4.957   3.547
 6378SOL    HW120033   5.003   4.863   3.518
 6378SOL    HW220034   5.069   4.995   3.589
 6379SOL     OW20035   2.521   4.570   4.338
 6379SOL    HW120036   2.468   4.502   4.289
 6379SOL    HW220037   2.462   4.620   4.401
 6380SOL     OW20038   0.007   1.531   5.578
 6380SOL    HW120039   6.934   1.560   5.606
 6380SOL    HW220040   0.020   1.550   5.480
 6381SOL     OW20041   3.408   3.379   2.244
 6381SOL    HW120042   3.335   3.329   2.290
 6381SOL    HW220043   3.496   3.351   2.281
 6382SOL     OW20044   1.203   3.003   0.425
 6382SOL    HW120045   1.264   3.010   0.346
 6382SOL    HW220046   1.218   2.916   0.471
 6383SOL     OW20047   2.228   2.432   2.898
 6383SOL    HW120048   2.280   2.413   2.982
 6383SOL    HW220049   2.290   2.468   2.828
 6384SOL     OW20050   5.693   4.399   1.344
 6384SOL    HW120051   5.673   4.484   1.295
 6384SOL    HW220052   5.619   4.334   1.328
 6385SOL     OW20053   6.803   4.537   4.382
 6385SOL    HW120054   6.828   4.452   4.336
 6385SOL    HW220055   6.837   4.615   4.330
 6386SOL     OW20056   2.627   4.022   6.525
 6386SOL    HW120057   2.531   4.038   6.548
 6386SOL    HW220058   2.641   4.041   6.428
 6387SOL     OW20059   0.695   1.668   6.733
 6387SOL    HW120060   0.678   1.682   6.635
 6387SOL    HW220061   0.741   1.580   6.747
 6388SOL     OW20062   4.528   4.562   1.936
 6388SOL    HW120063   4.492   4.469   1.925
 6388SOL    HW220064   4.603   4.561   2.002
 6389SOL     OW20065   0.856   5.770   2.026
 6389SOL    HW120066   0.838   5.686   2.078
 6389SOL    HW220067   0.777   5.791   1.968
 6390SOL     OW20068   1.304   2.165   4.634
 6390SOL    HW120069   1.220   2.125   4.596
 6390SOL    HW220070   1.369   2.092   4.654
 6391SOL     OW20071   3.001   0.179   5.939
 6391SOL    HW120072   2.996   0.089   5.895
 6391SOL    HW220073   3.080   0.181   6.000
 6392SOL     OW20074   2.257   6.723   3.573
 6392SOL    HW120075   2.272   6.736   3.474
 6392SOL    HW220076   2.321   6.655   3.608
 6393SOL     OW20077   6.127   6.324   1.419
 6393SOL    HW120078   6.125   6.333   1.319
 6393SOL    HW220079   6.147   6.229   1.444
 6394SOL     OW20080   2.673   4.439   1.232
 6394SOL    HW120081   2.724   4.449   1.318
 6394SOL    HW220082   2.587   4.489   1.239
 6395SOL     OW20083   5.881   2.651   1.184
 6395SOL    HW120084   5.926   2.561   1.186
 6395SOL    HW220085   5.847   2.674   1.275
 6396SOL     OW20086   5.161   2.843   6.753
 6396SOL    HW120087   5.061   2.846   6.745
 6396SOL    HW220088   5.188   2.761   6.802
 6397SOL     OW20089   5.789   2.201   6.936
 6397SOL    HW120090   5.820   2.157   0.001
 6397SOL    HW220091   5.754   2.131   6.873
 6398SOL     OW20092   3.669   0.778   0.718
 6398SOL    HW120093   3.670   0.860   0.661
 6398SOL    HW220094   3.639   0.700   0.663
 6399SOL     OW20095   1.827   4.965   6.421
 6399SOL    HW120096   1.866   4.914   6.497
 6399SOL    HW220097   1.898   4.984   6.352
 6400SOL     OW20098   2.228   5.635   3.100
 6400SOL    HW120099   2.161   5.685   3.045
 6400SOL    HW220100   2.294   5.591   3.039
 6401SOL     OW20101   6.577   4.603   3.669
 6401SOL    HW120102   6.658   4.560   3.630
 6401SOL    HW220103   6.537   4.542   3.737
 6402SOL     OW20104   3.099   0.696   3.035
 6402SOL    HW120105   3.101   0.638   2.954
 6402SOL    HW220106   3.160   0.775   3.021
 6403SOL     OW20107   0.647   6.027   6.446
 6403SOL    HW120108   0.687   6.080   6.371
 6403SOL    HW220109   0.599   6.088   6.508
 6404SOL     OW20110   4.163   1.514   2.972
 6404SOL    HW120111   4.138   1.600   2.927
 6404SOL    HW220112   4.096   1.444   2.949
 6405SOL     OW20113   1.708   1.071   3.447
 6405SOL    HW120114   1.677   1.058   3.541
 6405SOL    HW220115   1.688   1.164   3.418
 6406SOL     OW20116   1.919   2.256   3.538
 6406SOL    HW120117   2.002   2.253   3.482
 6406SOL    HW220118   1.870   2.342   3.520
 6407SOL     OW20119   3.179   0.048   2.894
 6407SOL    HW120120   3.087   0.009   2.897
 6407SOL    HW220121   3.237   0.003   2.962
 6408SOL     OW20122   6.061   2.423   6.795
 6408SOL    HW120123   6.071   2.420   6.895
 6408SOL    HW220124   6.146   2.395   6.752
 6409SOL     OW20125   0.145   4.180   2.887
 6409SOL    HW120126   0.060   4.127   2.883
 6409SOL    HW220127   0.148   4.231   2.973
 6410SOL     OW20128   1.900   1.642   0.023
 6410SOL    HW120129   1.835   1.711   0.054
 6410SOL    HW220130   1.987   1.655   0.072
 6411SOL     OW20131   0.566   3.218   3.254
 6411SOL    HW120132   0.479   3.266   3.252
 6411SOL    HW220133   0.588   3.185   3.162
 6412SOL     OW20134   0.057   2.877   5.524
 6412SOL    HW120135   0.120   2.805   5.554
 6412SOL    HW220136   6.990   2.836   5.496
 6413SOL     OW20137   5.172   4.814   3.146
 6413SOL    HW120138   5.241   4.809   3.074
 6413SOL    HW220139   5.088   4.853   3.108
 6414SOL     OW20140   6.170   0.522   1.803
 6414SOL    HW120141   6.203   0.472   1.883
 6414SOL    HW220142   6.190   0.619   1.814
 6415SOL     OW20143   2.414   2.206   2.834
 6415SOL    HW120144   2.502   2.231   2.794
 6415SOL    HW220145   2.402   2.253   2.921
 6416SOL     OW20146   0.891   0.836   5.545
 6416SOL    HW120147   0.857   0.762   5.603
 6416SOL    HW220148   0.857   0.923   5.579
 6417SOL     OW20149   0.203   4.434   2.411
 6417SOL    HW120150   0.256   4.360   2.370
 6417SOL    HW220151   0.214   4.433   2.510
 6418SOL     OW20152   5.767   4.904   2.210
 6418SOL    HW120153   5.696   4.954   2.260
 6418SOL    HW220154   5.790   4.820   2.260
 6419SOL     OW20155   2.632   5.031   2.818
 6419SOL    HW120156   2.705   4.991   2.761
 6419SOL    HW220157   2.559   4.963   2.830
 6420SOL     OW20158   3.106   3.290   5.711
 6420SOL    HW120159   3.087   3.193   5.694
 6420SOL    HW220160   3.072   3.344   5.634
 6421SOL     OW20161   5.818   1.707   2.233
 6421SOL    HW120162   5.872   1.625   2.253
 6421SOL    HW220163   5.857   1.786   2.280
 6422SOL     OW20164   0.057   0.060   3.966
 6422SOL    HW120165   0.069   6.990   3.921
 6422SOL    HW220166   0.046   0.046   4.064
 6423SOL     OW20167   4.758   4.384   2.373
 6423SOL    HW120168   4.670   4.411   2.333
 6423SOL    HW220169   4.771   4.430   2.460
 6424SOL     OW20170   6.758   5.436   5.920
 6424SOL    HW120171   6.779   5.340   5.902
 6424SOL    HW220172   6.742   5.449   6.018
 6425SOL     OW20173   6.698   5.538   3.679
 6425SOL    HW120174   6.638   5.547   3.600
 6425SOL    HW220175   6.654   5.479   3.747
 6426SOL     OW20176   0.681   4.782   3.659
 6426SOL    HW120177   0.648   4.691   3.683
 6426SOL    HW220178   0.632   4.816   3.579
 6427SOL     OW20179   1.795   3.447   6.680
 6427SOL    HW120180   1.697   3.446   6.700
 6427SOL    HW220181   1.809   3.437   6.581
 6428SOL     OW20182   6.330   3.470   0.555
 6428SOL    HW120183   6.230   3.470   0.557
 6428SOL    HW220184   6.364   3.557   0.589
 6429SOL     OW20185   0.628   1.604   4.928
 6429SOL    HW120186   0.655   1.660   4.850
 6429SOL    HW220187   0.709   1.575   4.978
 6430SOL     OW20188   5.087   0.985   2.149
 6430SOL    HW120189   5.021   0.971   2.223
 6430SOL    HW220190   5.102   1.083   2.136
 6431SOL     OW20191   5.517   0.225   3.241
 6431SOL    HW120192   5.430   0.205   3.194
 6431SOL    HW220193   5.511   0.315   3.284
 6432SOL     OW20194   3.953   3.905   0.149
 6432SOL    HW120195   4.050   3.919   0.129
 6432SOL    HW220196   3.916   3.987   0.193
 6433SOL     OW20197   3.737   4.240   0.857
 6433SOL    HW120198   3.792   4.231   0.940
 6433SOL    HW220199   3.684   4.325   0.861
 6434SOL     OW20200   2.025   3.875   0.655
 6434SOL    HW120201   2.049   3.923   0.571
 6434SOL    HW220202   2.047   3.933   0.734
 6435SOL     OW20203   3.764   5.357   0.195
 6435SOL    HW120204   3.790   5.273   0.148
 6435SOL    HW220205   3.783   5.436   0.135
 6436SOL     OW20206   2.136   3.112   4.034
 6436SOL    HW120207   2.191   3.076   3.959
 6436SOL    HW220208   2.070   3.043   4.063
 6437SOL     OW20209   1.437   1.032   0.702
 6437SOL    HW120210   1.364   1.000   0.642
 6437SOL    HW220211   1.401   1.046   0.795
 6438SOL     OW20212   0.461   4.184   5.891
 6438SOL    HW120213   0.404   4.257   5.852
 6438SOL    HW220214   0.442   4.175   5.989
 6439SOL     OW20215   0.071   0.075   1.759
 6439SOL    HW120216   0.104   0.142   1.826
 6439SOL    HW220217   7.008   0.111   1.714
 6440SOL     OW20218   1.777   1.715   1.960
 6440SOL    HW120219   1.862   1.707   2.011
 6440SOL    HW220220   1.794   1.762   1.873
 6441SOL     OW20221   0.794   0.070   2.650
 6441SOL    HW120222   0.732   0.042   2.724
 6441SOL    HW220223   0.835   7.007   2.609
 6442SOL     OW20224   1.894   1.473   3.220
 6442SOL    HW120225   1.952   1.431   3.290
 6442SOL    HW220226   1.948   1.492   3.138
 6443SOL     OW20227   3.731   2.457   7.003
 6443SOL    HW120228   3.788   2.539   7.003
 6443SOL    HW220229   3.763   2.394   0.055
 6444SOL     OW20230   1.239   2.901   3.707
 6444SOL    HW120231   1.251   3.000   3.716
 6444SOL    HW220232   1.160   2.872   3.761
 6445SOL     OW20233   4.685   2.683   5.813
 6445SOL    HW120234   4.785   2.680   5.807
 6445SOL    HW220235   4.658   2.759   5.872
 6446SOL     OW20236   0.965   1.021   6.201
 6446SOL    HW120237   0.981   1.028   6.102
 6446SOL    HW220238   1.017   1.092   6.248
 6447SOL     OW20239   0.199   5.826   2.274
 6447SOL    HW120240   0.149   5.897   2.225
 6447SOL    HW220241   0.215   5.855   2.369
 6448SOL     OW20242   5.409   4.582   2.332
 6448SOL    HW120243   5.479   4.548   2.270
 6448SOL    HW220244   5.345   4.509   2.356
 6449SOL     OW20245   3.733   4.634   1.102
 6449SOL    HW120246   3.662   4.695   1.066
 6449SOL    HW220247   3.691   4.549   1.134
 6450SOL     OW20248   0.175   3.525   1.545
 6450SOL    HW120249   0.086   3.481   1.544
 6450SOL    HW220250   0.211   3.530   1.452
 6451SOL     OW20251   2.579   6.616   4.900
 6451SOL    HW120252   2.664   6.572   4.932
 6451SOL    HW220253   2.555   6.690   4.963
 6452SOL     OW20254   3.544   6.076   5.349
 6452SOL    HW120255   3.491   6.056   5.431
 6452SOL    HW220256   3.629   6.022   5.350
 6453SOL     OW20257   1.823   5.893   0.084
 6453SOL    HW120258   1.907   5.861   0.041
 6453SOL    HW220259   1.811   5.991   0.066
 6454SOL     OW20260   2.988   1.042   3.457
 6454SOL    HW120261   3.077   1.047   3.503
 6454SOL    HW220262   2.915   1.067   3.520
 6455SOL     OW20263   0.817   2.421   4.247
 6455SOL    HW120264   0.847   2.516   4.247
 6455SOL    HW220265   0.881   2.366   4.194
 6456SOL     OW20266   1.667   0.260   3.535
 6456SOL    HW120267   1.580   0.257   3.585
 6456SOL    HW220268   1.663   0.198   3.457
 6457SOL     OW20269   5.325   0.981   1.242
 6457SOL    HW120270   5.242   0.957   1.292
 6457SOL    HW220271   5.341   1.080   1.250
 6458SOL     OW20272   0.845   0.000   3.461
 6458SOL    HW120273   0.901   0.082   3.450
 6458SOL    HW220274   0.765   0.007   3.400
 6459SOL     OW20275   5.639   5.734   0.758
 6459SOL    HW120276   5.555   5.751   0.707
 6459SOL    HW220277   5.618   5.725   0.855
 6460SOL     OW20278   4.306   5.077   6.030
 6460SOL    HW120279   4.356   5.147   6.082
 6460SOL    HW220280   4.281   5.002   6.091
 6461SOL     OW20281   3.013   4.996   5.202
 6461SOL    HW120282   3.064   4.965   5.122
 6461SOL    HW220283   2.931   4.941   5.212
 6462SOL     OW20284   2.261   2.800   5.202
 6462SOL    HW120285   2.325   2.864   5.159
 6462SOL    HW220286   2.313   2.731   5.253
 6463SOL     OW20287   1.869   3.949   6.448
 6463SOL    HW120288   1.829   3.934   6.358
 6463SOL    HW220289   1.843   3.874   6.509
 6464SOL     OW20290   0.904   4.846   5.139
 6464SOL    HW120291   0.893   4.841   5.040
 6464SOL    HW220292   1.001   4.854   5.161
 6465SOL     OW20293   6.379   2.812   4.005
 6465SOL    HW120294   6.281   2.829   4.012
 6465SOL    HW220295   6.428   2.900   4.004
 6466SOL     OW20296   0.527   1.385   6.441
 6466SOL    HW120297   0.431   1.381   6.413
 6466SOL    HW220298   0.533   1.405   6.539
 6467SOL     OW20299   3.069   1.108   0.045
 6467SOL    HW120300   2.973   1.115   0.018
 6467SOL    HW220301   3.088   1.016   0.079
 6468SOL     OW20302   3.986   6.319   1.732
 6468SOL    HW120303   3.886   6.324   1.740
 6468SOL    HW220304   4.017   6.229   1.762
 6469SOL     OW20305   4.922   0.410   5.441
 6469SOL    HW120306   4.871   0.426   5.356
 6469SOL    HW220307   4.914   0.314   5.467
 6470SOL     OW20308   5.935   5.306   6.397
 6470SOL    HW120309   5.915   5.218   6.354
 6470SOL    HW220310   6.034   5.317   6.405
 6471SOL     OW20311   6.895   5.634   5.816
 6471SOL    HW120312   6.836   5.566   5.860
 6471SOL    HW220313   6.877   5.635   5.718
 6472SOL     OW20314   0.519   4.714   0.938
 6472SOL    HW120315   0.541   4.632   0.991
 6472SOL    HW220316   0.443   4.762   0.981
 6473SOL     OW20317   2.188   1.820   4.566
 6473SOL    HW120318   2.089   1.821   4.578
 6473SOL    HW220319   2.226   1.907   4.598
 6474SOL     OW20320   1.670   3.056   5.748
 6474SOL    HW120321   1.703   2.974   5.795
 6474SOL    HW220322   1.692   3.050   5.650
 6475SOL     OW20323   6.833   5.294   4.861
 6475SOL    HW120324   6.742   5.285   4.821
 6475SOL    HW220325   6.903   5.279   4.791
 6476SOL     OW20326   4.508   3.718   1.624
 6476SOL    HW120327   4.557   3.790   1.576
 6476SOL    HW220328   4.414   3.748   1.642
 6477SOL     OW20329   0.308   4.958   1.261
 6477SOL    HW120330   0.360   4.884   1.302
 6477SOL    HW220331   0.370   5.030   1.231
 6478SOL     OW20332   3.572   6.185   2.324
 6478SOL    HW120333   3.619   6.245   2.388
 6478SOL    HW220334   3.488   6.150   2.367
 6479SOL     OW20335   3.662   5.629   3.183
 6479SOL    HW120336   3.684   5.652   3.089
 6479SOL    HW220337   3.583   5.683   3.214
 6480SOL     OW20338   3.367   2.900   5.532
 6480SOL    HW120339   3.396   2.804   5.534
 6480SOL    HW220340   3.287   2.910   5.473
 6481SOL     OW20341   3.178   1.864   1.832
 6481SOL    HW120342   3.171   1.961   1.856
 6481SOL    HW220343   3.256   1.850   1.772
 6482SOL     OW20344   7.008   1.036   6.438
 6482SOL    HW120345   0.074   1.058   6.390
 6482SOL    HW220346   6.938   1.102   6.413
 6483SOL     OW20347   2.684   5.510   1.498
 6483SOL    HW120348   2.702   5.606   1.518
 6483SOL    HW220349   2.770   5.460   1.492
 6484SOL     OW20350   3.573   0.220   2.980
 6484SOL    HW120351   3.619   0.141   3.022
 6484SOL    HW220352   3.628   0.302   2.994
 6485SOL     OW20353   2.135   3.596   3.880
 6485SOL    HW120354   2.047   3.626   3.916
 6485SOL    HW220355   2.181   3.538   3.948
 6486SOL     OW20356   1.291   4.662   4.203
 6486SOL    HW120357   1.265   4.626   4.113
 6486SOL    HW220358   1.237   4.744   4.223
 6487SOL     OW20359   6.410   5.787   4.995
 6487SOL    HW120360   6.399   5.725   5.073
 6487SOL    HW220361   6.490   5.760   4.942
 6488SOL     OW20362   2.781   5.979   4.882
 6488SOL    HW120363   2.759   6.074   4.906
 6488SOL    HW220364   2.701   5.922   4.900
 6489SOL     OW20365   2.204   3.603   6.572
 6489SOL    HW120366   2.291   3.557   6.586
 6489SOL    HW220367   2.217   3.680   6.509
 6490SOL     OW20368   4.099   2.806   6.960
 6490SOL    HW120369   4.042   2.751   6.900
 6490SOL    HW220370   4.195   2.780   6.947
 6491SOL     OW20371   4.135   1.347   6.782
 6491SOL    HW120372   4.200   1.272   6.795
 6491SOL    HW220373   4.171   1.411   6.714
 6492SOL     OW20374   5.677   5.892   6.867
 6492SOL    HW120375   5.711   5.953   6.939
 6492SOL    HW220376   5.753   5.842   6.827
 6493SOL     OW20377   1.535   6.199   5.216
 6493SOL    HW120378   1.629   6.166   5.209
 6493SOL    HW220379   1.526   6.284   5.164
 6494SOL     OW20380   0.007   1.228   3.244
 6494SOL    HW120381   0.078   1.186   3.188
 6494SOL    HW220382   0.000   1.180   3.331
 6495SOL     OW20383   4.787   6.091   4.672
 6495SOL    HW120384   4.739   6.098   4.584
 6495SOL    HW220385   4.724   6.058   4.742
 6496SOL     OW20386   0.201   6.157   2.501
 6496SOL    HW120387   0.262   6.173   2.423
 6496SOL    HW220388   0.148   6.240   2.518
 6497SOL     OW20389   2.600   3.320   0.240
 6497SOL    HW120390   2.600   3.400   0.300
 6497SOL    HW220391   2.665   3.335   0.165
 6498SOL     OW20392   2.541   4.671   4.091
 6498SOL    HW120393   2.588   4.758   4.080
 6498SOL    HW220394   2.566   4.630   4.179
 6499SOL     OW20395   5.851   1.905   5.057
 6499SOL    HW120396   5.874   1.809   5.045
 6499SOL    HW220397   5.889   1.938   5.143
 6500SOL     OW20398   0.363   4.626   4.155
 6500SOL    HW120399   0.318   4.591   4.237
 6500SOL    HW220400   0.309   4.701   4.116
 6501SOL     OW20401   6.949   2.442   0.497
 6501SOL    HW120402   6.896   2.393   0.566
 6501SOL    HW220403   0.019   2.397   0.485
 6502SOL     OW20404   6.733   4.102   3.146
 6502SOL    HW120405   6.713   4.194   3.113
 6502SOL    HW220406   6.669   4.037   3.104
 6503SOL     OW20407   5.137   6.790   3.763
 6503SOL    HW120408   5.050   6.766   3.805
 6503SOL    HW220409   5.148   6.740   3.677
 6504SOL     OW20410   4.608   6.319   6.159
 6504SOL    HW120411   4.566   6.399   6.203
 6504SOL    HW220412   4.659   6.349   6.078
 6505SOL     OW20413   5.664   4.579   1.782
 6505SOL    HW120414   5.673   4.636   1.863
 6505SOL    HW220415   5.702   4.626   1.703
 6506SOL     OW20416   0.468   2.861   1.023
 6506SOL    HW120417   0.513   2.831   0.939
 6506SOL    HW220418   0.377   2.819   1.029
 6507SOL     OW20419   1.664   5.843   6.367
 6507SOL    HW120420   1.578   5.805   6.334
 6507SOL    HW220421   1.729   5.769   6.384
 6508SOL     OW20422   2.216   1.957   3.532
 6508SOL    HW120423   2.243   2.017   3.607
 6508SOL    HW220424   2.247   1.995   3.445
 6509SOL     OW20425   2.412   2.667   4.566
 6509SOL    HW120426   2.478   2.607   4.611
 6509SOL    HW220427   2.387   2.741   4.629
 6510SOL     OW20428   0.542   5.070   6.589
 6510SOL    HW120429   0.585   5.160   6.600
 6510SOL    HW220430   0.454   5.080   6.544
 6511SOL     OW20431   5.124   0.922   4.935
 6511SOL    HW120432   5.215   0.891   4.961
 6511SOL    HW220433   5.091   0.869   4.857
 6512SOL     OW20434   5.195   0.388   2.770
 6512SOL    HW120435   5.140   0.383   2.853
 6512SOL    HW220436   5.284   0.428   2.790
 6513SOL     OW20437   3.233   6.221   3.426
 6513SOL    HW120438   3.215   6.219   3.328
 6513SOL    HW220439   3.165   6.278   3.472
 6514SOL     OW20440   5.974   0.365   3.101
 6514SOL    HW120441   5.899   0.301   3.118
 6514SOL    HW220442   6.054   0.337   3.155
 6515SOL     OW20443   0.078   5.027   4.029
 6515SOL    HW120444   0.104   5.058   4.120
 6515SOL    HW220445   7.011   5.071   4.003
 6516SOL     OW20446   0.373   2.250   0.324
 6516SOL    HW120447   0.420   2.314   0.263
 6516SOL    HW220448   0.438   2.181   0.356
 6517SOL     OW20449   5.617   1.207   0.650
 6517SOL    HW120450   5.518   1.214   0.638
 6517SOL    HW220451   5.647   1.113   0.632
 6518SOL     OW20452   0.525   6.105   6.778
 6518SOL    HW120453   0.602   6.093   6.841
 6518SOL    HW220454   0.441   6.074   6.822
 6519SOL     OW20455   2.366   1.707   3.382
 6519SOL    HW120456   2.298   1.759   3.329
 6519SOL    HW220457   2.412   1.642   3.322
 6520SOL     OW20458   6.889   5.813   2.973
 6520SOL    HW120459   6.956   5.837   3.044
 6520SOL    HW220460   6.936   5.807   2.885
 6521SOL     OW20461   1.003   1.538   4.236
 6521SOL    HW120462   1.068   1.567   4.306
 6521SOL    HW220463   0.963   1.619   4.193
 6522SOL     OW20464   3.162   4.378   6.906
 6522SOL    HW120465   3.175   4.355   6.809
 6522SOL    HW220466   3.067   4.357   6.932
 6523SOL     OW20467   3.266   1.257   6.368
 6523SOL    HW120468   3.182   1.204   6.374
 6523SOL    HW220469   3.337   1.201   6.324
 6524SOL     OW20470   3.660   2.968   2.994
 6524SOL    HW120471   3.669   2.901   3.068
 6524SOL    HW220472   3.751   2.987   2.955
 6525SOL     OW20473   2.102   3.266   2.844
 6525SOL    HW120474   2.089   3.364   2.858
 6525SOL    HW220475   2.173   3.251   2.776
 6526SOL     OW20476   0.760   6.427   4.716
 6526SOL    HW120477   0.700   6.498   4.680
 6526SOL    HW220478   0.713   6.339   4.713
 6527SOL     OW20479   0.330   1.503   4.271
 6527SOL    HW120480   0.375   1.592   4.260
 6527SOL    HW220481   0.365   1.457   4.352
 6528SOL     OW20482   0.083   0.696   3.962
 6528SOL    HW120483   0.028   0.747   4.028
 6528SOL    HW220484   0.180   0.701   3.987
 6529SOL     OW20485   6.115   1.505   3.618
 6529SOL    HW120486   6.182   1.448   3.665
 6529SOL    HW220487   6.038   1.523   3.678
 6530SOL     OW20488   6.664   4.052   1.101
 6530SOL    HW120489   6.727   4.111   1.150
 6530SOL    HW220490   6.705   3.962   1.087
 6531SOL     OW20491   5.290   3.301   4.385
 6531SOL    HW120492   5.275   3.400   4.388
 6531SOL    HW220493   5.229   3.256   4.450
 6532SOL     OW20494   5.751   0.898   1.202
 6532SOL    HW120495   5.692   0.882   1.123
 6532SOL    HW220496   5.694   0.918   1.282
 6533SOL     OW20497   5.440   5.800   1.804
 6533SOL    HW120498   5.522   5.852   1.780
 6533SOL    HW220499   5.365   5.863   1.823
 6534SOL     OW20500   3.053   4.560   1.407
 6534SOL    HW120501   3.044   4.576   1.506
 6534SOL    HW220502   3.101   4.474   1.392
 6535SOL     OW20503   0.411   3.433   4.447
 6535SOL    HW120504   0.465   3.408   4.367
 6535SOL    HW220505   0.457   3.403   4.530
 6536SOL     OW20506   6.624   2.088   6.003
 6536SOL    HW120507   6.706   2.098   5.948
 6536SOL    HW220508   6.605   1.991   6.018
 6537SOL     OW20509   6.084   5.903   6.584
 6537SOL    HW120510   6.024   5.953   6.647
 6537SOL    HW220511   6.116   5.966   6.512
 6538SOL     OW20512   3.790   4.145   0.237
 6538SOL    HW120513   3.807   4.087   0.317
 6538SOL    HW220514   3.691   4.151   0.221
 6539SOL     OW20515   2.708   1.827   6.144
 6539SOL    HW120516   2.726   1.830   6.242
 6539SOL    HW220517   2.708   1.732   6.113
 6540SOL     OW20518   4.610   1.910   5.068
 6540SOL    HW120519   4.551   1.841   5.026
 6540SOL    HW220520   4.556   1.963   5.135
 6541SOL     OW20521   3.727   1.924   4.621
 6541SOL    HW120522   3.818   1.961   4.639
 6541SOL    HW220523   3.725   1.827   4.646
 6542SOL     OW20524   0.261   4.519   3.313
 6542SOL    HW120525   0.215   4.603   3.285
 6542SOL    HW220526   0.282   4.523   3.410
 6543SOL     OW20527   6.111   4.193   0.367
 6543SOL    HW120528   6.058   4.270   0.331
 6543SOL    HW220529   6.170   4.156   0.295
 6544SOL     OW20530   0.442   6.232   3.486
 6544SOL    HW120531   0.374   6.181   3.433
 6544SOL    HW220532   0.396   6.309   3.532
 6545SOL     OW20533   4.935   2.100   6.438
 6545SOL    HW120534   4.852   2.146   6.406
 6545SOL    HW220535   5.013   2.161   6.428
 6546SOL     OW20536   4.386   4.434   6.389
 6546SOL    HW120537   4.483   4.433   6.366
 6546SOL    HW220538   4.349   4.342   6.384
 6547SOL     OW20539   4.151   1.650   5.704
 6547SOL    HW120540   4.189   1.699   5.626
 6547SOL    HW220541   4.058   1.620   5.683
 6548SOL     OW20542   0.746   3.912   6.974
 6548SOL    HW120543   0.686   3.840   7.008
 6548SOL    HW220544   0.791   3.881   6.891
 6549SOL     OW20545   3.386   1.325   0.519
 6549SOL    HW120546   3.347   1.250   0.466
 6549SOL    HW220547   3.408   1.401   0.458
 6550SOL     OW20548   6.945   6.153   3.375
 6550SOL    HW120549   6.857   6.200   3.380
 6550SOL    HW220550   6.929   6.055   3.359
 6551SOL     OW20551   2.073   4.202   2.031
 6551SOL    HW120552   2.165   4.171   2.007
 6551SOL    HW220553   2.021   4.221   1.948
 6552SOL     OW20554   2.476   6.811   5.069
 6552SOL    HW120555   2.475   6.767   5.159
 6552SOL    HW220556   2.510   6.905   5.078
 6553SOL     OW20557   0.345   2.006   1.634
 6553SOL    HW120558   0.387   1.931   1.584
 6553SOL    HW220559   0.251   2.019   1.604
 6554SOL     OW20560   5.772   1.977   5.990
 6554SOL    HW120561   5.847   1.980   5.925
 6554SOL    HW220562   5.796   1.919   6.067
 6555SOL     OW20563   1.552   1.310   1.765
 6555SOL    HW120564   1.594   1.308   1.674
 6555SOL    HW220565   1.555   1.218   1.805
 6556SOL     OW20566   4.654   4.469   5.123
 6556SOL    HW120567   4.683   4.376   5.147
 6556SOL    HW220568   4.570   4.465   5.069
 6557SOL     OW20569   5.309   5.654   1.360
 6557SOL    HW120570   5.220   5.691   1.384
 6557SOL    HW220571   5.349   5.607   1.439
 6558SOL     OW20572   6.074   5.905   1.355
 6558SOL    HW120573   6.099   5.951   1.440
 6558SOL    HW220574   5.988   5.855   1.367
 6559SOL     OW20575   6.366   4.294   0.425
 6559SOL    HW120576   6.433   4.273   0.495
 6559SOL    HW220577   6.296   4.222   0.422
 6560SOL     OW20578   3.754   2.955   1.976
 6560SOL    HW120579   3.767   3.050   2.004
 6560SOL    HW220580   3.703   2.906   2.047
 6561SOL     OW20581   3.462   3.636   2.334
 6561SOL    HW120582   3.439   3.541   2.318
 6561SOL    HW220583   3.379   3.692   2.333
 6562SOL     OW20584   6.031   4.858   6.699
 6562SOL    HW120585   6.037   4.782   6.635
 6562SOL    HW220586   5.945   4.852   6.750
 6563SOL     OW20587   0.639   6.547   6.792
 6563SOL    HW120588   0.621   6.458   6.752
 6563SOL    HW220589   0.596   6.618   6.736
 6564SOL     OW20590   0.695   3.697   2.133
 6564SOL    HW120591   0.649   3.733   2.214
 6564SOL    HW220592   0.793   3.716   2.138
 6565SOL     OW20593   6.509   1.906   4.396
 6565SOL    HW120594   6.422   1.859   4.384
 6565SOL    HW220595   6.553   1.916   4.307
 6566SOL     OW20596   3.453   6.968   1.338
 6566SOL    HW120597   3.419   0.043   1.328
 6566SOL    HW220598   3.397   6.906   1.283
 6567SOL     OW20599   4.131   2.026   1.550
 6567SOL    HW120600   4.057   1.960   1.559
 6567SOL    HW220601   4.094   2.113   1.517
 6568SOL     OW20602   4.749   4.836   2.678
 6568SOL    HW120603   4.843   4.812   2.653
 6568SOL    HW220604   4.729   4.929   2.647
 6569SOL     OW20605   3.447   4.578   1.357
 6569SOL    HW120606   3.519   4.536   1.411
 6569SOL    HW220607   3.470   4.674   1.340
 6570SOL     OW20608   4.783   6.786   1.287
 6570SOL    HW120609   4.831   6.829   1.364
 6570SOL    HW220610   4.812   6.830   1.202
 6571SOL     OW20611   2.549   6.375   2.293
 6571SOL    HW120612   2.623   6.440   2.307
 6571SOL    HW220613   2.507   6.353   2.382
 6572SOL     OW20614   6.475   4.903   5.356
 6572SOL    HW120615   6.419   4.821   5.353
 6572SOL    HW220616   6.556   4.891   5.299
 6573SOL     OW20617   3.022   1.936   3.164
 6573SOL    HW120618   3.088   1.876   3.119
 6573SOL    HW220619   2.933   1.892   3.165
 6574SOL     OW20620   2.747   5.831   2.421
 6574SOL    HW120621   2.672   5.796   2.366
 6574SOL    HW220622   2.814   5.876   2.361
 6575SOL     OW20623   0.911   1.705   1.607
 6575SOL    HW120624   0.967   1.715   1.524
 6575SOL    HW220625   0.965   1.659   1.678
 6576SOL     OW20626   1.503   6.087   6.527
 6576SOL    HW120627   1.547   6.094   6.437
 6576SOL    HW220628   1.530   6.001   6.570
 6577SOL     OW20629   0.829   1.612   3.360
 6577SOL    HW120630   0.893   1.620   3.436
 6577SOL    HW220631   0.735   1.627   3.392
 6578SOL     OW20632   0.347   4.772   2.967
 6578SOL    HW120633   0.318   4.800   3.058
 6578SOL    HW220634   0.305   4.685   2.943
 6579SOL     OW20635   0.204   4.045   4.391
 6579SOL    HW120636   0.161   4.105   4.459
 6579SOL    HW220637   0.177   3.950   4.409
 6580SOL     OW20638   5.949   1.470   1.578
 6580SOL    HW120639   6.013   1.393   1.579
 6580SOL    HW220640   5.921   1.492   1.671
 6581SOL     OW20641   3.918   0.728   6.050
 6581SOL    HW120642   3.946   0.802   6.111
 6581SOL    HW220643   3.999   0.675   6.023
 6582SOL     OW20644   1.610   0.508   1.706
 6582SOL    HW120645   1.613   0.542   1.800
 6582SOL    HW220646   1.701   0.520   1.664
 6583SOL     OW20647   4.029   0.642   5.739
 6583SOL    HW120648   4.088   0.624   5.660
 6583SOL    HW220649   4.074   0.708   5.799
 6584SOL     OW20650   5.293   1.463   0.034
 6584SOL    HW120651   5.236   1.392   0.075
 6584SOL    HW220652   5.331   1.429   6.966
 6585SOL     OW20653   6.306   1.149   0.138
 6585SOL    HW120654   6.330   1.229   0.193
 6585SOL    HW220655   6.215   1.162   0.098
 6586SOL     OW20656   5.709   2.479   6.271
 6586SOL    HW120657   5.712   2.576   6.246
 6586SOL    HW220658   5.708   2.423   6.188
 6587SOL     OW20659   2.720   5.817   3.940
 6587SOL    HW120660   2.704   5.805   3.842
 6587SOL    HW220661   2.818   5.810   3.959
 6588SOL     OW20662   2.135   4.037   1.333
 6588SOL    HW120663   2.226   4.001   1.354
 6588SOL    HW220664   2.141   4.098   1.253
 6589SOL     OW20665   4.075   0.680   6.411
 6589SOL    HW120666   4.170   0.698   6.440
 6589SOL    HW220667   4.072   0.598   6.355
 6590SOL     OW20668   0.546   1.568   6.143
 6590SOL    HW120669   0.598   1.638   6.095
 6590SOL    HW220670   0.609   1.499   6.180
 6591SOL     OW20671   5.618   5.877   2.425
 6591SOL    HW120672   5.647   5.960   2.377
 6591SOL    HW220673   5.685   5.805   2.410
 6592SOL     OW20674   5.047   6.774   4.063
 6592SOL    HW120675   4.968   6.832   4.083
 6592SOL    HW220676   5.127   6.808   4.113
 6593SOL     OW20677   2.403   2.488   3.520
 6593SOL    HW120678   2.364   2.543   3.593
 6593SOL    HW220679   2.467   2.420   3.559
 6594SOL     OW20680   3.748   1.077   0.603
 6594SOL    HW120681   3.796   1.080   0.690
 6594SOL    HW220682   3.672   1.143   0.604
 6595SOL     OW20683   0.613   4.024   0.695
 6595SOL    HW120684   0.699   4.050   0.652
 6595SOL    HW220685   0.626   3.942   0.751
 6596SOL     OW20686   4.121   0.107   4.664
 6596SOL    HW120687   4.186   0.095   4.739
 6596SOL    HW220688   4.161   0.072   4.580
 6597SOL     OW20689   1.409   6.115   3.131
 6597SOL    HW120690   1.321   6.088   3.091
 6597SOL    HW220691   1.473   6.136   3.057
 6598SOL     OW20692   1.434   6.053   4.938
 6598SOL    HW120693   1.502   6.108   4.890
 6598SOL    HW220694   1.479   5.997   5.008
 6599SOL     OW20695   4.098   5.340   5.613
 6599SOL    HW120696   4.164   5.283   5.664
 6599SOL    HW220697   4.017   5.355   5.670
 6600SOL     OW20698   5.210   5.319   5.602
 6600SOL    HW120699   5.273   5.309   5.679
 6600SOL    HW220700   5.139   5.249   5.609
 6601SOL     OW20701   1.005   0.669   0.532
 6601SOL    HW120702   1.009   0.736   0.607
 6601SOL    HW220703   1.091   0.618   0.528
 6602SOL     OW20704   6.474   1.712   1.860
 6602SOL    HW120705   6.380   1.739   1.881
 6602SOL    HW220706   6.498   1.632   1.915
 6603SOL     OW20707   1.261   2.845   4.077
 6603SOL    HW120708   1.322   2.769   4.054
 6603SOL    HW220709   1.238   2.840   4.175
 6604SOL     OW20710   2.937   6.282   1.219
 6604SOL    HW120711   2.882   6.204   1.189
 6604SOL    HW220712   3.023   6.285   1.168
 6605SOL     OW20713   5.200   4.992   0.667
 6605SOL    HW120714   5.146   5.050   0.727
 6605SOL    HW220715   5.189   4.896   0.694
 6606SOL     OW20716   4.741   6.752   2.108
 6606SOL    HW120717   4.646   6.723   2.114
 6606SOL    HW220718   4.767   6.800   2.192
 6607SOL     OW20719   2.352   1.921   1.456
 6607SOL    HW120720   2.417   1.847   1.472
 6607SOL    HW220721   2.285   1.893   1.387
 6608SOL     OW20722   5.383   4.854   2.320
 6608SOL    HW120723   5.425   4.763   2.323
 6608SOL    HW220724   5.296   4.849   2.272
 6609SOL     OW20725   4.652   0.818   6.442
 6609SOL    HW120726   4.606   0.899   6.405
 6609SOL    HW220727   4.627   0.807   6.539
 6610SOL     OW20728   2.730   0.332   6.606
 6610SOL    HW120729   2.726   0.389   6.524
 6610SOL    HW220730   2.781   0.248   6.586
 6611SOL     OW20731   6.718   2.292   3.126
 6611SOL    HW120732   6.646   2.223   3.135
 6611SOL    HW220733   6.742   2.303   3.030
 6612SOL     OW20734   0.333   3.844   0.105
 6612SOL    HW120735   0.372   3.929   0.141
 6612SOL    HW220736   0.397   3.769   0.121
 6613SOL     OW20737   5.449   6.106   3.655
 6613SOL    HW120738   5.387   6.138   3.727
 6613SOL    HW220739   5.477   6.012   3.676
 6614SOL     OW20740   4.742   6.582   6.602
 6614SOL    HW120741   4.647   6.552   6.600
 6614SOL    HW220742   4.801   6.505   6.624
 6615SOL     OW20743   0.963   4.157   4.123
 6615SOL    HW120744   0.985   4.252   4.145
 6615SOL    HW220745   1.026   4.096   4.171
 6616SOL     OW20746   4.264   0.859   6.021
 6616SOL    HW120747   4.213   0.945   6.022
 6616SOL    HW220748   4.320   0.854   5.938
 6617SOL     OW20749   3.074   6.083   2.967
 6617SOL    HW120750   3.034   6.027   3.039
 6617SOL    HW220751   3.001   6.118   2.908
 6618SOL     OW20752   0.614   3.629   2.899
 6618SOL    HW120753   0.652   3.547   2.858
 6618SOL    HW220754   0.671   3.708   2.875
 6619SOL     OW20755   6.467   6.754   4.880
 6619SOL    HW120756   6.377   6.711   4.873
 6619SOL    HW220757   6.462   6.831   4.944
 6620SOL     OW20758   1.796   2.762   5.426
 6620SOL    HW120759   1.757   2.832   5.485
 6620SOL    HW220760   1.894   2.778   5.416
 6621SOL     OW20761   2.466   3.537   0.399
 6621SOL    HW120762   2.410   3.605   0.352
 6621SOL    HW220763   2.406   3.475   0.450
 6622SOL     OW20764   6.168   6.143   2.019
 6622SOL    HW120765   6.103   6.107   2.087
 6622SOL    HW220766   6.257   6.099   2.031
 6623SOL     OW20767   3.164   2.851   1.803
 6623SOL    HW120768   3.211   2.820   1.720
 6623SOL    HW220769   3.231   2.861   1.877
 6624SOL     OW20770   2.447   0.043   4.153
 6624SOL    HW120771   2.525   7.000   4.149
 6624SOL    HW220772   2.365   7.010   4.180
 6625SOL     OW20773   5.209   2.208   6.459
 6625SOL    HW120774   5.206   2.171   6.366
 6625SOL    HW220775   5.293   2.177   6.504
 6626SOL     OW20776   3.617   4.971   3.702
 6626SOL    HW120777   3.645   5.022   3.783
 6626SOL    HW220778   3.698   4.938   3.654
 6627SOL     OW20779   2.310   0.715   5.598
 6627SOL    HW120780   2.212   0.698   5.608
 6627SOL    HW220781   2.360   0.670   5.672
 6628SOL     OW20782   4.863   5.238   3.735
 6628SOL    HW120783   4.839   5.334   3.731
 6628SOL    HW220784   4.824   5.190   3.657
 6629SOL     OW20785   2.773   6.322   0.429
 6629SOL    HW120786   2.859   6.281   0.460
 6629SOL    HW220787   2.704   6.314   0.501
 6630SOL     OW20788   3.448   1.933   1.114
 6630SOL    HW120789   3.498   1.847   1.124
 6630SOL    HW220790   3.504   2.009   1.147
 6631SOL     OW20791   4.506   0.390   2.426
 6631SOL    HW120792   4.454   0.349   2.351
 6631SOL    HW220793   4.448   0.454   2.476
 6632SOL     OW20794   7.010   1.007   1.685
 6632SOL    HW120795   7.015   1.088   1.626
 6632SOL    HW220796   6.915   0.988   1.707
 6633SOL     OW20797   1.702   5.337   5.904
 6633SOL    HW120798   1.696   5.408   5.834
 6633SOL    HW220799   1.667   5.371   5.991
 6634SOL     OW20800   5.774   3.425   5.693
 6634SOL    HW120801   5.854   3.416   5.634
 6634SOL    HW220802   5.800   3.411   5.788
 6635SOL     OW20803   4.378   5.349   3.231
 6635SOL    HW120804   4.377   5.252   3.210
 6635SOL    HW220805   4.308   5.396   3.177
 6636SOL     OW20806   2.734   2.241   5.665
 6636SOL    HW120807   2.668   2.168   5.683
 6636SOL    HW220808   2.764   2.236   5.570
 6637SOL     OW20809   1.696   0.292   6.703
 6637SOL    HW120810   1.763   0.233   6.658
 6637SOL    HW220811   1.623   0.237   6.743
 6638SOL     OW20812   4.087   4.740   5.209
 6638SOL    HW120813   4.040   4.827   5.229
 6638SOL    HW220814   4.072   4.676   5.284
 6639SOL     OW20815   5.613   6.199   6.389
 6639SOL    HW120816   5.598   6.295   6.362
 6639SOL    HW220817   5.702   6.169   6.356
 6640SOL     OW20818   0.326   1.935   5.200
 6640SOL    HW120819   0.277   1.857   5.162
 6640SOL    HW220820   0.272   2.018   5.187
 6641SOL     OW20821   2.331   2.998   6.344
 6641SOL    HW120822   2.347   2.912   6.394
 6641SOL    HW220823   2.402   3.064   6.369
 6642SOL     OW20824   2.851   5.319   0.641
 6642SOL    HW120825   2.876   5.381   0.715
 6642SOL    HW220826   2.931   5.300   0.585
 6643SOL     OW20827   6.398   4.618   6.539
 6643SOL    HW120828   6.408   4.607   6.638
 6643SOL    HW220829   6.470   4.678   6.505
 6644SOL     OW20830   2.822   4.683   1.695
 6644SOL    HW120831   2.913   4.681   1.653
 6644SOL    HW220832   2.827   4.644   1.786
 6645SOL     OW20833   6.594   5.163   0.447
 6645SOL    HW120834   6.575   5.252   0.488
 6645SOL    HW220835   6.620   5.098   0.518
 6646SOL     OW20836   4.221   5.898   4.178
 6646SOL    HW120837   4.203   5.993   4.204
 6646SOL    HW220838   4.134   5.849   4.168
 6647SOL     OW20839   3.408   1.456   2.418
 6647SOL    HW120840   3.382   1.551   2.429
 6647SOL    HW220841   3.332   1.405   2.378
 6648SOL     OW20842   3.244   5.982   2.252
 6648SOL    HW120843   3.218   6.076   2.233
 6648SOL    HW220844   3.307   5.949   2.181
 6649SOL     OW20845   5.111   1.636   6.626
 6649SOL    HW120846   5.172   1.715   6.630
 6649SOL    HW220847   5.019   1.665   6.652
 6650SOL     OW20848   4.119   1.499   5.043
 6650SOL    HW120849   4.158   1.448   5.119
 6650SOL    HW220850   4.062   1.573   5.078
 6651SOL     OW20851   1.259   1.681   6.896
 6651SOL    HW120852   1.288   1.744   6.824
 6651SOL    HW220853   1.213   1.733   6.968
 6652SOL     OW20854   6.382   4.803   0.135
 6652SOL    HW120855   6.417   4.824   0.226
 6652SOL    HW220856   6.422   4.717   0.103
 6653SOL     OW20857   4.037   3.149   3.175
 6653SOL    HW120858   4.039   3.056   3.212
 6653SOL    HW220859   3.970   3.204   3.226
 6654SOL     OW20860   2.080   2.515   1.027
 6654SOL    HW120861   2.167   2.545   1.067
 6654SOL    HW220862   2.017   2.488   1.100
 6655SOL     OW20863   3.092   0.099   1.767
 6655SOL    HW120864   2.997   0.070   1.769
 6655SOL    HW220865   3.149   0.033   1.817
 6656SOL     OW20866   6.059   1.597   2.874
 6656SOL    HW120867   5.997   1.620   2.799
 6656SOL    HW220868   6.140   1.551   2.837
 6657SOL     OW20869   4.850   6.189   6.217
 6657SOL    HW120870   4.760   6.233   6.216
 6657SOL    HW220871   4.871   6.160   6.310
 6658SOL     OW20872   5.948   1.628   4.970
 6658SOL    HW120873   5.930   1.556   5.036
 6658SOL    HW220874   5.996   1.591   4.891
 6659SOL     OW20875   2.818   2.185   0.433
 6659SOL    HW120876   2.767   2.104   0.403
 6659SOL    HW220877   2.886   2.209   0.364
 6660SOL     OW20878   0.341   6.392   0.899
 6660SOL    HW120879   0.400   6.464   0.935
 6660SOL    HW220880   0.289   6.428   0.821
 6661SOL     OW20881   0.715   5.312   3.867
 6661SOL    HW120882   0.647   5.366   3.917
 6661SOL    HW220883   0.701   5.215   3.885
 6662SOL     OW20884   1.933   0.354   6.830
 6662SOL    HW120885   1.842   0.333   6.793
 6662SOL    HW220886   1.925   0.431   6.894
 6663SOL     OW20887   6.845   5.366   2.946
 6663SOL    HW120888   6.868   5.292   2.883
 6663SOL    HW220889   6.839   5.452   2.895
 6664SOL     OW20890   1.407   6.858   1.186
 6664SOL    HW120891   1.368   6.790   1.125
 6664SOL    HW220892   1.389   6.950   1.149
 6665SOL     OW20893   2.039   0.320   2.608
 6665SOL    HW120894   2.055   0.245   2.671
 6665SOL    HW220895   2.058   0.407   2.654
 6666SOL     OW20896   5.716   1.743   5.616
 6666SOL    HW120897   5.636   1.793   5.583
 6666SOL    HW220898   5.798   1.796   5.598
 6667SOL     OW20899   6.954   5.024   5.226
 6667SOL    HW120900   6.892   5.100   5.246
 6667SOL    HW220901   6.958   5.010   5.127
 6668SOL     OW20902   6.790   6.108   1.776
 6668SOL    HW120903   6.744   6.149   1.698
 6668SOL    HW220904   6.879   6.072   1.746
 6669SOL     OW20905   1.964   2.899   4.077
 6669SOL    HW120906   2.020   2.848   4.011
 6669SOL    HW220907   1.870   2.866   4.072
 6670SOL     OW20908   3.262   3.893   6.456
 6670SOL    HW120909   3.301   3.861   6.370
 6670SOL    HW220910   3.314   3.972   6.489
 6671SOL     OW20911   5.567   5.711   1.019
 6671SOL    HW120912   5.469   5.733   1.011
 6671SOL    HW220913   5.617   5.793   1.048
 6672SOL     OW20914   1.057   1.699   5.019
 6672SOL    HW120915   1.123   1.747   4.961
 6672SOL    HW220916   1.089   1.701   5.114
 6673SOL     OW20917   4.023   5.998   3.159
 6673SOL    HW120918   4.122   5.990   3.170
 6673SOL    HW220919   3.998   6.095   3.152
 6674SOL     OW20920   0.951   5.024   6.415
 6674SOL    HW120921   0.916   5.065   6.499
 6674SOL    HW220922   0.875   5.001   6.355
 6675SOL     OW20923   4.656   4.087   1.709
 6675SOL    HW120924   4.682   4.011   1.767
 6675SOL    HW220925   4.560   4.112   1.726
 6676SOL     OW20926   0.153   3.383   5.597
 6676SOL    HW120927   0.098   3.390   5.680
 6676SOL    HW220928   0.205   3.298   5.598
 6677SOL     OW20929   0.574   3.109   0.133
 6677SOL    HW120930   0.491   3.065   0.100
 6677SOL    HW220931   0.551   3.168   0.211
 6678SOL     OW20932   1.512   2.614   6.929
 6678SOL    HW120933   1.547   2.524   6.954
 6678SOL    HW220934   1.413   2.615   6.939
 6679SOL     OW20935   2.436   1.738   4.455
 6679SOL    HW120936   2.342   1.766   4.475
 6679SOL    HW220937   2.467   1.783   4.371
 6680SOL     OW20938   4.315   6.079   5.642
 6680SOL    HW120939   4.275   6.127   5.564
 6680SOL    HW220940   4.329   6.144   5.717
 6681SOL     OW20941   4.887   4.907   0.089
 6681SOL    HW120942   4.946   4.827   0.098
 6681SOL    HW220943   4.943   4.989   0.080
 6682SOL     OW20944   1.070   3.974   2.557
 6682SOL    HW120945   1.105   4.064   2.531
 6682SOL    HW220946   1.138   3.904   2.536
 6683SOL     OW20947   5.206   2.591   5.849
 6683SOL    HW120948   5.208   2.640   5.936
 6683SOL    HW220949   5.298   2.591   5.810
 6684SOL     OW20950   2.031   6.832   1.139
 6684SOL    HW120951   2.071   6.883   1.215
 6684SOL    HW220952   1.935   6.812   1.160
 6685SOL     OW20953   5.455   2.331   6.026
 6685SOL    HW120954   5.537   2.292   6.068
 6685SOL    HW220955   5.374   2.286   6.062
 6686SOL     OW20956   5.507   5.265   3.662
 6686SOL    HW120957   5.588   5.222   3.703
 6686SOL    HW220958   5.445   5.295   3.735
 6687SOL     OW20959   0.420   1.754   1.570
 6687SOL    HW120960   0.514   1.784   1.585
 6687SOL    HW220961   0.421   1.667   1.519
 6688SOL     OW20962   0.360   4.366   1.918
 6688SOL    HW120963   0.349   4.266   1.915
 6688SOL    HW220964   0.450   4.391   1.880
 6689SOL     OW20965   4.449   2.337   0.262
 6689SOL    HW120966   4.485   2.371   0.175
 6689SOL    HW220967   4.510   2.266   0.297
 6690SOL     OW20968   2.610   0.984   1.944
 6690SOL    HW120969   2.618   0.907   1.881
 6690SOL    HW220970   2.681   1.051   1.924
 6691SOL     OW20971   3.342   5.672   1.628
 6691SOL    HW120972   3.405   5.750   1.633
 6691SOL    HW220973   3.262   5.697   1.574
 6692SOL     OW20974   2.780   4.790   5.230
 6692SOL    HW120975   2.747   4.778   5.323
 6692SOL    HW220976   2.797   4.701   5.189
 6693SOL     OW20977   5.259   3.573   6.484
 6693SOL    HW120978   5.333   3.583   6.550
 6693SOL    HW220979   5.278   3.630   6.404
 6694SOL     OW20980   4.851   5.832   6.797
 6694SOL    HW120981   4.754   5.856   6.789
 6694SOL    HW220982   4.877   5.771   6.722
 6695SOL     OW20983   0.992   1.844   6.302
 6695SOL    HW120984   0.966   1.785   6.379
 6695SOL    HW220985   0.970   1.939   6.324
 6696SOL     OW20986   1.672   2.363   0.467
 6696SOL    HW120987   1.693   2.455   0.434
 6696SOL    HW220988   1.621   2.313   0.397
 6697SOL     OW20989   4.368   2.284   3.060
 6697SOL    HW120990   4.397   2.362   3.003
 6697SOL    HW220991   4.444   2.255   3.118
 6698SOL     OW20992   3.510   2.266   0.391
 6698SOL    HW120993   3.609   2.263   0.405
 6698SOL    HW220994   3.466   2.312   0.468
 6699SOL     OW20995   3.476   4.435   0.325
 6699SOL    HW120996   3.381   4.463   0.342
 6699SOL    HW220997   3.530   4.516   0.301
 6700SOL     OW20998   0.138   5.702   0.972
 6700SOL    HW120999   0.138   5.789   0.924
 6700SOL    HW221000   0.192   5.710   1.056
 6701SOL     OW21001   6.258   2.675   1.266
 6701SOL    HW121002   6.283   2.746   1.201
 6701SOL    HW221003   6.173   2.701   1.312
 6702SOL     OW21004   2.773   2.641   0.062
 6702SOL    HW121005   2.785   2.695   0.145
 6702SOL    HW221006   2.675   2.629   0.044
 6703SOL     OW21007   6.366   1.882   0.016
 6703SOL    HW121008   6.455   1.874   6.990
 6703SOL    HW221009   6.328   1.973   7.017
 6704SOL     OW21010   4.238   2.206   2.585
 6704SOL    HW121011   4.314   2.269   2.570
 6704SOL    HW221012   4.172   2.217   2.511
 6705SOL     OW21013   0.311   1.918   2.141
 6705SOL    HW121014   0.327   1.852   2.068
 6705SOL    HW221015   0.295   2.008   2.101
 6706SOL     OW21016   1.170   4.347   0.589
 6706SOL    HW121017   1.264   4.315   0.580
 6706SOL    HW221018   1.114   4.304   0.518
 6707SOL     OW21019   6.476   5.462   4.689
 6707SOL    HW121020   6.507   5.456   4.594
 6707SOL    HW221021   6.391   5.515   4.692
 6708SOL     OW21022   1.942   5.857   2.460
 6708SOL    HW121023   1.865   5.801   2.490
 6708SOL    HW221024   1.908   5.944   2.425
 6709SOL     OW21025   3.316   5.924   1.200
 6709SOL    HW121026   3.411   5.928   1.231
 6709SOL    HW221027   3.310   5.865   1.120
 6710SOL     OW21028   2.429   2.277   5.934
 6710SOL    HW121029   2.452   2.194   5.985
 6710SOL    HW221030   2.477   2.276   5.846
 6711SOL     OW21031   5.849   4.365   6.757
 6711SOL    HW121032   5.853   4.322   6.667
 6711SOL    HW221033   5.765   4.419   6.764
 6712SOL     OW21034   4.429   5.345   0.295
 6712SOL    HW121035   4.446   5.415   0.364
 6712SOL    HW221036   4.342   5.300   0.314
 6713SOL     OW21037   2.049   1.604   1.631
 6713SOL    HW121038   2.139   1.594   1.674
 6713SOL    HW221039   1.996   1.672   1.681
 6714SOL     OW21040   5.594   0.664   5.502
 6714SOL    HW121041   5.650   0.587   5.470
 6714SOL    HW221042   5.568   0.721   5.425
 6715SOL     OW21043   6.996   0.469   0.339
 6715SOL    HW121044   6.989   0.475   0.240
 6715SOL    HW221045   6.938   0.395   0.373
 6716SOL     OW21046   1.276   6.607   1.707
 6716SOL    HW121047   1.278   6.690   1.652
 6716SOL    HW221048   1.202   6.547   1.674
 6717SOL     OW21049   4.639   2.638   0.558
 6717SOL    HW121050   4.605   2.718   0.509
 6717SOL    HW221051   4.590   2.556   0.526
 6718SOL     OW21052   4.094   5.815   6.465
 6718SOL    HW121053   4.113   5.721   6.437
 6718SOL    HW221054   4.131   5.879   6.397
 6719SOL     OW21055   0.723   0.390   6.196
 6719SOL    HW121056   0.802   0.376   6.256
 6719SOL    HW221057   0.708   0.306   6.143
 6720SOL     OW21058   2.572   6.093   1.861
 6720SOL    HW121059   2.488   6.122   1.907
 6720SOL    HW221060   2.574   5.993   1.857
 6721SOL     OW21061   5.658   6.505   4.305
 6721SOL    HW121062   5.724   6.446   4.258
 6721SOL    HW221063   5.592   6.449   4.355
 6722SOL     OW21064   5.187   3.217   1.017
 6722SOL    HW121065   5.260   3.204   1.085
 6722SOL    HW221066   5.105   3.252   1.063
 6723SOL     OW21067   2.003   6.738   3.206
 6723SOL    HW121068   1.985   6.749   3.108
 6723SOL    HW221069   2.091   6.780   3.229
 6724SOL     OW21070   1.685   4.294   5.483
 6724SOL    HW121071   1.755   4.318   5.550
 6724SOL    HW221072   1.638   4.211   5.512
 6725SOL     OW21073   0.948   4.249   2.116
 6725SOL    HW121074   0.928   4.222   2.210
 6725SOL    HW221075   1.045   4.274   2.109
 6726SOL     OW21076   1.882   2.063   4.812
 6726SOL    HW121077   1.954   2.034   4.875
 6726SOL    HW221078   1.803   2.096   4.865
 6727SOL     OW21079   5.507   3.609   6.066
 6727SOL    HW121080   5.546   3.681   6.123
 6727SOL    HW221081   5.525   3.628   5.970
 6728SOL     OW21082   4.476   1.643   4.266
 6728SOL    HW121083   4.534   1.703   4.211
 6728SOL    HW221084   4.526   1.559   4.288
 6729SOL     OW21085   6.781   1.391   2.621
 6729SOL    HW121086   6.747   1.379   2.714
 6729SOL    HW221087   6.865   1.445   2.623
 6730SOL     OW21088   2.484   6.706   6.749
 6730SOL    HW121089   2.400   6.727   6.800
 6730SOL    HW221090   2.536   6.635   6.797
 6731SOL     OW21091   2.631   4.302   0.837
 6731SOL    HW121092   2.704   4.352   0.884
 6731SOL    HW221093   2.568   4.264   0.905
 6732SOL     OW21094   2.912   5.972   6.597
 6732SOL    HW121095   2.869   6.053   6.636
 6732SOL    HW221096   2.974   6.000   6.524
 6733SOL     OW21097   4.605   5.310   6.451
 6733SOL    HW121098   4.603   5.363   6.366
 6733SOL    HW221099   4.542   5.233   6.444
 6734SOL     OW21100   0.403   3.123   5.864
 6734SOL    HW121101   0.483   3.094   5.812
 6734SOL    HW221102   0.431   3.151   5.956
 6735SOL     OW21103   0.561   5.245   5.129
 6735SOL    HW121104   0.571   5.146   5.128
 6735SOL    HW221105   0.493   5.271   5.198
 6736SOL     OW21106   1.841   3.398   0.577
 6736SOL    HW121107   1.941   3.393   0.575
 6736SOL    HW221108   1.809   3.446   0.495
 6737SOL     OW21109   2.089   1.654   1.356
 6737SOL    HW121110   2.073   1.642   1.455
 6737SOL    HW221111   2.185   1.677   1.340
 6738SOL     OW21112   2.112   2.386   2.101
 6738SOL    HW121113   2.150   2.478   2.101
 6738SOL    HW221114   2.153   2.333   2.027
 6739SOL     OW21115   3.424   5.683   5.582
 6739SOL    HW121116   3.518   5.652   5.567
 6739SOL    HW221117   3.373   5.614   5.633
 6740SOL     OW21118   1.920   1.272   4.461
 6740SOL    HW121119   1.825   1.302   4.449
 6740SOL    HW221120   1.965   1.329   4.530
 6741SOL     OW21121   4.355   1.504   5.836
 6741SOL    HW121122   4.267   1.532   5.799
 6741SOL    HW221123   4.398   1.582   5.882
 6742SOL     OW21124   0.135   5.816   4.264
 6742SOL    HW121125   0.132   5.888   4.333
 6742SOL    HW221126   0.167   5.731   4.306
 6743SOL     OW21127   4.021   3.863   6.745
 6743SOL    HW121128   4.119   3.846   6.758
 6743SOL    HW221129   4.003   3.883   6.649
 6744SOL     OW21130   3.927   5.292   6.209
 6744SOL    HW121131   4.020   5.273   6.242
 6744SOL    HW221132   3.932   5.355   6.132
 6745SOL     OW21133   1.196   5.019   2.632
 6745SOL    HW121134   1.101   5.045   2.646
 6745SOL    HW221135   1.211   4.998   2.535
 6746SOL     OW21136   0.748   0.655   1.763
 6746SOL    HW121137   0.818   0.726   1.761
 6746SOL    HW221138   0.663   0.693   1.800
 6747SOL     OW21139   5.409   6.371   4.351
 6747SOL    HW121140   5.452   6.328   4.430
 6747SOL    HW221141   5.362   6.302   4.296
 6748SOL     OW21142   0.951   1.059   2.428
 6748SOL    HW121143   1.018   0.994   2.390
 6748SOL    HW221144   0.998   1.127   2.483
 6749SOL     OW21145   3.316   0.055   0.095
 6749SOL    HW121146   3.394   0.059   0.034
 6749SOL    HW221147   3.235   0.092   0.049
 6750SOL     OW21148   3.304   1.783   4.341
 6750SOL    HW121149   3.393   1.741   4.327
 6750SOL    HW221150   3.315   1.881   4.353
 6751SOL     OW21151   3.030   2.201   3.839
 6751SOL    HW121152   3.117   2.208   3.789
 6751SOL    HW221153   2.977   2.125   3.801
 6752SOL     OW21154   6.060   2.474   1.472
 6752SOL    HW121155   5.988   2.533   1.508
 6752SOL    HW221156   6.145   2.526   1.465
 6753SOL     OW21157   4.272   1.655   6.802
 6753SOL    HW121158   4.185   1.702   6.787
 6753SOL    HW221159   4.287   1.644   6.901
 6754SOL     OW21160   6.620   2.182   6.483
 6754SOL    HW121161   6.603   2.176   6.581
 6754SOL    HW221162   6.534   2.198   6.435
 6755SOL     OW21163   4.988   1.513   3.707
 6755SOL    HW121164   4.925   1.566   3.763
 6755SOL    HW221165   5.018   1.568   3.629
 6756SOL     OW21166   4.824   4.113   4.377
 6756SOL    HW121167   4.753   4.171   4.417
 6756SOL    HW221168   4.884   4.169   4.320
 6757SOL     OW21169   4.526   5.570   0.492
 6757SOL    HW121170   4.473   5.654   0.506
 6757SOL    HW221171   4.623   5.591   0.498
 6758SOL     OW21172   5.199   3.466   2.175
 6758SOL    HW121173   5.116   3.416   2.151
 6758SOL    HW221174   5.184   3.564   2.161
 6759SOL     OW21175   1.498   4.235   3.742
 6759SOL    HW121176   1.475   4.331   3.758
 6759SOL    HW221177   1.477   4.210   3.648
 6760SOL     OW21178   0.172   5.106   4.683
 6760SOL    HW121179   0.167   5.014   4.724
 6760SOL    HW221180   0.234   5.104   4.605
 6761SOL     OW21181   5.500   2.569   5.714
 6761SOL    HW121182   5.452   2.632   5.652
 6761SOL    HW221183   5.568   2.518   5.662
 6762SOL     OW21184   6.299   5.007   3.583
 6762SOL    HW121185   6.277   4.928   3.640
 6762SOL    HW221186   6.380   5.053   3.619
 6763SOL     OW21187   5.858   5.671   4.679
 6763SOL    HW121188   5.913   5.675   4.762
 6763SOL    HW221189   5.806   5.586   4.677
 6764SOL     OW21190   3.207   3.951   5.950
 6764SOL    HW121191   3.300   3.934   5.918
 6764SOL    HW221192   3.157   3.864   5.954
 6765SOL     OW21193   6.293   4.756   3.700
 6765SOL    HW121194   6.346   4.749   3.785
 6765SOL    HW221195   6.255   4.667   3.677
 6766SOL     OW21196   2.057   0.426   6.197
 6766SOL    HW121197   2.133   0.447   6.136
 6766SOL    HW221198   2.089   0.425   6.292
 6767SOL     OW21199   0.414   2.515   0.182
 6767SOL    HW121200   0.415   2.563   0.270
 6767SOL    HW221201   0.319   2.505   0.151
 6768SOL     OW21202   0.609   0.577   3.583
 6768SOL    HW121203   0.671   0.502   3.560
 6768SOL    HW221204   0.566   0.612   3.499
 6769SOL     OW21205   3.237   1.884   5.125
 6769SOL    HW121206   3.162   1.936   5.166
 6769SOL    HW221207   3.199   1.806   5.074
 6770SOL     OW21208   0.134   2.597   3.751
 6770SOL    HW121209   0.230   2.585   3.727
 6770SOL    HW221210   0.082   2.621   3.669
 6771SOL     OW21211   3.597   2.084   3.321
 6771SOL    HW121212   3.530   2.017   3.289
 6771SOL    HW221213   3.643   2.126   3.243
 6772SOL     OW21214   5.565   1.469   2.731
 6772SOL    HW121215   5.582   1.567   2.739
 6772SOL    HW221216   5.520   1.449   2.644
 6773SOL     OW21217   6.761   6.254   1.418
 6773SOL    HW121218   6.683   6.298   1.463
 6773SOL    HW221219   6.810   6.320   1.363
 6774SOL     OW21220   1.880   2.073   5.311
 6774SOL    HW121221   1.954   2.017   5.350
 6774SOL    HW221222   1.916   2.128   5.236
 6775SOL     OW21223   0.657   1.868   4.327
 6775SOL    HW121224   0.650   1.927   4.408
 6775SOL    HW221225   0.700   1.920   4.253
 6776SOL     OW21226   3.908   4.165   1.124
 6776SOL    HW121227   3.810   4.180   1.139
 6776SOL    HW221228   3.921   4.098   1.051
 6777SOL     OW21229   4.731   5.841   1.180
 6777SOL    HW121230   4.723   5.748   1.143
 6777SOL    HW221231   4.713   5.839   1.278
 6778SOL     OW21232   5.803   3.318   2.698
 6778SOL    HW121233   5.771   3.292   2.607
 6778SOL    HW221234   5.737   3.286   2.767
 6779SOL     OW21235   6.046   4.249   5.942
 6779SOL    HW121236   5.991   4.276   6.021
 6779SOL    HW221237   6.009   4.292   5.860
 6780SOL     OW21238   2.501   2.633   3.015
 6780SOL    HW121239   2.435   2.708   3.024
 6780SOL    HW221240   2.516   2.591   3.105
 6781SOL     OW21241   6.454   1.429   4.302
 6781SOL    HW121242   6.408   1.514   4.275
 6781SOL    HW221243   6.398   1.382   4.371
 6782SOL     OW21244   6.672   1.484   3.367
 6782SOL    HW121245   6.724   1.568   3.351
 6782SOL    HW221246   6.577   1.497   3.339
 6783SOL     OW21247   1.265   4.862   5.675
 6783SOL    HW121248   1.353   4.854   5.720
 6783SOL    HW221249   1.222   4.772   5.668
 6784SOL     OW21250   2.275   3.087   1.388
 6784SOL    HW121251   2.195   3.075   1.446
 6784SOL    HW221252   2.320   2.998   1.374
 6785SOL     OW21253   5.659   4.795   4.832
 6785SOL    HW121254   5.686   4.770   4.739
 6785SOL    HW221255   5.573   4.847   4.828
 6786SOL     OW21256   6.654   2.408   1.073
 6786SOL    HW121257   6.735   2.418   1.016
 6786SOL    HW221258   6.581   2.466   1.036
 6787SOL     OW21259   3.765   2.244   0.188
 6787SOL    HW121260   3.762   2.261   0.287
 6787SOL    HW221261   3.672   2.231   0.154
 6788SOL     OW21262   0.811   4.122   3.511
 6788SOL    HW121263   0.867   4.168   3.581
 6788SOL    HW221264   0.769   4.040   3.551
 6789SOL     OW21265   0.038   3.554   4.010
 6789SOL    HW121266   7.013   3.511   4.088
 6789SOL    HW221267   7.017   3.519   3.925
 6790SOL     OW21268   1.120   4.510   5.876
 6790SOL    HW121269   1.216   4.540   5.883
 6790SOL    HW221270   1.071   4.537   5.959
 6791SOL     OW21271   4.532   1.600   3.844
 6791SOL    HW121272   4.519   1.522   3.906
 6791SOL    HW221273   4.512   1.685   3.894
 6792SOL     OW21274   4.530   0.097   5.374
 6792SOL    HW121275   4.466   0.029   5.410
 6792SOL    HW221276   4.564   0.068   5.285
 6793SOL     OW21277   2.340   3.254   0.100
 6793SOL    HW121278   2.335   3.155   0.102
 6793SOL    HW221279   2.430   3.284   0.133
 6794SOL     OW21280   4.600   1.404   5.700
 6794SOL    HW121281   4.687   1.453   5.711
 6794SOL    HW221282   4.529   1.452   5.750
 6795SOL     OW21283   1.125   1.193   1.021
 6795SOL    HW121284   1.077   1.253   0.956
 6795SOL    HW221285   1.126   1.236   1.111
 6796SOL     OW21286   5.817   1.626   1.930
 6796SOL    HW121287   5.834   1.673   2.017
 6796SOL    HW221288   5.770   1.539   1.948
 6797SOL     OW21289   0.435   1.900   1.903
 6797SOL    HW121290   0.377   1.890   1.822
 6797SOL    HW221291   0.466   1.995   1.910
 6798SOL     OW21292   5.803   0.242   1.986
 6798SOL    HW121293   5.758   0.325   2.018
 6798SOL    HW221294   5.773   0.164   2.042
 6799SOL     OW21295   5.278   0.118   3.127
 6799SOL    HW121296   5.214   0.167   3.187
 6799SOL    HW221297   5.302   0.030   3.168
 6800SOL     OW21298   0.818   1.306   1.424
 6800SOL    HW121299   0.789   1.221   1.380
 6800SOL    HW221300   0.849   1.287   1.517
 6801SOL     OW21301   1.042   6.438   4.703
 6801SOL    HW121302   0.945   6.456   4.686
 6801SOL    HW221303   1.097   6.493   4.641
 6802SOL     OW21304   3.518   5.892   1.737
 6802SOL    HW121305   3.607   5.920   1.701
 6802SOL    HW221306   3.468   5.973   1.769
 6803SOL     OW21307   5.153   4.695   6.833
 6803SOL    HW121308   5.220   4.625   6.858
 6803SOL    HW221309   5.148   4.764   6.906
 6804SOL     OW21310   2.790   4.728   2.981
 6804SOL    HW121311   2.723   4.691   3.045
 6804SOL    HW221312   2.844   4.799   3.026
 6805SOL     OW21313   0.318   4.461   5.867
 6805SOL    HW121314   0.355   4.538   5.921
 6805SOL    HW221315   0.246   4.416   5.920
 6806SOL     OW21316   6.670   0.485   3.316
 6806SOL    HW121317   6.638   0.399   3.276
 6806SOL    HW221318   6.749   0.467   3.375
 6807SOL     OW21319   3.029   3.926   2.675
 6807SOL    HW121320   2.986   3.906   2.763
 6807SOL    HW221321   3.077   4.013   2.680
 6808SOL     OW21322   4.548   1.654   5.042
 6808SOL    HW121323   4.466   1.655   4.985
 6808SOL    HW221324   4.544   1.577   5.106
 6809SOL     OW21325   6.040   4.762   2.157
 6809SOL    HW121326   6.092   4.700   2.098
 6809SOL    HW221327   6.102   4.830   2.197
 6810SOL     OW21328   2.775   1.277   3.339
 6810SOL    HW121329   2.820   1.232   3.416
 6810SOL    HW221330   2.676   1.264   3.346
 6811SOL     OW21331   6.174   1.872   2.514
 6811SOL    HW121332   6.156   1.774   2.518
 6811SOL    HW221333   6.226   1.893   2.430
 6812SOL     OW21334   2.795   3.684   5.289
 6812SOL    HW121335   2.759   3.776   5.303
 6812SOL    HW221336   2.862   3.663   5.361
 6813SOL     OW21337   5.572   3.394   1.703
 6813SOL    HW121338   5.614   3.385   1.793
 6813SOL    HW221339   5.529   3.306   1.678
 6814SOL     OW21340   4.360   1.530   6.367
 6814SOL    HW121341   4.312   1.520   6.279
 6814SOL    HW221342   4.364   1.626   6.391
 6815SOL     OW21343   2.422   5.119   6.585
 6815SOL    HW121344   2.359   5.185   6.544
 6815SOL    HW221345   2.435   5.042   6.522
 6816SOL     OW21346   0.655   2.051   4.542
 6816SOL    HW121347   0.656   2.150   4.529
 6816SOL    HW221348   0.577   2.026   4.600
 6817SOL     OW21349   3.100   2.053   2.387
 6817SOL    HW121350   3.090   2.095   2.476
 6817SOL    HW221351   3.054   2.108   2.318
 6818SOL     OW21352   2.143   6.542   6.234
 6818SOL    HW121353   2.105   6.594   6.158
 6818SOL    HW221354   2.242   6.552   6.235
 6819SOL     OW21355   4.421   4.604   2.832
 6819SOL    HW121356   4.460   4.515   2.809
 6819SOL    HW221357   4.378   4.644   2.752
 6820SOL     OW21358   2.411   6.408   1.306
 6820SOL    HW121359   2.341   6.479   1.302
 6820SOL    HW221360   2.460   6.414   1.393
 6821SOL     OW21361   4.539   3.114   5.322
 6821SOL    HW121362   4.617   3.176   5.323
 6821SOL    HW221363   4.457   3.162   5.353
 6822SOL     OW21364   0.030   2.467   6.394
 6822SOL    HW121365   6.954   2.450   6.422
 6822SOL    HW221366   0.077   2.518   6.466
 6823SOL     OW21367   5.250   3.329   0.246
 6823SOL    HW121368   5.269   3.415   0.198
 6823SOL    HW221369   5.214   3.349   0.337
 6824SOL     OW21370   1.522   1.959   6.504
 6824SOL    HW121371   1.531   1.861   6.524
 6824SOL    HW221372   1.596   1.986   6.442
 6825SOL     OW21373   6.894   5.869   1.650
 6825SOL    HW121374   6.912   5.775   1.681
 6825SOL    HW221375   6.959   5.893   1.577
 6826SOL     OW21376   0.815   3.711   3.288
 6826SOL    HW121377   0.898   3.741   3.241
 6826SOL    HW221378   0.810   3.612   3.288
 6827SOL     OW21379   4.066   6.232   4.885
 6827SOL    HW121380   4.144   6.275   4.931
 6827SOL    HW221381   4.037   6.152   4.937
 6828SOL     OW21382   3.386   2.085   3.003
 6828SOL    HW121383   3.392   2.185   3.014
 6828SOL    HW221384   3.426   2.041   3.083
 6829SOL     OW21385   5.513   6.758   4.740
 6829SOL    HW121386   5.429   6.720   4.702
 6829SOL    HW221387   5.496   6.794   4.832
 6830SOL     OW21388   5.650   0.625   3.229
 6830SOL    HW121389   5.628   0.720   3.252
 6830SOL    HW221390   5.724   0.623   3.162
 6831SOL     OW21391   1.437   1.480   6.318
 6831SOL    HW121392   1.363   1.503   6.382
 6831SOL    HW221393   1.398   1.457   6.229
 6832SOL     OW21394   2.935   2.365   0.779
 6832SOL    HW121395   2.973   2.355   0.871
 6832SOL    HW221396   2.945   2.278   0.729
 6833SOL     OW21397   2.854   5.212   5.755
 6833SOL    HW121398   2.890   5.304   5.765
 6833SOL    HW221399   2.762   5.216   5.716
 6834SOL     OW21400   5.036   6.842   0.632
 6834SOL    HW121401   5.021   6.855   0.534
 6834SOL    HW221402   5.040   6.744   0.652
 6835SOL     OW21403   3.063   2.191   4.261
 6835SOL    HW121404   3.136   2.221   4.199
 6835SOL    HW221405   3.076   2.094   4.282
 6836SOL     OW21406   1.809   5.232   6.503
 6836SOL    HW121407   1.803   5.133   6.490
 6836SOL    HW221408   1.808   5.277   6.413
 6837SOL     OW21409   0.966   0.843   1.795
 6837SOL    HW121410   1.004   0.836   1.887
 6837SOL    HW221411   1.021   0.791   1.731
 6838SOL     OW21412   2.603   4.456   5.271
 6838SOL    HW121413   2.522   4.449   5.214
 6838SOL    HW221414   2.682   4.482   5.215
 6839SOL     OW21415   5.555   2.694   3.829
 6839SOL    HW121416   5.533   2.753   3.906
 6839SOL    HW221417   5.536   2.743   3.743
 6840SOL     OW21418   2.745   6.652   5.324
 6840SOL    HW121419   2.813   6.722   5.301
 6840SOL    HW221420   2.792   6.568   5.352
 6841SOL     OW21421   3.992   5.774   1.665
 6841SOL    HW121422   4.035   5.852   1.620
 6841SOL    HW221423   3.935   5.725   1.600
 6842SOL     OW21424   0.621   3.654   0.013
 6842SOL    HW121425   0.559   3.589   0.057
 6842SOL    HW221426   0.684   3.604   6.972
 6843SOL     OW21427   3.948   2.206   1.796
 6843SOL    HW121428   3.960   2.119   1.844
 6843SOL    HW221429   3.866   2.252   1.830
 6844SOL     OW21430   4.356   5.283   4.058
 6844SOL    HW121431   4.327   5.190   4.083
 6844SOL    HW221432   4.442   5.304   4.105
 6845SOL     OW21433   4.510   5.056   2.348
 6845SOL    HW121434   4.441   4.989   2.319
 6845SOL    HW221435   4.598   5.032   2.309
 6846SOL     OW21436   3.928   3.069   2.918
 6846SOL    HW121437   3.947   3.077   3.016
 6846SOL    HW221438   3.950   3.155   2.872
 6847SOL     OW21439   5.264   3.966   1.857
 6847SOL    HW121440   5.288   4.037   1.792
 6847SOL    HW221441   5.263   3.877   1.811
 6848SOL     OW21442   0.370   5.712   4.485
 6848SOL    HW121443   0.456   5.744   4.444
 6848SOL    HW221444   0.329   5.787   4.537
 6849SOL     OW21445   3.465   5.940   3.851
 6849SOL    HW121446   3.531   5.886   3.799
 6849SOL    HW221447   3.497   5.953   3.944
 6850SOL     OW21448   5.704   2.324   3.316
 6850SOL    HW121449   5.769   2.249   3.325
 6850SOL    HW221450   5.749   2.403   3.276
 6851SOL     OW21451   2.012   4.916   5.841
 6851SOL    HW121452   2.082   4.852   5.810
 6851SOL    HW221453   2.035   5.008   5.810
 6852SOL     OW21454   1.447   4.284   1.494
 6852SOL    HW121455   1.397   4.283   1.581
 6852SOL    HW221456   1.529   4.341   1.503
 6853SOL     OW21457   0.631   5.212   5.770
 6853SOL    HW121458   0.708   5.207   5.707
 6853SOL    HW221459   0.547   5.234   5.720
 6854SOL     OW21460   6.694   1.803   6.061
 6854SOL    HW121461   6.781   1.815   6.012
 6854SOL    HW221462   6.712   1.788   6.158
 6855SOL     OW21463   4.061   0.120   2.947
 6855SOL    HW121464   4.061   0.021   2.962
 6855SOL    HW221465   4.084   0.139   2.851
 6856SOL     OW21466   6.405   3.523   4.637
 6856SOL    HW121467   6.505   3.516   4.634
 6856SOL    HW221468   6.366   3.431   4.642
 6857SOL     OW21469   2.906   1.975   5.974
 6857SOL    HW121470   2.983   1.958   6.035
 6857SOL    HW221471   2.825   1.929   6.009
 6858SOL     OW21472   4.065   3.665   4.792
 6858SOL    HW121473   4.052   3.648   4.694
 6858SOL    HW221474   4.033   3.757   4.814
 6859SOL     OW21475   2.363   6.853   1.079
 6859SOL    HW121476   2.446   6.832   1.027
 6859SOL    HW221477   2.283   6.833   1.022
 6860SOL     OW21478   5.658   4.865   1.333
 6860SOL    HW121479   5.717   4.920   1.274
 6860SOL    HW221480   5.587   4.922   1.372
 6861SOL     OW21481   5.595   5.527   6.865
 6861SOL    HW121482   5.585   5.477   6.779
 6861SOL    HW221483   5.649   5.472   6.929
 6862SOL     OW21484   2.949   5.262   5.101
 6862SOL    HW121485   2.937   5.174   5.147
 6862SOL    HW221486   2.966   5.333   5.169
 6863SOL     OW21487   5.891   1.333   4.041
 6863SOL    HW121488   5.969   1.290   3.995
 6863SOL    HW221489   5.924   1.406   4.101
 6864SOL     OW21490   2.826   6.047   3.289
 6864SOL    HW121491   2.758   6.013   3.224
 6864SOL    HW221492   2.915   6.008   3.268
 6865SOL     OW21493   6.484   3.929   4.833
 6865SOL    HW121494   6.459   3.835   4.856
 6865SOL    HW221495   6.537   3.930   4.748
 6866SOL     OW21496   0.217   3.744   2.020
 6866SOL    HW121497   0.310   3.782   2.020
 6866SOL    HW221498   0.184   3.737   1.927
 6867SOL     OW21499   1.847   4.572   1.865
 6867SOL    HW121500   1.915   4.635   1.827
 6867SOL    HW221501   1.832   4.497   1.800
 6868SOL     OW21502   1.929   6.222   4.695
 6868SOL    HW121503   1.963   6.274   4.617
 6868SOL    HW221504   1.877   6.143   4.663
 6869SOL     OW21505   5.390   2.230   5.746
 6869SOL    HW121506   5.354   2.281   5.669
 6869SOL    HW221507   5.409   2.292   5.822
 6870SOL     OW21508   5.858   3.665   3.135
 6870SOL    HW121509   5.759   3.679   3.142
 6870SOL    HW221510   5.885   3.584   3.187
 6871SOL     OW21511   5.962   4.669   1.367
 6871SOL    HW121512   5.899   4.696   1.294
 6871SOL    HW221513   6.025   4.599   1.333
 6872SOL     OW21514   2.099   3.429   1.007
 6872SOL    HW121515   2.017   3.454   0.956
 6872SOL    HW221516   2.120   3.332   0.990
 6873SOL     OW21517   5.868   3.148   5.997
 6873SOL    HW121518   5.872   3.110   5.904
 6873SOL    HW221519   5.841   3.244   5.992
 6874SOL     OW21520   6.825   2.926   3.746
 6874SOL    HW121521   6.858   2.940   3.840
 6874SOL    HW221522   6.902   2.907   3.686
 6875SOL     OW21523   1.387   1.651   2.703
 6875SOL    HW121524   1.423   1.573   2.651
 6875SOL    HW221525   1.450   1.675   2.776
 6876SOL     OW21526   3.496   5.563   0.118
 6876SOL    HW121527   3.576   5.604   0.162
 6876SOL    HW221528   3.523   5.522   0.031
 6877SOL     OW21529   2.445   3.891   6.780
 6877SOL    HW121530   2.478   3.885   6.874
 6877SOL    HW221531   2.377   3.964   6.774
 6878SOL     OW21532   2.214   1.701   5.496
 6878SOL    HW121533   2.297   1.689   5.440
 6878SOL    HW221534   2.237   1.689   5.592
 6879SOL     OW21535   0.219   1.999   6.606
 6879SOL    HW121536   0.273   1.959   6.533
 6879SOL    HW221537   0.221   1.938   6.686
 6880SOL     OW21538   2.147   4.108   5.170
 6880SOL    HW121539   2.079   4.116   5.097
 6880SOL    HW221540   2.220   4.047   5.141
 6881SOL     OW21541   7.005   4.280   1.463
 6881SOL    HW121542   6.948   4.343   1.515
 6881SOL    HW221543   6.954   4.245   1.385
 6882SOL     OW21544   1.719   1.014   4.847
 6882SOL    HW121545   1.799   1.040   4.902
 6882SOL    HW221546   1.661   1.095   4.832
 6883SOL     OW21547   3.863   6.990   1.560
 6883SOL    HW121548   3.899   0.031   1.489
 6883SOL    HW221549   3.763   6.988   1.554
 6884SOL     OW21550   2.302   4.397   4.629
 6884SOL    HW121551   2.293   4.378   4.726
 6884SOL    HW221552   2.368   4.333   4.588
 6885SOL     OW21553   2.789   6.310   3.420
 6885SOL    HW121554   2.800   6.223   3.372
 6885SOL    HW221555   2.719   6.365   3.374
 6886SOL     OW21556   5.434   1.148   2.521
 6886SOL    HW121557   5.335   1.159   2.513
 6886SOL    HW221558   5.459   1.143   2.618
 6887SOL     OW21559   6.288   0.339   5.178
 6887SOL    HW121560   6.333   0.294   5.101
 6887SOL    HW221561   6.190   0.346   5.159
 6888SOL     OW21562   6.259   0.582   4.984
 6888SOL    HW121563   6.227   0.496   5.025
 6888SOL    HW221564   6.258   0.573   4.884
 6889SOL     OW21565   0.778   2.854   6.107
 6889SOL    HW121566   0.867   2.898   6.108
 6889SOL    HW221567   0.729   2.876   6.191
 6890SOL     OW21568   2.623   0.620   1.094
 6890SOL    HW121569   2.563   0.564   1.037
 6890SOL    HW221570   2.707   0.640   1.045
 6891SOL     OW21571   2.181   3.807   4.502
 6891SOL    HW121572   2.189   3.728   4.564
 6891SOL    HW221573   2.159   3.774   4.410
 6892SOL     OW21574   3.904   0.301   4.009
 6892SOL    HW121575   3.805   0.306   4.021
 6892SOL    HW221576   3.946   0.264   4.092
 6893SOL     OW21577   5.221   5.762   3.294
 6893SOL    HW121578   5.290   5.699   3.329
 6893SOL    HW221579   5.266   5.843   3.256
 6894SOL     OW21580   6.318   5.920   6.921
 6894SOL    HW121581   6.309   5.925   0.002
 6894SOL    HW221582   6.253   5.982   6.879
 6895SOL     OW21583   2.628   3.883   0.413
 6895SOL    HW121584   2.707   3.875   0.353
 6895SOL    HW221585   2.648   3.948   0.486
 6896SOL     OW21586   3.309   0.950   3.337
 6896SOL    HW121587   3.317   0.973   3.240
 6896SOL    HW221588   3.398   0.919   3.372
 6897SOL     OW21589   2.973   3.500   0.480
 6897SOL    HW121590   2.970   3.401   0.473
 6897SOL    HW221591   2.919   3.530   0.559
 6898SOL     OW21592   4.263   0.792   1.998
 6898SOL    HW121593   4.310   0.798   2.086
 6898SOL    HW221594   4.270   0.698   1.963
 6899SOL     OW21595   5.362   0.079   6.102
 6899SOL    HW121596   5.437   0.136   6.068
 6899SOL    HW221597   5.317   0.126   6.179
 6900SOL     OW21598   5.301   1.064   5.851
 6900SOL    HW121599   5.339   0.973   5.866
 6900SOL    HW221600   5.216   1.074   5.903
 6901SOL     OW21601   1.028   0.171   6.204
 6901SOL    HW121602   1.077   0.251   6.169
 6901SOL    HW221603   0.972   0.197   6.282
 6902SOL     OW21604   0.770   6.952   6.891
 6902SOL    HW121605   0.797   0.025   6.865
 6902SOL    HW221606   0.741   6.951   6.987
 6903SOL     OW21607   3.467   3.352   0.537
 6903SOL    HW121608   3.520   3.291   0.479
 6903SOL    HW221609   3.380   3.374   0.492
 6904SOL     OW21610   6.541   0.616   3.884
 6904SOL    HW121611   6.555   0.528   3.928
 6904SOL    HW221612   6.585   0.615   3.794
 6905SOL     OW21613   6.597   6.359   0.792
 6905SOL    HW121614   6.546   6.438   0.757
 6905SOL    HW221615   6.596   6.360   0.891
 6906SOL     OW21616   3.884   1.058   3.998
 6906SOL    HW121617   3.881   0.958   3.994
 6906SOL    HW221618   3.823   1.095   3.929
 6907SOL     OW21619   3.819   1.096   1.312
 6907SOL    HW121620   3.737   1.090   1.369
 6907SOL    HW221621   3.793   1.092   1.216
 6908SOL     OW21622   1.183   7.015   5.467
 6908SOL    HW121623   1.190   6.941   5.400
 6908SOL    HW221624   1.170   6.976   5.559
 6909SOL     OW21625   4.552   4.740   0.896
 6909SOL    HW121626   4.562   4.686   0.980
 6909SOL    HW221627   4.464   4.719   0.853
 6910SOL     OW21628   6.487   1.539   2.494
 6910SOL    HW121629   6.395   1.511   2.466
 6910SOL    HW221630   6.553   1.507   2.426
 6911SOL     OW21631   4.261   0.254   3.875
 6911SOL    HW121632   4.261   0.289   3.969
 6911SOL    HW221633   4.181   0.290   3.827
 6912SOL     OW21634   4.838   4.900   1.438
 6912SOL    HW121635   4.763   4.882   1.375
 6912SOL    HW221636   4.919   4.929   1.386
 6913SOL     OW21637   4.840   4.699   4.608
 6913SOL    HW121638   4.926   4.682   4.561
 6913SOL    HW221639   4.780   4.755   4.551
 6914SOL     OW21640   6.102   5.597   6.628
 6914SOL    HW121641   6.124   5.584   6.532
 6914SOL    HW221642   6.080   5.693   6.645
 6915SOL     OW21643   0.548   4.736   2.613
 6915SOL    HW121644   0.538   4.637   2.615
 6915SOL    HW221645   0.612   4.765   2.684
 6916SOL     OW21646   6.516   4.393   6.820
 6916SOL    HW121647   6.422   4.374   6.848
 6916SOL    HW221648   6.561   4.308   6.794
 6917SOL     OW21649   4.538   5.956   5.828
 6917SOL    HW121650   4.611   6.005   5.782
 6917SOL    HW221651   4.449   5.991   5.797
 6918SOL     OW21652   0.524   3.852   4.021
 6918SOL    HW121653   0.555   3.773   3.969
 6918SOL    HW221654   0.425   3.846   4.035
 6919SOL     OW21655   1.977   6.187   2.283
 6919SOL    HW121656   1.924   6.214   2.203
 6919SOL    HW221657   1.964   6.255   2.356
 6920SOL     OW21658   5.201   5.072   4.962
 6920SOL    HW121659   5.280   5.120   5.000
 6920SOL    HW221660   5.165   5.123   4.884
 6921SOL     OW21661   5.846   5.987   3.320
 6921SOL    HW121662   5.855   5.974   3.419
 6921SOL    HW221663   5.900   5.918   3.272
 6922SOL     OW21664   2.048   6.252   6.688
 6922SOL    HW121665   1.950   6.242   6.707
 6922SOL    HW221666   2.062   6.273   6.591
 6923SOL     OW21667   4.310   6.625   3.685
 6923SOL    HW121668   4.291   6.704   3.743
 6923SOL    HW221669   4.398   6.639   3.638
 6924SOL     OW21670   0.910   4.599   0.473
 6924SOL    HW121671   0.925   4.541   0.392
 6924SOL    HW221672   0.831   4.658   0.457
 6925SOL     OW21673   3.671   6.176   3.941
 6925SOL    HW121674   3.656   6.141   3.848
 6925SOL    HW221675   3.649   6.104   4.008
 6926SOL     OW21676   3.781   3.537   3.552
 6926SOL    HW121677   3.733   3.611   3.505
 6926SOL    HW221678   3.742   3.449   3.525
 6927SOL     OW21679   4.888   3.992   6.557
 6927SOL    HW121680   4.835   3.966   6.477
 6927SOL    HW221681   4.865   3.932   6.633
 6928SOL     OW21682   4.428   0.183   6.307
 6928SOL    HW121683   4.350   0.192   6.245
 6928SOL    HW221684   4.494   0.256   6.288
 6929SOL     OW21685   4.768   6.137   6.714
 6929SOL    HW121686   4.803   6.130   6.621
 6929SOL    HW221687   4.698   6.066   6.729
 6930SOL     OW21688   0.386   6.634   2.264
 6930SOL    HW121689   0.431   6.615   2.177
 6930SOL    HW221690   0.454   6.662   2.331
 6931SOL     OW21691   0.765   0.107   1.674
 6931SOL    HW121692   0.804   0.164   1.601
 6931SOL    HW221693   0.685   0.152   1.712
 6932SOL     OW21694   3.047   1.083   6.454
 6932SOL    HW121695   3.091   0.993   6.452
 6932SOL    HW221696   3.016   1.102   6.547
 6933SOL     OW21697   3.381   5.618   4.836
 6933SOL    HW121698   3.466   5.566   4.833
 6933SOL    HW221699   3.318   5.575   4.901
 6934SOL     OW21700   5.286   2.938   0.142
 6934SOL    HW121701   5.330   2.870   0.085
 6934SOL    HW221702   5.199   2.902   0.177
 6935SOL     OW21703   4.026   5.985   3.438
 6935SOL    HW121704   4.007   6.083   3.446
 6935SOL    HW221705   4.003   5.954   3.345
 6936SOL     OW21706   0.212   2.224   2.087
 6936SOL    HW121707   0.162   2.224   2.174
 6936SOL    HW221708   0.148   2.245   2.012
 6937SOL     OW21709   4.366   6.190   5.902
 6937SOL    HW121710   4.427   6.268   5.897
 6937SOL    HW221711   4.279   6.218   5.944
 6938SOL     OW21712   5.135   3.664   6.006
 6938SOL    HW121713   5.041   3.649   5.976
 6938SOL    HW221714   5.198   3.634   5.935
 6939SOL     OW21715   0.223   4.690   2.330
 6939SOL    HW121716   0.214   4.595   2.360
 6939SOL    HW221717   0.312   4.703   2.285
 6940SOL     OW21718   4.901   0.704   6.993
 6940SOL    HW121719   4.804   0.680   6.981
 6940SOL    HW221720   4.912   0.803   6.985
 6941SOL     OW21721   2.999   3.110   2.196
 6941SOL    HW121722   3.001   3.129   2.098
 6941SOL    HW221723   3.036   3.019   2.213
 6942SOL     OW21724   0.390   2.551   0.452
 6942SOL    HW121725   0.326   2.504   0.513
 6942SOL    HW221726   0.372   2.649   0.454
 6943SOL     OW21727   5.456   6.576   6.126
 6943SOL    HW121728   5.453   6.674   6.106
 6943SOL    HW221729   5.372   6.549   6.174
 6944SOL     OW21730   1.468   5.986   5.613
 6944SOL    HW121731   1.483   5.895   5.575
 6944SOL    HW221732   1.382   6.023   5.580
 6945SOL     OW21733   6.219   3.353   6.422
 6945SOL    HW121734   6.282   3.282   6.390
 6945SOL    HW221735   6.127   3.315   6.429
 6946SOL     OW21736   5.995   4.864   2.493
 6946SOL    HW121737   6.055   4.801   2.543
 6946SOL    HW221738   5.938   4.812   2.429
 6947SOL     OW21739   3.876   6.985   3.496
 6947SOL    HW121740   3.886   6.913   3.427
 6947SOL    HW221741   3.966   0.003   3.520
 6948SOL     OW21742   4.750   0.406   0.578
 6948SOL    HW121743   4.755   0.346   0.658
 6948SOL    HW221744   4.656   0.412   0.546
 6949SOL     OW21745   4.646   6.466   3.308
 6949SOL    HW121746   4.708   6.519   3.251
 6949SOL    HW221747   4.681   6.373   3.319
 6950SOL     OW21748   2.002   0.484   3.027
 6950SOL    HW121749   1.906   0.473   3.053
 6950SOL    HW221750   2.054   0.519   3.105
 6951SOL     OW21751   6.550   6.308   6.133
 6951SOL    HW121752   6.526   6.404   6.121
 6951SOL    HW221753   6.614   6.280   6.062
 6952SOL     OW21754   0.168   5.179   3.461
 6952SOL    HW121755   0.227   5.138   3.531
 6952SOL    HW221756   0.072   5.169   3.487
 6953SOL     OW21757   5.074   1.105   6.011
 6953SOL    HW121758   5.020   1.176   5.967
 6953SOL    HW221759   5.037   1.086   6.102
 6954SOL     OW21760   0.692   3.020   3.951
 6954SOL    HW121761   0.691   2.924   3.981
 6954SOL    HW221762   0.777   3.039   3.902
 6955SOL     OW21763   0.224   6.900   1.846
 6955SOL    HW121764   0.297   6.955   1.887
 6955SOL    HW221765   0.155   6.960   1.807
 6956SOL     OW21766   4.590   5.401   1.986
 6956SOL    HW121767   4.558   5.444   2.071
 6956SOL    HW221768   4.682   5.365   2.000
 6957SOL     OW21769   6.721   4.760   1.778
 6957SOL    HW121770   6.638   4.736   1.728
 6957SOL    HW221771   6.784   4.683   1.777
 6958SOL     OW21772   2.255   2.445   6.106
 6958SOL    HW121773   2.239   2.539   6.077
 6958SOL    HW221774   2.316   2.399   6.041
 6959SOL     OW21775   3.372   1.410   4.914
 6959SOL    HW121776   3.406   1.327   4.957
 6959SOL    HW221777   3.356   1.480   4.983
 6960SOL     OW21778   6.947   4.937   0.010
 6960SOL    HW121779   6.946   4.898   6.937
 6960SOL    HW221780   6.955   5.037   0.004
 6961SOL     OW21781   0.400   2.463   3.609
 6961SOL    HW121782   0.482   2.435   3.559
 6961SOL    HW221783   0.421   2.468   3.707
 6962SOL     OW21784   5.551   5.435   2.749
 6962SOL    HW121785   5.644   5.456   2.779
 6962SOL    HW221786   5.508   5.371   2.813
 6963SOL     OW21787   0.071   5.193   1.547
 6963SOL    HW121788   0.075   5.201   1.646
 6963SOL    HW221789   0.014   5.265   1.509
 6964SOL     OW21790   4.792   4.960   5.237
 6964SOL    HW121791   4.837   5.014   5.166
 6964SOL    HW221792   4.758   4.874   5.198
 6965SOL     OW21793   6.653   3.173   6.073
 6965SOL    HW121794   6.657   3.080   6.036
 6965SOL    HW221795   6.639   3.169   6.172
 6966SOL     OW21796   5.425   2.673   2.738
 6966SOL    HW121797   5.468   2.720   2.815
 6966SOL    HW221798   5.341   2.720   2.712
 6967SOL     OW21799   1.769   1.784   5.663
 6967SOL    HW121800   1.696   1.830   5.714
 6967SOL    HW221801   1.819   1.851   5.608
 6968SOL     OW21802   4.319   5.992   1.081
 6968SOL    HW121803   4.267   5.947   1.008
 6968SOL    HW221804   4.385   6.056   1.041
 6969SOL     OW21805   4.230   1.320   1.602
 6969SOL    HW121806   4.194   1.288   1.515
 6969SOL    HW221807   4.167   1.295   1.675
 6970SOL     OW21808   4.072   4.129   0.700
 6970SOL    HW121809   4.024   4.046   0.671
 6970SOL    HW221810   4.013   4.209   0.688
 6971SOL     OW21811   6.453   2.449   1.605
 6971SOL    HW121812   6.535   2.438   1.548
 6971SOL    HW221813   6.443   2.546   1.630
 6972SOL     OW21814   5.278   4.401   4.232
 6972SOL    HW121815   5.259   4.487   4.186
 6972SOL    HW221816   5.272   4.415   4.331
 6973SOL     OW21817   1.952   4.234   4.723
 6973SOL    HW121818   2.004   4.156   4.688
 6973SOL    HW221819   1.923   4.292   4.647
 6974SOL     OW21820   3.695   3.265   3.475
 6974SOL    HW121821   3.595   3.273   3.476
 6974SOL    HW221822   3.720   3.179   3.430
 6975SOL     OW21823   3.004   0.199   5.413
 6975SOL    HW121824   3.092   0.151   5.412
 6975SOL    HW221825   2.964   0.197   5.321
 6976SOL     OW21826   3.491   4.664   6.737
 6976SOL    HW121827   3.454   4.658   6.645
 6976SOL    HW221828   3.555   4.740   6.743
 6977SOL     OW21829   4.828   1.739   1.994
 6977SOL    HW121830   4.737   1.772   2.018
 6977SOL    HW221831   4.897   1.803   2.029
 6978SOL     OW21832   6.755   0.712   1.779
 6978SOL    HW121833   6.772   0.690   1.875
 6978SOL    HW221834   6.842   0.723   1.732
 6979SOL     OW21835   1.141   5.290   1.955
 6979SOL    HW121836   1.187   5.330   1.875
 6979SOL    HW221837   1.080   5.217   1.924
 6980SOL     OW21838   2.147   0.597   3.512
 6980SOL    HW121839   2.179   0.678   3.562
 6980SOL    HW221840   2.062   0.565   3.552
 6981SOL     OW21841   2.725   4.201   6.706
 6981SOL    HW121842   2.665   4.223   6.783
 6981SOL    HW221843   2.691   4.120   6.659
 6982SOL     OW21844   1.537   0.845   3.851
 6982SOL    HW121845   1.463   0.816   3.792
 6982SOL    HW221846   1.500   0.888   3.934
 6983SOL     OW21847   0.190   0.871   4.192
 6983SOL    HW121848   0.223   0.958   4.226
 6983SOL    HW221849   0.259   0.800   4.210
 6984SOL     OW21850   2.281   1.851   5.249
 6984SOL    HW121851   2.182   1.839   5.249
 6984SOL    HW221852   2.313   1.863   5.155
 6985SOL     OW21853   3.926   5.518   2.324
 6985SOL    HW121854   3.836   5.533   2.284
 6985SOL    HW221855   3.916   5.470   2.411
 6986SOL     OW21856   2.322   6.261   5.823
 6986SOL    HW121857   2.363   6.187   5.877
 6986SOL    HW221858   2.225   6.242   5.810
 6987SOL     OW21859   0.361   1.962   5.994
 6987SOL    HW121860   0.271   2.005   5.988
 6987SOL    HW221861   0.384   1.918   5.907
 6988SOL     OW21862   5.640   1.115   4.673
 6988SOL    HW121863   5.590   1.160   4.747
 6988SOL    HW221864   5.600   1.025   4.656
 6989SOL     OW21865   1.002   1.962   3.492
 6989SOL    HW121866   0.981   1.962   3.589
 6989SOL    HW221867   0.925   2.000   3.441
 6990SOL     OW21868   4.933   2.025   0.094
 6990SOL    HW121869   4.901   1.973   0.174
 6990SOL    HW221870   4.860   2.088   0.065
 6991SOL     OW21871   2.556   4.651   5.034
 6991SOL    HW121872   2.548   4.646   5.134
 6991SOL    HW221873   2.653   4.653   5.009
 6992SOL     OW21874   6.085   5.943   4.644
 6992SOL    HW121875   6.072   5.849   4.611
 6992SOL    HW221876   6.143   5.993   4.580
 6993SOL     OW21877   6.130   6.515   3.359
 6993SOL    HW121878   6.118   6.419   3.333
 6993SOL    HW221879   6.202   6.556   3.304
 6994SOL     OW21880   1.031   3.832   5.634
 6994SOL    HW121881   1.113   3.867   5.679
 6994SOL    HW221882   1.038   3.732   5.626
 6995SOL     OW21883   6.108   5.198   4.873
 6995SOL    HW121884   6.149   5.125   4.819
 6995SOL    HW221885   6.026   5.165   4.918
 6996SOL     OW21886   3.001   0.656   5.007
 6996SOL    HW121887   2.912   0.610   5.007
 6996SOL    HW221888   2.990   0.749   4.972
 6997SOL     OW21889   4.896   6.375   5.203
 6997SOL    HW121890   4.806   6.385   5.161
 6997SOL    HW221891   4.892   6.405   5.298
 6998SOL     OW21892   1.459   3.098   1.519
 6998SOL    HW121893   1.525   3.170   1.542
 6998SOL    HW221894   1.496   3.040   1.447
 6999SOL     OW21895   2.272   1.593   6.519
 6999SOL    HW121896   2.206   1.555   6.454
 6999SOL    HW221897   2.302   1.683   6.488
 7000SOL     OW21898   0.546   5.942   2.707
 7000SOL    HW121899   0.558   5.959   2.610
 7000SOL    HW221900   0.524   5.846   2.722
 7001SOL     OW21901   2.693   2.460   5.836
 7001SOL    HW121902   2.612   2.518   5.822
 7001SOL    HW221903   2.695   2.389   5.766
 7002SOL     OW21904   2.577   4.694   3.531
 7002SOL    HW121905   2.626   4.689   3.618
 7002SOL    HW221906   2.479   4.690   3.548
 7003SOL     OW21907   3.108   0.210   7.011
 7003SOL    HW121908   3.014   0.204   0.025
 7003SOL    HW221909   3.109   0.215   6.911
 7004SOL     OW21910   2.093   4.113   1.604
 7004SOL    HW121911   2.185   4.091   1.634
 7004SOL    HW221912   2.097   4.171   1.522
 7005SOL     OW21913   6.919   6.177   5.450
 7005SOL    HW121914   7.018   6.177   5.466
 7005SOL    HW221915   6.874   6.119   5.519
 7006SOL     OW21916   5.270   4.141   5.051
 7006SOL    HW121917   5.356   4.125   5.003
 7006SOL    HW221918   5.281   4.118   5.148
 7007SOL     OW21919   5.037   6.692   3.321
 7007SOL    HW121920   4.994   6.783   3.320
 7007SOL    HW221921   5.058   6.665   3.227
 7008SOL     OW21922   2.433   5.023   4.208
 7008SOL    HW121923   2.336   5.031   4.231
 7008SOL    HW221924   2.486   5.005   4.291
 7009SOL     OW21925   6.589   5.157   2.337
 7009SOL    HW121926   6.558   5.135   2.429
 7009SOL    HW221927   6.605   5.073   2.285
 7010SOL     OW21928   3.802   4.800   6.037
 7010SOL    HW121929   3.762   4.736   5.971
 7010SOL    HW221930   3.834   4.881   5.989
 7011SOL     OW21931   1.511   6.781   5.009
 7011SOL    HW121932   1.414   6.786   4.986
 7011SOL    HW221933   1.522   6.746   5.102
 7012SOL     OW21934   1.304   0.625   1.987
 7012SOL    HW121935   1.359   0.708   1.987
 7012SOL    HW221936   1.355   0.551   2.031
 7013SOL     OW21937   0.737   6.666   1.107
 7013SOL    HW121938   0.774   6.680   1.016
 7013SOL    HW221939   0.809   6.630   1.167
 7014SOL     OW21940   4.253   3.884   1.130
 7014SOL    HW121941   4.324   3.816   1.114
 7014SOL    HW221942   4.261   3.958   1.063
 7015SOL     OW21943   5.851   4.015   1.923
 7015SOL    HW121944   5.923   3.952   1.950
 7015SOL    HW221945   5.823   4.069   2.002
 7016SOL     OW21946   4.382   4.861   2.151
 7016SOL    HW121947   4.408   4.935   2.089
 7016SOL    HW221948   4.302   4.814   2.114
 7017SOL     OW21949   2.392   1.170   2.569
 7017SOL    HW121950   2.445   1.088   2.549
 7017SOL    HW221951   2.297   1.145   2.586
 7018SOL     OW21952   6.858   3.837   4.974
 7018SOL    HW121953   6.848   3.937   4.983
 7018SOL    HW221954   6.925   3.816   4.903
 7019SOL     OW21955   2.767   4.919   6.762
 7019SOL    HW121956   2.771   4.822   6.737
 7019SOL    HW221957   2.847   4.967   6.727
 7020SOL     OW21958   5.453   0.037   0.389
 7020SOL    HW121959   5.447   6.988   0.462
 7020SOL    HW221960   5.445   7.010   0.300
 7021SOL     OW21961   2.870   0.984   5.006
 7021SOL    HW121962   2.815   0.988   4.923
 7021SOL    HW221963   2.814   1.008   5.085
 7022SOL     OW21964   5.284   3.892   0.568
 7022SOL    HW121965   5.207   3.864   0.626
 7022SOL    HW221966   5.370   3.872   0.615
 7023SOL     OW21967   6.390   2.292   3.259
 7023SOL    HW121968   6.367   2.259   3.350
 7023SOL    HW221969   6.451   2.226   3.214
 7024SOL     OW21970   1.875   5.742   6.174
 7024SOL    HW121971   1.958   5.686   6.175
 7024SOL    HW221972   1.899   5.836   6.194
 7025SOL     OW21973   3.287   1.532   6.406
 7025SOL    HW121974   3.297   1.432   6.406
 7025SOL    HW221975   3.365   1.573   6.358
 7026SOL     OW21976   2.771   1.486   1.828
 7026SOL    HW121977   2.745   1.419   1.758
 7026SOL    HW221978   2.869   1.474   1.849
 7027SOL     OW21979   3.607   6.001   3.379
 7027SOL    HW121980   3.644   5.917   3.419
 7027SOL    HW221981   3.587   5.986   3.283
 7028SOL     OW21982   5.246   6.629   4.324
 7028SOL    HW121983   5.325   6.568   4.333
 7028SOL    HW221984   5.171   6.594   4.380
 7029SOL     OW21985   3.822   6.345   6.663
 7029SOL    HW121986   3.729   6.308   6.671
 7029SOL    HW221987   3.857   6.367   6.754
 7030SOL     OW21988   0.446   3.379   5.765
 7030SOL    HW121989   0.421   3.283   5.781
 7030SOL    HW221990   0.545   3.387   5.753
 7031SOL     OW21991   2.206   5.673   3.761
 7031SOL    HW121992   2.209   5.657   3.859
 7031SOL    HW221993   2.113   5.698   3.734
 7032SOL     OW21994   4.313   0.158   3.206
 7032SOL    HW121995   4.409   0.150   3.232
 7032SOL    HW221996   4.297   0.105   3.123
 7033SOL     OW21997   6.673   1.042   4.318
 7033SOL    HW121998   6.752   1.084   4.364
 7033SOL    HW221999   6.706   0.987   4.241
 7034SOL     OW22000   5.596   0.328   2.661
 7034SOL    HW122001   5.586   0.253   2.727
 7034SOL    HW222002   5.507   0.347   2.620
 7035SOL     OW22003   1.167   6.811   2.767
 7035SOL    HW122004   1.188   6.719   2.735
 7035SOL    HW222005   1.203   6.878   2.701
 7036SOL     OW22006   6.457   6.076   1.710
 7036SOL    HW122007   6.538   6.035   1.669
 7036SOL    HW222008   6.418   6.013   1.777
 7037SOL     OW22009   0.360   6.590   6.233
 7037SOL    HW122010   0.281   6.620   6.181
 7037SOL    HW222011   0.331   6.556   6.322
 7038SOL     OW22012   1.571   3.841   4.312
 7038SOL    HW122013   1.514   3.840   4.394
 7038SOL    HW222014   1.533   3.907   4.246
 7039SOL     OW22015   3.135   6.654   0.158
 7039SOL    HW122016   3.066   6.608   0.213
 7039SOL    HW222017   3.127   6.753   0.169
 7040SOL     OW22018   4.632   2.768   6.113
 7040SOL    HW122019   4.618   2.671   6.132
 7040SOL    HW222020   4.544   2.816   6.120
 7041SOL     OW22021   1.246   1.997   3.380
 7041SOL    HW122022   1.264   1.899   3.374
 7041SOL    HW222023   1.156   2.012   3.421
 7042SOL     OW22024   4.982   4.993   6.498
 7042SOL    HW122025   4.960   5.079   6.450
 7042SOL    HW222026   5.080   4.988   6.514
 7043SOL     OW22027   2.203   3.023   3.311
 7043SOL    HW122028   2.291   2.977   3.325
 7043SOL    HW222029   2.216   3.101   3.250
 7044SOL     OW22030   4.769   4.663   3.163
 7044SOL    HW122031   4.696   4.597   3.182
 7044SOL    HW222032   4.739   4.727   3.093
 7045SOL     OW22033   4.769   6.669   0.906
 7045SOL    HW122034   4.704   6.702   0.838
 7045SOL    HW222035   4.825   6.746   0.939
 7046SOL     OW22036   3.750   1.809   3.893
 7046SOL    HW122037   3.831   1.850   3.934
 7046SOL    HW222038   3.674   1.875   3.896
 7047SOL     OW22039   1.007   2.272   3.003
 7047SOL    HW122040   1.053   2.260   3.091
 7047SOL    HW222041   1.075   2.273   2.930
 7048SOL     OW22042   1.267   5.722   0.989
 7048SOL    HW122043   1.235   5.810   0.954
 7048SOL    HW222044   1.366   5.715   0.977
 7049SOL     OW22045   2.468   0.743   0.728
 7049SOL    HW122046   2.539   0.682   0.692
 7049SOL    HW222047   2.410   0.775   0.654
 7050SOL     OW22048   3.359   4.089   3.807
 7050SOL    HW122049   3.379   4.138   3.891
 7050SOL    HW222050   3.389   4.143   3.728
 7051SOL     OW22051   7.008   0.265   1.205
 7051SOL    HW122052   0.011   0.237   1.112
 7051SOL    HW222053   6.942   0.340   1.204
 7052SOL     OW22054   6.821   2.318   4.810
 7052SOL    HW122055   6.813   2.238   4.750
 7052SOL    HW222056   6.902   2.308   4.868
 7053SOL     OW22057   0.035   3.441   6.634
 7053SOL    HW122058   0.029   3.345   6.665
 7053SOL    HW222059   0.001   3.447   6.540
 7054SOL     OW22060   0.904   6.264   1.138
 7054SOL    HW122061   0.875   6.297   1.228
 7054SOL    HW222062   0.825   6.252   1.079
 7055SOL     OW22063   4.468   6.479   5.613
 7055SOL    HW122064   4.527   6.398   5.605
 7055SOL    HW222065   4.409   6.485   5.532
 7056SOL     OW22066   5.477   4.903   3.660
 7056SOL    HW122067   5.421   4.898   3.742
 7056SOL    HW222068   5.431   4.854   3.585
 7057SOL     OW22069   0.808   3.983   4.897
 7057SOL    HW122070   0.757   4.019   4.819
 7057SOL    HW222071   0.747   3.976   4.976
 7058SOL     OW22072   0.063   5.449   5.687
 7058SOL    HW122073   0.100   5.503   5.763
 7058SOL    HW222074   0.013   5.510   5.625
 7059SOL     OW22075   0.398   0.392   2.172
 7059SOL    HW122076   0.302   0.382   2.197
 7059SOL    HW222077   0.406   0.401   2.073
 7060SOL     OW22078   3.348   0.267   1.613
 7060SOL    HW122079   3.302   0.311   1.690
 7060SOL    HW222080   3.444   0.296   1.610
 7061SOL     OW22081   0.208   2.257   3.699
 7061SOL    HW122082   0.271   2.325   3.664
 7061SOL    HW222083   0.162   2.210   3.623
 7062SOL     OW22084   5.774   1.587   5.826
 7062SOL    HW122085   5.700   1.637   5.872
 7062SOL    HW222086   5.779   1.616   5.730
 7063SOL     OW22087   1.305   6.523   0.644
 7063SOL    HW122088   1.329   6.605   0.695
 7063SOL    HW222089   1.254   6.460   0.703
 7064SOL     OW22090   4.386   2.500   1.482
 7064SOL    HW122091   4.421   2.511   1.575
 7064SOL    HW222092   4.288   2.483   1.485
 7065SOL     OW22093   4.996   4.031   0.975
 7065SOL    HW122094   4.927   4.066   1.039
 7065SOL    HW222095   5.087   4.052   1.009
 7066SOL     OW22096   3.619   0.532   0.571
 7066SOL    HW122097   3.587   0.460   0.633
 7066SOL    HW222098   3.716   0.518   0.551
 7067SOL     OW22099   1.208   2.878   5.528
 7067SOL    HW122100   1.303   2.895   5.553
 7067SOL    HW222101   1.175   2.797   5.577
 7068SOL     OW22102   0.752   3.426   2.739
 7068SOL    HW122103   0.848   3.410   2.761
 7068SOL    HW222104   0.746   3.482   2.657
 7069SOL     OW22105   6.486   3.120   4.744
 7069SOL    HW122106   6.559   3.157   4.687
 7069SOL    HW222107   6.397   3.146   4.706
 7070SOL     OW22108   6.748   5.229   5.292
 7070SOL    HW122109   6.687   5.198   5.365
 7070SOL    HW222110   6.696   5.246   5.209
 7071SOL     OW22111   0.227   6.874   5.286
 7071SOL    HW122112   0.210   6.832   5.197
 7071SOL    HW222113   0.248   6.971   5.274
 7072SOL     OW22114   6.855   0.175   6.233
 7072SOL    HW122115   6.854   0.252   6.297
 7072SOL    HW222116   6.928   0.188   6.166
 7073SOL     OW22117   6.833   0.860   4.534
 7073SOL    HW122118   6.933   0.862   4.536
 7073SOL    HW222119   6.797   0.932   4.594
 7074SOL     OW22120   3.499   3.008   2.234
 7074SOL    HW122121   3.524   2.924   2.282
 7074SOL    HW222122   3.416   2.992   2.179
 7075SOL     OW22123   1.317   6.367   4.365
 7075SOL    HW122124   1.338   6.308   4.443
 7075SOL    HW222125   1.272   6.312   4.294
 7076SOL     OW22126   3.637   1.739   0.246
 7076SOL    HW122127   3.576   1.766   0.172
 7076SOL    HW222128   3.665   1.820   0.297
 7077SOL     OW22129   2.407   5.687   5.433
 7077SOL    HW122130   2.309   5.685   5.449
 7077SOL    HW222131   2.431   5.767   5.378
 7078SOL     OW22132   6.446   0.275   2.147
 7078SOL    HW122133   6.391   0.289   2.229
 7078SOL    HW222134   6.532   0.325   2.155
 7079SOL     OW22135   6.482   6.584   6.076
 7079SOL    HW122136   6.418   6.647   6.120
 7079SOL    HW222137   6.467   6.585   5.977
 7080SOL     OW22138   4.309   2.020   3.871
 7080SOL    HW122139   4.264   2.103   3.836
 7080SOL    HW222140   4.252   1.940   3.851
 7081SOL     OW22141   4.130   0.906   5.319
 7081SOL    HW122142   4.121   1.004   5.339
 7081SOL    HW222143   4.197   0.892   5.246
 7082SOL     OW22144   5.586   6.452   0.331
 7082SOL    HW122145   5.531   6.387   0.384
 7082SOL    HW222146   5.570   6.544   0.366
 7083SOL     OW22147   3.392   1.064   6.202
 7083SOL    HW122148   3.460   1.103   6.141
 7083SOL    HW222149   3.315   1.029   6.149
 7084SOL     OW22150   6.918   6.799   5.237
 7084SOL    HW122151   6.958   6.768   5.323
 7084SOL    HW222152   6.857   6.729   5.201
 7085SOL     OW22153   1.696   1.310   3.302
 7085SOL    HW122154   1.687   1.244   3.228
 7085SOL    HW222155   1.755   1.385   3.273
 7086SOL     OW22156   5.306   1.408   6.155
 7086SOL    HW122157   5.234   1.423   6.088
 7086SOL    HW222158   5.264   1.388   6.244
 7087SOL     OW22159   0.626   3.233   4.285
 7087SOL    HW122160   0.631   3.239   4.185
 7087SOL    HW222161   0.716   3.252   4.324
 7088SOL     OW22162   4.908   3.092   3.929
 7088SOL    HW122163   4.882   2.999   3.901
 7088SOL    HW222164   4.981   3.088   3.996
 7089SOL     OW22165   3.029   2.950   6.274
 7089SOL    HW122166   3.098   3.021   6.289
 7089SOL    HW222167   2.977   2.970   6.191
 7090SOL     OW22168   2.303   1.400   5.466
 7090SOL    HW122169   2.273   1.438   5.378
 7090SOL    HW222170   2.386   1.447   5.497
 7091SOL     OW22171   0.005   1.749   6.503
 7091SOL    HW122172   0.016   1.817   6.430
 7091SOL    HW222173   0.089   1.744   6.557
 7092SOL     OW22174   4.031   2.975   0.316
 7092SOL    HW122175   4.127   3.000   0.329
 7092SOL    HW222176   4.026   2.886   0.270
 7093SOL     OW22177   3.393   3.865   4.055
 7093SOL    HW122178   3.339   3.854   3.972
 7093SOL    HW222179   3.451   3.946   4.046
 7094SOL     OW22180   0.501   6.598   5.550
 7094SOL    HW122181   0.421   6.616   5.492
 7094SOL    HW222182   0.510   6.499   5.564
 7095SOL     OW22183   2.831   2.794   0.263
 7095SOL    HW122184   2.835   2.892   0.278
 7095SOL    HW222185   2.853   2.745   0.347
 7096SOL     OW22186   5.851   1.639   3.661
 7096SOL    HW122187   5.806   1.554   3.689
 7096SOL    HW222188   5.850   1.646   3.561
 7097SOL     OW22189   6.825   0.449   1.686
 7097SOL    HW122190   6.918   0.475   1.661
 7097SOL    HW222191   6.826   0.361   1.734
 7098SOL     OW22192   1.210   6.322   4.883
 7098SOL    HW122193   1.146   6.358   4.815
 7098SOL    HW222194   1.278   6.265   4.837
 7099SOL     OW22195   1.528   0.889   4.623
 7099SOL    HW122196   1.564   0.934   4.541
 7099SOL    HW222197   1.603   0.846   4.673
 7100SOL     OW22198   5.669   3.366   1.285
 7100SOL    HW122199   5.699   3.379   1.379
 7100SOL    HW222200   5.726   3.297   1.240
 7101SOL     OW22201   2.708   0.379   4.669
 7101SOL    HW122202   2.784   0.344   4.615
 7101SOL    HW222203   2.656   0.445   4.614
 7102SOL     OW22204   4.462   0.649   1.084
 7102SOL    HW122205   4.544   0.700   1.108
 7102SOL    HW222206   4.384   0.712   1.080
 7103SOL     OW22207   3.842   5.541   0.026
 7103SOL    HW122208   3.905   5.573   6.974
 7103SOL    HW222209   3.821   5.617   0.088
 7104SOL     OW22210   1.141   3.515   4.494
 7104SOL    HW122211   1.086   3.592   4.527
 7104SOL    HW222212   1.187   3.472   4.571
 7105SOL     OW22213   3.705   2.907   5.407
 7105SOL    HW122214   3.673   2.841   5.475
 7105SOL    HW222215   3.642   2.985   5.405
 7106SOL     OW22216   3.332   3.220   3.805
 7106SOL    HW122217   3.298   3.127   3.792
 7106SOL    HW222218   3.423   3.218   3.848
 7107SOL     OW22219   2.266   1.089   0.581
 7107SOL    HW122220   2.266   0.997   0.541
 7107SOL    HW222221   2.332   1.092   0.656
 7108SOL     OW22222   4.658   6.446   1.027
 7108SOL    HW122223   4.689   6.539   1.009
 7108SOL    HW222224   4.599   6.445   1.108
 7109SOL     OW22225   3.714   6.738   6.310
 7109SOL    HW122226   3.641   6.798   6.342
 7109SOL    HW222227   3.753   6.688   6.387
 7110SOL     OW22228   5.123   5.143   3.756
 7110SOL    HW122229   5.027   5.173   3.757
 7110SOL    HW222230   5.161   5.157   3.665
 7111SOL     OW22231   1.198   2.898   4.575
 7111SOL    HW122232   1.129   2.923   4.642
 7111SOL    HW222233   1.265   2.972   4.566
 7112SOL     OW22234   1.367   5.595   4.508
 7112SOL    HW122235   1.403   5.504   4.490
 7112SOL    HW222236   1.385   5.620   4.604
 7113SOL     OW22237   3.179   3.906   4.640
 7113SOL    HW122238   3.192   4.004   4.660
 7113SOL    HW222239   3.267   3.866   4.615
 7114SOL     OW22240   4.276   6.746   1.718
 7114SOL    HW122241   4.221   6.663   1.732
 7114SOL    HW222242   4.216   6.823   1.699
 7115SOL     OW22243   5.323   2.450   1.821
 7115SOL    HW122244   5.376   2.491   1.895
 7115SOL    HW222245   5.247   2.399   1.860
 7116SOL     OW22246   5.702   3.254   3.243
 7116SOL    HW122247   5.797   3.277   3.260
 7116SOL    HW222248   5.643   3.311   3.299
 7117SOL     OW22249   0.091   0.217   4.353
 7117SOL    HW122250   0.006   0.165   4.345
 7117SOL    HW222251   0.084   0.301   4.299
 7118SOL     OW22252   4.714   2.919   0.439
 7118SOL    HW122253   4.775   2.995   0.458
 7118SOL    HW222254   4.637   2.921   0.503
 7119SOL     OW22255   4.742   1.346   3.312
 7119SOL    HW122256   4.714   1.260   3.269
 7119SOL    HW222257   4.728   1.340   3.411
 7120SOL     OW22258   3.752   1.710   2.825
 7120SOL    HW122259   3.821   1.679   2.760
 7120SOL    HW222260   3.790   1.784   2.880
 7121SOL     OW22261   1.840   0.120   3.073
 7121SOL    HW122262   1.773   0.148   3.141
 7121SOL    HW222263   1.808   0.038   3.026
 7122SOL     OW22264   6.478   1.113   6.949
 7122SOL    HW122265   6.432   1.158   6.872
 7122SOL    HW222266   6.421   1.120   0.012
 7123SOL     OW22267   3.568   5.548   1.530
 7123SOL    HW122268   3.487   5.598   1.561
 7123SOL    HW222269   3.549   5.450   1.536
 7124SOL     OW22270   1.150   4.020   0.208
 7124SOL    HW122271   1.115   3.980   0.124
 7124SOL    HW222272   1.145   3.953   0.282
 7125SOL     OW22273   6.981   6.397   1.283
 7125SOL    HW122274   6.975   6.309   1.237
 7125SOL    HW222275   0.035   6.395   1.351
 7126SOL     OW22276   2.225   4.376   0.549
 7126SOL    HW122277   2.231   4.298   0.611
 7126SOL    HW222278   2.289   4.447   0.578
 7127SOL     OW22279   2.729   5.550   4.107
 7127SOL    HW122280   2.814   5.499   4.114
 7127SOL    HW222281   2.746   5.640   4.067
 7128SOL     OW22282   2.874   4.780   0.258
 7128SOL    HW122283   2.941   4.778   0.184
 7128SOL    HW222284   2.915   4.745   0.342
 7129SOL     OW22285   3.376   1.048   0.945
 7129SOL    HW122286   3.336   1.126   0.896
 7129SOL    HW222287   3.338   1.044   1.037
 7130SOL     OW22288   3.173   4.906   4.630
 7130SOL    HW122289   3.096   4.867   4.679
 7130SOL    HW222290   3.157   4.899   4.531
 7131SOL     OW22291   2.657   1.943   0.385
 7131SOL    HW122292   2.609   1.865   0.346
 7131SOL    HW222293   2.592   2.015   0.409
 7132SOL     OW22294   4.241   3.725   1.716
 7132SOL    HW122295   4.219   3.645   1.772
 7132SOL    HW222296   4.190   3.804   1.751
 7133SOL     OW22297   5.345   4.847   3.375
 7133SOL    HW122298   5.329   4.795   3.458
 7133SOL    HW222299   5.275   4.825   3.307
 7134SOL     OW22300   5.884   5.494   3.244
 7134SOL    HW122301   5.908   5.507   3.148
 7134SOL    HW222302   5.881   5.396   3.265
 7135SOL     OW22303   1.533   1.386   3.540
 7135SOL    HW122304   1.570   1.409   3.451
 7135SOL    HW222305   1.495   1.293   3.537
 7136SOL     OW22306   2.003   1.547   0.438
 7136SOL    HW122307   2.048   1.458   0.447
 7136SOL    HW222308   1.904   1.534   0.435
 7137SOL     OW22309   4.775   1.284   4.939
 7137SOL    HW122310   4.783   1.372   4.892
 7137SOL    HW222311   4.809   1.293   5.032
 7138SOL     OW22312   3.104   2.642   1.345
 7138SOL    HW122313   3.194   2.602   1.325
 7138SOL    HW222314   3.069   2.688   1.263
 7139SOL     OW22315   4.859   3.107   2.272
 7139SOL    HW122316   4.834   3.058   2.189
 7139SOL    HW222317   4.794   3.182   2.288
 7140SOL     OW22318   6.305   3.209   5.115
 7140SOL    HW122319   6.384   3.225   5.056
 7140SOL    HW222320   6.335   3.193   5.209
 7141SOL     OW22321   3.168   6.853   1.264
 7141SOL    HW122322   3.208   6.813   1.347
 7141SOL    HW222323   3.130   6.781   1.207
 7142SOL     OW22324   4.387   6.889   3.172
 7142SOL    HW122325   4.408   6.792   3.184
 7142SOL    HW222326   4.467   6.944   3.193
 7143SOL     OW22327   1.181   2.936   6.289
 7143SOL    HW122328   1.140   2.914   6.377
 7143SOL    HW222329   1.244   2.862   6.263
 7144SOL     OW22330   1.161   1.433   2.987
 7144SOL    HW122331   1.244   1.438   2.931
 7144SOL    HW222332   1.150   1.340   3.021
 7145SOL     OW22333   4.005   6.369   6.451
 7145SOL    HW122334   3.942   6.340   6.523
 7145SOL    HW222335   4.033   6.464   6.467
 7146SOL     OW22336   2.686   0.366   0.189
 7146SOL    HW122337   2.726   0.280   0.159
 7146SOL    HW222338   2.586   0.362   0.181
 7147SOL     OW22339   6.266   6.776   3.597
 7147SOL    HW122340   6.172   6.771   3.563
 7147SOL    HW222341   6.303   6.684   3.606
 7148SOL     OW22342   0.607   6.021   1.825
 7148SOL    HW122343   0.567   5.932   1.844
 7148SOL    HW222344   0.631   6.065   1.912
 7149SOL     OW22345   6.802   0.103   3.292
 7149SOL    HW122346   6.861   0.106   3.373
 7149SOL    HW222347   6.737   0.027   3.301
 7150SOL     OW22348   5.169   3.141   1.597
 7150SOL    HW122349   5.070   3.136   1.612
 7150SOL    HW222350   5.187   3.153   1.499
 7151SOL     OW22351   0.369   5.502   0.679
 7151SOL    HW122352   0.395   5.598   0.684
 7151SOL    HW222353   0.417   5.451   0.751
 7152SOL     OW22354   0.284   2.770   5.913
 7152SOL    HW122355   0.238   2.761   6.001
 7152SOL    HW222356   0.382   2.776   5.927
 7153SOL     OW22357   3.186   6.204   4.765
 7153SOL    HW122358   3.100   6.220   4.812
 7153SOL    HW222359   3.234   6.127   4.807
 7154SOL     OW22360   3.953   6.010   4.690
 7154SOL    HW122361   3.959   6.023   4.789
 7154SOL    HW222362   3.877   6.065   4.654
 7155SOL     OW22363   1.718   6.356   1.291
 7155SOL    HW122364   1.620   6.364   1.273
 7155SOL    HW222365   1.756   6.447   1.309
 7156SOL     OW22366   0.622   4.857   4.329
 7156SOL    HW122367   0.617   4.886   4.234
 7156SOL    HW222368   0.675   4.924   4.382
 7157SOL     OW22369   5.932   5.473   1.038
 7157SOL    HW122370   6.004   5.532   1.075
 7157SOL    HW222371   5.969   5.419   0.963
 7158SOL     OW22372   0.089   0.035   3.277
 7158SOL    HW122373   0.188   0.038   3.260
 7158SOL    HW222374   0.066   0.095   3.353
 7159SOL     OW22375   0.344   4.234   2.271
 7159SOL    HW122376   0.438   4.264   2.255
 7159SOL    HW222377   0.303   4.207   2.184
 7160SOL     OW22378   6.572   0.781   2.855
 7160SOL    HW122379   6.655   0.756   2.805
 7160SOL    HW222380   6.567   0.731   2.941
 7161SOL     OW22381   3.000   3.880   4.343
 7161SOL    HW122382   3.098   3.900   4.343
 7161SOL    HW222383   2.955   3.931   4.416
 7162SOL     OW22384   2.811   5.759   5.524
 7162SOL    HW122385   2.909   5.746   5.540
 7162SOL    HW222386   2.786   5.716   5.437
 7163SOL     OW22387   3.523   6.753   3.985
 7163SOL    HW122388   3.479   6.803   3.910
 7163SOL    HW222389   3.461   6.749   4.063
 7164SOL     OW22390   1.790   2.258   3.187
 7164SOL    HW122391   1.692   2.272   3.178
 7164SOL    HW222392   1.830   2.336   3.236
 7165SOL     OW22393   5.944   0.707   1.127
 7165SOL    HW122394   6.002   0.745   1.198
 7165SOL    HW222395   5.849   0.734   1.142
 7166SOL     OW22396   5.369   3.945   0.946
 7166SOL    HW122397   5.467   3.929   0.958
 7166SOL    HW222398   5.331   3.986   1.028
 7167SOL     OW22399   5.031   3.953   5.066
 7167SOL    HW122400   5.012   4.047   5.094
 7167SOL    HW222401   5.107   3.951   5.001
 7168SOL     OW22402   1.077   2.276   3.893
 7168SOL    HW122403   1.159   2.288   3.837
 7168SOL    HW222404   1.051   2.180   3.895
 7169SOL     OW22405   0.983   3.195   4.888
 7169SOL    HW122406   0.934   3.281   4.872
 7169SOL    HW222407   1.068   3.195   4.835
 7170SOL     OW22408   3.791   5.403   3.249
 7170SOL    HW122409   3.849   5.384   3.170
 7170SOL    HW222410   3.738   5.487   3.232
 7171SOL     OW22411   5.751   4.101   6.135
 7171SOL    HW122412   5.779   4.190   6.171
 7171SOL    HW222413   5.832   4.042   6.124
 7172SOL     OW22414   1.308   0.105   6.002
 7172SOL    HW122415   1.232   0.167   6.017
 7172SOL    HW222416   1.347   0.078   6.091
 7173SOL     OW22417   0.291   4.461   5.376
 7173SOL    HW122418   0.385   4.469   5.343
 7173SOL    HW222419   0.243   4.548   5.361
 7174SOL     OW22420   1.001   5.453   6.832
 7174SOL    HW122421   0.927   5.397   6.795
 7174SOL    HW222422   1.045   5.505   6.759
 7175SOL     OW22423   5.857   2.921   0.813
 7175SOL    HW122424   5.823   2.876   0.731
 7175SOL    HW222425   5.811   2.884   0.893
 7176SOL     OW22426   0.546   5.408   2.987
 7176SOL    HW122427   0.497   5.386   2.902
 7176SOL    HW222428   0.532   5.335   3.054
 7177SOL     OW22429   2.120   6.360   3.534
 7177SOL    HW122430   2.088   6.455   3.534
 7177SOL    HW222431   2.198   6.351   3.473
 7178SOL     OW22432   2.292   2.530   5.626
 7178SOL    HW122433   2.355   2.563   5.556
 7178SOL    HW222434   2.198   2.552   5.599
 7179SOL     OW22435   1.481   3.118   5.282
 7179SOL    HW122436   1.468   3.154   5.374
 7179SOL    HW222437   1.563   3.061   5.279
 7180SOL     OW22438   1.157   5.165   6.320
 7180SOL    HW122439   1.242   5.163   6.373
 7180SOL    HW222440   1.086   5.114   6.369
 7181SOL     OW22441   3.196   6.973   1.032
 7181SOL    HW122442   3.191   6.943   1.127
 7181SOL    HW222443   3.167   6.899   0.972
 7182SOL     OW22444   1.134   3.145   5.566
 7182SOL    HW122445   1.087   3.138   5.654
 7182SOL    HW222446   1.155   3.054   5.532
 7183SOL     OW22447   1.916   4.640   2.202
 7183SOL    HW122448   1.895   4.561   2.144
 7183SOL    HW222449   1.915   4.612   2.298
 7184SOL     OW22450   0.290   6.838   3.432
 7184SOL    HW122451   0.203   6.856   3.477
 7184SOL    HW222452   0.355   6.910   3.454
 7185SOL     OW22453   4.705   2.474   6.113
 7185SOL    HW122454   4.780   2.507   6.170
 7185SOL    HW222455   4.736   2.464   6.018
 7186SOL     OW22456   0.026   6.975   5.770
 7186SOL    HW122457   0.099   7.007   5.709
 7186SOL    HW222458   6.970   0.022   5.769
 7187SOL     OW22459   1.645   4.519   1.478
 7187SOL    HW122460   1.695   4.605   1.470
 7187SOL    HW222461   1.547   4.536   1.467
 7188SOL     OW22462   5.788   0.163   0.678
 7188SOL    HW122463   5.836   0.191   0.595
 7188SOL    HW222464   5.816   0.220   0.754
 7189SOL     OW22465   6.151   1.041   6.752
 7189SOL    HW122466   6.212   1.120   6.764
 7189SOL    HW222467   6.077   1.066   6.688
 7190SOL     OW22468   5.372   3.522   3.203
 7190SOL    HW122469   5.435   3.600   3.197
 7190SOL    HW222470   5.413   3.443   3.158
 7191SOL     OW22471   0.873   4.089   2.330
 7191SOL    HW122472   0.796   4.138   2.371
 7191SOL    HW222473   0.951   4.091   2.393
 7192SOL     OW22474   1.763   6.111   5.126
 7192SOL    HW122475   1.749   6.035   5.063
 7192SOL    HW222476   1.821   6.180   5.082
 7193SOL     OW22477   3.175   2.166   3.421
 7193SOL    HW122478   3.105   2.204   3.359
 7193SOL    HW222479   3.199   2.074   3.390
 7194SOL     OW22480   2.527   1.841   0.962
 7194SOL    HW122481   2.487   1.933   0.974
 7194SOL    HW222482   2.609   1.848   0.905
 7195SOL     OW22483   0.279   5.184   7.017
 7195SOL    HW122484   0.346   5.257   0.006
 7195SOL    HW222485   0.257   5.149   0.089
 7196SOL     OW22486   2.974   3.470   2.348
 7196SOL    HW122487   2.931   3.440   2.263
 7196SOL    HW222488   2.955   3.567   2.363
 7197SOL     OW22489   6.572   2.581   5.962
 7197SOL    HW122490   6.652   2.630   5.998
 7197SOL    HW222491   6.497   2.589   6.027
 7198SOL     OW22492   1.034   0.682   5.269
 7198SOL    HW122493   1.007   0.764   5.318
 7198SOL    HW222494   1.123   0.696   5.227
 7199SOL     OW22495   1.624   0.933   2.307
 7199SOL    HW122496   1.585   0.993   2.238
 7199SOL    HW222497   1.575   0.845   2.306
 7200SOL     OW22498   2.846   0.188   7.005
 7200SOL    HW122499   2.844   0.125   6.928
 7200SOL    HW222500   2.770   0.253   6.997
 7201SOL     OW22501   1.558   4.866   3.316
 7201SOL    HW122502   1.515   4.776   3.316
 7201SOL    HW222503   1.551   4.907   3.225
 7202SOL     OW22504   3.637   0.013   6.367
 7202SOL    HW122505   3.670   0.062   6.447
 7202SOL    HW222506   3.688   0.042   6.286
 7203SOL     OW22507   5.753   0.886   0.410
 7203SOL    HW122508   5.741   0.938   0.495
 7203SOL    HW222509   5.712   0.796   0.420
 7204SOL     OW22510   5.635   6.749   4.434
 7204SOL    HW122511   5.642   6.656   4.399
 7204SOL    HW222512   5.581   6.749   4.518
 7205SOL     OW22513   1.539   5.706   3.236
 7205SOL    HW122514   1.460   5.709   3.298
 7205SOL    HW222515   1.579   5.615   3.236
 7206SOL     OW22516   0.754   0.951   1.442
 7206SOL    HW122517   0.763   1.023   1.512
 7206SOL    HW222518   0.743   0.994   1.352
 7207SOL     OW22519   3.623   0.199   1.942
 7207SOL    HW122520   3.694   0.259   1.906
 7207SOL    HW222521   3.566   0.249   2.007
 7208SOL     OW22522   4.225   6.484   4.496
 7208SOL    HW122523   4.183   6.403   4.538
 7208SOL    HW222524   4.312   6.458   4.454
 7209SOL     OW22525   3.013   3.178   3.598
 7209SOL    HW122526   3.014   3.236   3.517
 7209SOL    HW222527   2.958   3.222   3.670
 7210SOL     OW22528   5.362   0.275   3.813
 7210SOL    HW122529   5.279   0.330   3.816
 7210SOL    HW222530   5.342   0.182   3.845
 7211SOL     OW22531   1.278   5.725   3.789
 7211SOL    HW122532   1.352   5.717   3.722
 7211SOL    HW222533   1.305   5.790   3.860
 7212SOL     OW22534   0.633   5.791   4.034
 7212SOL    HW122535   0.539   5.821   4.047
 7212SOL    HW222536   0.687   5.865   3.995
 7213SOL     OW22537   5.722   6.885   5.245
 7213SOL    HW122538   5.684   6.973   5.274
 7213SOL    HW222539   5.776   6.845   5.319
 7214SOL     OW22540   2.430   5.293   4.370
 7214SOL    HW122541   2.358   5.227   4.389
 7214SOL    HW222542   2.479   5.265   4.287
 7215SOL     OW22543   0.709   3.595   4.383
 7215SOL    HW122544   0.761   3.513   4.357
 7215SOL    HW222545   0.757   3.676   4.353
 7216SOL     OW22546   3.083   5.892   7.009
 7216SOL    HW122547   3.154   5.879   0.060
 7216SOL    HW222548   3.080   5.988   6.982
 7217SOL     OW22549   1.783   4.744   1.417
 7217SOL    HW122550   1.848   4.717   1.488
 7217SOL    HW222551   1.750   4.837   1.435
 7218SOL     OW22552   4.390   3.051   5.847
 7218SOL    HW122553   4.294   3.059   5.818
 7218SOL    HW222554   4.396   2.996   5.930
 7219SOL     OW22555   4.389   6.175   3.278
 7219SOL    HW122556   4.340   6.219   3.354
 7219SOL    HW222557   4.465   6.121   3.313
 7220SOL     OW22558   6.492   5.899   3.779
 7220SOL    HW122559   6.542   5.977   3.742
 7220SOL    HW222560   6.542   5.861   3.857
 7221SOL     OW22561   5.659   4.942   5.480
 7221SOL    HW122562   5.717   4.908   5.407
 7221SOL    HW222563   5.565   4.947   5.449
 7222SOL     OW22564   6.382   6.334   0.392
 7222SOL    HW122565   6.423   6.352   0.302
 7222SOL    HW222566   6.329   6.413   0.421
 7223SOL     OW22567   3.175   1.673   1.543
 7223SOL    HW122568   3.221   1.756   1.574
 7223SOL    HW222569   3.205   1.651   1.450
 7224SOL     OW22570   5.957   1.907   4.619
 7224SOL    HW122571   5.860   1.909   4.595
 7224SOL    HW222572   5.975   1.977   4.687
 7225SOL     OW22573   1.603   5.410   6.835
 7225SOL    HW122574   1.681   5.356   6.867
 7225SOL    HW222575   1.571   5.469   6.909
 7226SOL     OW22576   0.245   0.561   0.629
 7226SOL    HW122577   0.293   0.556   0.717
 7226SOL    HW222578   0.286   0.496   0.565
 7227SOL     OW22579   0.812   2.171   0.434
 7227SOL    HW122580   0.869   2.243   0.472
 7227SOL    HW222581   0.716   2.195   0.444
 7228SOL     OW22582   0.219   0.565   1.775
 7228SOL    HW122583   0.181   0.506   1.704
 7228SOL    HW222584   0.156   0.641   1.793
 7229SOL     OW22585   0.558   0.296   3.985
 7229SOL    HW122586   0.549   0.394   3.965
 7229SOL    HW222587   0.589   0.248   3.903
 7230SOL     OW22588   4.226   5.480   5.110
 7230SOL    HW122589   4.324   5.499   5.106
 7230SOL    HW222590   4.203   5.441   5.199
 7231SOL     OW22591   4.615   0.657   0.067
 7231SOL    HW122592   4.602   0.752   0.039
 7231SOL    HW222593   4.528   0.609   0.063
 7232SOL     OW22594   3.822   4.891   3.559
 7232SOL    HW122595   3.796   4.906   3.464
 7232SOL    HW222596   3.913   4.847   3.562
 7233SOL     OW22597   0.433   3.068   5.043
 7233SOL    HW122598   0.355   3.051   4.984
 7233SOL    HW222599   0.516   3.030   5.002
 7234SOL     OW22600   6.241   2.668   1.624
 7234SOL    HW122601   6.276   2.738   1.687
 7234SOL    HW222602   6.177   2.609   1.672
 7235SOL     OW22603   6.678   4.067   3.424
 7235SOL    HW122604   6.710   3.986   3.473
 7235SOL    HW222605   6.713   4.065   3.330
 7236SOL     OW22606   3.149   1.757   3.006
 7236SOL    HW122607   3.127   1.737   2.911
 7236SOL    HW222608   3.248   1.753   3.019
 7237SOL     OW22609   6.391   6.143   5.133
 7237SOL    HW122610   6.424   6.116   5.223
 7237SOL    HW222611   6.302   6.101   5.115
 7238SOL     OW22612   2.540   1.736   1.882
 7238SOL    HW122613   2.607   1.773   1.818
 7238SOL    HW222614   2.586   1.709   1.967
 7239SOL     OW22615   1.962   1.822   3.497
 7239SOL    HW122616   1.957   1.775   3.409
 7239SOL    HW222617   2.051   1.867   3.506
 7240SOL     OW22618   3.163   4.370   0.518
 7240SOL    HW122619   3.152   4.282   0.473
 7240SOL    HW222620   3.083   4.388   0.576
 7241SOL     OW22621   3.506   0.199   6.066
 7241SOL    HW122622   3.604   0.201   6.084
 7241SOL    HW222623   3.486   0.246   5.980
 7242SOL     OW22624   5.725   4.173   0.102
 7242SOL    HW122625   5.670   4.122   0.169
 7242SOL    HW222626   5.777   4.244   0.149
 7243SOL     OW22627   1.609   4.747   6.301
 7243SOL    HW122628   1.621   4.666   6.359
 7243SOL    HW222629   1.657   4.825   6.341
 7244SOL     OW22630   4.734   0.791   0.723
 7244SOL    HW122631   4.702   0.740   0.643
 7244SOL    HW222632   4.707   0.887   0.714
 7245SOL     OW22633   0.278   2.564   5.158
 7245SOL    HW122634   0.245   2.658   5.154
 7245SOL    HW222635   0.235   2.516   5.234
 7246SOL     OW22636   6.634   6.531   4.934
 7246SOL    HW122637   6.592   6.441   4.926
 7246SOL    HW222638   6.568   6.601   4.904
 7247SOL     OW22639   2.343   6.692   2.320
 7247SOL    HW122640   2.297   6.606   2.297
 7247SOL    HW222641   2.330   6.712   2.417
 7248SOL     OW22642   3.243   1.089   3.565
 7248SOL    HW122643   3.289   1.177   3.547
 7248SOL    HW222644   3.256   1.029   3.486
 7249SOL     OW22645   5.574   4.618   0.973
 7249SOL    HW122646   5.516   4.544   0.938
 7249SOL    HW222647   5.669   4.599   0.951
 7250SOL     OW22648   2.425   4.602   6.373
 7250SOL    HW122649   2.484   4.612   6.293
 7250SOL    HW222650   2.372   4.686   6.386
 7251SOL     OW22651   6.330   6.784   5.700
 7251SOL    HW122652   6.355   6.713   5.767
 7251SOL    HW222653   6.413   6.819   5.657
 7252SOL     OW22654   3.462   3.338   4.479
 7252SOL    HW122655   3.475   3.319   4.576
 7252SOL    HW222656   3.367   3.366   4.464
 7253SOL     OW22657   1.930   5.924   0.626
 7253SOL    HW122658   1.935   5.843   0.568
 7253SOL    HW222659   1.844   5.924   0.677
 7254SOL     OW22660   3.302   5.278   4.312
 7254SOL    HW122661   3.218   5.299   4.361
 7254SOL    HW222662   3.369   5.351   4.325
 7255SOL     OW22663   2.771   3.017   1.709
 7255SOL    HW122664   2.788   3.066   1.794
 7255SOL    HW222665   2.858   2.990   1.668
 7256SOL     OW22666   4.347   4.805   4.716
 7256SOL    HW122667   4.396   4.887   4.745
 7256SOL    HW222668   4.265   4.794   4.772
 7257SOL     OW22669   6.207   2.771   3.272
 7257SOL    HW122670   6.192   2.765   3.370
 7257SOL    HW222671   6.226   2.680   3.236
 7258SOL     OW22672   4.217   0.523   4.109
 7258SOL    HW122673   4.309   0.555   4.134
 7258SOL    HW222674   4.211   0.424   4.124
 7259SOL     OW22675   2.928   4.279   7.007
 7259SOL    HW122676   2.855   4.345   0.005
 7259SOL    HW222677   2.888   4.191   6.982
 7260SOL     OW22678   3.885   1.919   2.953
 7260SOL    HW122679   3.896   2.015   2.926
 7260SOL    HW222680   3.925   1.905   3.043
 7261SOL     OW22681   2.200   3.178   1.810
 7261SOL    HW122682   2.270   3.130   1.757
 7261SOL    HW222683   2.234   3.268   1.837
 7262SOL     OW22684   5.781   2.804   4.417
 7262SOL    HW122685   5.753   2.885   4.468
 7262SOL    HW222686   5.806   2.732   4.481
 7263SOL     OW22687   1.269   5.596   1.635
 7263SOL    HW122688   1.331   5.674   1.638
 7263SOL    HW222689   1.231   5.587   1.542
 7264SOL     OW22690   6.746   1.108   6.914
 7264SOL    HW122691   6.793   1.111   7.002
 7264SOL    HW222692   6.652   1.140   6.925
 7265SOL     OW22693   5.415   5.491   6.008
 7265SOL    HW122694   5.324   5.521   6.036
 7265SOL    HW222695   5.475   5.486   6.088
 7266SOL     OW22696   5.095   0.926   1.405
 7266SOL    HW122697   5.042   0.841   1.401
 7266SOL    HW222698   5.038   0.999   1.443
 7267SOL     OW22699   6.739   4.295   4.944
 7267SOL    HW122700   6.663   4.231   4.956
 7267SOL    HW222701   6.791   4.303   5.028
 7268SOL     OW22702   4.165   5.854   2.224
 7268SOL    HW122703   4.241   5.918   2.206
 7268SOL    HW222704   4.085   5.906   2.252
 7269SOL     OW22705   0.649   5.585   1.409
 7269SOL    HW122706   0.695   5.653   1.351
 7269SOL    HW222707   0.712   5.554   1.480
 7270SOL     OW22708   2.417   1.799   3.024
 7270SOL    HW122709   2.350   1.740   2.979
 7270SOL    HW222710   2.374   1.886   3.047
 7271SOL     OW22711   0.365   3.983   2.419
 7271SOL    HW122712   0.337   4.066   2.371
 7271SOL    HW222713   0.378   4.004   2.516
 7272SOL     OW22714   4.990   2.757   2.977
 7272SOL    HW122715   5.066   2.800   3.025
 7272SOL    HW222716   5.001   2.658   2.979
 7273SOL     OW22717   6.081   4.350   1.430
 7273SOL    HW122718   6.125   4.439   1.434
 7273SOL    HW222719   6.019   4.339   1.508
 7274SOL     OW22720   0.215   4.790   5.781
 7274SOL    HW122721   0.264   4.746   5.856
 7274SOL    HW222722   0.165   4.720   5.729
 7275SOL     OW22723   6.716   0.688   0.131
 7275SOL    HW122724   6.729   0.591   0.112
 7275SOL    HW222725   6.632   0.720   0.086
 7276SOL     OW22726   2.348   1.983   3.969
 7276SOL    HW122727   2.271   2.021   4.021
 7276SOL    HW222728   2.329   1.887   3.947
 7277SOL     OW22729   4.620   1.144   5.814
 7277SOL    HW122730   4.686   1.082   5.772
 7277SOL    HW222731   4.605   1.222   5.753
 7278SOL     OW22732   3.833   1.355   3.152
 7278SOL    HW122733   3.784   1.268   3.166
 7278SOL    HW222734   3.840   1.403   3.240
 7279SOL     OW22735   4.454   4.182   0.853
 7279SOL    HW122736   4.448   4.281   0.866
 7279SOL    HW222737   4.362   4.143   0.854
 7280SOL     OW22738   5.350   2.203   5.305
 7280SOL    HW122739   5.304   2.147   5.235
 7280SOL    HW222740   5.441   2.227   5.273
 7281SOL     OW22741   3.614   6.704   0.992
 7281SOL    HW122742   3.669   6.630   0.953
 7281SOL    HW222743   3.606   6.779   0.926
 7282SOL     OW22744   6.670   5.400   2.093
 7282SOL    HW122745   6.759   5.354   2.092
 7282SOL    HW222746   6.677   5.484   2.146
 7283SOL     OW22747   3.395   6.019   2.487
 7283SOL    HW122748   3.342   6.097   2.519
 7283SOL    HW222749   3.338   5.962   2.427
 7284SOL     OW22750   6.522   2.441   3.842
 7284SOL    HW122751   6.570   2.366   3.796
 7284SOL    HW222752   6.584   2.518   3.853
 7285SOL     OW22753   4.894   2.982   1.815
 7285SOL    HW122754   4.811   2.995   1.870
 7285SOL    HW222755   4.969   3.033   1.857
 7286SOL     OW22756   0.646   1.395   0.791
 7286SOL    HW122757   0.695   1.411   0.706
 7286SOL    HW222758   0.557   1.441   0.788
 7287SOL     OW22759   0.924   2.964   3.333
 7287SOL    HW122760   0.900   2.868   3.342
 7287SOL    HW222761   1.002   2.973   3.270
 7288SOL     OW22762   2.859   2.291   2.924
 7288SOL    HW122763   2.814   2.211   2.885
 7288SOL    HW222764   2.958   2.277   2.924
 7289SOL     OW22765   5.964   2.338   2.141
 7289SOL    HW122766   6.011   2.266   2.089
 7289SOL    HW222767   6.028   2.380   2.205
 7290SOL     OW22768   4.409   1.467   5.493
 7290SOL    HW122769   4.499   1.464   5.537
 7290SOL    HW222770   4.366   1.556   5.511
 7291SOL     OW22771   3.515   0.063   6.910
 7291SOL    HW122772   3.506   0.160   6.888
 7291SOL    HW222773   3.510   0.009   6.826
 7292SOL     OW22774   1.394   0.182   3.329
 7292SOL    HW122775   1.412   0.273   3.369
 7292SOL    HW222776   1.342   0.127   3.394
 7293SOL     OW22777   1.275   0.334   5.171
 7293SOL    HW122778   1.284   0.285   5.257
 7293SOL    HW222779   1.241   0.272   5.101
 7294SOL     OW22780   3.099   4.620   1.678
 7294SOL    HW122781   3.199   4.625   1.681
 7294SOL    HW222782   3.067   4.549   1.741
 7295SOL     OW22783   6.887   4.966   1.924
 7295SOL    HW122784   6.940   4.909   1.986
 7295SOL    HW222785   6.805   4.917   1.893
 7296SOL     OW22786   3.866   4.905   2.791
 7296SOL    HW122787   3.882   4.855   2.707
 7296SOL    HW222788   3.769   4.899   2.816
 7297SOL     OW22789   3.199   6.648   1.794
 7297SOL    HW122790   3.236   6.738   1.771
 7297SOL    HW222791   3.238   6.616   1.880
 7298SOL     OW22792   5.101   5.928   6.409
 7298SOL    HW122793   5.049   5.856   6.362
 7298SOL    HW222794   5.160   5.887   6.478
 7299SOL     OW22795   1.467   2.915   6.991
 7299SOL    HW122796   1.552   2.903   6.940
 7299SOL    HW222797   1.390   2.912   6.928
 7300SOL     OW22798   1.125   5.378   1.491
 7300SOL    HW122799   1.200   5.327   1.450
 7300SOL    HW222800   1.126   5.366   1.590
 7301SOL     OW22801   5.881   0.277   5.367
 7301SOL    HW122802   5.868   0.223   5.284
 7301SOL    HW222803   5.792   0.301   5.405
 7302SOL     OW22804   5.202   3.050   5.977
 7302SOL    HW122805   5.139   3.127   5.985
 7302SOL    HW222806   5.161   2.979   5.920
 7303SOL     OW22807   2.486   1.195   0.783
 7303SOL    HW122808   2.448   1.140   0.858
 7303SOL    HW222809   2.466   1.292   0.799
 7304SOL     OW22810   2.645   4.957   1.417
 7304SOL    HW122811   2.657   4.994   1.510
 7304SOL    HW222812   2.702   4.876   1.406
 7305SOL     OW22813   6.126   2.164   0.255
 7305SOL    HW122814   6.070   2.246   0.259
 7305SOL    HW222815   6.071   2.084   0.277
 7306SOL     OW22816   3.222   1.711   0.985
 7306SOL    HW122817   3.246   1.776   1.057
 7306SOL    HW222818   3.293   1.710   0.915
 7307SOL     OW22819   3.142   6.225   2.128
 7307SOL    HW122820   3.084   6.306   2.128
 7307SOL    HW222821   3.203   6.227   2.049
 7308SOL     OW22822   5.241   0.702   1.949
 7308SOL    HW122823   5.305   0.770   1.986
 7308SOL    HW222824   5.240   0.708   1.850
 7309SOL     OW22825   2.625   5.572   2.588
 7309SOL    HW122826   2.572   5.590   2.505
 7309SOL    HW222827   2.713   5.621   2.583
 7310SOL     OW22828   1.774   2.944   0.297
 7310SOL    HW122829   1.719   2.861   0.302
 7310SOL    HW222830   1.787   2.971   0.202
 7311SOL     OW22831   0.278   0.270   0.639
 7311SOL    HW122832   0.300   0.286   0.736
 7311SOL    HW222833   0.184   0.300   0.621
 7312SOL     OW22834   6.852   2.144   5.873
 7312SOL    HW122835   6.892   2.232   5.847
 7312SOL    HW222836   6.894   2.071   5.819
 7313SOL     OW22837   2.257   1.068   1.724
 7313SOL    HW122838   2.261   1.122   1.639
 7313SOL    HW222839   2.276   1.128   1.802
 7314SOL     OW22840   6.885   4.241   0.055
 7314SOL    HW122841   6.963   4.180   0.070
 7314SOL    HW222842   6.801   4.197   0.088
 7315SOL     OW22843   6.954   5.419   2.159
 7315SOL    HW122844   6.976   5.452   2.067
 7315SOL    HW222845   6.938   5.320   2.156
 7316SOL     OW22846   2.833   2.694   6.263
 7316SOL    HW122847   2.874   2.729   6.178
 7316SOL    HW222848   2.823   2.769   6.328
 7317SOL     OW22849   3.659   1.170   1.826
 7317SOL    HW122850   3.581   1.191   1.885
 7317SOL    HW222851   3.734   1.134   1.881
 7318SOL     OW22852   3.587   0.155   2.358
 7318SOL    HW122853   3.541   0.181   2.442
 7318SOL    HW222854   3.662   0.218   2.340
 7319SOL     OW22855   6.710   4.544   0.358
 7319SOL    HW122856   6.669   4.634   0.375
 7319SOL    HW222857   6.755   4.544   0.269
 7320SOL     OW22858   6.970   3.755   0.933
 7320SOL    HW122859   0.040   3.725   0.967
 7320SOL    HW222860   6.926   3.813   1.002
 7321SOL     OW22861   2.020   5.974   6.162
 7321SOL    HW122862   2.094   5.907   6.168
 7321SOL    HW222863   2.058   6.066   6.165
 7322SOL     OW22864   0.775   1.404   2.716
 7322SOL    HW122865   0.807   1.475   2.654
 7322SOL    HW222866   0.824   1.318   2.698
 7323SOL     OW22867   1.750   1.724   1.262
 7323SOL    HW122868   1.786   1.719   1.355
 7323SOL    HW222869   1.653   1.700   1.262
 7324SOL     OW22870   5.626   4.815   3.091
 7324SOL    HW122871   5.670   4.873   3.023
 7324SOL    HW222872   5.684   4.735   3.109
 7325SOL     OW22873   3.836   0.156   5.832
 7325SOL    HW122874   3.759   0.220   5.826
 7325SOL    HW222875   3.921   0.208   5.837
 7326SOL     OW22876   2.921   1.028   6.197
 7326SOL    HW122877   3.012   0.999   6.165
 7326SOL    HW222878   2.932   1.096   6.270
 7327SOL     OW22879   5.845   3.926   3.274
 7327SOL    HW122880   5.823   3.835   3.241
 7327SOL    HW222881   5.909   3.920   3.351
 7328SOL     OW22882   3.803   5.177   5.613
 7328SOL    HW122883   3.781   5.251   5.677
 7328SOL    HW222884   3.719   5.144   5.570
 7329SOL     OW22885   2.338   2.955   0.390
 7329SOL    HW122886   2.238   2.950   0.385
 7329SOL    HW222887   2.375   2.867   0.418
 7330SOL     OW22888   3.216   2.856   1.507
 7330SOL    HW122889   3.138   2.919   1.510
 7330SOL    HW222890   3.188   2.772   1.461
 7331SOL     OW22891   4.410   0.244   1.888
 7331SOL    HW122892   4.437   0.210   1.798
 7331SOL    HW222893   4.479   0.216   1.955
 7332SOL     OW22894   3.463   3.957   0.275
 7332SOL    HW122895   3.511   4.015   0.340
 7332SOL    HW222896   3.511   3.960   0.187
 7333SOL     OW22897   6.835   3.188   1.493
 7333SOL    HW122898   6.842   3.122   1.418
 7333SOL    HW222899   6.747   3.234   1.490
 7334SOL     OW22900   2.433   0.130   5.278
 7334SOL    HW122901   2.419   0.219   5.322
 7334SOL    HW222902   2.475   0.067   5.343
 7335SOL     OW22903   7.002   3.446   3.046
 7335SOL    HW122904   0.041   3.369   3.019
 7335SOL    HW222905   6.915   3.442   2.998
 7336SOL     OW22906   1.599   6.388   0.720
 7336SOL    HW122907   1.613   6.482   0.691
 7336SOL    HW222908   1.501   6.371   0.730
 7337SOL     OW22909   2.626   2.492   1.734
 7337SOL    HW122910   2.542   2.542   1.752
 7337SOL    HW222911   2.679   2.484   1.819
 7338SOL     OW22912   5.795   3.115   1.213
 7338SOL    HW122913   5.749   3.031   1.244
 7338SOL    HW222914   5.846   3.154   1.289
 7339SOL     OW22915   0.192   6.086   5.186
 7339SOL    HW122916   0.157   6.014   5.126
 7339SOL    HW222917   0.210   6.047   5.277
 7340SOL     OW22918   3.330   0.764   6.510
 7340SOL    HW122919   3.408   0.731   6.563
 7340SOL    HW222920   3.294   0.847   6.552
 7341SOL     OW22921   0.100   4.743   4.054
 7341SOL    HW122922   0.122   4.839   4.034
 7341SOL    HW222923   0.076   4.697   3.969
 7342SOL     OW22924   6.773   0.455   6.846
 7342SOL    HW122925   6.762   0.439   6.944
 7342SOL    HW222926   6.694   0.505   6.812
 7343SOL     OW22927   5.799   4.159   2.495
 7343SOL    HW122928   5.816   4.228   2.565
 7343SOL    HW222929   5.859   4.081   2.510
 7344SOL     OW22930   1.669   6.457   6.731
 7344SOL    HW122931   1.634   6.503   6.650
 7344SOL    HW222932   1.704   6.366   6.705
 7345SOL     OW22933   4.105   4.994   5.591
 7345SOL    HW122934   4.068   4.904   5.614
 7345SOL    HW222935   4.039   5.064   5.616
 7346SOL     OW22936   3.951   4.615   0.859
 7346SOL    HW122937   3.863   4.644   0.897
 7346SOL    HW222938   4.006   4.574   0.931
 7347SOL     OW22939   6.290   2.181   2.405
 7347SOL    HW122940   6.243   2.104   2.362
 7347SOL    HW222941   6.237   2.264   2.393
 7348SOL     OW22942   1.514   2.886   3.793
 7348SOL    HW122943   1.415   2.877   3.784
 7348SOL    HW222944   1.537   2.980   3.816
 7349SOL     OW22945   3.719   1.989   1.223
 7349SOL    HW122946   3.671   1.975   1.310
 7349SOL    HW222947   3.817   1.978   1.237
 7350SOL     OW22948   0.730   2.598   3.702
 7350SOL    HW122949   0.687   2.546   3.629
 7350SOL    HW222950   0.826   2.612   3.681
 7351SOL     OW22951   3.966   4.515   6.083
 7351SOL    HW122952   3.975   4.612   6.103
 7351SOL    HW222953   3.890   4.477   6.136
 7352SOL     OW22954   0.931   1.886   2.293
 7352SOL    HW122955   0.958   1.795   2.261
 7352SOL    HW222956   0.852   1.918   2.241
 7353SOL     OW22957   6.530   1.604   5.143
 7353SOL    HW122958   6.463   1.652   5.199
 7353SOL    HW222959   6.493   1.589   5.052
 7354SOL     OW22960   6.822   0.396   6.384
 7354SOL    HW122961   6.757   0.472   6.379
 7354SOL    HW222962   6.915   0.431   6.372
 7355SOL     OW22963   0.760   6.355   1.338
 7355SOL    HW122964   0.735   6.397   1.425
 7355SOL    HW222965   0.685   6.298   1.305
 7356SOL     OW22966   5.988   2.179   6.651
 7356SOL    HW122967   6.030   2.230   6.727
 7356SOL    HW222968   5.942   2.242   6.590
 7357SOL     OW22969   4.779   0.714   0.303
 7357SOL    HW122970   4.829   0.801   0.303
 7357SOL    HW222971   4.773   0.679   0.210
 7358SOL     OW22972   3.766   2.129   3.771
 7358SOL    HW122973   3.826   2.128   3.691
 7358SOL    HW222974   3.818   2.157   3.852
 7359SOL     OW22975   3.595   3.224   2.399
 7359SOL    HW122976   3.534   3.168   2.343
 7359SOL    HW222977   3.658   3.164   2.449
 7360SOL     OW22978   1.444   2.456   5.557
 7360SOL    HW122979   1.396   2.532   5.513
 7360SOL    HW222980   1.511   2.417   5.494
 7361SOL     OW22981   5.368   6.852   0.550
 7361SOL    HW122982   5.268   6.853   0.559
 7361SOL    HW222983   5.410   6.856   0.640
 7362SOL     OW22984   1.065   6.931   4.791
 7362SOL    HW122985   0.983   6.898   4.838
 7362SOL    HW222986   1.039   7.001   4.724
 7363SOL     OW22987   5.931   2.360   0.342
 7363SOL    HW122988   5.934   2.455   0.310
 7363SOL    HW222989   5.839   2.322   0.327
 7364SOL     OW22990   4.074   6.886   0.809
 7364SOL    HW122991   3.993   6.936   0.840
 7364SOL    HW222992   4.049   6.831   0.729
 7365SOL     OW22993   2.577   0.052   2.708
 7365SOL    HW122994   2.647   0.026   2.642
 7365SOL    HW222995   2.540   0.142   2.685
 7366SOL     OW22996   0.924   5.233   6.605
 7366SOL    HW122997   0.936   5.279   6.516
 7366SOL    HW222998   0.836   5.259   6.644
 7367SOL     OW22999   4.834   3.700   1.580
 7367SOL    HW123000   4.858   3.747   1.496
 7367SOL    HW223001   4.865   3.605   1.575
 7368SOL     OW23002   3.536   3.572   4.303
 7368SOL    HW123003   3.446   3.592   4.341
 7368SOL    HW223004   3.532   3.577   4.204
 7369SOL     OW23005   4.994   3.433   1.462
 7369SOL    HW123006   4.895   3.441   1.452
 7369SOL    HW223007   5.039   3.461   1.377
 7370SOL     OW23008   1.994   0.070   6.963
 7370SOL    HW123009   1.989   0.153   6.908
 7370SOL    HW223010   2.060   0.084   0.018
 7371SOL     OW23011   2.859   5.265   4.025
 7371SOL    HW123012   2.825   5.329   3.956
 7371SOL    HW223013   2.954   5.288   4.048
 7372SOL     OW23014   3.586   0.157   5.600
 7372SOL    HW123015   3.656   0.090   5.622
 7372SOL    HW223016   3.592   0.181   5.503
 7373SOL     OW23017   4.026   1.049   3.558
 7373SOL    HW123018   4.054   1.142   3.580
 7373SOL    HW223019   4.100   1.002   3.511
 7374SOL     OW23020   1.672   2.940   5.214
 7374SOL    HW123021   1.747   2.886   5.253
 7374SOL    HW223022   1.609   2.878   5.167
 7375SOL     OW23023   1.120   1.655   4.457
 7375SOL    HW123024   1.155   1.742   4.423
 7375SOL    HW223025   1.186   1.614   4.519
 7376SOL     OW23026   3.168   2.934   0.081
 7376SOL    HW123027   3.159   2.840   0.114
 7376SOL    HW223028   3.234   2.938   0.006
 7377SOL     OW23029   4.897   4.797   1.676
 7377SOL    HW123030   4.902   4.847   1.763
 7377SOL    HW223031   4.867   4.858   1.603
 7378SOL     OW23032   0.068   2.241   4.894
 7378SOL    HW123033   0.078   2.341   4.895
 7378SOL    HW223034   0.158   2.199   4.882
 7379SOL     OW23035   4.265   1.317   2.160
 7379SOL    HW123036   4.319   1.355   2.084
 7379SOL    HW223037   4.168   1.325   2.138
 7380SOL     OW23038   6.669   2.886   5.954
 7380SOL    HW123039   6.739   2.871   5.885
 7380SOL    HW223040   6.584   2.843   5.926
 7381SOL     OW23041   4.929   2.872   2.570
 7381SOL    HW123042   4.933   2.957   2.518
 7381SOL    HW223043   4.940   2.891   2.667
 7382SOL     OW23044   0.510   4.783   4.984
 7382SOL    HW123045   0.581   4.712   4.994
 7382SOL    HW223046   0.517   4.824   4.893
 7383SOL     OW23047   0.553   6.406   2.412
 7383SOL    HW123048   0.504   6.326   2.377
 7383SOL    HW223049   0.494   6.454   2.477
 7384SOL     OW23050   5.108   0.307   2.167
 7384SOL    HW123051   5.169   0.345   2.098
 7384SOL    HW223052   5.100   0.372   2.244
 7385SOL     OW23053   4.425   6.045   2.174
 7385SOL    HW123054   4.500   6.011   2.230
 7385SOL    HW223055   4.461   6.083   2.088
 7386SOL     OW23056   0.936   2.189   5.788
 7386SOL    HW123057   0.888   2.130   5.723
 7386SOL    HW223058   1.035   2.173   5.782
 7387SOL     OW23059   4.136   5.636   4.485
 7387SOL    HW123060   4.178   5.620   4.396
 7387SOL    HW223061   4.094   5.727   4.486
 7388SOL     OW23062   6.602   5.025   3.961
 7388SOL    HW123063   6.540   5.078   4.020
 7388SOL    HW223064   6.617   4.935   4.002
 7389SOL     OW23065   1.472   4.240   6.906
 7389SOL    HW123066   1.427   4.228   6.817
 7389SOL    HW223067   1.406   4.278   6.971
 7390SOL     OW23068   0.300   1.661   6.581
 7390SOL    HW123069   0.234   1.619   6.643
 7390SOL    HW223070   0.367   1.714   6.633
 7391SOL     OW23071   5.430   4.385   6.219
 7391SOL    HW123072   5.503   4.453   6.205
 7391SOL    HW223073   5.377   4.410   6.300
 7392SOL     OW23074   1.754   5.949   5.753
 7392SOL    HW123075   1.702   5.900   5.683
 7392SOL    HW223076   1.696   5.964   5.833
 7393SOL     OW23077   6.036   5.335   2.051
 7393SOL    HW123078   6.111   5.400   2.045
 7393SOL    HW223079   5.970   5.354   1.977
 7394SOL     OW23080   3.530   3.490   6.466
 7394SOL    HW123081   3.570   3.507   6.556
 7394SOL    HW223082   3.460   3.419   6.474
 7395SOL     OW23083   0.528   0.846   6.449
 7395SOL    HW123084   0.612   0.886   6.486
 7395SOL    HW223085   0.549   0.759   6.405
 7396SOL     OW23086   1.664   0.958   5.989
 7396SOL    HW123087   1.604   1.009   6.051
 7396SOL    HW223088   1.625   0.867   5.973
 7397SOL     OW23089   6.459   4.151   4.647
 7397SOL    HW123090   6.426   4.242   4.671
 7397SOL    HW223091   6.463   4.094   4.729
 7398SOL     OW23092   4.011   5.367   3.475
 7398SOL    HW123093   3.982   5.422   3.397
 7398SOL    HW223094   3.942   5.372   3.547
 7399SOL     OW23095   6.495   4.106   5.798
 7399SOL    HW123096   6.500   4.117   5.897
 7399SOL    HW223097   6.422   4.041   5.775
 7400SOL     OW23098   3.012   4.108   6.688
 7400SOL    HW123099   2.946   4.180   6.710
 7400SOL    HW223100   2.974   4.047   6.619
 7401SOL     OW23101   0.256   1.296   3.755
 7401SOL    HW123102   0.322   1.354   3.803
 7401SOL    HW223103   0.194   1.254   3.821
 7402SOL     OW23104   2.174   0.065   3.962
 7402SOL    HW123105   2.259   0.080   3.911
 7402SOL    HW223106   2.196   0.042   4.057
 7403SOL     OW23107   1.957   2.937   3.721
 7403SOL    HW123108   1.888   3.008   3.733
 7403SOL    HW223109   2.046   2.972   3.748
 7404SOL     OW23110   2.165   0.455   0.814
 7404SOL    HW123111   2.242   0.424   0.758
 7404SOL    HW223112   2.173   0.553   0.831
 7405SOL     OW23113   1.568   4.994   4.890
 7405SOL    HW123114   1.552   5.078   4.941
 7405SOL    HW223115   1.534   4.916   4.942
 7406SOL     OW23116   1.281   3.816   2.550
 7406SOL    HW123117   1.318   3.737   2.502
 7406SOL    HW223118   1.354   3.884   2.563
 7407SOL     OW23119   0.130   5.804   4.945
 7407SOL    HW123120   0.147   5.710   4.972
 7407SOL    HW223121   0.060   5.844   5.005
 7408SOL     OW23122   2.265   4.068   6.058
 7408SOL    HW123123   2.297   4.162   6.066
 7408SOL    HW223124   2.223   4.055   5.968
 7409SOL     OW23125   0.957   1.217   4.680
 7409SOL    HW123126   0.875   1.240   4.732
 7409SOL    HW223127   1.009   1.300   4.660
 7410SOL     OW23128   0.284   4.816   1.029
 7410SOL    HW123129   0.199   4.839   0.981
 7410SOL    HW223130   0.293   4.873   1.110
 7411SOL     OW23131   2.458   6.599   4.663
 7411SOL    HW123132   2.516   6.622   4.741
 7411SOL    HW223133   2.511   6.607   4.579
 7412SOL     OW23134   2.400   1.055   1.003
 7412SOL    HW123135   2.309   1.023   0.975
 7412SOL    HW223136   2.432   1.001   1.081
 7413SOL     OW23137   0.323   3.481   3.815
 7413SOL    HW123138   0.415   3.462   3.780
 7413SOL    HW223139   0.279   3.549   3.757
 7414SOL     OW23140   6.602   6.498   2.782
 7414SOL    HW123141   6.504   6.515   2.785
 7414SOL    HW223142   6.645   6.563   2.719
 7415SOL     OW23143   1.346   3.202   2.962
 7415SOL    HW123144   1.331   3.146   3.044
 7415SOL    HW223145   1.369   3.295   2.989
 7416SOL     OW23146   3.493   1.437   4.398
 7416SOL    HW123147   3.494   1.358   4.337
 7416SOL    HW223148   3.513   1.520   4.347
 7417SOL     OW23149   1.607   6.448   6.140
 7417SOL    HW123150   1.551   6.392   6.200
 7417SOL    HW223151   1.557   6.465   6.054
 7418SOL     OW23152   3.241   4.372   1.360
 7418SOL    HW123153   3.309   4.445   1.360
 7418SOL    HW223154   3.263   4.306   1.432
 7419SOL     OW23155   5.695   1.833   4.549
 7419SOL    HW123156   5.618   1.896   4.545
 7419SOL    HW223157   5.713   1.797   4.457
 7420SOL     OW23158   6.520   7.014   2.061
 7420SOL    HW123159   6.510   6.953   2.139
 7420SOL    HW223160   6.497   0.089   2.089
 7421SOL     OW23161   3.521   3.726   1.682
 7421SOL    HW123162   3.602   3.786   1.681
 7421SOL    HW223163   3.475   3.734   1.770
 7422SOL     OW23164   6.956   3.541   1.211
 7422SOL    HW123165   6.922   3.539   1.305
 7422SOL    HW223166   6.972   3.448   1.179
 7423SOL     OW23167   1.916   4.809   6.072
 7423SOL    HW123168   1.868   4.724   6.051
 7423SOL    HW223169   1.944   4.853   5.987
 7424SOL     OW23170   5.815   1.520   4.457
 7424SOL    HW123171   5.770   1.559   4.376
 7424SOL    HW223172   5.750   1.516   4.533
 7425SOL     OW23173   3.948   4.449   6.480
 7425SOL    HW123174   4.039   4.471   6.515
 7425SOL    HW223175   3.880   4.508   6.523
 7426SOL     OW23176   0.255   2.329   6.948
 7426SOL    HW123177   0.206   2.245   6.971
 7426SOL    HW223178   0.216   2.406   6.998
 7427SOL     OW23179   3.040   6.129   4.300
 7427SOL    HW123180   2.940   6.123   4.303
 7427SOL    HW223181   3.067   6.181   4.219
 7428SOL     OW23182   3.650   2.080   5.114
 7428SOL    HW123183   3.661   2.156   5.178
 7428SOL    HW223184   3.554   2.077   5.084
 7429SOL     OW23185   6.991   0.196   2.617
 7429SOL    HW123186   6.909   0.138   2.616
 7429SOL    HW223187   0.053   0.139   2.626
 7430SOL     OW23188   6.895   4.502   5.526
 7430SOL    HW123189   6.911   4.486   5.623
 7430SOL    HW223190   6.960   4.448   5.472
 7431SOL     OW23191   0.835   3.494   1.379
 7431SOL    HW123192   0.755   3.510   1.436
 7431SOL    HW223193   0.807   3.457   1.291
 7432SOL     OW23194   1.074   6.092   3.712
 7432SOL    HW123195   1.131   6.036   3.653
 7432SOL    HW223196   1.041   6.037   3.789
 7433SOL     OW23197   6.193   5.276   1.292
 7433SOL    HW123198   6.168   5.357   1.345
 7433SOL    HW223199   6.279   5.293   1.243
 7434SOL     OW23200   2.569   1.725   6.874
 7434SOL    HW123201   2.498   1.657   6.891
 7434SOL    HW223202   2.625   1.736   6.957
 7435SOL     OW23203   3.811   6.541   5.744
 7435SOL    HW123204   3.733   6.505   5.691
 7435SOL    HW223205   3.799   6.516   5.840
 7436SOL     OW23206   5.962   3.188   6.779
 7436SOL    HW123207   5.995   3.126   6.850
 7436SOL    HW223208   6.017   3.271   6.779
 7437SOL     OW23209   6.686   5.066   6.421
 7437SOL    HW123210   6.653   5.106   6.336
 7437SOL    HW223211   6.784   5.046   6.414
 7438SOL     OW23212   0.870   4.010   2.001
 7438SOL    HW123213   0.919   3.923   1.997
 7438SOL    HW223214   0.921   4.074   2.058
 7439SOL     OW23215   2.629   6.926   3.519
 7439SOL    HW123216   2.672   7.007   3.559
 7439SOL    HW223217   2.632   6.851   3.585
 7440SOL     OW23218   1.272   3.149   4.839
 7440SOL    HW123219   1.276   3.189   4.931
 7440SOL    HW223220   1.254   3.051   4.846
 7441SOL     OW23221   5.381   6.824   3.874
 7441SOL    HW123222   5.293   6.802   3.831
 7441SOL    HW223223   5.447   6.753   3.852
 7442SOL     OW23224   0.926   1.382   6.529
 7442SOL    HW123225   0.867   1.310   6.567
 7442SOL    HW223226   0.959   1.354   6.438
 7443SOL     OW23227   6.767   2.007   0.516
 7443SOL    HW123228   6.850   2.020   0.462
 7443SOL    HW223229   6.702   1.950   0.465
 7444SOL     OW23230   6.625   3.337   6.753
 7444SOL    HW123231   6.538   3.367   6.715
 7444SOL    HW223232   6.611   3.258   6.812
 7445SOL     OW23233   5.024   1.685   1.621
 7445SOL    HW123234   4.930   1.716   1.609
 7445SOL    HW223235   5.087   1.756   1.589
 7446SOL     OW23236   6.387   4.087   6.974
 7446SOL    HW123237   6.400   4.157   0.025
 7446SOL    HW223238   6.475   4.042   6.955
 7447SOL     OW23239   2.399   4.780   6.622
 7447SOL    HW123240   2.314   4.738   6.590
 7447SOL    HW223241   2.460   4.793   6.544
 7448SOL     OW23242   5.526   6.828   5.641
 7448SOL    HW123243   5.621   6.834   5.671
 7448SOL    HW223244   5.515   6.748   5.582
 7449SOL     OW23245   4.961   2.115   2.016
 7449SOL    HW123246   4.866   2.105   2.045
 7449SOL    HW223247   4.964   2.141   1.920
 7450SOL     OW23248   5.024   2.909   3.486
 7450SOL    HW123249   4.960   2.837   3.459
 7450SOL    HW223250   5.056   2.892   3.579
 7451SOL     OW23251   1.505   0.500   4.068
 7451SOL    HW123252   1.534   0.592   4.092
 7451SOL    HW223253   1.405   0.497   4.061
 7452SOL     OW23254   1.812   0.152   4.866
 7452SOL    HW123255   1.870   0.219   4.820
 7452SOL    HW223256   1.745   0.199   4.923
 7453SOL     OW23257   5.617   5.952   4.910
 7453SOL    HW123258   5.705   5.937   4.865
 7453SOL    HW223259   5.553   5.992   4.845
 7454SOL     OW23260   1.156   3.549   1.277
 7454SOL    HW123261   1.160   3.592   1.367
 7454SOL    HW223262   1.068   3.568   1.234
 7455SOL     OW23263   5.615   1.903   1.092
 7455SOL    HW123264   5.709   1.900   1.058
 7455SOL    HW223265   5.615   1.913   1.191
 7456SOL     OW23266   1.628   2.225   4.713
 7456SOL    HW123267   1.562   2.300   4.715
 7456SOL    HW223268   1.717   2.259   4.743
 7457SOL     OW23269   5.883   0.812   5.298
 7457SOL    HW123270   5.922   0.722   5.276
 7457SOL    HW223271   5.905   0.835   5.393
 7458SOL     OW23272   2.226   6.685   0.146
 7458SOL    HW123273   2.191   6.600   0.106
 7458SOL    HW223274   2.256   6.746   0.074
 7459SOL     OW23275   4.553   0.251   6.022
 7459SOL    HW123276   4.528   0.155   6.004
 7459SOL    HW223277   4.580   0.295   5.936
 7460SOL     OW23278   2.189   5.384   1.034
 7460SOL    HW123279   2.251   5.458   1.009
 7460SOL    HW223280   2.242   5.302   1.057
 7461SOL     OW23281   5.170   1.422   5.894
 7461SOL    HW123282   5.144   1.436   5.798
 7461SOL    HW223283   5.255   1.370   5.899
 7462SOL     OW23284   2.320   2.190   1.461
 7462SOL    HW123285   2.350   2.097   1.482
 7462SOL    HW223286   2.383   2.230   1.393
 7463SOL     OW23287   3.675   2.838   1.411
 7463SOL    HW123288   3.611   2.889   1.468
 7463SOL    HW223289   3.704   2.896   1.334
 7464SOL     OW23290   3.623   6.088   6.939
 7464SOL    HW123291   3.595   6.058   6.848
 7464SOL    HW223292   3.717   6.059   6.956
 7465SOL     OW23293   1.682   0.409   0.917
 7465SOL    HW123294   1.630   0.450   0.842
 7465SOL    HW223295   1.677   0.309   0.910
 7466SOL     OW23296   0.792   0.805   6.567
 7466SOL    HW123297   0.820   0.772   6.477
 7466SOL    HW223298   0.872   0.825   6.623
 7467SOL     OW23299   6.526   2.029   1.250
 7467SOL    HW123300   6.624   2.042   1.264
 7467SOL    HW223301   6.500   2.066   1.160
 7468SOL     OW23302   4.667   2.201   2.562
 7468SOL    HW123303   4.761   2.228   2.543
 7468SOL    HW223304   4.610   2.282   2.572
 7469SOL     OW23305   0.960   6.920   6.442
 7469SOL    HW123306   0.962   6.863   6.524
 7469SOL    HW223307   0.986   7.014   6.467
 7470SOL     OW23308   0.789   2.856   2.777
 7470SOL    HW123309   0.774   2.842   2.875
 7470SOL    HW223310   0.798   2.767   2.732
 7471SOL     OW23311   6.245   6.375   4.780
 7471SOL    HW123312   6.295   6.394   4.864
 7471SOL    HW223313   6.238   6.458   4.725
 7472SOL     OW23314   4.460   6.790   4.419
 7472SOL    HW123315   4.430   6.743   4.335
 7472SOL    HW223316   4.510   6.873   4.395
 7473SOL     OW23317   0.070   4.160   3.546
 7473SOL    HW123318   0.105   4.135   3.456
 7473SOL    HW223319   0.131   4.228   3.588
 7474SOL     OW23320   2.987   0.755   3.821
 7474SOL    HW123321   2.999   0.705   3.736
 7474SOL    HW223322   3.045   0.836   3.820
 7475SOL     OW23323   5.045   0.490   2.373
 7475SOL    HW123324   4.946   0.496   2.359
 7475SOL    HW223325   5.090   0.564   2.324
 7476SOL     OW23326   4.507   6.023   4.819
 7476SOL    HW123327   4.437   5.973   4.769
 7476SOL    HW223328   4.515   6.116   4.782
 7477SOL     OW23329   4.249   0.810   4.085
 7477SOL    HW123330   4.215   0.717   4.079
 7477SOL    HW223331   4.348   0.808   4.100
 7478SOL     OW23332   3.803   4.030   6.091
 7478SOL    HW123333   3.755   4.074   6.167
 7478SOL    HW223334   3.882   4.085   6.065
 7479SOL     OW23335   3.909   1.810   0.754
 7479SOL    HW123336   3.986   1.821   0.817
 7479SOL    HW223337   3.939   1.830   0.661
 7480SOL     OW23338   6.052   5.672   1.642
 7480SOL    HW123339   6.010   5.620   1.568
 7480SOL    HW223340   6.152   5.670   1.631
 7481SOL     OW23341   5.593   5.510   1.249
 7481SOL    HW123342   5.560   5.565   1.172
 7481SOL    HW223343   5.625   5.570   1.322
 7482SOL     OW23344   4.116   1.229   1.831
 7482SOL    HW123345   4.080   1.306   1.883
 7482SOL    HW223346   4.040   1.174   1.795
 7483SOL     OW23347   3.859   1.665   4.424
 7483SOL    HW123348   3.891   1.571   4.412
 7483SOL    HW223349   3.805   1.671   4.508
 7484SOL     OW23350   0.420   0.037   1.907
 7484SOL    HW123351   0.349   0.098   1.943
 7484SOL    HW223352   0.497   0.034   1.971
 7485SOL     OW23353   2.953   6.098   5.504
 7485SOL    HW123354   2.870   6.085   5.449
 7485SOL    HW223355   2.999   6.010   5.514
 7486SOL     OW23356   2.590   6.972   5.454
 7486SOL    HW123357   2.636   6.985   5.542
 7486SOL    HW223358   2.594   6.876   5.428
 7487SOL     OW23359   1.940   6.847   2.546
 7487SOL    HW123360   1.894   6.936   2.556
 7487SOL    HW223361   2.039   6.861   2.544
 7488SOL     OW23362   2.172   0.062   5.145
 7488SOL    HW123363   2.196   6.988   5.175
 7488SOL    HW223364   2.242   0.126   5.176
 7489SOL     OW23365   4.778   2.280   5.160
 7489SOL    HW123366   4.851   2.250   5.223
 7489SOL    HW223367   4.811   2.357   5.106
 7490SOL     OW23368   0.461   0.669   0.816
 7490SOL    HW123369   0.555   0.642   0.837
 7490SOL    HW223370   0.457   0.767   0.796
 7491SOL     OW23371   0.653   4.830   6.403
 7491SOL    HW123372   0.584   4.895   6.436
 7491SOL    HW223373   0.697   4.868   6.321
 7492SOL     OW23374   2.360   2.030   5.677
 7492SOL    HW123375   2.330   2.125   5.662
 7492SOL    HW223376   2.292   1.982   5.732
 7493SOL     OW23377   6.326   4.774   5.878
 7493SOL    HW123378   6.395   4.705   5.900
 7493SOL    HW223379   6.365   4.865   5.890
 7494SOL     OW23380   5.604   1.017   2.355
 7494SOL    HW123381   5.692   1.062   2.373
 7494SOL    HW223382   5.532   1.065   2.406
 7495SOL     OW23383   1.724   1.345   0.956
 7495SOL    HW123384   1.733   1.351   1.055
 7495SOL    HW223385   1.801   1.292   0.919
 7496SOL     OW23386   1.735   4.591   5.950
 7496SOL    HW123387   1.730   4.608   5.851
 7496SOL    HW223388   1.656   4.538   5.979
 7497SOL     OW23389   2.829   5.230   1.892
 7497SOL    HW123390   2.865   5.190   1.808
 7497SOL    HW223391   2.746   5.282   1.871
 7498SOL     OW23392   2.729   1.234   4.222
 7498SOL    HW123393   2.700   1.310   4.280
 7498SOL    HW223394   2.666   1.224   4.146
 7499SOL     OW23395   6.374   7.003   3.218
 7499SOL    HW123396   6.388   6.922   3.160
 7499SOL    HW223397   6.387   6.978   3.314
 7500SOL     OW23398   4.184   6.155   2.639
 7500SOL    HW123399   4.169   6.191   2.547
 7500SOL    HW223400   4.126   6.205   2.704
 7501SOL     OW23401   0.149   4.125   4.049
 7501SOL    HW123402   0.208   4.062   4.098
 7501SOL    HW223403   0.055   4.114   4.080
 7502SOL     OW23404   1.754   1.567   5.373
 7502SOL    HW123405   1.721   1.502   5.305
 7502SOL    HW223406   1.704   1.653   5.363
 7503SOL     OW23407   2.787   0.745   6.402
 7503SOL    HW123408   2.776   0.791   6.490
 7503SOL    HW223409   2.884   0.742   6.377
 7504SOL     OW23410   4.150   6.486   3.847
 7504SOL    HW123411   4.065   6.485   3.795
 7504SOL    HW223412   4.227   6.507   3.786
 7505SOL     OW23413   3.566   1.311   5.190
 7505SOL    HW123414   3.547   1.359   5.276
 7505SOL    HW223415   3.512   1.227   5.185
 7506SOL     OW23416   3.909   0.961   2.517
 7506SOL    HW123417   3.998   0.981   2.477
 7506SOL    HW223418   3.838   0.968   2.447
 7507SOL     OW23419   0.220   6.601   6.685
 7507SOL    HW123420   0.204   6.522   6.744
 7507SOL    HW223421   0.272   6.573   6.605
 7508SOL     OW23422   5.560   6.487   2.485
 7508SOL    HW123423   5.517   6.486   2.394
 7508SOL    HW223424   5.560   6.580   2.521
 7509SOL     OW23425   4.829   4.470   1.039
 7509SOL    HW123426   4.857   4.438   0.948
 7509SOL    HW223427   4.731   4.454   1.051
 7510SOL     OW23428   3.051   4.007   4.920
 7510SOL    HW123429   3.030   3.920   4.965
 7510SOL    HW223430   2.970   4.041   4.873
 7511SOL     OW23431   1.513   0.175   2.280
 7511SOL    HW123432   1.442   0.237   2.247
 7511SOL    HW223433   1.489   0.141   2.371
 7512SOL     OW23434   3.208   4.142   1.576
 7512SOL    HW123435   3.140   4.165   1.644
 7512SOL    HW223436   3.240   4.048   1.589
 7513SOL     OW23437   1.399   3.047   0.225
 7513SOL    HW123438   1.431   3.016   0.136
 7513SOL    HW223439   1.476   3.084   0.277
 7514SOL     OW23440   2.982   6.443   2.078
 7514SOL    HW123441   2.965   6.521   2.017
 7514SOL    HW223442   2.915   6.371   2.058
 7515SOL     OW23443   0.802   0.384   2.871
 7515SOL    HW123444   0.784   0.338   2.958
 7515SOL    HW223445   0.895   0.421   2.873
 7516SOL     OW23446   6.460   6.328   4.406
 7516SOL    HW123447   6.519   6.399   4.367
 7516SOL    HW223448   6.491   6.306   4.499
 7517SOL     OW23449   6.797   3.765   1.152
 7517SOL    HW123450   6.733   3.767   1.228
 7517SOL    HW223451   6.860   3.688   1.164
 7518SOL     OW23452   3.641   5.752   3.734
 7518SOL    HW123453   3.715   5.817   3.750
 7518SOL    HW223454   3.662   5.667   3.783
 7519SOL     OW23455   0.609   6.158   4.094
 7519SOL    HW123456   0.699   6.182   4.130
 7519SOL    HW223457   0.610   6.166   3.994
 7520SOL     OW23458   2.068   0.567   2.010
 7520SOL    HW123459   2.133   0.642   1.997
 7520SOL    HW223460   2.063   0.512   1.927
 7521SOL     OW23461   4.335   4.455   5.468
 7521SOL    HW123462   4.287   4.383   5.518
 7521SOL    HW223463   4.309   4.545   5.503
 7522SOL     OW23464   2.666   1.028   6.114
 7522SOL    HW123465   2.761   1.014   6.142
 7522SOL    HW223466   2.656   1.120   6.075
 7523SOL     OW23467   6.536   0.640   5.354
 7523SOL    HW123468   6.460   0.703   5.370
 7523SOL    HW223469   6.501   0.548   5.340
 7524SOL     OW23470   0.090   2.229   6.291
 7524SOL    HW123471   0.073   2.323   6.319
 7524SOL    HW223472   0.185   2.203   6.314
 7525SOL     OW23473   2.368   0.106   6.554
 7525SOL    HW123474   2.410   0.150   6.475
 7525SOL    HW223475   2.284   0.155   6.579
 7526SOL     OW23476   3.792   2.982   3.546
 7526SOL    HW123477   3.866   3.022   3.599
 7526SOL    HW223478   3.787   2.884   3.566
 7527SOL     OW23479   4.437   4.805   2.611
 7527SOL    HW123480   4.380   4.886   2.623
 7527SOL    HW223481   4.528   4.822   2.647
 7528SOL     OW23482   4.587   2.144   0.413
 7528SOL    HW123483   4.685   2.150   0.434
 7528SOL    HW223484   4.549   2.061   0.453
 7529SOL     OW23485   5.400   1.217   3.830
 7529SOL    HW123486   5.470   1.207   3.901
 7529SOL    HW223487   5.438   1.187   3.742
 7530SOL     OW23488   6.803   3.195   2.182
 7530SOL    HW123489   6.827   3.276   2.128
 7530SOL    HW223490   6.832   3.113   2.133
 7531SOL     OW23491   4.567   1.812   4.497
 7531SOL    HW123492   4.583   1.865   4.414
 7531SOL    HW223493   4.545   1.718   4.472
 7532SOL     OW23494   5.236   5.316   1.896
 7532SOL    HW123495   5.172   5.349   1.826
 7532SOL    HW223496   5.230   5.374   1.977
 7533SOL     OW23497   1.793   0.802   3.005
 7533SOL    HW123498   1.881   0.846   3.023
 7533SOL    HW223499   1.787   0.717   3.058
 7534SOL     OW23500   3.615   6.046   4.791
 7534SOL    HW123501   3.667   5.961   4.806
 7534SOL    HW223502   3.650   6.092   4.710
 7535SOL     OW23503   2.369   1.219   5.757
 7535SOL    HW123504   2.276   1.226   5.722
 7535SOL    HW223505   2.411   1.310   5.760
 7536SOL     OW23506   5.227   4.878   5.173
 7536SOL    HW123507   5.218   4.945   5.100
 7536SOL    HW223508   5.149   4.815   5.170
 7537SOL     OW23509   2.085   4.412   5.041
 7537SOL    HW123510   2.026   4.491   5.025
 7537SOL    HW223511   2.028   4.331   5.055
 7538SOL     OW23512   3.225   3.789   2.385
 7538SOL    HW123513   3.246   3.780   2.482
 7538SOL    HW223514   3.132   3.755   2.368
 7539SOL     OW23515   2.481   2.330   5.329
 7539SOL    HW123516   2.528   2.290   5.251
 7539SOL    HW223517   2.443   2.257   5.386
 7540SOL     OW23518   3.530   0.782   6.156
 7540SOL    HW123519   3.452   0.825   6.201
 7540SOL    HW223520   3.562   0.839   6.081
 7541SOL     OW23521   0.051   3.769   5.512
 7541SOL    HW123522   0.087   3.711   5.584
 7541SOL    HW223523   6.970   3.759   5.508
 7542SOL     OW23524   1.062   6.837   5.652
 7542SOL    HW123525   1.101   6.850   5.743
 7542SOL    HW223526   1.112   6.764   5.605
 7543SOL     OW23527   4.049   1.525   0.577
 7543SOL    HW123528   4.109   1.582   0.632
 7543SOL    HW223529   4.102   1.453   0.533
 7544SOL     OW23530   6.865   1.681   3.290
 7544SOL    HW123531   6.875   1.726   3.201
 7544SOL    HW223532   6.932   1.607   3.299
 7545SOL     OW23533   4.855   6.511   2.803
 7545SOL    HW123534   4.906   6.592   2.832
 7545SOL    HW223535   4.895   6.474   2.720
 7546SOL     OW23536   4.336   0.618   0.204
 7546SOL    HW123537   4.417   0.661   0.244
 7546SOL    HW223538   4.307   0.670   0.124
 7547SOL     OW23539   3.963   6.557   0.090
 7547SOL    HW123540   4.005   6.554   0.181
 7547SOL    HW223541   3.975   6.648   0.050
 7548SOL     OW23542   2.311   1.788   0.021
 7548SOL    HW123543   2.300   1.775   6.941
 7548SOL    HW223544   2.235   1.744   0.068
 7549SOL     OW23545   5.621   1.937   2.195
 7549SOL    HW123546   5.670   1.853   2.216
 7549SOL    HW223547   5.668   1.986   2.121
 7550SOL     OW23548   2.083   5.694   2.627
 7550SOL    HW123549   2.062   5.754   2.550
 7550SOL    HW223550   2.056   5.600   2.604
 7551SOL     OW23551   4.609   3.831   6.837
 7551SOL    HW123552   4.704   3.857   6.851
 7551SOL    HW223553   4.603   3.765   6.763
 7552SOL     OW23554   2.662   5.748   3.444
 7552SOL    HW123555   2.700   5.833   3.482
 7552SOL    HW223556   2.569   5.735   3.477
 7553SOL     OW23557   3.477   4.768   5.969
 7553SOL    HW123558   3.487   4.672   5.942
 7553SOL    HW223559   3.539   4.824   5.914
 7554SOL     OW23560   5.148   1.441   0.479
 7554SOL    HW123561   5.142   1.526   0.426
 7554SOL    HW223562   5.201   1.459   0.563
 7555SOL     OW23563   1.051   5.660   5.098
 7555SOL    HW123564   1.129   5.703   5.052
 7555SOL    HW223565   1.083   5.603   5.173
 7556SOL     OW23566   0.286   2.721   5.632
 7556SOL    HW123567   0.276   2.753   5.726
 7556SOL    HW223568   0.373   2.672   5.623
 7557SOL     OW23569   5.195   3.856   6.244
 7557SOL    HW123570   5.292   3.863   6.269
 7557SOL    HW223571   5.185   3.796   6.165
 7558SOL     OW23572   2.544   2.492   3.917
 7558SOL    HW123573   2.505   2.469   4.006
 7558SOL    HW223574   2.642   2.469   3.917
 7559SOL     OW23575   6.223   5.609   1.277
 7559SOL    HW123576   6.277   5.686   1.243
 7559SOL    HW223577   6.180   5.634   1.363
 7560SOL     OW23578   5.352   0.103   6.786
 7560SOL    HW123579   5.373   0.020   6.838
 7560SOL    HW223580   5.255   0.123   6.793
 7561SOL     OW23581   0.893   3.577   0.311
 7561SOL    HW123582   0.938   3.527   0.236
 7561SOL    HW223583   0.795   3.581   0.293
 7562SOL     OW23584   5.123   5.998   4.454
 7562SOL    HW123585   5.045   5.956   4.409
 7562SOL    HW223586   5.198   5.932   4.458
 7563SOL     OW23587   2.936   0.204   1.461
 7563SOL    HW123588   2.960   0.160   1.375
 7563SOL    HW223589   2.994   0.168   1.534
 7564SOL     OW23590   4.912   1.079   3.176
 7564SOL    HW123591   4.815   1.099   3.189
 7564SOL    HW223592   4.927   0.980   3.182
 7565SOL     OW23593   4.459   4.817   0.058
 7565SOL    HW123594   4.516   4.815   6.994
 7565SOL    HW223595   4.516   4.803   0.138
 7566SOL     OW23596   1.169   4.811   3.571
 7566SOL    HW123597   1.168   4.819   3.671
 7566SOL    HW223598   1.075   4.820   3.536
 7567SOL     OW23599   1.432   3.155   5.554
 7567SOL    HW123600   1.428   3.132   5.651
 7567SOL    HW223601   1.344   3.191   5.524
 7568SOL     OW23602   5.551   5.161   4.324
 7568SOL    HW123603   5.552   5.230   4.251
 7568SOL    HW223604   5.644   5.130   4.341
 7569SOL     OW23605   4.561   5.947   6.483
 7569SOL    HW123606   4.597   5.864   6.439
 7569SOL    HW223607   4.530   6.011   6.412
 7570SOL     OW23608   5.638   4.393   5.320
 7570SOL    HW123609   5.561   4.439   5.277
 7570SOL    HW223610   5.660   4.310   5.270
 7571SOL     OW23611   5.160   4.565   2.133
 7571SOL    HW123612   5.159   4.595   2.038
 7571SOL    HW223613   5.207   4.476   2.139
 7572SOL     OW23614   4.844   0.292   3.865
 7572SOL    HW123615   4.747   0.296   3.889
 7572SOL    HW223616   4.872   0.379   3.826
 7573SOL     OW23617   5.319   5.640   3.958
 7573SOL    HW123618   5.331   5.699   3.878
 7573SOL    HW223619   5.222   5.640   3.984
 7574SOL     OW23620   5.620   1.220   4.244
 7574SOL    HW123621   5.616   1.123   4.271
 7574SOL    HW223622   5.612   1.277   4.325
 7575SOL     OW23623   4.158   0.612   6.036
 7575SOL    HW123624   4.186   0.569   5.950
 7575SOL    HW223625   4.225   0.682   6.061
 7576SOL     OW23626   5.820   5.685   6.784
 7576SOL    HW123627   5.808   5.642   6.694
 7576SOL    HW223628   5.751   5.650   6.848
 7577SOL     OW23629   6.605   0.103   4.853
 7577SOL    HW123630   6.604   0.118   4.951
 7577SOL    HW223631   6.679   0.041   4.829
 7578SOL     OW23632   1.606   6.298   4.061
 7578SOL    HW123633   1.669   6.341   3.996
 7578SOL    HW223634   1.624   6.200   4.065
 7579SOL     OW23635   4.508   2.442   2.279
 7579SOL    HW123636   4.447   2.389   2.221
 7579SOL    HW223637   4.545   2.519   2.227
 7580SOL     OW23638   1.424   3.838   4.028
 7580SOL    HW123639   1.509   3.789   4.009
 7580SOL    HW223640   1.351   3.772   4.048
 7581SOL     OW23641   4.501   1.565   0.600
 7581SOL    HW123642   4.581   1.624   0.593
 7581SOL    HW223643   4.444   1.596   0.676
 7582SOL     OW23644   3.800   1.521   0.490
 7582SOL    HW123645   3.894   1.538   0.519
 7582SOL    HW223646   3.799   1.497   0.393
 7583SOL     OW23647   6.267   3.700   1.860
 7583SOL    HW123648   6.349   3.728   1.909
 7583SOL    HW223649   6.278   3.721   1.762
 7584SOL     OW23650   2.440   6.794   1.480
 7584SOL    HW123651   2.360   6.774   1.536
 7584SOL    HW223652   2.430   6.884   1.438
 7585SOL     OW23653   1.470   3.540   5.840
 7585SOL    HW123654   1.562   3.527   5.876
 7585SOL    HW223655   1.469   3.522   5.742
 7586SOL     OW23656   2.755   0.658   2.546
 7586SOL    HW123657   2.704   0.684   2.464
 7586SOL    HW223658   2.760   0.558   2.552
 7587SOL     OW23659   2.347   1.336   6.545
 7587SOL    HW123660   2.446   1.336   6.555
 7587SOL    HW223661   2.313   1.430   6.545
 7588SOL     OW23662   0.565   4.088   1.638
 7588SOL    HW123663   0.661   4.109   1.660
 7588SOL    HW223664   0.520   4.170   1.603
 7589SOL     OW23665   5.908   6.051   0.708
 7589SOL    HW123666   5.876   5.957   0.703
 7589SOL    HW223667   5.944   6.079   0.619
 7590SOL     OW23668   3.132   1.804   5.886
 7590SOL    HW123669   3.116   1.814   5.984
 7590SOL    HW223670   3.155   1.894   5.847
 7591SOL     OW23671   0.162   5.750   0.328
 7591SOL    HW123672   0.179   5.737   0.425
 7591SOL    HW223673   0.203   5.675   0.276
 7592SOL     OW23674   6.812   4.459   6.721
 7592SOL    HW123675   6.746   4.404   6.773
 7592SOL    HW223676   6.896   4.469   6.775
 7593SOL     OW23677   6.131   2.705   6.841
 7593SOL    HW123678   6.064   2.635   6.815
 7593SOL    HW223679   6.109   2.791   6.794
 7594SOL     OW23680   0.619   4.856   1.897
 7594SOL    HW123681   0.618   4.934   1.960
 7594SOL    HW223682   0.526   4.834   1.869
 7595SOL     OW23683   0.441   2.640   6.551
 7595SOL    HW123684   0.468   2.619   6.457
 7595SOL    HW223685   0.478   2.571   6.612
 7596SOL     OW23686   5.113   5.600   2.384
 7596SOL    HW123687   5.104   5.573   2.480
 7596SOL    HW223688   5.189   5.664   2.375
 7597SOL     OW23689   2.859   5.832   1.818
 7597SOL    HW123690   2.918   5.862   1.743
 7597SOL    HW223691   2.917   5.802   1.894
 7598SOL     OW23692   6.201   0.929   2.922
 7598SOL    HW123693   6.248   0.894   3.003
 7598SOL    HW223694   6.106   0.898   2.923
 7599SOL     OW23695   5.192   1.093   3.464
 7599SOL    HW123696   5.114   1.137   3.508
 7599SOL    HW223697   5.161   1.036   3.388
 7600SOL     OW23698   1.917   0.669   2.209
 7600SOL    HW123699   1.964   0.618   2.138
 7600SOL    HW223700   1.905   0.764   2.181
 7601SOL     OW23701   1.896   5.508   3.532
 7601SOL    HW123702   1.907   5.409   3.530
 7601SOL    HW223703   1.961   5.550   3.469
 7602SOL     OW23704   1.914   3.825   4.988
 7602SOL    HW123705   1.963   3.785   5.065
 7602SOL    HW223706   1.846   3.760   4.954
 7603SOL     OW23707   1.268   5.834   6.508
 7603SOL    HW123708   1.339   5.827   6.437
 7603SOL    HW223709   1.196   5.897   6.477
 7604SOL     OW23710   2.553   5.922   4.226
 7604SOL    HW123711   2.585   5.881   4.140
 7604SOL    HW223712   2.454   5.908   4.234
 7605SOL     OW23713   1.715   5.685   0.240
 7605SOL    HW123714   1.748   5.766   0.190
 7605SOL    HW223715   1.653   5.714   0.313
 7606SOL     OW23716   0.220   2.746   2.359
 7606SOL    HW123717   0.207   2.690   2.277
 7606SOL    HW223718   0.137   2.798   2.377
 7607SOL     OW23719   4.344   6.704   6.734
 7607SOL    HW123720   4.379   6.789   6.697
 7607SOL    HW223721   4.406   6.629   6.712
 7608SOL     OW23722   3.339   3.818   3.550
 7608SOL    HW123723   3.431   3.838   3.583
 7608SOL    HW223724   3.343   3.738   3.489
 7609SOL     OW23725   6.618   3.266   3.160
 7609SOL    HW123726   6.672   3.317   3.094
 7609SOL    HW223727   6.679   3.211   3.218
 7610SOL     OW23728   6.127   0.837   0.372
 7610SOL    HW123729   6.079   0.904   0.315
 7610SOL    HW223730   6.139   0.873   0.464
 7611SOL     OW23731   0.681   1.841   6.977
 7611SOL    HW123732   0.673   1.790   6.891
 7611SOL    HW223733   0.594   1.886   6.997
 7612SOL     OW23734   4.091   2.234   4.347
 7612SOL    HW123735   4.013   2.189   4.390
 7612SOL    HW223736   4.135   2.170   4.283
 7613SOL     OW23737   4.764   2.374   1.675
 7613SOL    HW123738   4.699   2.412   1.740
 7613SOL    HW223739   4.825   2.446   1.643
 7614SOL     OW23740   4.194   2.521   1.768
 7614SOL    HW123741   4.129   2.489   1.699
 7614SOL    HW223742   4.255   2.588   1.728
 7615SOL     OW23743   5.102   4.577   6.213
 7615SOL    HW123744   5.200   4.594   6.202
 7615SOL    HW223745   5.051   4.631   6.146
 7616SOL     OW23746   0.592   4.448   4.217
 7616SOL    HW123747   0.624   4.353   4.225
 7616SOL    HW223748   0.493   4.449   4.202
 7617SOL     OW23749   2.784   5.692   2.967
 7617SOL    HW123750   2.850   5.648   3.028
 7617SOL    HW223751   2.819   5.687   2.873
 7618SOL     OW23752   1.107   2.042   6.820
 7618SOL    HW123753   1.062   2.012   6.904
 7618SOL    HW223754   1.059   2.122   6.782
 7619SOL     OW23755   5.960   3.068   5.373
 7619SOL    HW123756   5.888   3.066   5.441
 7619SOL    HW223757   5.975   2.976   5.338
 7620SOL     OW23758   3.391   6.160   0.507
 7620SOL    HW123759   3.433   6.243   0.471
 7620SOL    HW223760   3.397   6.161   0.607
 7621SOL     OW23761   0.593   0.798   0.332
 7621SOL    HW123762   0.637   0.758   0.252
 7621SOL    HW223763   0.601   0.897   0.329
 7622SOL     OW23764   5.566   3.725   1.911
 7622SOL    HW123765   5.534   3.740   1.818
 7622SOL    HW223766   5.665   3.742   1.915
 7623SOL     OW23767   4.458   4.771   6.385
 7623SOL    HW123768   4.494   4.680   6.403
 7623SOL    HW223769   4.466   4.827   6.467
 7624SOL     OW23770   0.289   2.485   4.123
 7624SOL    HW123771   0.272   2.508   4.219
 7624SOL    HW223772   0.237   2.403   4.099
 7625SOL     OW23773   4.481   0.518   0.818
 7625SOL    HW123774   4.441   0.530   0.727
 7625SOL    HW223775   4.486   0.606   0.864
 7626SOL     OW23776   6.800   6.344   5.270
 7626SOL    HW123777   6.772   6.284   5.196
 7626SOL    HW223778   6.866   6.298   5.329
 7627SOL     OW23779   6.686   3.243   0.378
 7627SOL    HW123780   6.688   3.318   0.312
 7627SOL    HW223781   6.645   3.276   0.463
 7628SOL     OW23782   3.430   0.749   1.247
 7628SOL    HW123783   3.377   0.774   1.166
 7628SOL    HW223784   3.527   0.747   1.223
 7629SOL     OW23785   6.550   6.259   2.623
 7629SOL    HW123786   6.493   6.272   2.541
 7629SOL    HW223787   6.527   6.328   2.691
 7630SOL     OW23788   6.377   5.986   2.190
 7630SOL    HW123789   6.470   5.991   2.226
 7630SOL    HW223790   6.314   6.028   2.255
 7631SOL     OW23791   0.962   1.574   5.743
 7631SOL    HW123792   1.005   1.495   5.699
 7631SOL    HW223793   0.903   1.542   5.817
 7632SOL     OW23794   3.985   2.186   1.264
 7632SOL    HW123795   3.991   2.088   1.243
 7632SOL    HW223796   3.998   2.201   1.362
 7633SOL     OW23797   5.052   2.142   0.364
 7633SOL    HW123798   5.152   2.140   0.369
 7633SOL    HW223799   5.021   2.109   0.275
 7634SOL     OW23800   1.231   1.398   2.403
 7634SOL    HW123801   1.269   1.427   2.315
 7634SOL    HW223802   1.135   1.425   2.409
 7635SOL     OW23803   2.518   5.140   5.443
 7635SOL    HW123804   2.454   5.099   5.509
 7635SOL    HW223805   2.552   5.226   5.479
 7636SOL     OW23806   1.036   1.647   3.546
 7636SOL    HW123807   1.064   1.720   3.484
 7636SOL    HW223808   1.116   1.615   3.598
 7637SOL     OW23809   1.860   6.612   2.404
 7637SOL    HW123810   1.837   6.657   2.318
 7637SOL    HW223811   1.888   6.681   2.471
 7638SOL     OW23812   5.019   5.780   2.135
 7638SOL    HW123813   5.063   5.846   2.197
 7638SOL    HW223814   5.083   5.706   2.115
 7639SOL     OW23815   1.191   2.183   0.095
 7639SOL    HW123816   1.249   2.261   0.069
 7639SOL    HW223817   1.225   2.100   0.050
 7640SOL     OW23818   2.980   2.271   6.886
 7640SOL    HW123819   2.986   2.327   6.969
 7640SOL    HW223820   3.004   2.177   6.908
 7641SOL     OW23821   0.843   4.084   1.700
 7641SOL    HW123822   0.886   4.009   1.749
 7641SOL    HW223823   0.856   4.169   1.751
 7642SOL     OW23824   2.587   1.611   3.172
 7642SOL    HW123825   2.589   1.533   3.109
 7642SOL    HW223826   2.539   1.687   3.128
 7643SOL     OW23827   4.475   2.073   4.107
 7643SOL    HW123828   4.530   2.154   4.089
 7643SOL    HW223829   4.410   2.059   4.032
 7644SOL     OW23830   6.273   1.965   2.740
 7644SOL    HW123831   6.238   1.937   2.650
 7644SOL    HW223832   6.335   2.043   2.728
 7645SOL     OW23833   4.534   4.542   6.043
 7645SOL    HW123834   4.437   4.525   6.063
 7645SOL    HW223835   4.552   4.525   5.946
 7646SOL     OW23836   1.879   2.400   2.542
 7646SOL    HW123837   1.963   2.432   2.499
 7646SOL    HW223838   1.810   2.382   2.472
 7647SOL     OW23839   1.225   3.038   1.266
 7647SOL    HW123840   1.237   3.137   1.273
 7647SOL    HW223841   1.293   3.001   1.202
 7648SOL     OW23842   4.102   2.195   3.799
 7648SOL    HW123843   4.028   2.221   3.862
 7648SOL    HW223844   4.063   2.173   3.710
 7649SOL     OW23845   1.182   0.929   2.894
 7649SOL    HW123846   1.124   0.856   2.931
 7649SOL    HW223847   1.198   0.914   2.797
 7650SOL     OW23848   6.543   3.002   1.300
 7650SOL    HW123849   6.611   2.938   1.338
 7650SOL    HW223850   6.589   3.063   1.235
 7651SOL     OW23851   2.607   0.340   5.399
 7651SOL    HW123852   2.622   0.429   5.441
 7651SOL    HW223853   2.686   0.281   5.416
 7652SOL     OW23854   6.858   3.612   4.374
 7652SOL    HW123855   6.889   3.553   4.448
 7652SOL    HW223856   6.828   3.555   4.297
 7653SOL     OW23857   2.009   1.806   0.307
 7653SOL    HW123858   1.927   1.838   0.259
 7653SOL    HW223859   1.993   1.808   0.406
 7654SOL     OW23860   5.082   2.952   3.178
 7654SOL    HW123861   5.155   3.021   3.179
 7654SOL    HW223862   5.120   2.864   3.208
 7655SOL     OW23863   3.834   0.565   3.695
 7655SOL    HW123864   3.859   0.655   3.730
 7655SOL    HW223865   3.806   0.573   3.599
 7656SOL     OW23866   0.968   5.643   5.944
 7656SOL    HW123867   0.968   5.549   5.911
 7656SOL    HW223868   1.020   5.700   5.880
 7657SOL     OW23869   2.602   2.388   2.975
 7657SOL    HW123870   2.586   2.486   2.958
 7657SOL    HW223871   2.691   2.362   2.938
 7658SOL     OW23872   4.706   6.589   5.674
 7658SOL    HW123873   4.609   6.571   5.656
 7658SOL    HW223874   4.720   6.688   5.681
 7659SOL     OW23875   5.615   6.458   6.309
 7659SOL    HW123876   5.546   6.502   6.251
 7659SOL    HW223877   5.706   6.481   6.273
 7660SOL     OW23878   6.304   5.726   4.579
 7660SOL    HW123879   6.220   5.696   4.532
 7660SOL    HW223880   6.382   5.710   4.519
 7661SOL     OW23881   6.293   1.730   4.381
 7661SOL    HW123882   6.207   1.725   4.431
 7661SOL    HW223883   6.280   1.693   4.289
 7662SOL     OW23884   1.239   2.308   2.071
 7662SOL    HW123885   1.153   2.278   2.030
 7662SOL    HW223886   1.222   2.385   2.132
 7663SOL     OW23887   6.299   6.795   6.124
 7663SOL    HW123888   6.245   6.825   6.203
 7663SOL    HW223889   6.238   6.776   6.047
 7664SOL     OW23890   3.309   0.246   2.464
 7664SOL    HW123891   3.291   0.191   2.382
 7664SOL    HW223892   3.247   0.324   2.466
 7665SOL     OW23893   4.030   0.376   3.775
 7665SOL    HW123894   4.004   0.340   3.864
 7665SOL    HW223895   3.980   0.461   3.758
 7666SOL     OW23896   6.587   0.115   1.252
 7666SOL    HW123897   6.664   0.062   1.216
 7666SOL    HW223898   6.592   0.209   1.216
 7667SOL     OW23899   5.316   5.782   1.016
 7667SOL    HW123900   5.307   5.815   0.923
 7667SOL    HW223901   5.259   5.701   1.029
 7668SOL     OW23902   2.823   4.474   1.005
 7668SOL    HW123903   2.907   4.425   0.979
 7668SOL    HW223904   2.783   4.431   1.085
 7669SOL     OW23905   5.394   1.817   5.110
 7669SOL    HW123906   5.304   1.774   5.119
 7669SOL    HW223907   5.459   1.771   5.169
 7670SOL     OW23908   1.418   5.724   6.294
 7670SOL    HW123909   1.377   5.771   6.216
 7670SOL    HW223910   1.390   5.627   6.293
 7671SOL     OW23911   4.402   1.167   4.764
 7671SOL    HW123912   4.431   1.228   4.691
 7671SOL    HW223913   4.333   1.213   4.821
 7672SOL     OW23914   5.526   5.967   3.996
 7672SOL    HW123915   5.586   6.047   3.989
 7672SOL    HW223916   5.508   5.947   4.092
 7673SOL     OW23917   2.349   4.777   0.247
 7673SOL    HW123918   2.412   4.707   0.213
 7673SOL    HW223919   2.376   4.867   0.213
 7674SOL     OW23920   6.529   2.150   4.483
 7674SOL    HW123921   6.439   2.194   4.492
 7674SOL    HW223922   6.516   2.053   4.464
 7675SOL     OW23923   5.027   0.628   2.780
 7675SOL    HW123924   5.037   0.538   2.738
 7675SOL    HW223925   4.931   0.657   2.772
 7676SOL     OW23926   0.909   1.638   0.375
 7676SOL    HW123927   0.838   1.708   0.364
 7676SOL    HW223928   0.997   1.683   0.392
 7677SOL     OW23929   1.235   4.115   1.701
 7677SOL    HW123930   1.248   4.030   1.752
 7677SOL    HW223931   1.215   4.094   1.605
 7678SOL     OW23932   1.257   0.953   6.115
 7678SOL    HW123933   1.337   0.995   6.158
 7678SOL    HW223934   1.205   1.023   6.066
 7679SOL     OW23935   1.169   6.553   5.007
 7679SOL    HW123936   1.072   6.535   4.996
 7679SOL    HW223937   1.222   6.474   4.976
 7680SOL     OW23938   2.105   2.782   0.223
 7680SOL    HW123939   2.184   2.792   0.162
 7680SOL    HW223940   2.131   2.727   0.302
 7681SOL     OW23941   3.101   0.293   0.324
 7681SOL    HW123942   3.061   0.224   0.384
 7681SOL    HW223943   3.057   0.381   0.340
 7682SOL     OW23944   2.569   0.498   1.747
 7682SOL    HW123945   2.619   0.426   1.699
 7682SOL    HW223946   2.470   0.481   1.740
 7683SOL     OW23947   6.710   2.170   4.297
 7683SOL    HW123948   6.636   2.148   4.361
 7683SOL    HW223949   6.672   2.188   4.207
 7684SOL     OW23950   5.749   1.956   0.167
 7684SOL    HW123951   5.742   2.055   0.170
 7684SOL    HW223952   5.772   1.927   0.074
 7685SOL     OW23953   3.400   3.125   0.195
 7685SOL    HW123954   3.344   3.053   0.155
 7685SOL    HW223955   3.385   3.210   0.145
 7686SOL     OW23956   4.620   0.448   3.483
 7686SOL    HW123957   4.542   0.434   3.421
 7686SOL    HW223958   4.595   0.515   3.553
 7687SOL     OW23959   6.264   5.420   4.932
 7687SOL    HW123960   6.217   5.339   4.898
 7687SOL    HW223961   6.203   5.499   4.924
 7688SOL     OW23962   0.632   0.676   6.757
 7688SOL    HW123963   0.688   0.737   6.700
 7688SOL    HW223964   0.537   0.707   6.755
 7689SOL     OW23965   4.898   5.836   3.900
 7689SOL    HW123966   4.898   5.930   3.934
 7689SOL    HW223967   4.944   5.833   3.811
 7690SOL     OW23968   6.138   5.065   1.706
 7690SOL    HW123969   6.193   5.149   1.709
 7690SOL    HW223970   6.191   4.990   1.747
 7691SOL     OW23971   4.765   2.767   4.233
 7691SOL    HW123972   4.747   2.790   4.137
 7691SOL    HW223973   4.863   2.774   4.251
 7692SOL     OW23974   0.644   0.139   1.218
 7692SOL    HW123975   0.723   0.193   1.190
 7692SOL    HW223976   0.668   0.084   1.298
 7693SOL     OW23977   4.349   0.028   0.760
 7693SOL    HW123978   4.372   0.120   0.793
 7693SOL    HW223979   4.251   0.011   0.771
 7694SOL     OW23980   0.433   4.231   4.061
 7694SOL    HW123981   0.509   4.167   4.050
 7694SOL    HW223982   0.357   4.184   4.105
 7695SOL     OW23983   3.739   6.869   1.221
 7695SOL    HW123984   3.659   6.915   1.259
 7695SOL    HW223985   3.736   6.772   1.244
 7696SOL     OW23986   6.932   2.193   4.505
 7696SOL    HW123987   6.860   2.175   4.438
 7696SOL    HW223988   7.011   2.134   4.487
 7697SOL     OW23989   2.510   0.749   2.653
 7697SOL    HW123990   2.453   0.675   2.689
 7697SOL    HW223991   2.605   0.720   2.650
 7698SOL     OW23992   0.296   3.003   4.506
 7698SOL    HW123993   0.258   3.039   4.591
 7698SOL    HW223994   0.222   2.967   4.449
 7699SOL     OW23995   3.239   5.347   6.672
 7699SOL    HW123996   3.280   5.368   6.583
 7699SOL    HW223997   3.275   5.260   6.705
 7700SOL     OW23998   5.350   6.801   5.252
 7700SOL    HW123999   5.295   6.841   5.179
 7700SOL    HW224000   5.328   6.845   5.339
 7701SOL     OW24001   5.760   1.678   6.457
 7701SOL    HW124002   5.666   1.647   6.470
 7701SOL    HW224003   5.799   1.705   6.545
 7702SOL     OW24004   3.441   5.981   5.578
 7702SOL    HW124005   3.466   5.957   5.672
 7702SOL    HW224006   3.364   5.925   5.548
 7703SOL     OW24007   6.788   1.286   4.534
 7703SOL    HW124008   6.863   1.239   4.581
 7703SOL    HW224009   6.784   1.381   4.565
 7704SOL     OW24010   4.618   4.971   5.460
 7704SOL    HW124011   4.672   4.987   5.377
 7704SOL    HW224012   4.523   4.996   5.443
 7705SOL     OW24013   3.538   4.516   5.877
 7705SOL    HW124014   3.440   4.506   5.856
 7705SOL    HW224015   3.564   4.450   5.947
 7706SOL     OW24016   4.859   1.527   5.775
 7706SOL    HW124017   4.945   1.555   5.734
 7706SOL    HW224018   4.878   1.469   5.855
 7707SOL     OW24019   0.637   5.576   6.556
 7707SOL    HW124020   0.619   5.630   6.474
 7707SOL    HW224021   0.598   5.623   6.635
 7708SOL     OW24022   4.961   6.116   5.167
 7708SOL    HW124023   4.960   6.212   5.196
 7708SOL    HW224024   4.979   6.111   5.069
 7709SOL     OW24025   5.480   3.579   2.105
 7709SOL    HW124026   5.382   3.575   2.087
 7709SOL    HW224027   5.525   3.628   2.030
 7710SOL     OW24028   2.235   0.705   0.901
 7710SOL    HW124029   2.318   0.716   0.847
 7710SOL    HW224030   2.198   0.794   0.925
 7711SOL     OW24031   6.450   6.245   4.671
 7711SOL    HW124032   6.362   6.283   4.697
 7711SOL    HW224033   6.442   6.146   4.660
 7712SOL     OW24034   6.679   4.845   1.102
 7712SOL    HW124035   6.680   4.945   1.090
 7712SOL    HW224036   6.605   4.821   1.164
 7713SOL     OW24037   1.960   4.463   0.585
 7713SOL    HW124038   1.948   4.525   0.663
 7713SOL    HW224039   2.058   4.450   0.568
 7714SOL     OW24040   6.977   5.298   5.437
 7714SOL    HW124041   6.969   5.239   5.517
 7714SOL    HW224042   6.890   5.299   5.388
 7715SOL     OW24043   5.342   1.240   1.291
 7715SOL    HW124044   5.412   1.298   1.251
 7715SOL    HW224045   5.331   1.262   1.388
 7716SOL     OW24046   5.568   2.855   3.582
 7716SOL    HW124047   5.475   2.878   3.554
 7716SOL    HW224048   5.628   2.933   3.566
 7717SOL     OW24049   2.801   1.382   4.795
 7717SOL    HW124050   2.789   1.334   4.708
 7717SOL    HW224051   2.880   1.343   4.844
 7718SOL     OW24052   2.021   2.657   3.071
 7718SOL    HW124053   1.938   2.710   3.058
 7718SOL    HW224054   2.054   2.623   2.983
 7719SOL     OW24055   7.011   3.165   3.797
 7719SOL    HW124056   0.041   3.112   3.728
 7719SOL    HW224057   0.057   3.197   3.867
 7720SOL     OW24058   0.173   6.827   0.578
 7720SOL    HW124059   0.146   6.761   0.648
 7720SOL    HW224060   0.256   6.875   0.607
 7721SOL     OW24061   1.453   4.150   3.476
 7721SOL    HW124062   1.482   4.056   3.497
 7721SOL    HW224063   1.504   4.184   3.397
 7722SOL     OW24064   0.601   5.106   2.787
 7722SOL    HW124065   0.537   5.045   2.833
 7722SOL    HW224066   0.569   5.201   2.798
 7723SOL     OW24067   6.377   4.582   0.387
 7723SOL    HW124068   6.369   4.482   0.390
 7723SOL    HW224069   6.408   4.610   0.296
 7724SOL     OW24070   2.406   4.586   2.182
 7724SOL    HW124071   2.480   4.594   2.250
 7724SOL    HW224072   2.367   4.494   2.186
 7725SOL     OW24073   5.151   2.696   3.204
 7725SOL    HW124074   5.233   2.642   3.183
 7725SOL    HW224075   5.072   2.634   3.211
 7726SOL     OW24076   6.589   5.066   3.698
 7726SOL    HW124077   6.574   5.048   3.795
 7726SOL    HW224078   6.642   4.991   3.658
 7727SOL     OW24079   6.077   2.023   3.453
 7727SOL    HW124080   6.150   1.966   3.417
 7727SOL    HW224081   6.086   2.030   3.553
 7728SOL     OW24082   1.049   3.908   3.753
 7728SOL    HW124083   1.070   3.852   3.673
 7728SOL    HW224084   1.038   4.003   3.726
 7729SOL     OW24085   6.121   2.546   1.831
 7729SOL    HW124086   6.047   2.479   1.824
 7729SOL    HW224087   6.091   2.622   1.890
 7730SOL     OW24088   5.738   5.558   2.423
 7730SOL    HW124089   5.723   5.459   2.432
 7730SOL    HW224090   5.730   5.584   2.327
 7731SOL     OW24091   5.977   1.055   1.256
 7731SOL    HW124092   5.949   1.151   1.245
 7731SOL    HW224093   5.912   0.996   1.208
 7732SOL     OW24094   4.596   6.037   0.449
 7732SOL    HW124095   4.676   5.993   0.490
 7732SOL    HW224096   4.579   6.124   0.494
 7733SOL     OW24097   4.323   6.313   1.752
 7733SOL    HW124098   4.421   6.302   1.734
 7733SOL    HW224099   4.301   6.411   1.754
 7734SOL     OW24100   1.546   3.887   3.508
 7734SOL    HW124101   1.638   3.848   3.507
 7734SOL    HW224102   1.482   3.822   3.465
 7735SOL     OW24103   3.771   4.884   6.502
 7735SOL    HW124104   3.696   4.910   6.563
 7735SOL    HW224105   3.858   4.913   6.542
 7736SOL     OW24106   5.094   4.292   0.101
 7736SOL    HW124107   5.175   4.278   0.158
 7736SOL    HW224108   5.012   4.291   0.159
 7737SOL     OW24109   4.444   1.116   1.016
 7737SOL    HW124110   4.497   1.192   0.979
 7737SOL    HW224111   4.434   1.128   1.115
 7738SOL     OW24112   2.288   5.686   6.823
 7738SOL    HW124113   2.291   5.672   6.922
 7738SOL    HW224114   2.303   5.782   6.802
 7739SOL     OW24115   0.038   1.384   1.759
 7739SOL    HW124116   7.018   1.317   1.696
 7739SOL    HW224117   0.114   1.431   1.714
 7740SOL     OW24118   0.472   0.627   2.567
 7740SOL    HW124119   0.445   0.594   2.476
 7740SOL    HW224120   0.491   0.549   2.626
 7741SOL     OW24121   1.139   6.046   4.514
 7741SOL    HW124122   1.130   5.967   4.574
 7741SOL    HW224123   1.220   6.099   4.541
 7742SOL     OW24124   6.267   1.789   3.657
 7742SOL    HW124125   6.224   1.704   3.628
 7742SOL    HW224126   6.196   1.857   3.677
 7743SOL     OW24127   4.359   2.815   6.538
 7743SOL    HW124128   4.400   2.724   6.530
 7743SOL    HW224129   4.374   2.851   6.630
 7744SOL     OW24130   0.399   6.124   4.316
 7744SOL    HW124131   0.453   6.137   4.233
 7744SOL    HW224132   0.319   6.184   4.312
 7745SOL     OW24133   3.543   2.112   5.551
 7745SOL    HW124134   3.551   2.136   5.648
 7745SOL    HW224135   3.449   2.128   5.521
 7746SOL     OW24136   2.772   7.008   6.862
 7746SOL    HW124137   2.787   6.989   6.765
 7746SOL    HW224138   2.678   0.019   6.876
 7747SOL     OW24139   4.555   6.146   1.048
 7747SOL    HW124140   4.645   6.114   1.020
 7747SOL    HW224141   4.550   6.246   1.037
 7748SOL     OW24142   3.139   3.967   5.581
 7748SOL    HW124143   3.068   3.976   5.512
 7748SOL    HW224144   3.119   3.887   5.639
 7749SOL     OW24145   4.456   3.617   6.058
 7749SOL    HW124146   4.504   3.601   6.143
 7749SOL    HW224147   4.360   3.637   6.077
 7750SOL     OW24148   0.535   6.172   1.280
 7750SOL    HW124149   0.494   6.166   1.370
 7750SOL    HW224150   0.464   6.190   1.212
 7751SOL     OW24151   1.049   1.653   2.183
 7751SOL    HW124152   1.143   1.629   2.206
 7751SOL    HW224153   1.048   1.707   2.099
 7752SOL     OW24154   5.050   0.469   5.046
 7752SOL    HW124155   5.125   0.499   4.987
 7752SOL    HW224156   5.088   0.415   5.122
 7753SOL     OW24157   1.783   1.424   4.773
 7753SOL    HW124158   1.698   1.383   4.805
 7753SOL    HW224159   1.859   1.360   4.790
 7754SOL     OW24160   3.768   6.157   1.403
 7754SOL    HW124161   3.703   6.097   1.356
 7754SOL    HW224162   3.838   6.188   1.338
 7755SOL     OW24163   1.387   3.283   5.944
 7755SOL    HW124164   1.396   3.378   5.913
 7755SOL    HW224165   1.311   3.277   6.009
 7756SOL     OW24166   2.680   6.759   1.647
 7756SOL    HW124167   2.624   6.748   1.565
 7756SOL    HW224168   2.767   6.803   1.622
 7757SOL     OW24169   6.686   4.519   1.132
 7757SOL    HW124170   6.697   4.454   1.057
 7757SOL    HW224171   6.718   4.609   1.104
 7758SOL     OW24172   1.525   0.331   6.234
 7758SOL    HW124173   1.486   0.239   6.225
 7758SOL    HW224174   1.625   0.325   6.225
 7759SOL     OW24175   2.916   2.231   5.901
 7759SOL    HW124176   2.917   2.131   5.901
 7759SOL    HW224177   2.846   2.264   5.837
 7760SOL     OW24178   5.153   2.152   2.340
 7760SOL    HW124179   5.091   2.127   2.414
 7760SOL    HW224180   5.244   2.116   2.359
 7761SOL     OW24181   5.399   5.622   4.723
 7761SOL    HW124182   5.491   5.588   4.706
 7761SOL    HW224183   5.375   5.608   4.819
 7762SOL     OW24184   0.973   0.574   4.183
 7762SOL    HW124185   0.920   0.645   4.135
 7762SOL    HW224186   0.917   0.491   4.191
 7763SOL     OW24187   1.966   0.231   5.256
 7763SOL    HW124188   2.041   0.182   5.212
 7763SOL    HW224189   1.957   0.201   5.351
 7764SOL     OW24190   3.450   3.951   5.468
 7764SOL    HW124191   3.393   3.972   5.389
 7764SOL    HW224192   3.408   3.989   5.550
 7765SOL     OW24193   6.542   3.705   4.008
 7765SOL    HW124194   6.484   3.631   3.973
 7765SOL    HW224195   6.611   3.728   3.940
 7766SOL     OW24196   0.541   4.450   0.289
 7766SOL    HW124197   0.477   4.472   0.216
 7766SOL    HW224198   0.516   4.500   0.372
 7767SOL     OW24199   3.929   6.727   2.499
 7767SOL    HW124200   3.935   6.827   2.499
 7767SOL    HW224201   4.017   6.688   2.471
 7768SOL     OW24202   4.547   4.495   3.128
 7768SOL    HW124203   4.559   4.446   3.042
 7768SOL    HW224204   4.581   4.438   3.203
 7769SOL     OW24205   3.992   2.296   5.336
 7769SOL    HW124206   4.022   2.359   5.264
 7769SOL    HW224207   3.895   2.275   5.323
 7770SOL     OW24208   0.551   3.730   4.877
 7770SOL    HW124209   0.591   3.702   4.964
 7770SOL    HW224210   0.604   3.691   4.802
 7771SOL     OW24211   2.824   2.158   6.267
 7771SOL    HW124212   2.910   2.176   6.219
 7771SOL    HW224213   2.751   2.209   6.224
 7772SOL     OW24214   5.210   0.683   1.116
 7772SOL    HW124215   5.141   0.756   1.119
 7772SOL    HW224216   5.192   0.624   1.038
 7773SOL     OW24217   2.763   6.015   0.451
 7773SOL    HW124218   2.783   6.111   0.470
 7773SOL    HW224219   2.814   5.985   0.371
 7774SOL     OW24220   4.806   2.422   3.884
 7774SOL    HW124221   4.851   2.398   3.970
 7774SOL    HW224222   4.712   2.452   3.903
 7775SOL     OW24223   3.729   0.413   6.771
 7775SOL    HW124224   3.718   0.511   6.782
 7775SOL    HW224225   3.814   0.384   6.816
 7776SOL     OW24226   0.507   6.773   5.795
 7776SOL    HW124227   0.419   6.796   5.836
 7776SOL    HW224228   0.495   6.698   5.730
 7777SOL     OW24229   5.778   5.002   4.383
 7777SOL    HW124230   5.856   4.961   4.336
 7777SOL    HW224231   5.810   5.069   4.449
 7778SOL     OW24232   6.136   3.743   2.696
 7778SOL    HW124233   6.057   3.724   2.754
 7778SOL    HW224234   6.130   3.691   2.611
 7779SOL     OW24235   3.362   6.702   2.550
 7779SOL    HW124236   3.426   6.766   2.508
 7779SOL    HW224237   3.269   6.722   2.519
 7780SOL     OW24238   0.256   5.857   6.147
 7780SOL    HW124239   0.302   5.776   6.112
 7780SOL    HW224240   0.296   5.884   6.235
 7781SOL     OW24241   1.779   3.859   0.298
 7781SOL    HW124242   1.870   3.901   0.290
 7781SOL    HW224243   1.789   3.761   0.312
 7782SOL     OW24244   6.383   4.995   3.310
 7782SOL    HW124245   6.360   5.005   3.406
 7782SOL    HW224246   6.362   5.079   3.261
 7783SOL     OW24247   0.910   0.044   5.687
 7783SOL    HW124248   0.901   0.091   5.599
 7783SOL    HW224249   0.952   6.973   5.673
 7784SOL     OW24250   2.525   2.220   1.780
 7784SOL    HW124251   2.591   2.250   1.848
 7784SOL    HW224252   2.497   2.298   1.724
 7785SOL     OW24253   1.150   6.083   2.993
 7785SOL    HW124254   1.089   6.128   3.058
 7785SOL    HW224255   1.096   6.035   2.924
 7786SOL     OW24256   4.313   0.803   6.528
 7786SOL    HW124257   4.269   0.868   6.590
 7786SOL    HW224258   4.315   0.841   6.436
 7787SOL     OW24259   2.626   3.356   1.049
 7787SOL    HW124260   2.625   3.449   1.085
 7787SOL    HW224261   2.543   3.308   1.079
 7788SOL     OW24262   1.569   5.611   1.753
 7788SOL    HW124263   1.546   5.689   1.812
 7788SOL    HW224264   1.539   5.630   1.660
 7789SOL     OW24265   3.509   6.692   6.138
 7789SOL    HW124266   3.595   6.703   6.187
 7789SOL    HW224267   3.489   6.775   6.087
 7790SOL     OW24268   6.510   5.074   2.571
 7790SOL    HW124269   6.441   5.003   2.561
 7790SOL    HW224270   6.475   5.146   2.631
 7791SOL     OW24271   1.966   6.164   1.583
 7791SOL    HW124272   2.027   6.134   1.657
 7791SOL    HW224273   1.992   6.118   1.498
 7792SOL     OW24274   0.508   1.311   2.798
 7792SOL    HW124275   0.578   1.367   2.755
 7792SOL    HW224276   0.544   1.272   2.883
 7793SOL     OW24277   4.107   1.990   6.804
 7793SOL    HW124278   4.053   2.055   6.858
 7793SOL    HW224279   4.072   1.897   6.818
 7794SOL     OW24280   0.869   5.275   2.814
 7794SOL    HW124281   0.844   5.356   2.868
 7794SOL    HW224282   0.813   5.197   2.842
 7795SOL     OW24283   3.363   5.372   5.621
 7795SOL    HW124284   3.421   5.347   5.543
 7795SOL    HW224285   3.270   5.389   5.588
 7796SOL     OW24286   3.643   3.268   5.602
 7796SOL    HW124287   3.637   3.325   5.684
 7796SOL    HW224288   3.567   3.289   5.541
 7797SOL     OW24289   1.064   5.191   2.270
 7797SOL    HW124290   1.075   5.092   2.278
 7797SOL    HW224291   1.147   5.231   2.230
 7798SOL     OW24292   0.661   1.573   1.688
 7798SOL    HW124293   0.617   1.505   1.629
 7798SOL    HW224294   0.738   1.614   1.640
 7799SOL     OW24295   2.826   5.966   2.665
 7799SOL    HW124296   2.774   5.925   2.590
 7799SOL    HW224297   2.871   6.049   2.633
 7800SOL     OW24298   1.148   5.949   0.928
 7800SOL    HW124299   1.061   5.900   0.938
 7800SOL    HW224300   1.155   6.018   1.001
 7801SOL     OW24301   1.743   2.142   2.912
 7801SOL    HW124302   1.802   2.199   2.854
 7801SOL    HW224303   1.755   2.168   3.008
 7802SOL     OW24304   0.146   4.390   6.071
 7802SOL    HW124305   0.143   4.324   6.146
 7802SOL    HW224306   0.144   4.483   6.108
 7803SOL     OW24307   5.475   2.572   6.510
 7803SOL    HW124308   5.428   2.655   6.481
 7803SOL    HW224309   5.549   2.552   6.446
 7804SOL     OW24310   2.649   2.022   3.997
 7804SOL    HW124311   2.650   2.039   4.096
 7804SOL    HW224312   2.555   2.025   3.964
 7805SOL     OW24313   5.148   3.021   1.921
 7805SOL    HW124314   5.247   3.039   1.928
 7805SOL    HW224315   5.134   2.925   1.896
 7806SOL     OW24316   6.574   2.530   5.686
 7806SOL    HW124317   6.585   2.555   5.782
 7806SOL    HW224318   6.546   2.434   5.680
 7807SOL     OW24319   2.308   5.013   6.179
 7807SOL    HW124320   2.335   4.973   6.091
 7807SOL    HW224321   2.336   5.109   6.181
 7808SOL     OW24322   4.756   4.140   2.616
 7808SOL    HW124323   4.834   4.082   2.638
 7808SOL    HW224324   4.740   4.137   2.518
 7809SOL     OW24325   5.072   4.858   4.299
 7809SOL    HW124326   5.041   4.778   4.351
 7809SOL    HW224327   4.996   4.894   4.246
 7810SOL     OW24328   4.284   6.355   4.955
 7810SOL    HW124329   4.354   6.394   4.895
 7810SOL    HW224330   4.324   6.281   5.009
 7811SOL     OW24331   0.799   5.782   2.523
 7811SOL    HW124332   0.894   5.806   2.506
 7811SOL    HW224333   0.788   5.753   2.619
 7812SOL     OW24334   2.574   2.774   5.293
 7812SOL    HW124335   2.671   2.749   5.295
 7812SOL    HW224336   2.566   2.872   5.275
 7813SOL     OW24337   4.802   2.772   1.139
 7813SOL    HW124338   4.763   2.834   1.207
 7813SOL    HW224339   4.897   2.751   1.162
 7814SOL     OW24340   6.644   3.275   1.846
 7814SOL    HW124341   6.577   3.299   1.916
 7814SOL    HW224342   6.639   3.177   1.828
 7815SOL     OW24343   6.137   2.413   5.099
 7815SOL    HW124344   6.226   2.413   5.053
 7815SOL    HW224345   6.071   2.462   5.042
 7816SOL     OW24346   0.298   1.748   5.417
 7816SOL    HW124347   0.222   1.715   5.361
 7816SOL    HW224348   0.326   1.839   5.385
 7817SOL     OW24349   3.504   3.906   5.907
 7817SOL    HW124350   3.462   3.964   5.837
 7817SOL    HW224351   3.549   3.828   5.863
 7818SOL     OW24352   5.094   1.216   2.020
 7818SOL    HW124353   5.051   1.179   1.938
 7818SOL    HW224354   5.028   1.269   2.072
 7819SOL     OW24355   0.611   3.570   3.971
 7819SOL    HW124356   0.612   3.566   3.871
 7819SOL    HW224357   0.607   3.477   4.008
 7820SOL     OW24358   1.544   0.809   5.492
 7820SOL    HW124359   1.574   0.780   5.583
 7820SOL    HW224360   1.610   0.875   5.455
 7821SOL     OW24361   6.256   6.218   6.674
 7821SOL    HW124362   6.188   6.199   6.603
 7821SOL    HW224363   6.218   6.195   6.764
 7822SOL     OW24364   1.368   1.357   5.115
 7822SOL    HW124365   1.356   1.259   5.134
 7822SOL    HW224366   1.291   1.389   5.059
 7823SOL     OW24367   1.715   4.358   6.515
 7823SOL    HW124368   1.671   4.274   6.547
 7823SOL    HW224369   1.801   4.335   6.470
 7824SOL     OW24370   5.537   1.547   3.832
 7824SOL    HW124371   5.571   1.629   3.785
 7824SOL    HW224372   5.458   1.511   3.783
 7825SOL     OW24373   1.924   2.914   1.295
 7825SOL    HW124374   2.014   2.870   1.298
 7825SOL    HW224375   1.894   2.935   1.388
 7826SOL     OW24376   5.621   0.663   6.974
 7826SOL    HW124377   5.653   0.753   7.003
 7826SOL    HW224378   5.596   0.609   0.036
 7827SOL     OW24379   4.466   4.786   1.784
 7827SOL    HW124380   4.478   4.764   1.687
 7827SOL    HW224381   4.502   4.712   1.840
 7828SOL     OW24382   0.716   5.995   0.739
 7828SOL    HW124383   0.668   6.052   0.672
 7828SOL    HW224384   0.697   6.029   0.831
 7829SOL     OW24385   2.406   3.075   1.665
 7829SOL    HW124386   2.483   3.127   1.629
 7829SOL    HW224387   2.400   2.987   1.617
 7830SOL     OW24388   5.491   3.265   6.657
 7830SOL    HW124389   5.484   3.284   6.559
 7830SOL    HW224390   5.404   3.226   6.689
 7831SOL     OW24391   1.639   3.978   0.088
 7831SOL    HW124392   1.680   4.067   0.068
 7831SOL    HW224393   1.667   3.948   0.179
 7832SOL     OW24394   3.090   1.657   5.107
 7832SOL    HW124395   3.107   1.609   5.192
 7832SOL    HW224396   3.095   1.593   5.030
 7833SOL     OW24397   0.614   0.278   0.870
 7833SOL    HW124398   0.516   0.264   0.878
 7833SOL    HW224399   0.661   0.190   0.868
 7834SOL     OW24400   0.493   1.014   2.259
 7834SOL    HW124401   0.509   1.099   2.208
 7834SOL    HW224402   0.561   1.005   2.332
 7835SOL     OW24403   2.264   2.825   4.812
 7835SOL    HW124404   2.339   2.759   4.818
 7835SOL    HW224405   2.271   2.891   4.886
 7836SOL     OW24406   3.235   6.765   6.318
 7836SOL    HW124407   3.269   6.846   6.366
 7836SOL    HW224408   3.308   6.724   6.264
 7837SOL     OW24409   6.154   6.507   2.519
 7837SOL    HW124410   6.213   6.527   2.441
 7837SOL    HW224411   6.131   6.409   2.519
 7838SOL     OW24412   4.882   6.765   4.752
 7838SOL    HW124413   4.920   6.853   4.721
 7838SOL    HW224414   4.840   6.718   4.675
 7839SOL     OW24415   6.138   3.746   4.563
 7839SOL    HW124416   6.230   3.784   4.568
 7839SOL    HW224417   6.088   3.768   4.646
 7840SOL     OW24418   5.146   2.649   4.458
 7840SOL    HW124419   5.120   2.614   4.547
 7840SOL    HW224420   5.232   2.608   4.429
 7841SOL     OW24421   5.843   2.618   6.747
 7841SOL    HW124422   5.874   2.527   6.718
 7841SOL    HW224423   5.802   2.665   6.668
 7842SOL     OW24424   1.377   1.765   3.381
 7842SOL    HW124425   1.449   1.827   3.413
 7842SOL    HW224426   1.419   1.681   3.346
 7843SOL     OW24427   5.750   3.940   1.197
 7843SOL    HW124428   5.671   3.988   1.234
 7843SOL    HW224429   5.827   4.003   1.186
 7844SOL     OW24430   4.320   1.241   3.387
 7844SOL    HW124431   4.240   1.214   3.440
 7844SOL    HW224432   4.396   1.179   3.408
 7845SOL     OW24433   0.823   0.698   3.929
 7845SOL    HW124434   0.895   0.635   3.900
 7845SOL    HW224435   0.841   0.789   3.893
 7846SOL     OW24436   2.214   1.179   1.479
 7846SOL    HW124437   2.251   1.191   1.387
 7846SOL    HW224438   2.116   1.197   1.478
 7847SOL     OW24439   0.493   1.060   0.940
 7847SOL    HW124440   0.573   1.117   0.923
 7847SOL    HW224441   0.464   1.017   0.854
 7848SOL     OW24442   4.074   4.165   1.366
 7848SOL    HW124443   4.167   4.193   1.340
 7848SOL    HW224444   4.022   4.142   1.284
 7849SOL     OW24445   4.919   3.476   3.830
 7849SOL    HW124446   4.894   3.392   3.780
 7849SOL    HW224447   5.018   3.478   3.842
 7850SOL     OW24448   0.042   1.143   4.337
 7850SOL    HW124449   0.031   1.108   4.430
 7850SOL    HW224450   7.005   1.225   4.326
 7851SOL     OW24451   6.210   6.447   0.084
 7851SOL    HW124452   6.298   6.400   0.076
 7851SOL    HW224453   6.198   6.508   0.005
 7852SOL     OW24454   2.695   6.462   0.139
 7852SOL    HW124455   2.605   6.419   0.140
 7852SOL    HW224456   2.708   6.515   0.223
 7853SOL     OW24457   2.846   1.140   0.404
 7853SOL    HW124458   2.780   1.119   0.475
 7853SOL    HW224459   2.805   1.122   0.314
 7854SOL     OW24460   3.848   3.527   1.885
 7854SOL    HW124461   3.822   3.594   1.954
 7854SOL    HW224462   3.845   3.570   1.794
 7855SOL     OW24463   4.190   5.551   6.345
 7855SOL    HW124464   4.268   5.585   6.397
 7855SOL    HW224465   4.210   5.461   6.308
 7856SOL     OW24466   6.686   4.201   4.469
 7856SOL    HW124467   6.591   4.177   4.489
 7856SOL    HW224468   6.687   4.279   4.406
 7857SOL     OW24469   6.093   2.382   5.937
 7857SOL    HW124470   6.146   2.434   5.871
 7857SOL    HW224471   6.107   2.284   5.922
 7858SOL     OW24472   5.712   4.250   3.680
 7858SOL    HW124473   5.802   4.248   3.723
 7858SOL    HW224474   5.690   4.344   3.653
 7859SOL     OW24475   0.990   4.331   6.575
 7859SOL    HW124476   1.050   4.394   6.626
 7859SOL    HW224477   0.908   4.313   6.628
 7860SOL     OW24478   4.206   6.307   2.330
 7860SOL    HW124479   4.183   6.238   2.262
 7860SOL    HW224480   4.305   6.314   2.339
 7861SOL     OW24481   4.337   5.431   1.593
 7861SOL    HW124482   4.390   5.504   1.637
 7861SOL    HW224483   4.399   5.373   1.540
 7862SOL     OW24484   3.037   4.192   1.763
 7862SOL    HW124485   3.002   4.284   1.782
 7862SOL    HW224486   2.977   4.146   1.697
 7863SOL     OW24487   6.487   6.059   3.399
 7863SOL    HW124488   6.442   6.117   3.465
 7863SOL    HW224489   6.426   6.040   3.322
 7864SOL     OW24490   0.181   6.260   5.412
 7864SOL    HW124491   0.159   6.237   5.317
 7864SOL    HW224492   0.264   6.211   5.440
 7865SOL     OW24493   3.907   6.446   3.700
 7865SOL    HW124494   3.925   6.359   3.746
 7865SOL    HW224495   3.809   6.456   3.685
 7866SOL     OW24496   2.631   1.501   2.577
 7866SOL    HW124497   2.545   1.550   2.562
 7866SOL    HW224498   2.701   1.538   2.516
 7867SOL     OW24499   6.032   5.947   2.934
 7867SOL    HW124500   5.983   5.920   2.851
 7867SOL    HW224501   6.005   5.886   3.009
 7868SOL     OW24502   5.143   6.261   1.708
 7868SOL    HW124503   5.115   6.352   1.739
 7868SOL    HW224504   5.221   6.269   1.646
 7869SOL     OW24505   6.491   3.622   0.915
 7869SOL    HW124506   6.565   3.574   0.962
 7869SOL    HW224507   6.406   3.570   0.925
 7870SOL     OW24508   6.322   5.276   3.382
 7870SOL    HW124509   6.403   5.251   3.436
 7870SOL    HW224510   6.346   5.349   3.318
 7871SOL     OW24511   5.683   3.085   3.491
 7871SOL    HW124512   5.684   3.076   3.392
 7871SOL    HW224513   5.776   3.105   3.524
 7872SOL     OW24514   0.989   3.780   3.086
 7872SOL    HW124515   1.023   3.801   2.994
 7872SOL    HW224516   0.968   3.683   3.092
 7873SOL     OW24517   6.747   0.649   5.992
 7873SOL    HW124518   6.812   0.701   6.047
 7873SOL    HW224519   6.678   0.712   5.954
 7874SOL     OW24520   6.523   1.402   6.990
 7874SOL    HW124521   6.515   1.302   6.987
 7874SOL    HW224522   6.493   1.435   0.060
 7875SOL     OW24523   4.841   4.408   0.221
 7875SOL    HW124524   4.811   4.418   0.316
 7875SOL    HW224525   4.874   4.496   0.187
 7876SOL     OW24526   6.602   0.408   4.868
 7876SOL    HW124527   6.541   0.328   4.869
 7876SOL    HW224528   6.625   0.431   4.774
 7877SOL     OW24529   6.924   1.886   3.094
 7877SOL    HW124530   6.956   1.798   3.059
 7877SOL    HW224531   7.002   1.948   3.105
 7878SOL     OW24532   4.864   4.500   2.880
 7878SOL    HW124533   4.804   4.577   2.860
 7878SOL    HW224534   4.953   4.514   2.836
 7879SOL     OW24535   4.985   5.929   3.267
 7879SOL    HW124536   5.074   5.884   3.264
 7879SOL    HW224537   4.922   5.883   3.203
 7880SOL     OW24538   0.332   6.416   0.141
 7880SOL    HW124539   0.291   6.325   0.138
 7880SOL    HW224540   0.427   6.411   0.108
 7881SOL     OW24541   6.926   4.052   4.208
 7881SOL    HW124542   6.993   3.983   4.236
 7881SOL    HW224543   6.864   4.013   4.140
 7882SOL     OW24544   1.181   2.719   2.600
 7882SOL    HW124545   1.242   2.782   2.650
 7882SOL    HW224546   1.142   2.653   2.664
 7883SOL     OW24547   2.523   1.225   2.295
 7883SOL    HW124548   2.478   1.142   2.262
 7883SOL    HW224549   2.499   1.239   2.391
 7884SOL     OW24550   1.673   4.476   4.005
 7884SOL    HW124551   1.631   4.557   3.962
 7884SOL    HW224552   1.691   4.496   4.101
 7885SOL     OW24553   6.342   5.390   2.631
 7885SOL    HW124554   6.414   5.427   2.689
 7885SOL    HW224555   6.349   5.430   2.540
 7886SOL     OW24556   5.179   3.418   1.681
 7886SOL    HW124557   5.119   3.432   1.602
 7886SOL    HW224558   5.201   3.320   1.689
 7887SOL     OW24559   3.335   3.101   5.771
 7887SOL    HW124560   3.298   3.036   5.837
 7887SOL    HW224561   3.434   3.086   5.762
 7888SOL     OW24562   6.381   1.558   3.900
 7888SOL    HW124563   6.395   1.611   3.817
 7888SOL    HW224564   6.348   1.466   3.877
 7889SOL     OW24565   6.454   5.576   0.462
 7889SOL    HW124566   6.475   5.623   0.547
 7889SOL    HW224567   6.402   5.493   0.481
 7890SOL     OW24568   1.530   2.508   4.388
 7890SOL    HW124569   1.497   2.482   4.479
 7890SOL    HW224570   1.508   2.604   4.371
 7891SOL     OW24571   0.934   2.680   4.277
 7891SOL    HW124572   0.869   2.755   4.291
 7891SOL    HW224573   1.028   2.715   4.288
 7892SOL     OW24574   1.974   2.206   4.591
 7892SOL    HW124575   1.928   2.179   4.675
 7892SOL    HW224576   2.026   2.290   4.607
 7893SOL     OW24577   6.389   6.626   1.950
 7893SOL    HW124578   6.338   6.601   1.867
 7893SOL    HW224579   6.468   6.681   1.924
 7894SOL     OW24580   2.364   1.833   6.459
 7894SOL    HW124581   2.455   1.840   6.499
 7894SOL    HW224582   2.315   1.919   6.474
 7895SOL     OW24583   3.667   6.007   4.137
 7895SOL    HW124584   3.756   5.963   4.146
 7895SOL    HW224585   3.599   5.958   4.191
 7896SOL     OW24586   4.359   3.196   1.333
 7896SOL    HW124587   4.306   3.114   1.354
 7896SOL    HW224588   4.315   3.246   1.259
 7897SOL     OW24589   3.542   4.374   6.318
 7897SOL    HW124590   3.535   4.397   6.415
 7897SOL    HW224591   3.452   4.343   6.284
 7898SOL     OW24592   5.081   0.188   3.949
 7898SOL    HW124593   5.104   0.097   3.914
 7898SOL    HW224594   4.991   0.215   3.914
 7899SOL     OW24595   5.392   5.583   1.617
 7899SOL    HW124596   5.406   5.490   1.652
 7899SOL    HW224597   5.400   5.648   1.693
 7900SOL     OW24598   0.376   4.115   0.636
 7900SOL    HW124599   0.385   4.130   0.538
 7900SOL    HW224600   0.459   4.074   0.673
 7901SOL     OW24601   4.925   1.144   6.225
 7901SOL    HW124602   4.849   1.197   6.262
 7901SOL    HW224603   5.006   1.157   6.284
 7902SOL     OW24604   0.412   6.235   3.165
 7902SOL    HW124605   0.425   6.172   3.088
 7902SOL    HW224606   0.316   6.263   3.170
 7903SOL     OW24607   3.486   1.702   3.966
 7903SOL    HW124608   3.518   1.650   3.887
 7903SOL    HW224609   3.483   1.799   3.943
 7904SOL     OW24610   6.307   0.831   2.669
 7904SOL    HW124611   6.396   0.877   2.665
 7904SOL    HW224612   6.275   0.829   2.764
 7905SOL     OW24613   5.417   1.116   0.320
 7905SOL    HW124614   5.440   1.035   0.374
 7905SOL    HW224615   5.393   1.192   0.382
 7906SOL     OW24616   1.546   5.239   1.563
 7906SOL    HW124617   1.593   5.165   1.516
 7906SOL    HW224618   1.451   5.243   1.532
 7907SOL     OW24619   5.771   0.534   2.997
 7907SOL    HW124620   5.768   0.588   2.913
 7907SOL    HW224621   5.849   0.472   2.993
 7908SOL     OW24622   0.448   1.991   6.970
 7908SOL    HW124623   0.474   2.086   6.988
 7908SOL    HW224624   0.412   1.950   0.035
 7909SOL     OW24625   5.192   4.560   2.926
 7909SOL    HW124626   5.118   4.568   2.992
 7909SOL    HW224627   5.205   4.647   2.879
 7910SOL     OW24628   1.680   3.199   0.626
 7910SOL    HW124629   1.734   3.282   0.613
 7910SOL    HW224630   1.589   3.224   0.658
 7911SOL     OW24631   1.052   3.924   1.127
 7911SOL    HW124632   1.151   3.935   1.132
 7911SOL    HW224633   1.030   3.829   1.103
 7912SOL     OW24634   5.774   5.632   0.174
 7912SOL    HW124635   5.755   5.538   0.202
 7912SOL    HW224636   5.860   5.662   0.215
 7913SOL     OW24637   1.452   4.063   0.761
 7913SOL    HW124638   1.407   4.102   0.680
 7913SOL    HW224639   1.548   4.089   0.760
 7914SOL     OW24640   6.954   5.116   6.403
 7914SOL    HW124641   6.983   5.173   6.480
 7914SOL    HW224642   0.008   5.113   6.335
 7915SOL     OW24643   4.148   0.900   2.744
 7915SOL    HW124644   4.243   0.915   2.769
 7915SOL    HW224645   4.141   0.889   2.645
 7916SOL     OW24646   0.412   0.301   4.688
 7916SOL    HW124647   0.449   0.387   4.654
 7916SOL    HW224648   0.472   0.226   4.661
 7917SOL     OW24649   3.841   2.743   6.480
 7917SOL    HW124650   3.835   2.812   6.552
 7917SOL    HW224651   3.866   2.655   6.521
 7918SOL     OW24652   1.560   1.247   4.858
 7918SOL    HW124653   1.465   1.260   4.831
 7918SOL    HW224654   1.571   1.272   4.954
 7919SOL     OW24655   1.226   4.979   3.257
 7919SOL    HW124656   1.212   4.880   3.267
 7919SOL    HW224657   1.138   5.025   3.263
 7920SOL     OW24658   4.921   0.555   1.673
 7920SOL    HW124659   4.951   0.644   1.706
 7920SOL    HW224660   4.829   0.535   1.708
 7921SOL     OW24661   5.168   1.924   1.654
 7921SOL    HW124662   5.263   1.895   1.649
 7921SOL    HW224663   5.161   2.021   1.632
 7922SOL     OW24664   0.879   6.347   6.542
 7922SOL    HW124665   0.890   6.432   6.492
 7922SOL    HW224666   0.781   6.327   6.552
 7923SOL     OW24667   3.399   2.183   6.199
 7923SOL    HW124668   3.439   2.275   6.200
 7923SOL    HW224669   3.333   2.176   6.124
 7924SOL     OW24670   5.808   6.913   1.275
 7924SOL    HW124671   5.725   6.947   1.231
 7924SOL    HW224672   5.789   6.826   1.321
 7925SOL     OW24673   2.379   6.593   0.691
 7925SOL    HW124674   2.301   6.588   0.754
 7925SOL    HW224675   2.387   6.506   0.642
 7926SOL     OW24676   5.402   1.127   6.447
 7926SOL    HW124677   5.400   1.158   6.352
 7926SOL    HW224678   5.488   1.155   6.489
 7927SOL     OW24679   5.366   0.106   2.420
 7927SOL    HW124680   5.395   0.194   2.458
 7927SOL    HW224681   5.372   0.035   2.491
 7928SOL     OW24682   0.004   1.108   3.500
 7928SOL    HW124683   6.994   1.147   3.588
 7928SOL    HW224684   0.099   1.078   3.506
 7929SOL     OW24685   4.431   4.034   6.757
 7929SOL    HW124686   4.366   3.958   6.759
 7929SOL    HW224687   4.511   4.008   6.702
 7930SOL     OW24688   3.557   5.592   6.114
 7930SOL    HW124689   3.610   5.670   6.081
 7930SOL    HW224690   3.605   5.507   6.091
 7931SOL     OW24691   3.230   2.703   0.368
 7931SOL    HW124692   3.181   2.642   0.430
 7931SOL    HW224693   3.302   2.752   0.419
 7932SOL     OW24694   6.595   5.400   0.798
 7932SOL    HW124695   6.629   5.379   0.707
 7932SOL    HW224696   6.617   5.495   0.820
 7933SOL     OW24697   6.400   0.659   5.783
 7933SOL    HW124698   6.382   0.709   5.868
 7933SOL    HW224699   6.319   0.606   5.758
 7934SOL     OW24700   1.759   4.951   0.799
 7934SOL    HW124701   1.667   4.979   0.772
 7934SOL    HW224702   1.820   4.956   0.719
 7935SOL     OW24703   5.663   3.995   2.236
 7935SOL    HW124704   5.580   4.011   2.183
 7935SOL    HW224705   5.718   4.079   2.238
 7936SOL     OW24706   2.786   6.529   3.635
 7936SOL    HW124707   2.749   6.443   3.600
 7936SOL    HW224708   2.759   6.541   3.731
 7937SOL     OW24709   1.517   5.956   4.449
 7937SOL    HW124710   1.484   5.890   4.382
 7937SOL    HW224711   1.614   5.975   4.433
 7938SOL     OW24712   5.141   0.315   5.256
 7938SOL    HW124713   5.119   0.218   5.262
 7938SOL    HW224714   5.085   0.367   5.320
 7939SOL     OW24715   0.705   1.802   5.384
 7939SOL    HW124716   0.650   1.801   5.301
 7939SOL    HW224717   0.654   1.759   5.459
 7940SOL     OW24718   4.211   1.884   2.098
 7940SOL    HW124719   4.225   1.909   2.194
 7940SOL    HW224720   4.220   1.785   2.087
 7941SOL     OW24721   4.449   6.625   3.203
 7941SOL    HW124722   4.528   6.567   3.217
 7941SOL    HW224723   4.368   6.583   3.244
 7942SOL     OW24724   0.925   2.728   2.097
 7942SOL    HW124725   0.932   2.671   2.179
 7942SOL    HW224726   1.011   2.723   2.046
 7943SOL     OW24727   1.957   4.610   5.704
 7943SOL    HW124728   1.879   4.668   5.681
 7943SOL    HW224729   1.930   4.514   5.698
 7944SOL     OW24730   0.897   2.349   1.832
 7944SOL    HW124731   0.802   2.325   1.852
 7944SOL    HW224732   0.899   2.434   1.779
 7945SOL     OW24733   6.282   5.168   2.804
 7945SOL    HW124734   6.297   5.244   2.741
 7945SOL    HW224735   6.302   5.198   2.898
 7946SOL     OW24736   3.788   6.939   5.643
 7946SOL    HW124737   3.749   6.916   5.732
 7946SOL    HW224738   3.857   7.011   5.654
 7947SOL     OW24739   2.063   2.580   5.091
 7947SOL    HW124740   2.097   2.664   5.133
 7947SOL    HW224741   1.963   2.578   5.096
 7948SOL     OW24742   1.602   4.610   1.998
 7948SOL    HW124743   1.601   4.658   2.085
 7948SOL    HW224744   1.693   4.614   1.958
 7949SOL     OW24745   4.383   4.686   5.651
 7949SOL    HW124746   4.400   4.773   5.698
 7949SOL    HW224747   4.287   4.662   5.657
 7950SOL     OW24748   5.899   5.769   5.355
 7950SOL    HW124749   5.836   5.692   5.360
 7950SOL    HW224750   5.913   5.795   5.259
 7951SOL     OW24751   2.738   5.261   2.721
 7951SOL    HW124752   2.674   5.194   2.760
 7951SOL    HW224753   2.799   5.294   2.792
 7952SOL     OW24754   6.090   3.632   0.053
 7952SOL    HW124755   6.085   3.533   0.059
 7952SOL    HW224756   6.042   3.663   6.990
 7953SOL     OW24757   4.287   1.455   0.880
 7953SOL    HW124758   4.263   1.523   0.811
 7953SOL    HW224759   4.207   1.438   0.939
 7954SOL     OW24760   4.097   3.921   6.460
 7954SOL    HW124761   4.195   3.936   6.475
 7954SOL    HW224762   4.051   4.009   6.451
 7955SOL     OW24763   2.302   1.429   5.991
 7955SOL    HW124764   2.343   1.364   6.054
 7955SOL    HW224765   2.223   1.387   5.946
 7956SOL     OW24766   5.757   1.729   1.684
 7956SOL    HW124767   5.770   1.685   1.773
 7956SOL    HW224768   5.708   1.668   1.623
 7957SOL     OW24769   4.037   0.081   5.606
 7957SOL    HW124770   4.075   0.130   5.684
 7957SOL    HW224771   4.017   0.145   5.533
 7958SOL     OW24772   5.458   4.159   6.527
 7958SOL    HW124773   5.466   4.118   6.436
 7958SOL    HW224774   5.363   4.189   6.541
 7959SOL     OW24775   5.016   0.636   6.218
 7959SOL    HW124776   4.949   0.706   6.195
 7959SOL    HW224777   5.108   0.676   6.217
 7960SOL     OW24778   0.088   0.950   6.717
 7960SOL    HW124779   0.035   1.005   6.653
 7960SOL    HW224780   0.134   1.011   6.782
 7961SOL     OW24781   6.610   6.635   0.701
 7961SOL    HW124782   6.694   6.658   0.652
 7961SOL    HW224783   6.537   6.698   0.675
 7962SOL     OW24784   6.864   1.235   6.345
 7962SOL    HW124785   6.768   1.259   6.327
 7962SOL    HW224786   6.914   1.316   6.376
 7963SOL     OW24787   6.220   4.323   3.995
 7963SOL    HW124788   6.295   4.373   4.038
 7963SOL    HW224789   6.141   4.383   3.985
 7964SOL     OW24790   6.982   3.062   1.672
 7964SOL    HW124791   6.947   3.128   1.605
 7964SOL    HW224792   0.018   2.993   1.625
 7965SOL     OW24793   4.898   2.658   0.128
 7965SOL    HW124794   4.877   2.573   0.176
 7965SOL    HW224795   4.814   2.709   0.111
 7966SOL     OW24796   4.181   3.714   6.106
 7966SOL    HW124797   4.099   3.663   6.079
 7966SOL    HW224798   4.162   3.812   6.103
 7967SOL     OW24799   1.591   5.186   2.249
 7967SOL    HW124800   1.653   5.136   2.310
 7967SOL    HW224801   1.628   5.276   2.230
 7968SOL     OW24802   6.786   1.710   5.090
 7968SOL    HW124803   6.800   1.747   4.999
 7968SOL    HW224804   6.689   1.686   5.102
 7969SOL     OW24805   4.880   5.807   0.242
 7969SOL    HW124806   4.831   5.739   0.298
 7969SOL    HW224807   4.977   5.802   0.263
 7970SOL     OW24808   5.846   2.835   2.705
 7970SOL    HW124809   5.839   2.815   2.803
 7970SOL    HW224810   5.884   2.756   2.658
 7971SOL     OW24811   3.333   2.027   1.461
 7971SOL    HW124812   3.296   2.083   1.535
 7971SOL    HW224813   3.282   2.044   1.377
 7972SOL     OW24814   3.750   3.178   1.732
 7972SOL    HW124815   3.843   3.150   1.708
 7972SOL    HW224816   3.689   3.098   1.730
 7973SOL     OW24817   5.603   4.048   3.518
 7973SOL    HW124818   5.642   4.116   3.580
 7973SOL    HW224819   5.506   4.068   3.503
 7974SOL     OW24820   6.311   1.271   4.454
 7974SOL    HW124821   6.370   1.227   4.522
 7974SOL    HW224822   6.290   1.204   4.382
 7975SOL     OW24823   4.394   1.018   0.109
 7975SOL    HW124824   4.373   1.090   0.175
 7975SOL    HW224825   4.312   0.963   0.092
 7976SOL     OW24826   0.857   0.265   5.861
 7976SOL    HW124827   0.884   0.182   5.811
 7976SOL    HW224828   0.816   0.239   5.948
 7977SOL     OW24829   5.905   6.152   2.707
 7977SOL    HW124830   5.820   6.203   2.715
 7977SOL    HW224831   5.886   6.054   2.714
 7978SOL     OW24832   0.474   3.967   0.311
 7978SOL    HW124833   0.564   3.934   0.341
 7978SOL    HW224834   0.403   3.906   0.347
 7979SOL     OW24835   1.752   4.031   5.139
 7979SOL    HW124836   1.772   4.039   5.042
 7979SOL    HW224837   1.810   4.094   5.190
 7980SOL     OW24838   3.225   4.902   5.985
 7980SOL    HW124839   3.316   4.875   6.015
 7980SOL    HW224840   3.233   4.956   5.901
 7981SOL     OW24841   1.342   4.939   2.380
 7981SOL    HW124842   1.371   4.956   2.286
 7981SOL    HW224843   1.403   4.987   2.443
 7982SOL     OW24844   1.127   1.182   6.000
 7982SOL    HW124845   1.178   1.177   5.915
 7982SOL    HW224846   1.044   1.237   5.986
 7983SOL     OW24847   5.702   1.231   1.317
 7983SOL    HW124848   5.663   1.159   1.260
 7983SOL    HW224849   5.662   1.227   1.409
 7984SOL     OW24850   0.350   1.909   0.985
 7984SOL    HW124851   0.291   1.983   1.016
 7984SOL    HW224852   0.400   1.871   1.063
 7985SOL     OW24853   2.564   2.184   5.025
 7985SOL    HW124854   2.556   2.110   4.957
 7985SOL    HW224855   2.657   2.221   5.021
 7986SOL     OW24856   3.934   1.722   5.123
 7986SOL    HW124857   3.891   1.761   5.042
 7986SOL    HW224858   3.973   1.795   5.179
 7987SOL     OW24859   1.824   3.970   0.948
 7987SOL    HW124860   1.801   3.888   0.896
 7987SOL    HW224861   1.905   4.013   0.908
 7988SOL     OW24862   0.297   0.806   1.621
 7988SOL    HW124863   0.210   0.788   1.576
 7988SOL    HW224864   0.313   0.737   1.691
 7989SOL     OW24865   1.734   4.273   6.880
 7989SOL    HW124866   1.642   4.234   6.878
 7989SOL    HW224867   1.799   4.204   6.848
 7990SOL     OW24868   2.669   6.334   4.432
 7990SOL    HW124869   2.618   6.335   4.518
 7990SOL    HW224870   2.719   6.248   4.424
 7991SOL     OW24871   5.475   1.897   4.371
 7991SOL    HW124872   5.423   1.870   4.452
 7991SOL    HW224873   5.502   1.815   4.319
 7992SOL     OW24874   2.599   0.522   0.657
 7992SOL    HW124875   2.517   0.465   0.648
 7992SOL    HW224876   2.679   0.472   0.625
 7993SOL     OW24877   0.165   0.043   2.223
 7993SOL    HW124878   0.162   6.962   2.221
 7993SOL    HW224879   0.255   0.074   2.190
 7994SOL     OW24880   5.196   0.635   3.013
 7994SOL    HW124881   5.188   0.732   3.035
 7994SOL    HW224882   5.113   0.604   2.967
 7995SOL     OW24883   5.688   4.929   2.795
 7995SOL    HW124884   5.630   4.889   2.724
 7995SOL    HW224885   5.772   4.964   2.754
 7996SOL     OW24886   4.231   0.250   4.157
 7996SOL    HW124887   4.203   0.269   4.251
 7996SOL    HW224888   4.274   0.160   4.152
 7997SOL     OW24889   0.353   1.925   0.200
 7997SOL    HW124890   0.420   1.950   0.270
 7997SOL    HW224891   0.265   1.907   0.243
 7998SOL     OW24892   3.128   6.937   0.267
 7998SOL    HW124893   3.032   6.964   0.258
 7998SOL    HW224894   3.186   7.006   0.226
 7999SOL     OW24895   1.027   1.528   6.091
 7999SOL    HW124896   0.973   1.561   6.168
 7999SOL    HW224897   1.087   1.601   6.058
 8000SOL     OW24898   6.188   0.110   6.525
 8000SOL    HW124899   6.217   0.081   6.616
 8000SOL    HW224900   6.174   0.209   6.524
 8001SOL     OW24901   4.551   6.730   1.156
 8001SOL    HW124902   4.521   6.819   1.120
 8001SOL    HW224903   4.637   6.742   1.205
 8002SOL     OW24904   0.637   1.351   5.129
 8002SOL    HW124905   0.722   1.392   5.096
 8002SOL    HW224906   0.585   1.419   5.180
 8003SOL     OW24907   1.802   6.710   2.151
 8003SOL    HW124908   1.743   6.639   2.113
 8003SOL    HW224909   1.782   6.797   2.106
 8004SOL     OW24910   2.298   2.861   3.587
 8004SOL    HW124911   2.354   2.792   3.632
 8004SOL    HW224912   2.311   2.855   3.488
 8005SOL     OW24913   3.023   0.136   3.738
 8005SOL    HW124914   2.939   0.126   3.792
 8005SOL    HW224915   3.059   0.229   3.750
 8006SOL     OW24916   3.367   5.918   5.097
 8006SOL    HW124917   3.452   5.964   5.124
 8006SOL    HW224918   3.321   5.883   5.179
 8007SOL     OW24919   5.505   2.047   6.313
 8007SOL    HW124920   5.515   1.960   6.266
 8007SOL    HW224921   5.576   2.056   6.383
 8008SOL     OW24922   3.292   6.586   0.395
 8008SOL    HW124923   3.364   6.517   0.397
 8008SOL    HW224924   3.270   6.610   0.300
 8009SOL     OW24925   4.907   0.958   1.171
 8009SOL    HW124926   4.989   0.938   1.225
 8009SOL    HW224927   4.828   0.966   1.232
 8010SOL     OW24928   3.119   2.646   5.377
 8010SOL    HW124929   3.202   2.601   5.344
 8010SOL    HW224930   3.135   2.745   5.383
 8011SOL     OW24931   3.525   2.063   1.841
 8011SOL    HW124932   3.585   2.118   1.899
 8011SOL    HW224933   3.430   2.092   1.854
 8012SOL     OW24934   0.896   2.570   6.060
 8012SOL    HW124935   0.823   2.519   6.015
 8012SOL    HW224936   0.867   2.665   6.073
 8013SOL     OW24937   0.947   2.687   3.386
 8013SOL    HW124938   0.970   2.671   3.482
 8013SOL    HW224939   1.017   2.647   3.327
 8014SOL     OW24940   1.807   0.142   3.786
 8014SOL    HW124941   1.794   0.202   3.707
 8014SOL    HW224942   1.757   0.179   3.864
 8015SOL     OW24943   2.077   0.201   5.792
 8015SOL    HW124944   2.173   0.175   5.794
 8015SOL    HW224945   2.026   0.142   5.856
 8016SOL     OW24946   3.936   1.590   4.830
 8016SOL    HW124947   3.964   1.550   4.917
 8016SOL    HW224948   3.957   1.688   4.829
 8017SOL     OW24949   6.745   6.895   0.350
 8017SOL    HW124950   6.653   6.916   0.383
 8017SOL    HW224951   6.812   6.917   0.421
 8018SOL     OW24952   3.870   2.667   6.862
 8018SOL    HW124953   3.848   2.699   6.769
 8018SOL    HW224954   3.809   2.711   6.928
 8019SOL     OW24955   2.487   3.964   0.837
 8019SOL    HW124956   2.561   3.944   0.901
 8019SOL    HW224957   2.400   3.936   0.876
 8020SOL     OW24958   6.063   0.217   6.229
 8020SOL    HW124959   5.964   0.210   6.241
 8020SOL    HW224960   6.109   0.161   6.297
 8021SOL     OW24961   2.144   2.772   1.288
 8021SOL    HW124962   2.239   2.791   1.311
 8021SOL    HW224963   2.141   2.704   1.215
 8022SOL     OW24964   6.224   0.086   1.731
 8022SOL    HW124965   6.230   0.123   1.638
 8022SOL    HW224966   6.128   0.077   1.757
 8023SOL     OW24967   5.897   5.491   2.938
 8023SOL    HW124968   5.994   5.496   2.963
 8023SOL    HW224969   5.884   5.423   2.866
 8024SOL     OW24970   1.354   5.748   6.014
 8024SOL    HW124971   1.453   5.734   6.015
 8024SOL    HW224972   1.314   5.690   5.943
 8025SOL     OW24973   1.701   4.671   1.125
 8025SOL    HW124974   1.670   4.763   1.100
 8025SOL    HW224975   1.727   4.670   1.221
 8026SOL     OW24976   6.893   4.591   0.695
 8026SOL    HW124977   6.862   4.663   0.757
 8026SOL    HW224978   6.986   4.564   0.719
 8027SOL     OW24979   3.468   6.658   5.239
 8027SOL    HW124980   3.422   6.738   5.201
 8027SOL    HW224981   3.400   6.588   5.261
 8028SOL     OW24982   2.243   5.919   4.360
 8028SOL    HW124983   2.265   6.015   4.343
 8028SOL    HW224984   2.250   5.868   4.275
 8029SOL     OW24985   4.976   2.205   1.757
 8029SOL    HW124986   5.039   2.231   1.684
 8029SOL    HW224987   4.893   2.261   1.750
 8030SOL     OW24988   6.272   5.399   0.583
 8030SOL    HW124989   6.283   5.303   0.557
 8030SOL    HW224990   6.224   5.404   0.671
 8031SOL     OW24991   6.027   6.902   3.122
 8031SOL    HW124992   6.057   6.847   3.043
 8031SOL    HW224993   6.002   6.994   3.091
 8032SOL     OW24994   5.161   3.684   1.779
 8032SOL    HW124995   5.113   3.699   1.865
 8032SOL    HW224996   5.163   3.586   1.759
 8033SOL     OW24997   4.592   3.538   0.231
 8033SOL    HW124998   4.561   3.633   0.223
 8033SOL    HW224999   4.691   3.534   0.216
 8034SOL     OW25000   5.957   0.536   5.193
 8034SOL    HW125001   5.905   0.454   5.215
 8034SOL    HW225002   6.034   0.546   5.257
 8035SOL     OW25003   4.631   0.945   2.464
 8035SOL    HW125004   4.710   0.962   2.524
 8035SOL    HW225005   4.593   0.855   2.486
 8036SOL     OW25006   6.696   2.760   3.495
 8036SOL    HW125007   6.626   2.792   3.559
 8036SOL    HW225008   6.690   2.813   3.410
 8037SOL     OW25009   1.221   3.168   0.079
 8037SOL    HW125010   1.238   3.155   7.000
 8037SOL    HW225011   1.294   3.124   0.131
 8038SOL     OW25012   5.683   6.118   2.272
 8038SOL    HW125013   5.645   6.210   2.269
 8038SOL    HW225014   5.773   6.118   2.229
 8039SOL     OW25015   0.546   2.499   5.173
 8039SOL    HW125016   0.451   2.525   5.157
 8039SOL    HW225017   0.583   2.551   5.250
 8040SOL     OW25018   2.072   5.866   6.610
 8040SOL    HW125019   2.145   5.844   6.545
 8040SOL    HW225020   2.112   5.895   6.697
 8041SOL     OW25021   3.274   1.528   2.762
 8041SOL    HW125022   3.222   1.458   2.811
 8041SOL    HW225023   3.286   1.500   2.667
 8042SOL     OW25024   4.241   4.239   5.647
 8042SOL    HW125025   4.258   4.141   5.642
 8042SOL    HW225026   4.295   4.279   5.721
 8043SOL     OW25027   3.998   5.275   0.750
 8043SOL    HW125028   3.965   5.302   0.840
 8043SOL    HW225029   3.964   5.183   0.728
 8044SOL     OW25030   3.906   3.308   1.047
 8044SOL    HW125031   3.911   3.393   1.100
 8044SOL    HW225032   3.815   3.268   1.056
 8045SOL     OW25033   6.986   1.566   2.631
 8045SOL    HW125034   0.038   1.600   2.569
 8045SOL    HW225035   0.010   1.513   2.705
 8046SOL     OW25036   0.498   5.156   1.875
 8046SOL    HW125037   0.420   5.202   1.832
 8046SOL    HW225038   0.465   5.093   1.945
 8047SOL     OW25039   3.825   6.616   6.536
 8047SOL    HW125040   3.797   6.523   6.561
 8047SOL    HW225041   3.923   6.625   6.548
 8048SOL     OW25042   3.619   2.996   6.905
 8048SOL    HW125043   3.520   2.992   6.891
 8048SOL    HW225044   3.643   3.082   6.950
 8049SOL     OW25045   1.416   6.394   0.088
 8049SOL    HW125046   1.424   6.456   0.010
 8049SOL    HW225047   1.427   6.447   0.173
 8050SOL     OW25048   1.759   4.030   4.544
 8050SOL    HW125049   1.682   4.068   4.595
 8050SOL    HW225050   1.726   3.957   4.484
 8051SOL     OW25051   4.693   5.719   4.374
 8051SOL    HW125052   4.633   5.741   4.450
 8051SOL    HW225053   4.638   5.698   4.293
 8052SOL     OW25054   2.464   2.037   2.159
 8052SOL    HW125055   2.520   1.958   2.182
 8052SOL    HW225056   2.432   2.029   2.065
 8053SOL     OW25057   2.870   2.970   5.455
 8053SOL    HW125058   2.913   2.982   5.544
 8053SOL    HW225059   2.804   3.043   5.439
 8054SOL     OW25060   6.089   3.983   5.225
 8054SOL    HW125061   6.118   4.006   5.133
 8054SOL    HW225062   6.099   4.063   5.285
 8055SOL     OW25063   0.161   0.877   5.807
 8055SOL    HW125064   0.196   0.783   5.811
 8055SOL    HW225065   0.183   0.917   5.718
 8056SOL     OW25066   2.938   6.724   3.187
 8056SOL    HW125067   3.013   6.663   3.163
 8056SOL    HW225068   2.898   6.696   3.274
 8057SOL     OW25069   2.748   1.969   2.191
 8057SOL    HW125070   2.766   1.956   2.093
 8057SOL    HW225071   2.773   1.887   2.241
 8058SOL     OW25072   2.787   6.723   2.856
 8058SOL    HW125073   2.763   6.780   2.935
 8058SOL    HW225074   2.747   6.763   2.773
 8059SOL     OW25075   3.404   1.100   5.217
 8059SOL    HW125076   3.309   1.074   5.197
 8059SOL    HW225077   3.420   1.093   5.316
 8060SOL     OW25078   6.885   0.938   5.836
 8060SOL    HW125079   6.876   0.992   5.920
 8060SOL    HW225080   6.981   0.913   5.822
 8061SOL     OW25081   0.220   0.897   2.865
 8061SOL    HW125082   0.234   0.839   2.784
 8061SOL    HW225083   0.161   0.974   2.841
 8062SOL     OW25084   3.997   5.415   4.964
 8062SOL    HW125085   3.963   5.439   5.055
 8062SOL    HW225086   4.082   5.466   4.945
 8063SOL     OW25087   3.050   0.978   2.684
 8063SOL    HW125088   3.129   1.021   2.640
 8063SOL    HW225089   3.063   0.978   2.783
 8064SOL     OW25090   6.826   3.021   0.104
 8064SOL    HW125091   6.834   3.118   0.128
 8064SOL    HW225092   6.745   2.982   0.147
 8065SOL     OW25093   3.809   7.010   4.568
 8065SOL    HW125094   3.895   0.023   4.609
 8065SOL    HW225095   3.796   6.913   4.588
 8066SOL     OW25096   6.512   0.521   4.332
 8066SOL    HW125097   6.422   0.482   4.352
 8066SOL    HW225098   6.500   0.607   4.282
 8067SOL     OW25099   5.401   2.945   3.956
 8067SOL    HW125100   5.404   3.017   3.887
 8067SOL    HW225101   5.335   2.970   4.027
 8068SOL     OW25102   0.717   4.841   0.817
 8068SOL    HW125103   0.796   4.788   0.848
 8068SOL    HW225104   0.633   4.789   0.836
 8069SOL     OW25105   2.684   4.963   1.693
 8069SOL    HW125106   2.614   4.964   1.765
 8069SOL    HW225107   2.714   4.869   1.677
 8070SOL     OW25108   3.962   3.859   0.738
 8070SOL    HW125109   3.896   3.784   0.744
 8070SOL    HW225110   4.025   3.843   0.662
 8071SOL     OW25111   3.981   6.856   5.081
 8071SOL    HW125112   3.944   6.799   5.154
 8071SOL    HW225113   4.075   6.827   5.060
 8072SOL     OW25114   3.421   2.474   0.759
 8072SOL    HW125115   3.349   2.492   0.826
 8072SOL    HW225116   3.395   2.396   0.703
 8073SOL     OW25117   2.784   0.031   5.651
 8073SOL    HW125118   2.788   0.131   5.645
 8073SOL    HW225119   2.876   7.013   5.663
 8074SOL     OW25120   2.047   1.116   1.175
 8074SOL    HW125121   2.059   1.039   1.238
 8074SOL    HW225122   1.994   1.188   1.219
 8075SOL     OW25123   0.403   6.724   0.856
 8075SOL    HW125124   0.368   6.814   0.832
 8075SOL    HW225125   0.429   6.675   0.773
 8076SOL     OW25126   0.539   6.804   6.272
 8076SOL    HW125127   0.509   6.745   6.197
 8076SOL    HW225128   0.536   6.753   6.358
 8077SOL     OW25129   3.995   6.007   2.345
 8077SOL    HW125130   3.934   6.000   2.424
 8077SOL    HW225131   3.951   6.061   2.274
 8078SOL     OW25132   0.748   1.801   1.034
 8078SOL    HW125133   0.741   1.806   0.934
 8078SOL    HW225134   0.679   1.862   1.074
 8079SOL     OW25135   6.754   1.677   3.897
 8079SOL    HW125136   6.808   1.615   3.840
 8079SOL    HW225137   6.663   1.688   3.858
 8080SOL     OW25138   1.627   2.837   1.992
 8080SOL    HW125139   1.587   2.749   2.017
 8080SOL    HW225140   1.725   2.836   2.010
 8081SOL     OW25141   6.146   5.013   5.649
 8081SOL    HW125142   6.221   4.998   5.584
 8081SOL    HW225143   6.085   4.935   5.647
 8082SOL     OW25144   3.609   0.767   2.409
 8082SOL    HW125145   3.526   0.781   2.464
 8082SOL    HW225146   3.596   0.687   2.350
 8083SOL     OW25147   5.393   2.921   4.300
 8083SOL    HW125148   5.406   2.822   4.293
 8083SOL    HW225149   5.482   2.967   4.296
 8084SOL     OW25150   2.955   1.017   5.507
 8084SOL    HW125151   2.864   1.047   5.478
 8084SOL    HW225152   2.976   0.929   5.464
 8085SOL     OW25153   6.688   6.191   3.067
 8085SOL    HW125154   6.694   6.229   3.159
 8085SOL    HW225155   6.745   6.244   3.004
 8086SOL     OW25156   6.969   0.996   1.303
 8086SOL    HW125157   6.958   1.093   1.282
 8086SOL    HW225158   0.032   0.961   1.257
 8087SOL     OW25159   1.792   0.386   6.211
 8087SOL    HW125160   1.892   0.381   6.211
 8087SOL    HW225161   1.761   0.428   6.297
 8088SOL     OW25162   5.787   0.107   6.555
 8088SOL    HW125163   5.866   0.158   6.590
 8088SOL    HW225164   5.751   0.048   6.627
 8089SOL     OW25165   5.975   2.848   6.621
 8089SOL    HW125166   5.903   2.918   6.618
 8089SOL    HW225167   5.958   2.781   6.548
 8090SOL     OW25168   4.249   1.230   5.794
 8090SOL    HW125169   4.308   1.302   5.830
 8090SOL    HW225170   4.157   1.267   5.779
 8091SOL     OW25171   1.265   4.418   4.348
 8091SOL    HW125172   1.356   4.381   4.370
 8091SOL    HW225173   1.274   4.513   4.318
 8092SOL     OW25174   5.102   2.183   5.671
 8092SOL    HW125175   5.171   2.240   5.626
 8092SOL    HW225176   5.073   2.226   5.756
 8093SOL     OW25177   3.433   5.447   3.519
 8093SOL    HW125178   3.503   5.384   3.554
 8093SOL    HW225179   3.428   5.526   3.579
 8094SOL     OW25180   0.710   3.335   5.683
 8094SOL    HW125181   0.772   3.286   5.744
 8094SOL    HW225182   0.725   3.305   5.588
 8095SOL     OW25183   0.408   5.275   4.768
 8095SOL    HW125184   0.354   5.192   4.752
 8095SOL    HW225185   0.353   5.355   4.744
 8096SOL     OW25186   1.645   0.471   2.868
 8096SOL    HW125187   1.673   0.385   2.825
 8096SOL    HW225188   1.670   0.469   2.965
 8097SOL     OW25189   4.090   0.284   4.406
 8097SOL    HW125190   4.001   0.240   4.393
 8097SOL    HW225191   4.091   0.332   4.494
 8098SOL     OW25192   1.935   6.566   3.609
 8098SOL    HW125193   1.965   6.652   3.567
 8098SOL    HW225194   1.841   6.546   3.581
 8099SOL     OW25195   4.461   6.281   4.414
 8099SOL    HW125196   4.395   6.265   4.341
 8099SOL    HW225197   4.523   6.203   4.421
 8100SOL     OW25198   6.649   1.735   6.806
 8100SOL    HW125199   6.606   1.768   6.722
 8100SOL    HW225200   6.626   1.639   6.820
 8101SOL     OW25201   1.714   5.244   0.462
 8101SOL    HW125202   1.798   5.266   0.512
 8101SOL    HW225203   1.734   5.175   0.393
 8102SOL     OW25204   0.840   3.727   3.738
 8102SOL    HW125205   0.902   3.801   3.764
 8102SOL    HW225206   0.749   3.765   3.718
 8103SOL     OW25207   3.578   0.527   2.262
 8103SOL    HW125208   3.602   0.479   2.346
 8103SOL    HW225209   3.655   0.524   2.198
 8104SOL     OW25210   1.814   0.014   5.204
 8104SOL    HW125211   1.868   0.098   5.212
 8104SOL    HW225212   1.730   0.034   5.153
 8105SOL     OW25213   0.075   2.831   2.720
 8105SOL    HW125214   7.019   2.879   2.675
 8105SOL    HW225215   0.060   2.732   2.712
 8106SOL     OW25216   2.548   6.431   3.368
 8106SOL    HW125217   2.560   6.523   3.330
 8106SOL    HW225218   2.466   6.389   3.329
 8107SOL     OW25219   1.213   6.127   4.272
 8107SOL    HW125220   1.180   6.086   4.357
 8107SOL    HW225221   1.270   6.062   4.223
 8108SOL     OW25222   6.295   1.668   0.193
 8108SOL    HW125223   6.308   1.746   0.131
 8108SOL    HW225224   6.375   1.660   0.252
 8109SOL     OW25225   0.354   3.757   6.832
 8109SOL    HW125226   0.305   3.761   6.919
 8109SOL    HW225227   0.345   3.845   6.785
 8110SOL     OW25228   4.172   4.681   2.086
 8110SOL    HW125229   4.154   4.593   2.131
 8110SOL    HW225230   4.169   4.668   1.987
 8111SOL     OW25231   4.818   1.058   4.270
 8111SOL    HW125232   4.863   1.109   4.197
 8111SOL    HW225233   4.878   0.983   4.300
 8112SOL     OW25234   1.547   2.900   4.163
 8112SOL    HW125235   1.620   2.840   4.128
 8112SOL    HW225236   1.476   2.910   4.093
 8113SOL     OW25237   6.430   3.705   0.648
 8113SOL    HW125238   6.454   3.652   0.730
 8113SOL    HW225239   6.344   3.753   0.663
 8114SOL     OW25240   1.487   3.518   2.214
 8114SOL    HW125241   1.515   3.525   2.118
 8114SOL    HW225242   1.567   3.500   2.271
 8115SOL     OW25243   2.897   6.572   5.851
 8115SOL    HW125244   2.913   6.670   5.861
 8115SOL    HW225245   2.943   6.539   5.769
 8116SOL     OW25246   4.172   4.935   0.284
 8116SOL    HW125247   4.234   4.866   0.320
 8116SOL    HW225248   4.077   4.905   0.296
 8117SOL     OW25249   2.253   0.084   3.376
 8117SOL    HW125250   2.316   0.053   3.306
 8117SOL    HW225251   2.220   0.176   3.353
 8118SOL     OW25252   5.668   4.373   6.461
 8118SOL    HW125253   5.609   4.304   6.419
 8118SOL    HW225254   5.614   4.426   6.526
 8119SOL     OW25255   5.201   6.514   6.117
 8119SOL    HW125256   5.116   6.470   6.088
 8119SOL    HW225257   5.252   6.544   6.036
 8120SOL     OW25258   2.952   4.852   0.733
 8120SOL    HW125259   2.884   4.884   0.667
 8120SOL    HW225260   3.043   4.858   0.692
 8121SOL     OW25261   0.660   4.823   1.510
 8121SOL    HW125262   0.736   4.805   1.573
 8121SOL    HW225263   0.694   4.827   1.416
 8122SOL     OW25264   0.495   4.594   3.184
 8122SOL    HW125265   0.550   4.517   3.152
 8122SOL    HW225266   0.410   4.560   3.224
 8123SOL     OW25267   6.788   1.761   0.053
 8123SOL    HW125268   6.737   1.764   6.985
 8123SOL    HW225269   6.795   1.853   0.090
 8124SOL     OW25270   5.182   6.357   3.438
 8124SOL    HW125271   5.090   6.319   3.444
 8124SOL    HW225272   5.249   6.287   3.461
 8125SOL     OW25273   1.375   1.065   2.665
 8125SOL    HW125274   1.448   1.119   2.707
 8125SOL    HW225275   1.344   1.111   2.582
 8126SOL     OW25276   5.020   4.537   3.153
 8126SOL    HW125277   4.940   4.596   3.139
 8126SOL    HW225278   5.085   4.584   3.213
 8127SOL     OW25279   2.793   3.187   6.305
 8127SOL    HW125280   2.885   3.222   6.316
 8127SOL    HW225281   2.783   3.103   6.358
 8128SOL     OW25282   3.193   2.115   1.955
 8128SOL    HW125283   3.248   2.096   2.037
 8128SOL    HW225284   3.117   2.175   1.979
 8129SOL     OW25285   3.621   1.668   6.528
 8129SOL    HW125286   3.551   1.623   6.585
 8129SOL    HW225287   3.587   1.675   6.434
 8130SOL     OW25288   1.078   6.141   6.610
 8130SOL    HW125289   1.126   6.158   6.696
 8130SOL    HW225290   1.010   6.213   6.595
 8131SOL     OW25291   2.986   1.692   1.936
 8131SOL    HW125292   2.936   1.658   1.857
 8131SOL    HW225293   3.037   1.774   1.910
 8132SOL     OW25294   5.514   6.228   4.548
 8132SOL    HW125295   5.580   6.153   4.552
 8132SOL    HW225296   5.427   6.198   4.587
 8133SOL     OW25297   3.581   5.500   2.485
 8133SOL    HW125298   3.636   5.562   2.429
 8133SOL    HW225299   3.529   5.438   2.427
 8134SOL     OW25300   6.999   1.505   6.350
 8134SOL    HW125301   7.017   1.595   6.390
 8134SOL    HW225302   0.008   1.505   6.254
 8135SOL     OW25303   1.657   1.048   1.830
 8135SOL    HW125304   1.582   1.006   1.778
 8135SOL    HW225305   1.743   1.004   1.804
 8136SOL     OW25306   5.438   5.481   2.326
 8136SOL    HW125307   5.405   5.571   2.355
 8136SOL    HW225308   5.363   5.430   2.283
 8137SOL     OW25309   3.030   1.361   5.670
 8137SOL    HW125310   2.946   1.382   5.620
 8137SOL    HW225311   3.090   1.305   5.612
 8138SOL     OW25312   5.606   0.965   1.734
 8138SOL    HW125313   5.652   1.050   1.757
 8138SOL    HW225314   5.632   0.936   1.642
 8139SOL     OW25315   0.190   1.051   1.992
 8139SOL    HW125316   0.152   1.143   2.003
 8139SOL    HW225317   0.239   1.045   1.905
 8140SOL     OW25318   5.269   1.176   5.003
 8140SOL    HW125319   5.321   1.161   5.088
 8140SOL    HW225320   5.218   1.093   4.981
 8141SOL     OW25321   4.744   5.155   5.885
 8141SOL    HW125322   4.753   5.069   5.835
 8141SOL    HW225323   4.678   5.214   5.838
 8142SOL     OW25324   6.381   5.186   6.910
 8142SOL    HW125325   6.360   5.097   6.868
 8142SOL    HW225326   6.350   5.185   7.005
 8143SOL     OW25327   6.313   5.157   0.393
 8143SOL    HW125328   6.410   5.136   0.385
 8143SOL    HW225329   6.273   5.166   0.302
 8144SOL     OW25330   5.624   6.986   6.716
 8144SOL    HW125331   5.613   6.985   6.816
 8144SOL    HW225332   5.558   6.924   6.675
 8145SOL     OW25333   5.711   5.638   2.163
 8145SOL    HW125334   5.722   5.564   2.098
 8145SOL    HW225335   5.615   5.667   2.166
 8146SOL     OW25336   3.691   1.182   4.793
 8146SOL    HW125337   3.629   1.103   4.795
 8146SOL    HW225338   3.647   1.257   4.742
 8147SOL     OW25339   5.928   2.324   3.047
 8147SOL    HW125340   5.994   2.258   3.081
 8147SOL    HW225341   5.973   2.412   3.033
 8148SOL     OW25342   5.606   3.822   2.465
 8148SOL    HW125343   5.596   3.850   2.560
 8148SOL    HW225344   5.639   3.899   2.410
 8149SOL     OW25345   2.738   5.601   2.065
 8149SOL    HW125346   2.717   5.509   2.030
 8149SOL    HW225347   2.655   5.640   2.106
 8150SOL     OW25348   6.929   5.042   0.490
 8150SOL    HW125349   7.015   4.993   0.475
 8150SOL    HW225350   6.878   5.047   0.404
 8151SOL     OW25351   0.235   2.494   2.975
 8151SOL    HW125352   0.301   2.565   2.950
 8151SOL    HW225353   0.266   2.447   3.058
 8152SOL     OW25354   1.133   1.932   2.839
 8152SOL    HW125355   1.134   2.021   2.884
 8152SOL    HW225356   1.202   1.930   2.766
 8153SOL     OW25357   3.438   0.168   3.249
 8153SOL    HW125358   3.479   0.234   3.312
 8153SOL    HW225359   3.338   0.176   3.253
 8154SOL     OW25360   1.936   5.803   3.945
 8154SOL    HW125361   1.924   5.719   3.997
 8154SOL    HW225362   1.949   5.782   3.848
 8155SOL     OW25363   2.847   3.398   1.720
 8155SOL    HW125364   2.871   3.495   1.727
 8155SOL    HW225365   2.749   3.387   1.739
 8156SOL     OW25366   5.797   0.360   5.729
 8156SOL    HW125367   5.783   0.273   5.777
 8156SOL    HW225368   5.814   0.432   5.795
 8157SOL     OW25369   5.713   5.763   5.939
 8157SOL    HW125370   5.646   5.766   5.865
 8157SOL    HW225371   5.802   5.791   5.904
 8158SOL     OW25372   0.829   5.833   0.423
 8158SOL    HW125373   0.769   5.914   0.416
 8158SOL    HW225374   0.923   5.860   0.406
 8159SOL     OW25375   2.213   5.479   1.990
 8159SOL    HW125376   2.228   5.380   1.986
 8159SOL    HW225377   2.293   5.527   1.953
 8160SOL     OW25378   4.529   1.312   1.415
 8160SOL    HW125379   4.516   1.411   1.425
 8160SOL    HW225380   4.541   1.271   1.506
 8161SOL     OW25381   5.178   0.487   1.297
 8161SOL    HW125382   5.210   0.567   1.246
 8161SOL    HW225383   5.161   0.411   1.234
 8162SOL     OW25384   6.354   6.338   6.364
 8162SOL    HW125385   6.423   6.326   6.293
 8162SOL    HW225386   6.398   6.375   6.446
 8163SOL     OW25387   2.590   4.434   5.676
 8163SOL    HW125388   2.518   4.463   5.612
 8163SOL    HW225389   2.553   4.365   5.738
 8164SOL     OW25390   5.785   3.194   0.875
 8164SOL    HW125391   5.804   3.101   0.844
 8164SOL    HW225392   5.822   3.207   0.967
 8165SOL     OW25393   1.551   4.538   0.722
 8165SOL    HW125394   1.620   4.473   0.689
 8165SOL    HW225395   1.545   4.532   0.821
 8166SOL     OW25396   2.289   1.236   1.928
 8166SOL    HW125397   2.200   1.275   1.902
 8166SOL    HW225398   2.360   1.281   1.874
 8167SOL     OW25399   5.540   1.629   4.273
 8167SOL    HW125400   5.462   1.576   4.308
 8167SOL    HW225401   5.584   1.578   4.199
 8168SOL     OW25402   3.098   2.149   2.676
 8168SOL    HW125403   3.028   2.167   2.745
 8168SOL    HW225404   3.173   2.098   2.716
 8169SOL     OW25405   4.578   3.061   0.906
 8169SOL    HW125406   4.479   3.060   0.917
 8169SOL    HW225407   4.620   3.103   0.987
 8170SOL     OW25408   1.804   5.778   3.250
 8170SOL    HW125409   1.722   5.759   3.196
 8170SOL    HW225410   1.793   5.866   3.296
 8171SOL     OW25411   0.557   2.133   6.596
 8171SOL    HW125412   0.567   2.034   6.592
 8171SOL    HW225413   0.467   2.156   6.633
 8172SOL     OW25414   0.093   0.867   1.003
 8172SOL    HW125415   0.069   0.780   1.046
 8172SOL    HW225416   0.061   0.867   0.908
 8173SOL     OW25417   3.205   2.038   7.002
 8173SOL    HW125418   3.241   2.052   6.910
 8173SOL    HW225419   3.115   1.996   6.997
 8174SOL     OW25420   5.382   2.074   0.992
 8174SOL    HW125421   5.435   1.991   1.011
 8174SOL    HW225422   5.335   2.104   1.075
 8175SOL     OW25423   0.014   2.453   6.894
 8175SOL    HW125424   0.097   2.501   6.864
 8175SOL    HW225425   6.973   2.517   6.942
 8176SOL     OW25426   2.929   5.789   2.073
 8176SOL    HW125427   2.851   5.727   2.078
 8176SOL    HW225428   2.972   5.797   2.163
 8177SOL     OW25429   1.153   6.228   3.507
 8177SOL    HW125430   1.117   6.188   3.591
 8177SOL    HW225431   1.205   6.158   3.457
 8178SOL     OW25432   1.521   0.214   5.899
 8178SOL    HW125433   1.571   0.127   5.902
 8178SOL    HW225434   1.425   0.198   5.917
 8179SOL     OW25435   3.615   3.174   0.388
 8179SOL    HW125436   3.684   3.150   0.319
 8179SOL    HW225437   3.524   3.159   0.351
 8180SOL     OW25438   6.566   6.900   3.998
 8180SOL    HW125439   6.545   6.855   3.911
 8180SOL    HW225440   6.643   6.852   4.042
 8181SOL     OW25441   2.253   2.046   3.021
 8181SOL    HW125442   2.180   2.111   3.043
 8181SOL    HW225443   2.296   2.072   2.935
 8182SOL     OW25444   3.457   2.014   5.901
 8182SOL    HW125445   3.501   2.088   5.952
 8182SOL    HW225446   3.377   2.050   5.852
 8183SOL     OW25447   0.837   3.242   5.451
 8183SOL    HW125448   0.865   3.178   5.380
 8183SOL    HW225449   0.896   3.322   5.450
 8184SOL     OW25450   6.295   1.041   5.821
 8184SOL    HW125451   6.283   1.118   5.758
 8184SOL    HW225452   6.379   1.055   5.874
 8185SOL     OW25453   2.833   0.396   0.615
 8185SOL    HW125454   2.929   0.396   0.641
 8185SOL    HW225455   2.781   0.340   0.679
 8186SOL     OW25456   3.211   6.216   5.649
 8186SOL    HW125457   3.184   6.139   5.592
 8186SOL    HW225458   3.263   6.183   5.728
 8187SOL     OW25459   1.138   1.687   5.276
 8187SOL    HW125460   1.049   1.683   5.323
 8187SOL    HW225461   1.196   1.755   5.321
 8188SOL     OW25462   5.101   2.036   2.607
 8188SOL    HW125463   5.018   2.091   2.618
 8188SOL    HW225464   5.149   2.031   2.695
 8189SOL     OW25465   5.017   4.248   2.573
 8189SOL    HW125466   5.027   4.148   2.575
 8189SOL    HW225467   4.923   4.271   2.549
 8190SOL     OW25468   5.384   4.192   4.108
 8190SOL    HW125469   5.458   4.168   4.170
 8190SOL    HW225470   5.332   4.268   4.145
 8191SOL     OW25471   1.630   5.456   3.536
 8191SOL    HW125472   1.724   5.478   3.509
 8191SOL    HW225473   1.630   5.370   3.587
 8192SOL     OW25474   2.605   5.394   0.925
 8192SOL    HW125475   2.696   5.407   0.965
 8192SOL    HW225476   2.613   5.352   0.835
 8193SOL     OW25477   5.899   5.973   4.826
 8193SOL    HW125478   5.966   5.958   4.754
 8193SOL    HW225479   5.913   6.063   4.866
 8194SOL     OW25480   6.273   2.141   0.041
 8194SOL    HW125481   6.205   2.161   0.110
 8194SOL    HW225482   6.354   2.198   0.055
 8195SOL     OW25483   0.316   0.535   0.995
 8195SOL    HW125484   0.325   0.549   1.093
 8195SOL    HW225485   0.360   0.611   0.946
 8196SOL     OW25486   4.070   6.515   5.685
 8196SOL    HW125487   3.972   6.531   5.696
 8196SOL    HW225488   4.098   6.542   5.593
 8197SOL     OW25489   6.401   1.193   6.351
 8197SOL    HW125490   6.438   1.268   6.296
 8197SOL    HW225491   6.466   1.169   6.423
 8198SOL     OW25492   2.596   6.757   2.619
 8198SOL    HW125493   2.497   6.747   2.614
 8198SOL    HW225494   2.625   6.834   2.563
 8199SOL     OW25495   0.579   3.613   0.401
 8199SOL    HW125496   0.491   3.659   0.386
 8199SOL    HW225497   0.577   3.522   0.360
 8200SOL     OW25498   4.569   4.681   1.525
 8200SOL    HW125499   4.584   4.611   1.455
 8200SOL    HW225500   4.651   4.688   1.583
 8201SOL     OW25501   5.123   0.901   4.632
 8201SOL    HW125502   5.089   0.929   4.543
 8201SOL    HW225503   5.210   0.852   4.621
 8202SOL     OW25504   1.832   5.198   3.816
 8202SOL    HW125505   1.736   5.189   3.793
 8202SOL    HW225506   1.886   5.213   3.733
 8203SOL     OW25507   4.688   3.201   1.159
 8203SOL    HW125508   4.777   3.221   1.118
 8203SOL    HW225509   4.640   3.286   1.178
 8204SOL     OW25510   3.402   6.521   1.981
 8204SOL    HW125511   3.363   6.557   2.066
 8204SOL    HW225512   3.470   6.451   2.003
 8205SOL     OW25513   5.469   5.341   1.739
 8205SOL    HW125514   5.390   5.297   1.780
 8205SOL    HW225515   5.547   5.337   1.802
 8206SOL     OW25516   3.280   2.606   6.142
 8206SOL    HW125517   3.325   2.544   6.206
 8206SOL    HW225518   3.192   2.635   6.180
 8207SOL     OW25519   3.009   4.893   5.441
 8207SOL    HW125520   3.051   4.802   5.436
 8207SOL    HW225521   3.040   4.948   5.364
 8208SOL     OW25522   2.185   5.902   1.761
 8208SOL    HW125523   2.245   5.947   1.694
 8208SOL    HW225524   2.200   5.803   1.758
 8209SOL     OW25525   1.656   1.261   5.586
 8209SOL    HW125526   1.678   1.227   5.677
 8209SOL    HW225527   1.577   1.211   5.550
 8210SOL     OW25528   2.305   0.831   0.511
 8210SOL    HW125529   2.391   0.828   0.461
 8210SOL    HW225530   2.228   0.827   0.447
 8211SOL     OW25531   3.568   4.037   4.454
 8211SOL    HW125532   3.563   4.112   4.520
 8211SOL    HW225533   3.510   3.962   4.484
 8212SOL     OW25534   2.225   6.996   0.829
 8212SOL    HW125535   2.154   0.032   0.874
 8212SOL    HW225536   2.185   6.944   0.754
 8213SOL     OW25537   4.280   5.061   2.823
 8213SOL    HW125538   4.372   5.052   2.861
 8213SOL    HW225539   4.282   5.041   2.725
 8214SOL     OW25540   2.546   6.088   3.911
 8214SOL    HW125541   2.585   6.013   3.965
 8214SOL    HW225542   2.529   6.056   3.817
 8215SOL     OW25543   4.127   6.578   6.841
 8215SOL    HW125544   4.205   6.633   6.811
 8215SOL    HW225545   4.073   6.630   6.907
 8216SOL     OW25546   4.870   6.244   2.983
 8216SOL    HW125547   4.966   6.264   2.964
 8216SOL    HW225548   4.812   6.306   2.930
 8217SOL     OW25549   2.307   4.257   3.081
 8217SOL    HW125550   2.372   4.332   3.072
 8217SOL    HW225551   2.288   4.218   2.991
 8218SOL     OW25552   1.940   0.330   4.727
 8218SOL    HW125553   2.027   0.304   4.685
 8218SOL    HW225554   1.902   0.409   4.680
 8219SOL     OW25555   3.361   3.990   2.046
 8219SOL    HW125556   3.278   4.006   1.993
 8219SOL    HW225557   3.344   4.010   2.142
 8220SOL     OW25558   3.297   3.983   5.227
 8220SOL    HW125559   3.218   4.038   5.256
 8220SOL    HW225560   3.368   4.044   5.192
 8221SOL     OW25561   6.165   3.698   3.191
 8221SOL    HW125562   6.075   3.736   3.173
 8221SOL    HW225563   6.181   3.620   3.131
 8222SOL     OW25564   6.553   2.703   1.321
 8222SOL    HW125565   6.598   2.682   1.408
 8222SOL    HW225566   6.454   2.693   1.332
 8223SOL     OW25567   0.162   5.899   5.417
 8223SOL    HW125568   0.102   5.916   5.496
 8223SOL    HW225569   0.210   5.812   5.431
 8224SOL     OW25570   4.663   2.134   0.687
 8224SOL    HW125571   4.634   2.040   0.667
 8224SOL    HW225572   4.757   2.147   0.654
 8225SOL     OW25573   4.203   0.823   6.986
 8225SOL    HW125574   4.129   0.821   0.034
 8225SOL    HW225575   4.197   0.742   6.927
 8226SOL     OW25576   3.423   0.663   6.909
 8226SOL    HW125577   3.452   0.645   6.815
 8226SOL    HW225578   3.502   0.664   6.969
 8227SOL     OW25579   5.292   1.540   3.191
 8227SOL    HW125580   5.193   1.534   3.193
 8227SOL    HW225581   5.331   1.449   3.175
 8228SOL     OW25582   0.844   1.162   5.315
 8228SOL    HW125583   0.886   1.213   5.390
 8228SOL    HW225584   0.794   1.083   5.352
 8229SOL     OW25585   3.944   5.037   1.434
 8229SOL    HW125586   3.965   4.975   1.358
 8229SOL    HW225587   4.029   5.065   1.479
 8230SOL     OW25588   4.292   0.467   5.849
 8230SOL    HW125589   4.390   0.449   5.848
 8230SOL    HW225590   4.259   0.475   5.754
 8231SOL     OW25591   3.324   1.026   1.685
 8231SOL    HW125592   3.371   1.002   1.769
 8231SOL    HW225593   3.239   1.075   1.707
 8232SOL     OW25594   4.489   1.002   2.073
 8232SOL    HW125595   4.389   0.999   2.062
 8232SOL    HW225596   4.513   1.073   2.139
 8233SOL     OW25597   0.640   1.017   5.449
 8233SOL    HW125598   0.603   1.079   5.519
 8233SOL    HW225599   0.609   0.924   5.467
 8234SOL     OW25600   2.618   3.707   0.082
 8234SOL    HW125601   2.674   3.740   0.158
 8234SOL    HW225602   2.677   3.691   0.002
 8235SOL     OW25603   0.026   4.932   6.738
 8235SOL    HW125604   0.077   4.849   6.719
 8235SOL    HW225605   0.086   5.012   6.731
 8236SOL     OW25606   0.608   6.313   5.891
 8236SOL    HW125607   0.592   6.216   5.912
 8236SOL    HW225608   0.528   6.367   5.919
 8237SOL     OW25609   4.689   5.518   6.257
 8237SOL    HW125610   4.618   5.516   6.186
 8237SOL    HW225611   4.769   5.467   6.224
 8238SOL     OW25612   2.601   5.239   0.686
 8238SOL    HW125613   2.689   5.282   0.665
 8238SOL    HW225614   2.528   5.290   0.642
 8239SOL     OW25615   1.114   1.422   4.932
 8239SOL    HW125616   1.115   1.512   4.977
 8239SOL    HW225617   1.055   1.360   4.984
 8240SOL     OW25618   4.021   3.156   4.429
 8240SOL    HW125619   4.038   3.214   4.509
 8240SOL    HW225620   3.937   3.103   4.444
 8241SOL     OW25621   0.838   3.391   6.686
 8241SOL    HW125622   0.937   3.380   6.686
 8241SOL    HW225623   0.801   3.359   6.772
 8242SOL     OW25624   1.283   3.701   4.757
 8242SOL    HW125625   1.201   3.738   4.800
 8242SOL    HW225626   1.273   3.602   4.747
 8243SOL     OW25627   0.683   4.509   5.583
 8243SOL    HW125628   0.725   4.438   5.639
 8243SOL    HW225629   0.585   4.490   5.573
 8244SOL     OW25630   0.758   0.328   3.588
 8244SOL    HW125631   0.701   0.271   3.648
 8244SOL    HW225632   0.840   0.277   3.561
 8245SOL     OW25633   5.053   1.175   4.091
 8245SOL    HW125634   5.132   1.131   4.132
 8245SOL    HW225635   5.078   1.210   4.001
 8246SOL     OW25636   0.988   4.030   6.419
 8246SOL    HW125637   0.981   3.938   6.457
 8246SOL    HW225638   0.973   4.098   6.492
 8247SOL     OW25639   3.003   4.815   3.410
 8247SOL    HW125640   2.990   4.826   3.509
 8247SOL    HW225641   3.017   4.719   3.389
 8248SOL     OW25642   0.500   5.677   2.771
 8248SOL    HW125643   0.567   5.632   2.831
 8248SOL    HW225644   0.451   5.608   2.719
 8249SOL     OW25645   1.865   1.696   5.911
 8249SOL    HW125646   1.853   1.677   5.814
 8249SOL    HW225647   1.867   1.795   5.926
 8250SOL     OW25648   2.186   2.086   6.739
 8250SOL    HW125649   2.269   2.044   6.776
 8250SOL    HW225650   2.114   2.017   6.733
 8251SOL     OW25651   0.173   2.826   5.106
 8251SOL    HW125652   0.139   2.904   5.158
 8251SOL    HW225653   0.212   2.858   5.019
 8252SOL     OW25654   2.288   2.344   6.366
 8252SOL    HW125655   2.251   2.418   6.421
 8252SOL    HW225656   2.287   2.370   6.269
 8253SOL     OW25657   3.604   5.448   6.938
 8253SOL    HW125658   3.596   5.422   6.842
 8253SOL    HW225659   3.701   5.461   6.961
 8254SOL     OW25660   5.610   5.259   0.734
 8254SOL    HW125661   5.635   5.321   0.808
 8254SOL    HW225662   5.546   5.306   0.672
 8255SOL     OW25663   0.364   0.175   5.912
 8255SOL    HW125664   0.432   0.102   5.902
 8255SOL    HW225665   0.395   0.256   5.861
 8256SOL     OW25666   1.330   6.120   2.766
 8256SOL    HW125667   1.287   6.085   2.682
 8256SOL    HW225668   1.304   6.061   2.843
 8257SOL     OW25669   5.029   4.265   4.218
 8257SOL    HW125670   5.111   4.315   4.245
 8257SOL    HW225671   5.053   4.200   4.145
 8258SOL     OW25672   6.175   3.072   1.488
 8258SOL    HW125673   6.215   3.111   1.406
 8258SOL    HW225674   6.142   2.979   1.469
 8259SOL     OW25675   4.564   2.585   4.186
 8259SOL    HW125676   4.641   2.642   4.212
 8259SOL    HW225677   4.497   2.584   4.260
 8260SOL     OW25678   2.380   6.854   0.589
 8260SOL    HW125679   2.349   6.912   0.664
 8260SOL    HW225680   2.359   6.758   0.611
 8261SOL     OW25681   5.406   6.912   3.224
 8261SOL    HW125682   5.449   6.925   3.134
 8261SOL    HW225683   5.473   6.872   3.287
 8262SOL     OW25684   0.345   4.403   0.916
 8262SOL    HW125685   0.362   4.333   0.986
 8262SOL    HW225686   0.413   4.395   0.844
 8263SOL     OW25687   6.909   2.333   0.139
 8263SOL    HW125688   6.988   2.307   0.194
 8263SOL    HW225689   6.926   2.310   0.043
 8264SOL     OW25690   1.754   0.073   2.266
 8264SOL    HW125691   1.783   0.058   2.360
 8264SOL    HW225692   1.664   0.117   2.265
 8265SOL     OW25693   4.739   0.362   0.871
 8265SOL    HW125694   4.646   0.389   0.896
 8265SOL    HW225695   4.799   0.442   0.876
 8266SOL     OW25696   2.624   6.781   3.747
 8266SOL    HW125697   2.635   6.841   3.827
 8266SOL    HW225698   2.643   6.686   3.775
 8267SOL     OW25699   1.095   4.408   2.668
 8267SOL    HW125700   1.127   4.491   2.622
 8267SOL    HW225701   1.027   4.433   2.738
 8268SOL     OW25702   3.350   3.809   6.825
 8268SOL    HW125703   3.283   3.735   6.825
 8268SOL    HW225704   3.303   3.897   6.836
 8269SOL     OW25705   4.176   2.217   2.844
 8269SOL    HW125706   4.250   2.270   2.886
 8269SOL    HW225707   4.196   2.201   2.748
 8270SOL     OW25708   3.880   6.719   5.555
 8270SOL    HW125709   3.853   6.810   5.586
 8270SOL    HW225710   3.838   6.650   5.613
 8271SOL     OW25711   5.088   6.499   4.558
 8271SOL    HW125712   4.996   6.534   4.538
 8271SOL    HW225713   5.085   6.399   4.558
 8272SOL     OW25714   0.780   0.426   1.995
 8272SOL    HW125715   0.785   0.523   1.972
 8272SOL    HW225716   0.790   0.414   2.094
 8273SOL     OW25717   2.744   6.189   6.875
 8273SOL    HW125718   2.717   6.200   6.970
 8273SOL    HW225719   2.838   6.155   6.871
 8274SOL     OW25720   5.071   5.424   0.002
 8274SOL    HW125721   5.037   5.445   6.929
 8274SOL    HW225722   5.164   5.460   0.012
 8275SOL     OW25723   6.511   0.402   4.063
 8275SOL    HW125724   6.489   0.306   4.046
 8275SOL    HW225725   6.483   0.426   4.156
 8276SOL     OW25726   6.656   2.775   6.479
 8276SOL    HW125727   6.630   2.737   6.390
 8276SOL    HW225728   6.750   2.747   6.501
 8277SOL     OW25729   1.190   6.224   5.879
 8277SOL    HW125730   1.157   6.212   5.972
 8277SOL    HW225731   1.145   6.303   5.837
 8278SOL     OW25732   3.505   2.100   6.427
 8278SOL    HW125733   3.482   2.177   6.487
 8278SOL    HW225734   3.462   2.113   6.338
 8279SOL     OW25735   4.435   6.137   6.308
 8279SOL    HW125736   4.387   6.223   6.329
 8279SOL    HW225737   4.503   6.154   6.237
 8280SOL     OW25738   5.053   2.582   0.877
 8280SOL    HW125739   5.003   2.638   0.811
 8280SOL    HW225740   5.111   2.641   0.933
 8281SOL     OW25741   1.720   4.985   0.364
 8281SOL    HW125742   1.714   4.887   0.386
 8281SOL    HW225743   1.680   5.001   0.274
 8282SOL     OW25744   3.007   2.765   1.085
 8282SOL    HW125745   3.074   2.837   1.069
 8282SOL    HW225746   2.969   2.735   0.998
 8283SOL     OW25747   0.204   5.032   3.773
 8283SOL    HW125748   0.162   5.037   3.864
 8283SOL    HW225749   0.207   4.936   3.743
 8284SOL     OW25750   2.432   2.229   2.346
 8284SOL    HW125751   2.431   2.165   2.269
 8284SOL    HW225752   2.396   2.184   2.427
 8285SOL     OW25753   3.302   4.415   5.769
 8285SOL    HW125754   3.242   4.351   5.817
 8285SOL    HW225755   3.248   4.467   5.702
 8286SOL     OW25756   5.057   0.920   4.346
 8286SOL    HW125757   5.150   0.916   4.382
 8286SOL    HW225758   5.054   0.877   4.256
 8287SOL     OW25759   1.198   0.358   3.583
 8287SOL    HW125760   1.247   0.342   3.668
 8287SOL    HW225761   1.262   0.393   3.514
 8288SOL     OW25762   1.789   1.738   2.470
 8288SOL    HW125763   1.766   1.833   2.495
 8288SOL    HW225764   1.810   1.686   2.552
 8289SOL     OW25765   6.355   1.997   5.744
 8289SOL    HW125766   6.300   1.947   5.676
 8289SOL    HW225767   6.450   1.999   5.715
 8290SOL     OW25768   3.769   2.538   1.714
 8290SOL    HW125769   3.746   2.464   1.777
 8290SOL    HW225770   3.745   2.626   1.755
 8291SOL     OW25771   5.879   6.913   6.247
 8291SOL    HW125772   5.812   6.871   6.185
 8291SOL    HW225773   5.963   6.859   6.246
 8292SOL     OW25774   0.529   4.446   5.265
 8292SOL    HW125775   0.563   4.535   5.297
 8292SOL    HW225776   0.601   4.377   5.275
 8293SOL     OW25777   2.574   5.325   2.104
 8293SOL    HW125778   2.586   5.230   2.134
 8293SOL    HW225779   2.573   5.329   2.004
 8294SOL     OW25780   6.677   3.602   6.360
 8294SOL    HW125781   6.602   3.553   6.405
 8294SOL    HW225782   6.699   3.685   6.411
 8295SOL     OW25783   5.323   4.167   2.753
 8295SOL    HW125784   5.234   4.206   2.775
 8295SOL    HW225785   5.315   4.108   2.673
 8296SOL     OW25786   3.395   5.683   0.773
 8296SOL    HW125787   3.299   5.677   0.747
 8296SOL    HW225788   3.445   5.736   0.705
 8297SOL     OW25789   6.664   4.328   2.769
 8297SOL    HW125790   6.590   4.322   2.702
 8297SOL    HW225791   6.692   4.423   2.778
 8298SOL     OW25792   0.351   0.780   0.129
 8298SOL    HW125793   0.307   0.709   0.184
 8298SOL    HW225794   0.451   0.767   0.131
 8299SOL     OW25795   0.449   3.864   1.755
 8299SOL    HW125796   0.474   3.957   1.729
 8299SOL    HW225797   0.531   3.813   1.781
 8300SOL     OW25798   6.049   5.117   3.606
 8300SOL    HW125799   6.058   5.212   3.634
 8300SOL    HW225800   6.133   5.088   3.559
 8301SOL     OW25801   3.618   6.631   0.627
 8301SOL    HW125802   3.663   6.573   0.694
 8301SOL    HW225803   3.687   6.683   0.576
 8302SOL     OW25804   3.664   6.391   4.424
 8302SOL    HW125805   3.625   6.354   4.340
 8302SOL    HW225806   3.714   6.475   4.403
 8303SOL     OW25807   6.232   6.915   2.480
 8303SOL    HW125808   6.172   6.983   2.438
 8303SOL    HW225809   6.251   6.941   2.574
 8304SOL     OW25810   6.058   3.811   3.748
 8304SOL    HW125811   6.076   3.831   3.844
 8304SOL    HW225812   5.962   3.787   3.736
 8305SOL     OW25813   4.616   5.359   4.171
 8305SOL    HW125814   4.623   5.282   4.234
 8305SOL    HW225815   4.706   5.378   4.131
 8306SOL     OW25816   5.990   0.958   2.308
 8306SOL    HW125817   6.089   0.960   2.315
 8306SOL    HW225818   5.951   1.035   2.358
 8307SOL     OW25819   1.957   4.893   2.012
 8307SOL    HW125820   1.885   4.917   1.947
 8307SOL    HW225821   1.917   4.844   2.090
 8308SOL     OW25822   0.730   5.070   0.092
 8308SOL    HW125823   0.810   5.054   0.034
 8308SOL    HW225824   0.723   4.995   0.158
 8309SOL     OW25825   6.838   4.144   4.680
 8309SOL    HW125826   6.789   4.136   4.594
 8309SOL    HW225827   6.774   4.162   4.754
 8310SOL     OW25828   0.611   6.943   0.605
 8310SOL    HW125829   0.664   6.976   0.683
 8310SOL    HW225830   0.666   6.878   0.553
 8311SOL     OW25831   5.747   6.683   3.901
 8311SOL    HW125832   5.753   6.782   3.895
 8311SOL    HW225833   5.656   6.657   3.935
 8312SOL     OW25834   4.872   0.660   6.652
 8312SOL    HW125835   4.787   0.661   6.598
 8312SOL    HW225836   4.861   0.599   6.731
 8313SOL     OW25837   4.450   0.631   4.561
 8313SOL    HW125838   4.451   0.678   4.649
 8313SOL    HW225839   4.366   0.577   4.553
 8314SOL     OW25840   5.434   6.308   5.456
 8314SOL    HW125841   5.419   6.324   5.554
 8314SOL    HW225842   5.374   6.234   5.425
 8315SOL     OW25843   3.186   3.009   4.524
 8315SOL    HW125844   3.176   2.946   4.601
 8315SOL    HW225845   3.095   3.038   4.493
 8316SOL     OW25846   1.077   2.601   0.414
 8316SOL    HW125847   1.150   2.536   0.432
 8316SOL    HW225848   0.993   2.552   0.389
 8317SOL     OW25849   1.763   1.944   4.402
 8317SOL    HW125850   1.698   2.018   4.390
 8317SOL    HW225851   1.846   1.963   4.350
 8318SOL     OW25852   3.704   0.243   6.543
 8318SOL    HW125853   3.716   0.281   6.634
 8318SOL    HW225854   3.627   0.288   6.497
 8319SOL     OW25855   1.935   0.038   5.978
 8319SOL    HW125856   1.991   0.006   6.055
 8319SOL    HW225857   1.841   0.006   5.989
 8320SOL     OW25858   3.676   3.845   4.654
 8320SOL    HW125859   3.680   3.813   4.749
 8320SOL    HW225860   3.683   3.945   4.652
 8321SOL     OW25861   0.093   0.096   0.347
 8321SOL    HW125862   0.058   0.061   0.260
 8321SOL    HW225863   0.017   0.113   0.410
 8322SOL     OW25864   6.760   0.913   0.285
 8322SOL    HW125865   6.777   0.834   0.224
 8322SOL    HW225866   6.662   0.926   0.296
 8323SOL     OW25867   4.535   4.433   1.085
 8323SOL    HW125868   4.470   4.370   1.126
 8323SOL    HW225869   4.519   4.439   0.987
 8324SOL     OW25870   6.625   6.673   6.601
 8324SOL    HW125871   6.704   6.709   6.552
 8324SOL    HW225872   6.615   6.720   6.689
 8325SOL     OW25873   1.557   5.505   5.081
 8325SOL    HW125874   1.535   5.582   5.021
 8325SOL    HW225875   1.500   5.426   5.057
 8326SOL     OW25876   2.582   3.659   0.714
 8326SOL    HW125877   2.569   3.685   0.618
 8326SOL    HW225878   2.538   3.727   0.773
 8327SOL     OW25879   0.739   0.588   5.151
 8327SOL    HW125880   0.799   0.551   5.222
 8327SOL    HW225881   0.652   0.616   5.191
 8328SOL     OW25882   0.932   6.640   5.929
 8328SOL    HW125883   0.877   6.664   5.848
 8328SOL    HW225884   0.945   6.722   5.985
 8329SOL     OW25885   0.719   3.089   4.944
 8329SOL    HW125886   0.690   3.175   4.987
 8329SOL    HW225887   0.796   3.108   4.882
 8330SOL     OW25888   3.739   0.713   6.806
 8330SOL    HW125889   3.713   0.793   6.860
 8330SOL    HW225890   3.835   0.721   6.780
 8331SOL     OW25891   1.867   2.218   0.318
 8331SOL    HW125892   1.815   2.264   0.390
 8331SOL    HW225893   1.808   2.200   0.239
 8332SOL     OW25894   5.359   4.821   1.962
 8332SOL    HW125895   5.336   4.755   1.891
 8332SOL    HW225896   5.288   4.822   2.032
 8333SOL     OW25897   2.427   4.532   1.271
 8333SOL    HW125898   2.336   4.550   1.234
 8333SOL    HW225899   2.439   4.582   1.357
 8334SOL     OW25900   3.091   2.408   6.426
 8334SOL    HW125901   2.997   2.390   6.398
 8334SOL    HW225902   3.111   2.355   6.509
 8335SOL     OW25903   5.194   3.177   6.250
 8335SOL    HW125904   5.159   3.089   6.281
 8335SOL    HW225905   5.287   3.165   6.214
 8336SOL     OW25906   1.080   3.521   3.125
 8336SOL    HW125907   1.082   3.457   3.203
 8336SOL    HW225908   1.059   3.471   3.042
 8337SOL     OW25909   0.938   0.937   4.233
 8337SOL    HW125910   1.023   0.898   4.269
 8337SOL    HW225911   0.906   1.009   4.294
 8338SOL     OW25912   3.784   4.871   2.237
 8338SOL    HW125913   3.698   4.918   2.256
 8338SOL    HW225914   3.771   4.807   2.161
 8339SOL     OW25915   6.745   0.593   0.720
 8339SOL    HW125916   6.659   0.598   0.669
 8339SOL    HW225917   6.822   0.609   0.658
 8340SOL     OW25918   5.020   2.336   1.068
 8340SOL    HW125919   4.953   2.294   1.007
 8340SOL    HW225920   5.069   2.409   1.019
 8341SOL     OW25921   3.740   0.323   0.187
 8341SOL    HW125922   3.812   0.392   0.189
 8341SOL    HW225923   3.669   0.347   0.253
 8342SOL     OW25924   4.167   6.308   6.907
 8342SOL    HW125925   4.146   6.405   6.893
 8342SOL    HW225926   4.105   6.270   6.975
 8343SOL     OW25927   6.807   4.211   3.861
 8343SOL    HW125928   6.816   4.205   3.762
 8343SOL    HW225929   6.803   4.119   3.900
 8344SOL     OW25930   0.994   5.266   4.488
 8344SOL    HW125931   1.071   5.290   4.547
 8344SOL    HW225932   0.921   5.333   4.501
 8345SOL     OW25933   5.061   0.813   2.546
 8345SOL    HW125934   5.136   0.804   2.481
 8345SOL    HW225935   5.085   0.767   2.631
 8346SOL     OW25936   4.214   3.426   5.794
 8346SOL    HW125937   4.128   3.387   5.828
 8346SOL    HW225938   4.204   3.448   5.697
 8347SOL     OW25939   2.336   0.116   5.849
 8347SOL    HW125940   2.303   0.156   5.935
 8347SOL    HW225941   2.433   0.137   5.838
 8348SOL     OW25942   3.737   6.616   1.772
 8348SOL    HW125943   3.747   6.517   1.763
 8348SOL    HW225944   3.714   6.638   1.867
 8349SOL     OW25945   0.930   6.664   2.216
 8349SOL    HW125946   0.952   6.584   2.160
 8349SOL    HW225947   1.001   6.733   2.206
 8350SOL     OW25948   2.644   0.108   6.332
 8350SOL    HW125949   2.600   0.053   6.261
 8350SOL    HW225950   2.706   0.174   6.289
 8351SOL     OW25951   6.794   4.316   4.132
 8351SOL    HW125952   6.832   4.225   4.150
 8351SOL    HW225953   6.755   4.318   4.040
 8352SOL     OW25954   2.599   5.824   1.897
 8352SOL    HW125955   2.599   5.811   1.996
 8352SOL    HW225956   2.693   5.820   1.863
 8353SOL     OW25957   1.046   3.489   2.123
 8353SOL    HW125958   1.121   3.534   2.076
 8353SOL    HW225959   1.027   3.536   2.209
 8354SOL     OW25960   3.776   6.779   4.192
 8354SOL    HW125961   3.682   6.790   4.160
 8354SOL    HW225962   3.836   6.764   4.113
 8355SOL     OW25963   1.402   6.836   5.603
 8355SOL    HW125964   1.452   6.860   5.520
 8355SOL    HW225965   1.409   6.911   5.668
 8356SOL     OW25966   1.942   5.569   1.533
 8356SOL    HW125967   2.006   5.609   1.468
 8356SOL    HW225968   1.992   5.511   1.597
 8357SOL     OW25969   4.002   5.465   6.019
 8357SOL    HW125970   4.096   5.434   6.008
 8357SOL    HW225971   3.997   5.539   6.086
 8358SOL     OW25972   1.336   2.362   5.285
 8358SOL    HW125973   1.287   2.444   5.256
 8358SOL    HW225974   1.289   2.321   5.363
 8359SOL     OW25975   3.117   1.041   4.848
 8359SOL    HW125976   3.073   0.999   4.927
 8359SOL    HW225977   3.211   1.009   4.841
 8360SOL     OW25978   5.003   6.095   0.349
 8360SOL    HW125979   4.980   6.016   0.292
 8360SOL    HW225980   5.079   6.145   0.308
 8361SOL     OW25981   2.372   6.814   6.980
 8361SOL    HW125982   2.385   6.908   6.948
 8361SOL    HW225983   2.459   6.776   7.010
 8362SOL     OW25984   6.770   3.165   0.721
 8362SOL    HW125985   6.738   3.071   0.733
 8362SOL    HW225986   6.697   3.221   0.684
 8363SOL     OW25987   3.832   2.073   0.610
 8363SOL    HW125988   3.752   2.036   0.565
 8363SOL    HW225989   3.839   2.037   0.703
 8364SOL     OW25990   0.768   2.865   3.577
 8364SOL    HW125991   0.753   2.814   3.661
 8364SOL    HW225992   0.826   2.945   3.596
 8365SOL     OW25993   2.344   2.588   2.106
 8365SOL    HW125994   2.363   2.621   2.013
 8365SOL    HW225995   2.414   2.522   2.133
 8366SOL     OW25996   4.540   5.576   0.852
 8366SOL    HW125997   4.503   5.538   0.768
 8366SOL    HW225998   4.622   5.630   0.831
 8367SOL     OW25999   4.012   5.146   5.049
 8367SOL    HW126000   4.009   5.245   5.036
 8367SOL    HW226001   4.103   5.119   5.081
 8368SOL     OW26002   1.006   6.178   6.978
 8368SOL    HW126003   1.098   6.214   6.961
 8368SOL    HW226004   1.012   6.084   7.012
 8369SOL     OW26005   1.224   1.648   0.492
 8369SOL    HW126006   1.243   1.622   0.398
 8369SOL    HW226007   1.212   1.566   0.548
 8370SOL     OW26008   2.805   2.027   0.158
 8370SOL    HW126009   2.782   1.966   0.234
 8370SOL    HW226010   2.784   2.121   0.183
 8371SOL     OW26011   1.413   3.054   5.825
 8371SOL    HW126012   1.510   3.040   5.802
 8371SOL    HW226013   1.401   3.144   5.865
 8372SOL     OW26014   2.105   6.439   2.600
 8372SOL    HW126015   2.014   6.481   2.608
 8372SOL    HW226016   2.174   6.502   2.637
 8373SOL     OW26017   0.645   1.011   3.999
 8373SOL    HW126018   0.719   1.076   4.019
 8373SOL    HW226019   0.564   1.062   3.970
 8374SOL     OW26020   1.030   1.278   4.345
 8374SOL    HW126021   0.950   1.237   4.389
 8374SOL    HW226022   1.003   1.366   4.304
 8375SOL     OW26023   4.360   0.820   5.606
 8375SOL    HW126024   4.378   0.877   5.526
 8375SOL    HW226025   4.351   0.878   5.687
 8376SOL     OW26026   1.892   0.741   3.294
 8376SOL    HW126027   1.974   0.702   3.252
 8376SOL    HW226028   1.914   0.830   3.333
 8377SOL     OW26029   5.595   5.389   6.626
 8377SOL    HW126030   5.587   5.289   6.627
 8377SOL    HW226031   5.660   5.416   6.555
 8378SOL     OW26032   5.401   5.613   3.409
 8378SOL    HW126033   5.401   5.531   3.353
 8378SOL    HW226034   5.490   5.623   3.454
 8379SOL     OW26035   5.492   1.699   1.998
 8379SOL    HW126036   5.502   1.599   1.995
 8379SOL    HW226037   5.582   1.742   1.990
 8380SOL     OW26038   0.160   5.422   6.454
 8380SOL    HW126039   0.136   5.465   6.366
 8380SOL    HW226040   0.186   5.493   6.519
 8381SOL     OW26041   0.321   2.087   2.494
 8381SOL    HW126042   0.407   2.098   2.545
 8381SOL    HW226043   0.248   2.064   2.558
 8382SOL     OW26044   2.930   6.817   6.986
 8382SOL    HW126045   2.898   6.900   6.941
 8382SOL    HW226046   2.988   6.766   6.924
 8383SOL     OW26047   2.826   6.957   4.515
 8383SOL    HW126048   2.771   6.982   4.435
 8383SOL    HW226049   2.782   6.992   4.598
 8384SOL     OW26050   6.874   2.171   1.103
 8384SOL    HW126051   6.883   2.102   1.032
 8384SOL    HW226052   6.848   2.127   1.189
 8385SOL     OW26053   4.774   3.214   0.719
 8385SOL    HW126054   4.826   3.145   0.669
 8385SOL    HW226055   4.681   3.181   0.736
 8386SOL     OW26056   1.979   6.721   1.722
 8386SOL    HW126057   1.944   6.807   1.758
 8386SOL    HW226058   1.957   6.647   1.785
 8387SOL     OW26059   2.408   1.465   0.709
 8387SOL    HW126060   2.467   1.468   0.628
 8387SOL    HW226061   2.313   1.477   0.681
 8388SOL     OW26062   2.567   6.597   0.352
 8388SOL    HW126063   2.486   6.570   0.403
 8388SOL    HW226064   2.648   6.589   0.411
 8389SOL     OW26065   1.254   3.311   4.329
 8389SOL    HW126066   1.314   3.362   4.267
 8389SOL    HW226067   1.198   3.375   4.382
 8390SOL     OW26068   2.675   0.781   5.694
 8390SOL    HW126069   2.723   0.804   5.778
 8390SOL    HW226070   2.614   0.855   5.668
 8391SOL     OW26071   5.251   5.539   2.049
 8391SOL    HW126072   5.174   5.563   1.991
 8391SOL    HW226073   5.292   5.623   2.086
 8392SOL     OW26074   6.085   5.682   4.863
 8392SOL    HW126075   6.131   5.769   4.847
 8392SOL    HW226076   6.063   5.673   4.960
 8393SOL     OW26077   6.504   6.468   3.534
 8393SOL    HW126078   6.439   6.392   3.529
 8393SOL    HW226079   6.502   6.508   3.626
 8394SOL     OW26080   0.871   1.569   2.918
 8394SOL    HW126081   0.818   1.500   2.868
 8394SOL    HW226082   0.963   1.574   2.880
 8395SOL     OW26083   0.641   6.194   4.651
 8395SOL    HW126084   0.549   6.230   4.636
 8395SOL    HW226085   0.635   6.096   4.671
 8396SOL     OW26086   4.844   4.150   2.294
 8396SOL    HW126087   4.813   4.238   2.330
 8396SOL    HW226088   4.791   4.127   2.212
 8397SOL     OW26089   1.889   6.611   2.719
 8397SOL    HW126090   1.810   6.578   2.667
 8397SOL    HW226091   1.908   6.706   2.695
 8398SOL     OW26092   3.974   1.562   6.993
 8398SOL    HW126093   4.007   1.470   7.015
 8398SOL    HW226094   4.010   1.627   0.042
 8399SOL     OW26095   5.642   5.963   1.041
 8399SOL    HW126096   5.724   6.016   1.021
 8399SOL    HW226097   5.578   5.971   0.965
 8400SOL     OW26098   0.377   0.634   2.851
 8400SOL    HW126099   0.467   0.610   2.890
 8400SOL    HW226100   0.385   0.645   2.752
 8401SOL     OW26101   4.488   3.329   6.070
 8401SOL    HW126102   4.408   3.269   6.062
 8401SOL    HW226103   4.463   3.423   6.046
 8402SOL     OW26104   3.794   2.219   6.364
 8402SOL    HW126105   3.748   2.198   6.278
 8402SOL    HW226106   3.772   2.148   6.432
 8403SOL     OW26107   1.287   1.659   3.694
 8403SOL    HW126108   1.375   1.632   3.655
 8403SOL    HW226109   1.274   1.757   3.682
 8404SOL     OW26110   5.201   6.169   5.332
 8404SOL    HW126111   5.164   6.142   5.421
 8404SOL    HW226112   5.148   6.126   5.259
 8405SOL     OW26113   1.305   1.881   6.705
 8405SOL    HW126114   1.235   1.944   6.738
 8405SOL    HW226115   1.355   1.924   6.630
 8406SOL     OW26116   4.226   1.653   0.703
 8406SOL    HW126117   4.264   1.739   0.669
 8406SOL    HW226118   4.175   1.671   0.787
 8407SOL     OW26119   5.657   4.429   4.143
 8407SOL    HW126120   5.658   4.464   4.049
 8407SOL    HW226121   5.648   4.505   4.207
 8408SOL     OW26122   4.801   7.017   3.757
 8408SOL    HW126123   4.869   6.981   3.692
 8408SOL    HW226124   4.842   0.071   3.811
 8409SOL     OW26125   0.564   2.163   4.006
 8409SOL    HW126126   0.619   2.080   3.992
 8409SOL    HW226127   0.597   2.211   4.087
 8410SOL     OW26128   5.494   0.058   1.921
 8410SOL    HW126129   5.557   7.013   1.965
 8410SOL    HW226130   5.494   0.042   1.822
 8411SOL     OW26131   1.485   5.404   3.870
 8411SOL    HW126132   1.517   5.498   3.858
 8411SOL    HW226133   1.427   5.399   3.951
 8412SOL     OW26134   4.506   2.413   1.257
 8412SOL    HW126135   4.448   2.417   1.338
 8412SOL    HW226136   4.506   2.502   1.212
 8413SOL     OW26137   4.068   4.960   0.765
 8413SOL    HW126138   4.159   4.966   0.726
 8413SOL    HW226139   4.002   5.004   0.704
 8414SOL     OW26140   3.552   6.927   2.492
 8414SOL    HW126141   3.538   7.000   2.425
 8414SOL    HW226142   3.569   6.967   2.582
 8415SOL     OW26143   6.726   4.832   3.648
 8415SOL    HW126144   6.816   4.799   3.620
 8415SOL    HW226145   6.660   4.757   3.646
 8416SOL     OW26146   5.511   4.207   2.468
 8416SOL    HW126147   5.600   4.171   2.440
 8416SOL    HW226148   5.525   4.286   2.529
 8417SOL     OW26149   2.629   6.314   5.739
 8417SOL    HW126150   2.634   6.374   5.660
 8417SOL    HW226151   2.630   6.368   5.823
 8418SOL     OW26152   5.956   5.647   2.583
 8418SOL    HW126153   6.016   5.684   2.512
 8418SOL    HW226154   5.892   5.582   2.543
 8419SOL     OW26155   5.055   0.201   1.761
 8419SOL    HW126156   5.106   0.281   1.729
 8419SOL    HW226157   4.957   0.223   1.764
 8420SOL     OW26158   4.541   0.322   0.057
 8420SOL    HW126159   4.499   0.395   0.004
 8420SOL    HW226160   4.525   0.234   0.011
 8421SOL     OW26161   2.070   0.194   1.563
 8421SOL    HW126162   2.134   0.260   1.522
 8421SOL    HW226163   2.120   0.111   1.588
 8422SOL     OW26164   5.499   6.294   0.564
 8422SOL    HW126165   5.572   6.329   0.622
 8422SOL    HW226166   5.420   6.268   0.621
 8423SOL     OW26167   3.666   5.044   7.008
 8423SOL    HW126168   3.744   5.107   7.007
 8423SOL    HW226169   3.582   5.096   0.007
 8424SOL     OW26170   3.447   2.076   2.424
 8424SOL    HW126171   3.423   2.115   2.513
 8424SOL    HW226172   3.459   1.978   2.433
 8425SOL     OW26173   6.622   5.526   1.365
 8425SOL    HW126174   6.710   5.509   1.320
 8425SOL    HW226175   6.623   5.485   1.456
 8426SOL     OW26176   3.979   3.080   3.705
 8426SOL    HW126177   3.925   3.073   3.789
 8426SOL    HW226178   4.017   3.172   3.698
 8427SOL     OW26179   1.814   4.442   6.176
 8427SOL    HW126180   1.780   4.534   6.156
 8427SOL    HW226181   1.902   4.428   6.131
 8428SOL     OW26182   6.938   4.266   1.785
 8428SOL    HW126183   7.017   4.324   1.765
 8428SOL    HW226184   6.964   4.170   1.773
 8429SOL     OW26185   2.896   4.838   4.288
 8429SOL    HW126186   2.828   4.861   4.218
 8429SOL    HW226187   2.852   4.786   4.362
 8430SOL     OW26188   4.629   5.454   2.583
 8430SOL    HW126189   4.680   5.534   2.614
 8430SOL    HW226190   4.582   5.412   2.660
 8431SOL     OW26191   2.980   4.897   1.539
 8431SOL    HW126192   2.931   4.870   1.456
 8431SOL    HW226193   3.073   4.862   1.536
 8432SOL     OW26194   4.440   5.322   6.187
 8432SOL    HW126195   4.470   5.400   6.132
 8432SOL    HW226196   4.515   5.258   6.198
 8433SOL     OW26197   0.918   2.703   6.819
 8433SOL    HW126198   1.013   2.734   6.825
 8433SOL    HW226199   0.865   2.742   6.894
 8434SOL     OW26200   3.954   6.699   5.316
 8434SOL    HW126201   3.883   6.648   5.268
 8434SOL    HW226202   3.924   6.717   5.410
 8435SOL     OW26203   4.592   1.986   1.412
 8435SOL    HW126204   4.626   2.079   1.395
 8435SOL    HW226205   4.500   1.977   1.374
 8436SOL     OW26206   3.564   5.374   3.008
 8436SOL    HW126207   3.658   5.343   3.002
 8436SOL    HW226208   3.523   5.340   3.093
 8437SOL     OW26209   0.448   0.779   1.396
 8437SOL    HW126210   0.382   0.816   1.461
 8437SOL    HW226211   0.528   0.744   1.446
 8438SOL     OW26212   2.862   4.925   2.683
 8438SOL    HW126213   2.887   4.919   2.586
 8438SOL    HW226214   2.841   4.834   2.718
 8439SOL     OW26215   6.425   5.334   1.985
 8439SOL    HW126216   6.515   5.346   2.025
 8439SOL    HW226217   6.359   5.313   2.057
 8440SOL     OW26218   6.799   1.026   2.144
 8440SOL    HW126219   6.744   0.943   2.130
 8440SOL    HW226220   6.891   1.000   2.172
 8441SOL     OW26221   5.743   6.322   6.820
 8441SOL    HW126222   5.742   6.375   6.905
 8441SOL    HW226223   5.682   6.244   6.830
 8442SOL     OW26224   3.302   3.630   0.049
 8442SOL    HW126225   3.218   3.606   0.096
 8442SOL    HW226226   3.334   3.720   0.080
 8443SOL     OW26227   0.937   0.589   3.360
 8443SOL    HW126228   0.850   0.638   3.350
 8443SOL    HW226229   0.925   0.493   3.335
 8444SOL     OW26230   3.610   6.411   3.655
 8444SOL    HW126231   3.512   6.426   3.643
 8444SOL    HW226232   3.635   6.319   3.625
 8445SOL     OW26233   3.409   4.937   2.652
 8445SOL    HW126234   3.317   4.914   2.683
 8445SOL    HW226235   3.431   5.031   2.680
 8446SOL     OW26236   5.140   5.921   2.845
 8446SOL    HW126237   5.167   6.018   2.839
 8446SOL    HW226238   5.216   5.868   2.884
 8447SOL     OW26239   5.294   2.360   2.263
 8447SOL    HW126240   5.238   2.281   2.289
 8447SOL    HW226241   5.306   2.419   2.342
 8448SOL     OW26242   0.274   3.851   6.335
 8448SOL    HW126243   0.316   3.821   6.250
 8448SOL    HW226244   0.174   3.845   6.327
 8449SOL     OW26245   0.496   3.419   4.699
 8449SOL    HW126246   0.547   3.492   4.745
 8449SOL    HW226247   0.548   3.334   4.705
 8450SOL     OW26248   1.584   6.130   2.928
 8450SOL    HW126249   1.568   6.154   2.832
 8450SOL    HW226250   1.578   6.031   2.938
 8451SOL     OW26251   3.831   2.481   0.628
 8451SOL    HW126252   3.917   2.503   0.581
 8451SOL    HW226253   3.806   2.555   0.689
 8452SOL     OW26254   6.836   0.095   1.519
 8452SOL    HW126255   6.789   0.179   1.493
 8452SOL    HW226256   6.859   0.043   1.437
 8453SOL     OW26257   0.236   4.594   6.230
 8453SOL    HW126258   0.283   4.639   6.154
 8453SOL    HW226259   0.205   4.662   6.296
 8454SOL     OW26260   1.576   6.687   2.402
 8454SOL    HW126261   1.666   6.648   2.381
 8454SOL    HW226262   1.504   6.625   2.370
 8455SOL     OW26263   5.001   1.625   1.036
 8455SOL    HW126264   5.040   1.715   1.052
 8455SOL    HW226265   4.962   1.590   1.121
 8456SOL     OW26266   5.806   5.649   3.748
 8456SOL    HW126267   5.893   5.693   3.768
 8456SOL    HW226268   5.753   5.640   3.833
 8457SOL     OW26269   6.585   6.925   5.567
 8457SOL    HW126270   6.579   6.854   5.497
 8457SOL    HW226271   6.514   6.993   5.552
 8458SOL     OW26272   2.048   1.149   6.980
 8458SOL    HW126273   1.956   1.155   6.942
 8458SOL    HW226274   2.109   1.106   6.914
 8459SOL     OW26275   3.711   6.657   2.047
 8459SOL    HW126276   3.740   6.629   2.139
 8459SOL    HW226277   3.645   6.732   2.055
 8460SOL     OW26278   4.122   3.070   6.979
 8460SOL    HW126279   4.042   3.129   6.986
 8460SOL    HW226280   4.094   2.975   6.987
 8461SOL     OW26281   0.620   3.542   1.543
 8461SOL    HW126282   0.569   3.616   1.500
 8461SOL    HW226283   0.557   3.469   1.569
 8462SOL     OW26284   4.015   3.286   0.432
 8462SOL    HW126285   3.916   3.285   0.435
 8462SOL    HW226286   4.050   3.192   0.438
 8463SOL     OW26287   6.793   2.736   0.468
 8463SOL    HW126288   6.790   2.648   0.516
 8463SOL    HW226289   6.700   2.765   0.446
 8464SOL     OW26290   6.997   3.622   5.739
 8464SOL    HW126291   6.908   3.667   5.730
 8464SOL    HW226292   6.984   3.526   5.764
 8465SOL     OW26293   2.983   2.369   1.371
 8465SOL    HW126294   3.030   2.457   1.381
 8465SOL    HW226295   2.900   2.368   1.426
 8466SOL     OW26296   6.161   0.543   5.390
 8466SOL    HW126297   6.198   0.636   5.390
 8466SOL    HW226298   6.235   0.478   5.406
 8467SOL     OW26299   3.880   0.334   0.838
 8467SOL    HW126300   3.962   0.385   0.865
 8467SOL    HW226301   3.873   0.251   0.893
 8468SOL     OW26302   6.125   3.687   6.485
 8468SOL    HW126303   6.179   3.670   6.403
 8468SOL    HW226304   6.067   3.608   6.505
 8469SOL     OW26305   3.557   2.848   6.222
 8469SOL    HW126306   3.557   2.757   6.262
 8469SOL    HW226307   3.505   2.847   6.137
 8470SOL     OW26308   0.971   5.094   0.484
 8470SOL    HW126309   0.892   5.053   0.530
 8470SOL    HW226310   1.026   5.022   0.441
 8471SOL     OW26311   3.835   0.320   5.203
 8471SOL    HW126312   3.791   0.333   5.114
 8471SOL    HW226313   3.822   0.402   5.258
 8472SOL     OW26314   5.982   1.863   5.650
 8472SOL    HW126315   6.031   1.810   5.720
 8472SOL    HW226316   6.035   1.865   5.566
 8473SOL     OW26317   4.242   4.439   0.366
 8473SOL    HW126318   4.166   4.375   0.360
 8473SOL    HW226319   4.246   4.494   0.283
 8474SOL     OW26320   3.075   3.888   2.988
 8474SOL    HW126321   3.040   3.934   3.069
 8474SOL    HW226322   3.009   3.819   2.957
 8475SOL     OW26323   0.509   3.398   1.183
 8475SOL    HW126324   0.449   3.464   1.227
 8475SOL    HW226325   0.465   3.308   1.181
 8476SOL     OW26326   6.681   0.938   1.014
 8476SOL    HW126327   6.701   0.934   1.112
 8476SOL    HW226328   6.736   1.010   0.972
 8477SOL     OW26329   5.473   5.737   2.063
 8477SOL    HW126330   5.507   5.827   2.091
 8477SOL    HW226331   5.468   5.732   1.964
 8478SOL     OW26332   0.845   1.076   5.697
 8478SOL    HW126333   0.754   1.105   5.670
 8478SOL    HW226334   0.914   1.132   5.651
 8479SOL     OW26335   1.541   2.428   1.299
 8479SOL    HW126336   1.474   2.486   1.253
 8479SOL    HW226337   1.526   2.332   1.273
 8480SOL     OW26338   4.953   2.779   6.553
 8480SOL    HW126339   4.957   2.687   6.592
 8480SOL    HW226340   4.868   2.823   6.583
 8481SOL     OW26341   3.968   2.093   4.665
 8481SOL    HW126342   3.919   2.141   4.737
 8481SOL    HW226343   4.066   2.110   4.675
 8482SOL     OW26344   4.518   0.767   0.397
 8482SOL    HW126345   4.497   0.862   0.419
 8482SOL    HW226346   4.612   0.761   0.363
 8483SOL     OW26347   2.966   6.031   3.726
 8483SOL    HW126348   2.878   6.022   3.679
 8483SOL    HW226349   3.016   6.109   3.690
 8484SOL     OW26350   6.669   5.728   4.939
 8484SOL    HW126351   6.759   5.739   4.897
 8484SOL    HW226352   6.679   5.722   5.038
 8485SOL     OW26353   4.226   2.431   0.052
 8485SOL    HW126354   4.169   2.411   6.991
 8485SOL    HW226355   4.199   2.373   0.128
 8486SOL     OW26356   2.121   1.121   2.642
 8486SOL    HW126357   2.139   1.071   2.558
 8486SOL    HW226358   2.049   1.076   2.693
 8487SOL     OW26359   5.046   1.601   6.101
 8487SOL    HW126360   5.080   1.564   6.014
 8487SOL    HW226361   5.069   1.698   6.107
 8488SOL     OW26362   5.492   5.349   3.203
 8488SOL    HW126363   5.487   5.258   3.244
 8488SOL    HW226364   5.403   5.373   3.164
 8489SOL     OW26365   6.520   0.226   1.740
 8489SOL    HW126366   6.539   0.215   1.643
 8489SOL    HW226367   6.437   0.175   1.764
 8490SOL     OW26368   3.557   6.823   5.475
 8490SOL    HW126369   3.638   6.864   5.517
 8490SOL    HW226370   3.585   6.768   5.396
 8491SOL     OW26371   2.110   5.739   2.886
 8491SOL    HW126372   2.027   5.793   2.899
 8491SOL    HW226373   2.116   5.710   2.790
 8492SOL     OW26374   5.908   4.635   3.788
 8492SOL    HW126375   5.898   4.722   3.740
 8492SOL    HW226376   5.920   4.562   3.721
 8493SOL     OW26377   2.615   1.329   0.186
 8493SOL    HW126378   2.679   1.389   0.233
 8493SOL    HW226379   2.588   1.254   0.246
 8494SOL     OW26380   5.154   4.828   2.155
 8494SOL    HW126381   5.071   4.873   2.188
 8494SOL    HW226382   5.148   4.730   2.172
 8495SOL     OW26383   6.925   5.693   0.456
 8495SOL    HW126384   7.014   5.674   0.414
 8495SOL    HW226385   6.931   5.677   0.555
 8496SOL     OW26386   5.178   1.203   2.467
 8496SOL    HW126387   5.172   1.277   2.400
 8496SOL    HW226388   5.091   1.195   2.516
 8497SOL     OW26389   0.622   0.153   3.729
 8497SOL    HW126390   0.541   0.111   3.689
 8497SOL    HW226391   0.680   0.082   3.770
 8498SOL     OW26392   5.789   0.189   3.191
 8498SOL    HW126393   5.827   0.109   3.237
 8498SOL    HW226394   5.690   0.192   3.207
 8499SOL     OW26395   0.592   5.231   0.486
 8499SOL    HW126396   0.503   5.272   0.467
 8499SOL    HW226397   0.651   5.241   0.405
 8500SOL     OW26398   1.437   6.796   5.907
 8500SOL    HW126399   1.457   6.699   5.923
 8500SOL    HW226400   1.338   6.810   5.905
 8501SOL     OW26401   0.501   2.263   0.004
 8501SOL    HW126402   0.409   2.277   6.984
 8501SOL    HW226403   0.521   2.336   0.068
 8502SOL     OW26404   0.617   2.415   0.473
 8502SOL    HW126405   0.525   2.447   0.449
 8502SOL    HW226406   0.634   2.429   0.571
 8503SOL     OW26407   6.627   5.567   5.207
 8503SOL    HW126408   6.601   5.525   5.119
 8503SOL    HW226409   6.548   5.617   5.244
 8504SOL     OW26410   1.998   5.484   2.234
 8504SOL    HW126411   2.028   5.391   2.217
 8504SOL    HW226412   2.012   5.540   2.153
 8505SOL     OW26413   5.215   3.745   2.514
 8505SOL    HW126414   5.251   3.653   2.498
 8505SOL    HW226415   5.282   3.798   2.566
 8506SOL     OW26416   1.637   1.099   6.723
 8506SOL    HW126417   1.679   1.125   6.810
 8506SOL    HW226418   1.672   1.010   6.694
 8507SOL     OW26419   4.691   0.364   4.661
 8507SOL    HW126420   4.706   0.434   4.731
 8507SOL    HW226421   4.593   0.359   4.641
 8508SOL     OW26422   4.129   1.871   5.882
 8508SOL    HW126423   4.131   1.864   5.981
 8508SOL    HW226424   4.128   1.780   5.842
 8509SOL     OW26425   5.233   6.554   4.021
 8509SOL    HW126426   5.211   6.484   3.954
 8509SOL    HW226427   5.173   6.633   4.009
 8510SOL     OW26428   5.309   2.962   3.518
 8510SOL    HW126429   5.333   3.059   3.516
 8510SOL    HW226430   5.220   2.949   3.474
 8511SOL     OW26431   6.404   3.344   2.143
 8511SOL    HW126432   6.341   3.370   2.070
 8511SOL    HW226433   6.383   3.398   2.225
 8512SOL     OW26434   2.068   0.236   2.897
 8512SOL    HW126435   2.025   0.314   2.943
 8512SOL    HW226436   2.035   0.151   2.938
 8513SOL     OW26437   6.693   6.237   0.057
 8513SOL    HW126438   6.724   6.299   0.130
 8513SOL    HW226439   6.721   6.144   0.079
 8514SOL     OW26440   3.373   6.649   3.072
 8514SOL    HW126441   3.357   6.745   3.048
 8514SOL    HW226442   3.289   6.597   3.054
 8515SOL     OW26443   5.283   2.678   1.340
 8515SOL    HW126444   5.313   2.772   1.357
 8515SOL    HW226445   5.184   2.671   1.351
 8516SOL     OW26446   6.683   1.418   2.901
 8516SOL    HW126447   6.647   1.512   2.900
 8516SOL    HW226448   6.735   1.404   2.986
 8517SOL     OW26449   0.597   2.372   6.731
 8517SOL    HW126450   0.587   2.346   6.827
 8517SOL    HW226451   0.589   2.291   6.673
 8518SOL     OW26452   4.315   5.003   0.581
 8518SOL    HW126453   4.311   4.924   0.519
 8518SOL    HW226454   4.411   5.021   0.605
 8519SOL     OW26455   1.896   5.750   2.108
 8519SOL    HW126456   1.975   5.805   2.081
 8519SOL    HW226457   1.821   5.810   2.137
 8520SOL     OW26458   3.926   1.133   0.824
 8520SOL    HW126459   3.917   1.225   0.785
 8520SOL    HW226460   4.023   1.110   0.832
 8521SOL     OW26461   1.128   6.161   6.134
 8521SOL    HW126462   1.151   6.245   6.182
 8521SOL    HW226463   1.032   6.138   6.151
 8522SOL     OW26464   1.490   6.341   2.703
 8522SOL    HW126465   1.508   6.432   2.739
 8522SOL    HW226466   1.418   6.298   2.757
 8523SOL     OW26467   2.053   6.803   5.564
 8523SOL    HW126468   1.969   6.793   5.512
 8523SOL    HW226469   2.113   6.869   5.520
 8524SOL     OW26470   1.222   3.416   4.740
 8524SOL    HW126471   1.175   3.429   4.827
 8524SOL    HW226472   1.302   3.358   4.754
 8525SOL     OW26473   6.149   3.398   3.128
 8525SOL    HW126474   6.156   3.420   3.031
 8525SOL    HW226475   6.232   3.350   3.157
 8526SOL     OW26476   2.558   2.836   1.676
 8526SOL    HW126477   2.615   2.913   1.705
 8526SOL    HW226478   2.611   2.776   1.616
 8527SOL     OW26479   4.047   0.855   4.354
 8527SOL    HW126480   4.088   0.940   4.387
 8527SOL    HW226481   3.958   0.875   4.312
 8528SOL     OW26482   4.972   3.563   6.481
 8528SOL    HW126483   4.946   3.467   6.494
 8528SOL    HW226484   5.071   3.572   6.492
 8529SOL     OW26485   1.561   5.579   0.038
 8529SOL    HW126486   1.626   5.597   0.113
 8529SOL    HW226487   1.574   5.648   6.986
 8530SOL     OW26488   1.840   4.903   5.607
 8530SOL    HW126489   1.744   4.929   5.618
 8530SOL    HW226490   1.888   4.915   5.694
 8531SOL     OW26491   5.405   3.803   2.933
 8531SOL    HW126492   5.307   3.793   2.951
 8531SOL    HW226493   5.433   3.737   2.863
 8532SOL     OW26494   3.836   4.931   5.052
 8532SOL    HW126495   3.750   4.943   5.003
 8532SOL    HW226496   3.889   5.015   5.049
 8533SOL     OW26497   2.173   0.928   4.989
 8533SOL    HW126498   2.162   0.906   5.086
 8533SOL    HW226499   2.179   0.844   4.935
 8534SOL     OW26500   0.816   3.866   2.486
 8534SOL    HW126501   0.898   3.904   2.528
 8534SOL    HW226502   0.767   3.938   2.436
 8535SOL     OW26503   0.913   2.268   4.595
 8535SOL    HW126504   0.823   2.256   4.554
 8535SOL    HW226505   0.960   2.345   4.550
 8536SOL     OW26506   6.560   2.443   5.240
 8536SOL    HW126507   6.596   2.457   5.148
 8536SOL    HW226508   6.586   2.352   5.273
 8537SOL     OW26509   5.892   0.767   0.726
 8537SOL    HW126510   5.962   0.797   0.792
 8537SOL    HW226511   5.937   0.737   0.642
 8538SOL     OW26512   6.952   0.144   4.795
 8538SOL    HW126513   6.917   0.051   4.792
 8538SOL    HW226514   0.021   0.148   4.747
 8539SOL     OW26515   6.586   2.253   2.408
 8539SOL    HW126516   6.679   2.227   2.384
 8539SOL    HW226517   6.521   2.194   2.360
 8540SOL     OW26518   2.642   1.093   0.606
 8540SOL    HW126519   2.578   1.136   0.670
 8540SOL    HW226520   2.716   1.050   0.658
 8541SOL     OW26521   3.017   1.289   4.915
 8541SOL    HW126522   3.033   1.295   5.013
 8541SOL    HW226523   3.072   1.215   4.876
 8542SOL     OW26524   2.838   4.442   6.648
 8542SOL    HW126525   2.795   4.352   6.651
 8542SOL    HW226526   2.787   4.506   6.706
 8543SOL     OW26527   2.818   1.826   5.721
 8543SOL    HW126528   2.736   1.882   5.732
 8543SOL    HW226529   2.887   1.855   5.787
 8544SOL     OW26530   4.768   3.927   5.314
 8544SOL    HW126531   4.671   3.912   5.331
 8544SOL    HW226532   4.800   4.007   5.365
 8545SOL     OW26533   3.713   6.824   4.770
 8545SOL    HW126534   3.616   6.828   4.746
 8545SOL    HW226535   3.730   6.742   4.826
 8546SOL     OW26536   5.996   0.389   1.634
 8546SOL    HW126537   5.906   0.359   1.666
 8546SOL    HW226538   6.040   0.443   1.706
 8547SOL     OW26539   6.857   0.165   5.840
 8547SOL    HW126540   6.779   0.215   5.877
 8547SOL    HW226541   6.935   0.176   5.901
 8548SOL     OW26542   0.586   2.802   6.303
 8548SOL    HW126543   0.522   2.864   6.257
 8548SOL    HW226544   0.556   2.707   6.289
 8549SOL     OW26545   1.657   1.060   3.729
 8549SOL    HW126546   1.621   0.972   3.761
 8549SOL    HW226547   1.684   1.115   3.807
 8550SOL     OW26548   0.472   4.497   6.722
 8550SOL    HW126549   0.456   4.513   6.625
 8550SOL    HW226550   0.427   4.412   6.750
 8551SOL     OW26551   1.763   2.365   6.633
 8551SOL    HW126552   1.812   2.313   6.563
 8551SOL    HW226553   1.825   2.385   6.709
 8552SOL     OW26554   3.096   1.067   2.171
 8552SOL    HW126555   3.131   1.108   2.255
 8552SOL    HW226556   3.024   1.001   2.193
 8553SOL     OW26557   4.256   2.830   0.640
 8553SOL    HW126558   4.192   2.869   0.706
 8553SOL    HW226559   4.259   2.730   0.652
 8554SOL     OW26560   1.117   6.996   1.018
 8554SOL    HW126561   1.144   6.900   1.020
 8554SOL    HW226562   1.075   7.017   0.929
 8555SOL     OW26563   4.186   1.785   3.851
 8555SOL    HW126564   4.237   1.714   3.900
 8555SOL    HW226565   4.184   1.764   3.754
 8556SOL     OW26566   2.046   6.222   6.049
 8556SOL    HW126567   1.953   6.207   6.082
 8556SOL    HW226568   2.047   6.216   5.949
 8557SOL     OW26569   6.438   0.914   0.199
 8557SOL    HW126570   6.376   0.992   0.189
 8557SOL    HW226571   6.459   0.876   0.109
 8558SOL     OW26572   2.709   5.167   3.388
 8558SOL    HW126573   2.613   5.170   3.418
 8558SOL    HW226574   2.714   5.180   3.289
 8559SOL     OW26575   0.684   5.531   1.892
 8559SOL    HW126576   0.718   5.438   1.877
 8559SOL    HW226577   0.633   5.535   1.978
 8560SOL     OW26578   2.245   4.889   1.234
 8560SOL    HW126579   2.178   4.958   1.264
 8560SOL    HW226580   2.305   4.866   1.310
 8561SOL     OW26581   3.424   0.523   2.900
 8561SOL    HW126582   3.345   0.563   2.853
 8561SOL    HW226583   3.392   0.459   2.970
 8562SOL     OW26584   3.656   1.294   0.314
 8562SOL    HW126585   3.717   1.352   0.260
 8562SOL    HW226586   3.561   1.318   0.293
 8563SOL     OW26587   1.669   5.449   2.458
 8563SOL    HW126588   1.766   5.448   2.481
 8563SOL    HW226589   1.658   5.423   2.362
 8564SOL     OW26590   3.495   6.371   0.353
 8564SOL    HW126591   3.574   6.408   0.400
 8564SOL    HW226592   3.521   6.343   0.260
 8565SOL     OW26593   3.853   5.618   1.507
 8565SOL    HW126594   3.908   5.536   1.516
 8565SOL    HW226595   3.756   5.594   1.513
 8566SOL     OW26596   2.531   0.967   2.480
 8566SOL    HW126597   2.515   0.976   2.382
 8566SOL    HW226598   2.525   0.871   2.506
 8567SOL     OW26599   1.199   1.938   1.250
 8567SOL    HW126600   1.255   1.931   1.168
 8567SOL    HW226601   1.198   2.032   1.283
 8568SOL     OW26602   7.003   1.381   0.188
 8568SOL    HW126603   0.005   1.357   0.283
 8568SOL    HW226604   6.952   1.307   0.146
 8569SOL     OW26605   5.606   2.873   6.123
 8569SOL    HW126606   5.556   2.787   6.122
 8569SOL    HW226607   5.679   2.870   6.055
 8570SOL     OW26608   1.306   2.134   5.139
 8570SOL    HW126609   1.287   2.231   5.153
 8570SOL    HW226610   1.404   2.118   5.147
 8571SOL     OW26611   1.407   1.047   4.333
 8571SOL    HW126612   1.442   1.109   4.404
 8571SOL    HW226613   1.347   1.098   4.271
 8572SOL     OW26614   3.375   4.079   5.713
 8572SOL    HW126615   3.387   4.178   5.709
 8572SOL    HW226616   3.278   4.056   5.705
 8573SOL     OW26617   3.019   5.907   0.598
 8573SOL    HW126618   3.031   5.846   0.676
 8573SOL    HW226619   2.930   5.891   0.556
 8574SOL     OW26620   0.145   6.640   6.074
 8574SOL    HW126621   0.070   6.686   6.121
 8574SOL    HW226622   0.109   6.586   5.998
 8575SOL     OW26623   3.694   0.403   2.493
 8575SOL    HW126624   3.723   0.487   2.539
 8575SOL    HW226625   3.628   0.355   2.550
 8576SOL     OW26626   0.846   3.856   4.376
 8576SOL    HW126627   0.934   3.902   4.389
 8576SOL    HW226628   0.832   3.838   4.279
 8577SOL     OW26629   2.127   0.923   5.865
 8577SOL    HW126630   2.120   0.824   5.853
 8577SOL    HW226631   2.213   0.945   5.911
 8578SOL     OW26632   6.429   6.317   5.376
 8578SOL    HW126633   6.481   6.380   5.434
 8578SOL    HW226634   6.368   6.262   5.433
 8579SOL     OW26635   2.505   6.317   2.562
 8579SOL    HW126636   2.575   6.386   2.582
 8579SOL    HW226637   2.481   6.269   2.646
 8580SOL     OW26638   1.102   6.435   1.624
 8580SOL    HW126639   1.126   6.433   1.527
 8580SOL    HW226640   1.069   6.346   1.653
 8581SOL     OW26641   3.650   5.077   1.331
 8581SOL    HW126642   3.618   5.165   1.294
 8581SOL    HW226643   3.741   5.090   1.371
 8582SOL     OW26644   4.013   4.378   5.595
 8582SOL    HW126645   3.962   4.422   5.669
 8582SOL    HW226646   4.080   4.315   5.634
 8583SOL     OW26647   4.201   0.909   3.153
 8583SOL    HW126648   4.248   0.821   3.149
 8583SOL    HW226649   4.231   0.967   3.077
 8584SOL     OW26650   6.373   1.408   4.959
 8584SOL    HW126651   6.468   1.394   4.933
 8584SOL    HW226652   6.312   1.378   4.886
 8585SOL     OW26653   5.807   2.080   1.261
 8585SOL    HW126654   5.811   2.075   1.161
 8585SOL    HW226655   5.876   2.019   1.300
 8586SOL     OW26656   5.861   6.316   1.319
 8586SOL    HW126657   5.843   6.231   1.268
 8586SOL    HW226658   5.953   6.311   1.360
 8587SOL     OW26659   0.830   1.544   5.100
 8587SOL    HW126660   0.857   1.556   5.195
 8587SOL    HW226661   0.893   1.596   5.041
 8588SOL     OW26662   3.748   1.515   0.181
 8588SOL    HW126663   3.767   1.500   0.084
 8588SOL    HW226664   3.689   1.596   0.191
 8589SOL     OW26665   7.011   3.048   5.176
 8589SOL    HW126666   6.931   3.018   5.228
 8589SOL    HW226667   7.016   3.148   5.178
 8590SOL     OW26668   6.569   0.860   2.574
 8590SOL    HW126669   6.578   0.773   2.525
 8590SOL    HW226670   6.606   0.850   2.666
 8591SOL     OW26671   6.191   5.007   0.577
 8591SOL    HW126672   6.217   5.073   0.507
 8591SOL    HW226673   6.226   4.916   0.553
 8592SOL     OW26674   0.479   2.627   6.851
 8592SOL    HW126675   0.535   2.544   6.845
 8592SOL    HW226676   0.537   2.707   6.837
 8593SOL     OW26677   3.259   0.992   6.625
 8593SOL    HW126678   3.258   0.955   6.718
 8593SOL    HW226679   3.290   1.087   6.628
 8594SOL     OW26680   6.015   2.803   6.295
 8594SOL    HW126681   5.928   2.853   6.291
 8594SOL    HW226682   6.016   2.732   6.224
 8595SOL     OW26683   5.566   0.387   3.013
 8595SOL    HW126684   5.580   0.332   3.096
 8595SOL    HW226685   5.634   0.460   3.009
 8596SOL     OW26686   1.108   3.276   3.390
 8596SOL    HW126687   1.041   3.288   3.463
 8596SOL    HW226688   1.200   3.274   3.428
 8597SOL     OW26689   6.456   2.613   0.955
 8597SOL    HW126690   6.396   2.536   0.934
 8597SOL    HW226691   6.400   2.690   0.987
 8598SOL     OW26692   5.669   0.820   4.892
 8598SOL    HW126693   5.745   0.754   4.890
 8598SOL    HW226694   5.697   0.900   4.945
 8599SOL     OW26695   1.626   2.932   3.370
 8599SOL    HW126696   1.660   2.891   3.455
 8599SOL    HW226697   1.629   3.032   3.378
 8600SOL     OW26698   4.847   3.641   1.095
 8600SOL    HW126699   4.803   3.703   1.159
 8600SOL    HW226700   4.936   3.678   1.067
 8601SOL     OW26701   0.666   1.580   3.607
 8601SOL    HW126702   0.587   1.533   3.568
 8601SOL    HW226703   0.744   1.518   3.610
 8602SOL     OW26704   2.505   6.955   3.269
 8602SOL    HW126705   2.558   6.935   3.352
 8602SOL    HW226706   2.543   0.017   3.224
 8603SOL     OW26707   6.056   1.200   0.085
 8603SOL    HW126708   6.034   1.160   0.173
 8603SOL    HW226709   6.030   1.297   0.085
 8604SOL     OW26710   0.394   3.307   6.346
 8604SOL    HW126711   0.384   3.388   6.289
 8604SOL    HW226712   0.312   3.250   6.337
 8605SOL     OW26713   0.166   4.655   4.469
 8605SOL    HW126714   0.099   4.680   4.539
 8605SOL    HW226715   0.131   4.576   4.417
 8606SOL     OW26716   2.815   1.987   6.492
 8606SOL    HW126717   2.762   2.022   6.569
 8606SOL    HW226718   2.818   2.055   6.420
 8607SOL     OW26719   2.188   4.850   0.707
 8607SOL    HW126720   2.175   4.932   0.651
 8607SOL    HW226721   2.180   4.874   0.804
 8608SOL     OW26722   2.638   4.618   2.756
 8608SOL    HW126723   2.673   4.578   2.672
 8608SOL    HW226724   2.714   4.635   2.819
 8609SOL     OW26725   4.820   1.201   3.906
 8609SOL    HW126726   4.894   1.157   3.956
 8609SOL    HW226727   4.794   1.285   3.953
 8610SOL     OW26728   6.985   6.576   2.821
 8610SOL    HW126729   6.943   6.611   2.737
 8610SOL    HW226730   0.061   6.607   2.826
 8611SOL     OW26731   3.098   0.996   3.819
 8611SOL    HW126732   3.187   1.009   3.863
 8611SOL    HW226733   3.099   1.037   3.728
 8612SOL     OW26734   2.897   3.294   2.780
 8612SOL    HW126735   2.886   3.228   2.705
 8612SOL    HW226736   2.901   3.386   2.742
 8613SOL     OW26737   2.907   2.672   1.526
 8613SOL    HW126738   2.946   2.641   1.613
 8613SOL    HW226739   2.977   2.670   1.455
 8614SOL     OW26740   1.273   2.702   2.063
 8614SOL    HW126741   1.369   2.689   2.037
 8614SOL    HW226742   1.214   2.660   1.993
 8615SOL     OW26743   5.062   2.170   4.684
 8615SOL    HW126744   5.049   2.071   4.677
 8615SOL    HW226745   4.986   2.209   4.736
 8616SOL     OW26746   3.206   5.136   2.424
 8616SOL    HW126747   3.117   5.169   2.457
 8616SOL    HW226748   3.238   5.063   2.485
 8617SOL     OW26749   5.799   6.910   3.682
 8617SOL    HW126750   5.712   6.956   3.697
 8617SOL    HW226751   5.874   6.972   3.702
 8618SOL     OW26752   6.414   3.897   1.088
 8618SOL    HW126753   6.430   3.803   1.059
 8618SOL    HW226754   6.501   3.946   1.092
 8619SOL     OW26755   4.762   4.923   2.306
 8619SOL    HW126756   4.721   4.832   2.316
 8619SOL    HW226757   4.763   4.949   2.209
 8620SOL     OW26758   2.171   0.255   4.583
 8620SOL    HW126759   2.254   0.264   4.639
 8620SOL    HW226760   2.187   0.299   4.495
 8621SOL     OW26761   4.865   2.787   2.068
 8621SOL    HW126762   4.932   2.788   2.142
 8621SOL    HW226763   4.839   2.880   2.045
 8622SOL     OW26764   6.277   5.260   2.223
 8622SOL    HW126765   6.372   5.251   2.250
 8622SOL    HW226766   6.235   5.337   2.271
 8623SOL     OW26767   6.940   3.503   4.598
 8623SOL    HW126768   6.957   3.516   4.696
 8623SOL    HW226769   7.009   3.440   4.560
 8624SOL     OW26770   3.246   3.623   6.070
 8624SOL    HW126771   3.175   3.592   6.134
 8624SOL    HW226772   3.254   3.559   5.994
 8625SOL     OW26773   3.875   1.049   5.022
 8625SOL    HW126774   3.835   1.141   5.022
 8625SOL    HW226775   3.971   1.055   4.996
 8626SOL     OW26776   4.343   2.560   0.491
 8626SOL    HW126777   4.336   2.596   0.398
 8626SOL    HW226778   4.403   2.480   0.491
 8627SOL     OW26779   1.700   1.588   2.236
 8627SOL    HW126780   1.720   1.639   2.152
 8627SOL    HW226781   1.727   1.643   2.316
 8628SOL     OW26782   6.855   6.680   0.226
 8628SOL    HW126783   6.803   6.744   0.283
 8628SOL    HW226784   6.848   6.708   0.130
 8629SOL     OW26785   0.985   0.100   4.524
 8629SOL    HW126786   0.904   0.153   4.497
 8629SOL    HW226787   1.066   0.159   4.519
 8630SOL     OW26788   4.876   3.538   3.544
 8630SOL    HW126789   4.885   3.457   3.487
 8630SOL    HW226790   4.875   3.512   3.641
 8631SOL     OW26791   2.351   5.804   0.129
 8631SOL    HW126792   2.441   5.815   0.087
 8631SOL    HW226793   2.326   5.707   0.130
 8632SOL     OW26794   4.074   4.530   5.370
 8632SOL    HW126795   4.064   4.481   5.457
 8632SOL    HW226796   4.145   4.485   5.315
 8633SOL     OW26797   5.459   3.882   5.814
 8633SOL    HW126798   5.527   3.815   5.786
 8633SOL    HW226799   5.375   3.868   5.761
 8634SOL     OW26800   5.315   5.059   0.427
 8634SOL    HW126801   5.265   5.029   0.509
 8634SOL    HW226802   5.358   4.980   0.384
 8635SOL     OW26803   6.011   2.968   6.927
 8635SOL    HW126804   6.072   2.918   6.987
 8635SOL    HW226805   5.916   2.941   6.944
 8636SOL     OW26806   4.141   5.879   0.477
 8636SOL    HW126807   4.153   5.872   0.378
 8636SOL    HW226808   4.220   5.839   0.523
 8637SOL     OW26809   1.905   1.387   6.612
 8637SOL    HW126810   1.977   1.346   6.555
 8637SOL    HW226811   1.817   1.347   6.587
 8638SOL     OW26812   4.377   2.938   5.501
 8638SOL    HW126813   4.317   3.016   5.517
 8638SOL    HW226814   4.464   2.970   5.464
 8639SOL     OW26815   5.060   3.335   6.997
 8639SOL    HW126816   5.083   3.311   0.072
 8639SOL    HW226817   5.108   3.419   6.971
 8640SOL     OW26818   3.728   3.035   1.237
 8640SOL    HW126819   3.774   3.093   1.304
 8640SOL    HW226820   3.650   3.084   1.199
 8641SOL     OW26821   4.373   5.742   3.372
 8641SOL    HW126822   4.302   5.749   3.442
 8641SOL    HW226823   4.423   5.656   3.383
 8642SOL     OW26824   0.859   6.422   3.694
 8642SOL    HW126825   0.832   6.401   3.600
 8642SOL    HW226826   0.958   6.418   3.702
 8643SOL     OW26827   2.618   6.896   0.365
 8643SOL    HW126828   2.561   6.921   0.443
 8643SOL    HW226829   2.569   6.831   0.307
 8644SOL     OW26830   5.946   2.144   6.204
 8644SOL    HW126831   5.867   2.190   6.163
 8644SOL    HW226832   5.915   2.092   6.285
 8645SOL     OW26833   5.331   4.522   1.408
 8645SOL    HW126834   5.233   4.512   1.393
 8645SOL    HW226835   5.372   4.573   1.333
 8646SOL     OW26836   0.081   2.156   6.033
 8646SOL    HW126837   0.083   2.211   6.116
 8646SOL    HW226838   7.005   2.142   6.004
 8647SOL     OW26839   3.199   5.346   1.091
 8647SOL    HW126840   3.197   5.252   1.124
 8647SOL    HW226841   3.145   5.404   1.152
 8648SOL     OW26842   5.563   6.787   0.892
 8648SOL    HW126843   5.630   6.797   0.819
 8648SOL    HW226844   5.482   6.841   0.871
 8649SOL     OW26845   4.584   6.464   6.931
 8649SOL    HW126846   4.553   6.373   6.960
 8649SOL    HW226847   4.583   6.470   6.831
 8650SOL     OW26848   1.883   0.223   4.329
 8650SOL    HW126849   1.853   0.130   4.308
 8650SOL    HW226850   1.824   0.288   4.283
 8651SOL     OW26851   2.819   1.496   0.844
 8651SOL    HW126852   2.876   1.449   0.912
 8651SOL    HW226853   2.730   1.517   0.884
 8652SOL     OW26854   0.585   4.979   4.077
 8652SOL    HW126855   0.626   5.028   4.000
 8652SOL    HW226856   0.550   4.890   4.046
 8653SOL     OW26857   6.496   1.683   5.929
 8653SOL    HW126858   6.581   1.723   5.964
 8653SOL    HW226859   6.418   1.732   5.969
 8654SOL     OW26860   0.831   4.816   1.734
 8654SOL    HW126861   0.769   4.853   1.802
 8654SOL    HW226862   0.883   4.740   1.773
 8655SOL     OW26863   6.559   1.298   5.354
 8655SOL    HW126864   6.605   1.225   5.406
 8655SOL    HW226865   6.562   1.383   5.406
 8656SOL     OW26866   5.577   6.840   2.058
 8656SOL    HW126867   5.570   6.767   1.991
 8656SOL    HW226868   5.500   6.836   2.121
 8657SOL     OW26869   5.866   6.467   0.400
 8657SOL    HW126870   5.869   6.554   0.352
 8657SOL    HW226871   5.775   6.426   0.390
 8658SOL     OW26872   6.040   5.772   1.076
 8658SOL    HW126873   5.964   5.832   1.051
 8658SOL    HW226874   6.050   5.771   1.176
 8659SOL     OW26875   4.481   2.458   2.852
 8659SOL    HW126876   4.462   2.422   2.760
 8659SOL    HW226877   4.514   2.552   2.845
 8660SOL     OW26878   0.480   2.820   1.760
 8660SOL    HW126879   0.493   2.874   1.843
 8660SOL    HW226880   0.505   2.725   1.777
 8661SOL     OW26881   6.347   3.263   3.254
 8661SOL    HW126882   6.445   3.257   3.233
 8661SOL    HW226883   6.333   3.324   3.332
 8662SOL     OW26884   3.641   5.954   2.192
 8662SOL    HW126885   3.551   5.915   2.175
 8662SOL    HW226886   3.633   6.029   2.259
 8663SOL     OW26887   2.975   5.546   3.073
 8663SOL    HW126888   3.068   5.578   3.058
 8663SOL    HW226889   2.959   5.532   3.171
 8664SOL     OW26890   1.719   5.460   2.781
 8664SOL    HW126891   1.683   5.493   2.868
 8664SOL    HW226892   1.671   5.377   2.754
 8665SOL     OW26893   6.527   5.065   5.660
 8665SOL    HW126894   6.488   5.118   5.584
 8665SOL    HW226895   6.457   5.054   5.731
 8666SOL     OW26896   5.840   0.018   4.064
 8666SOL    HW126897   5.908   7.011   3.996
 8666SOL    HW226898   5.749   7.008   4.034
 8667SOL     OW26899   5.144   1.230   4.533
 8667SOL    HW126900   5.161   1.314   4.584
 8667SOL    HW226901   5.080   1.173   4.585
 8668SOL     OW26902   5.125   3.226   4.810
 8668SOL    HW126903   5.184   3.169   4.867
 8668SOL    HW226904   5.032   3.191   4.813
 8669SOL     OW26905   0.069   6.450   6.297
 8669SOL    HW126906   0.073   6.509   6.216
 8669SOL    HW226907   0.050   6.505   6.378
 8670SOL     OW26908   5.386   4.770   5.738
 8670SOL    HW126909   5.307   4.792   5.682
 8670SOL    HW226910   5.468   4.809   5.697
 8671SOL     OW26911   0.468   1.838   2.350
 8671SOL    HW126912   0.504   1.924   2.384
 8671SOL    HW226913   0.402   1.856   2.277
 8672SOL     OW26914   0.222   0.559   3.552
 8672SOL    HW126915   0.219   0.535   3.455
 8672SOL    HW226916   0.129   0.558   3.590
 8673SOL     OW26917   6.587   1.629   0.223
 8673SOL    HW126918   6.646   1.670   0.154
 8673SOL    HW226919   6.642   1.577   0.288
 8674SOL     OW26920   0.142   4.372   3.090
 8674SOL    HW126921   0.093   4.453   3.058
 8674SOL    HW226922   0.205   4.397   3.164
 8675SOL     OW26923   3.985   1.318   5.799
 8675SOL    HW126924   3.947   1.255   5.731
 8675SOL    HW226925   3.993   1.409   5.760
 8676SOL     OW26926   5.881   1.069   1.557
 8676SOL    HW126927   5.967   1.118   1.546
 8676SOL    HW226928   5.833   1.066   1.469
 8677SOL     OW26929   1.807   5.879   5.477
 8677SOL    HW126930   1.834   5.975   5.475
 8677SOL    HW226931   1.888   5.821   5.470
 8678SOL     OW26932   1.181   6.634   0.316
 8678SOL    HW126933   1.276   6.609   0.334
 8678SOL    HW226934   1.163   6.625   0.218
 8679SOL     OW26935   1.980   0.989   4.020
 8679SOL    HW126936   1.947   1.052   4.091
 8679SOL    HW226937   2.071   0.956   4.044
 8680SOL     OW26938   6.243   2.628   6.319
 8680SOL    HW126939   6.153   2.669   6.327
 8680SOL    HW226940   6.282   2.614   6.410
 8681SOL     OW26941   4.770   5.866   1.503
 8681SOL    HW126942   4.860   5.904   1.482
 8681SOL    HW226943   4.700   5.936   1.487
 8682SOL     OW26944   6.573   0.386   1.140
 8682SOL    HW126945   6.593   0.474   1.098
 8682SOL    HW226946   6.477   0.383   1.168
 8683SOL     OW26947   1.545   3.308   4.913
 8683SOL    HW126948   1.455   3.345   4.932
 8683SOL    HW226949   1.543   3.258   4.826
 8684SOL     OW26950   0.451   3.707   4.314
 8684SOL    HW126951   0.538   3.663   4.337
 8684SOL    HW226952   0.408   3.659   4.238
 8685SOL     OW26953   5.221   2.501   6.415
 8685SOL    HW126954   5.300   2.558   6.441
 8685SOL    HW226955   5.244   2.405   6.427
 8686SOL     OW26956   6.481   6.398   3.163
 8686SOL    HW126957   6.407   6.465   3.153
 8686SOL    HW226958   6.473   6.328   3.092
 8687SOL     OW26959   6.316   4.040   3.112
 8687SOL    HW126960   6.316   3.970   3.184
 8687SOL    HW226961   6.307   4.131   3.155
 8688SOL     OW26962   1.807   3.741   6.594
 8688SOL    HW126963   1.854   3.685   6.663
 8688SOL    HW226964   1.773   3.682   6.521
 8689SOL     OW26965   4.953   3.110   0.506
 8689SOL    HW126966   5.034   3.063   0.542
 8689SOL    HW226967   4.967   3.134   0.411
 8690SOL     OW26968   0.699   2.362   2.864
 8690SOL    HW126969   0.754   2.405   2.793
 8690SOL    HW226970   0.757   2.303   2.921
 8691SOL     OW26971   3.338   1.717   4.825
 8691SOL    HW126972   3.386   1.630   4.833
 8691SOL    HW226973   3.402   1.792   4.842
 8692SOL     OW26974   4.226   2.067   5.697
 8692SOL    HW126975   4.193   2.002   5.766
 8692SOL    HW226976   4.203   2.032   5.606
 8693SOL     OW26977   6.643   1.415   6.536
 8693SOL    HW126978   6.692   1.452   6.615
 8693SOL    HW226979   6.634   1.316   6.546
 8694SOL     OW26980   6.094   2.596   4.756
 8694SOL    HW126981   6.080   2.654   4.836
 8694SOL    HW226982   6.177   2.541   4.768
 8695SOL     OW26983   3.895   3.546   6.679
 8695SOL    HW126984   3.913   3.629   6.626
 8695SOL    HW226985   3.961   3.538   6.753
 8696SOL     OW26986   2.099   5.883   5.153
 8696SOL    HW126987   2.094   5.956   5.221
 8696SOL    HW226988   2.193   5.874   5.119
 8697SOL     OW26989   1.868   4.337   5.708
 8697SOL    HW126990   1.937   4.266   5.695
 8697SOL    HW226991   1.782   4.295   5.737
 8698SOL     OW26992   5.099   5.749   5.886
 8698SOL    HW126993   5.190   5.765   5.926
 8698SOL    HW226994   5.036   5.819   5.920
 8699SOL     OW26995   2.519   2.888   6.166
 8699SOL    HW126996   2.518   2.923   6.073
 8699SOL    HW226997   2.428   2.897   6.207
 8700SOL     OW26998   0.808   0.262   5.202
 8700SOL    HW126999   0.866   0.290   5.126
 8700SOL    HW227000   0.824   0.323   5.280
 8701SOL     OW27001   1.545   1.676   6.881
 8701SOL    HW127002   1.604   1.596   6.872
 8701SOL    HW227003   1.449   1.647   6.877
 8702SOL     OW27004   5.191   5.257   1.457
 8702SOL    HW127005   5.148   5.282   1.370
 8702SOL    HW227006   5.290   5.266   1.448
 8703SOL     OW27007   2.651   4.623   6.758
 8703SOL    HW127008   2.576   4.677   6.796
 8703SOL    HW227009   2.615   4.555   6.695
 8704SOL     OW27010   6.957   2.660   4.263
 8704SOL    HW127011   7.017   2.644   4.185
 8704SOL    HW227012   6.951   2.576   4.318
 8705SOL     OW27013   4.607   2.656   6.764
 8705SOL    HW127014   4.600   2.736   6.704
 8705SOL    HW227015   4.676   2.593   6.727
 8706SOL     OW27016   5.665   2.825   0.226
 8706SOL    HW127017   5.619   2.868   0.148
 8706SOL    HW227018   5.758   2.860   0.234
 8707SOL     OW27019   1.426   2.059   4.259
 8707SOL    HW127020   1.472   2.031   4.175
 8707SOL    HW227021   1.483   2.126   4.307
 8708SOL     OW27022   4.905   2.279   4.180
 8708SOL    HW127023   4.942   2.244   4.265
 8708SOL    HW227024   4.958   2.358   4.150
 8709SOL     OW27025   6.796   0.159   0.184
 8709SOL    HW127026   6.870   0.159   0.117
 8709SOL    HW227027   6.769   0.064   0.203
 8710SOL     OW27028   1.820   2.023   3.991
 8710SOL    HW127029   1.856   2.038   3.899
 8710SOL    HW227030   1.872   1.950   4.036
 8711SOL     OW27031   0.889   1.382   1.954
 8711SOL    HW127032   0.820   1.442   1.997
 8711SOL    HW227033   0.850   1.291   1.943
 8712SOL     OW27034   2.656   2.092   5.270
 8712SOL    HW127035   2.613   2.035   5.340
 8712SOL    HW227036   2.611   2.077   5.182
 8713SOL     OW27037   1.260   3.905   1.853
 8713SOL    HW127038   1.184   3.855   1.895
 8713SOL    HW227039   1.328   3.840   1.819
 8714SOL     OW27040   0.015   6.362   0.344
 8714SOL    HW127041   0.062   6.450   0.357
 8714SOL    HW227042   6.942   6.379   0.310
 8715SOL     OW27043   2.513   1.775   0.220
 8715SOL    HW127044   2.602   1.760   0.177
 8715SOL    HW227045   2.440   1.760   0.154
 8716SOL     OW27046   0.057   6.141   1.694
 8716SOL    HW127047   0.121   6.098   1.631
 8716SOL    HW227048   0.033   6.232   1.660
 8717SOL     OW27049   2.411   3.834   6.218
 8717SOL    HW127050   2.429   3.762   6.285
 8717SOL    HW227051   2.319   3.871   6.233
 8718SOL     OW27052   1.313   3.127   6.178
 8718SOL    HW127053   1.405   3.102   6.147
 8718SOL    HW227054   1.267   3.045   6.213
 8719SOL     OW27055   3.661   0.870   0.011
 8719SOL    HW127056   3.635   0.966   0.005
 8719SOL    HW227057   3.652   0.838   0.106
 8720SOL     OW27058   6.706   4.891   5.184
 8720SOL    HW127059   6.749   4.981   5.193
 8720SOL    HW227060   6.761   4.823   5.233
 8721SOL     OW27061   6.679   6.145   6.457
 8721SOL    HW127062   6.761   6.179   6.412
 8721SOL    HW227063   6.682   6.168   6.554
 8722SOL     OW27064   3.086   0.424   0.672
 8722SOL    HW127065   3.142   0.498   0.635
 8722SOL    HW227066   3.144   0.344   0.687
 8723SOL     OW27067   5.658   0.092   2.379
 8723SOL    HW127068   5.698   0.050   2.298
 8723SOL    HW227069   5.566   0.124   2.358
 8724SOL     OW27070   4.550   0.295   4.361
 8724SOL    HW127071   4.480   0.294   4.432
 8724SOL    HW227072   4.626   0.353   4.389
 8725SOL     OW27073   0.588   6.567   4.939
 8725SOL    HW127074   0.584   6.655   4.986
 8725SOL    HW227075   0.599   6.494   5.006
 8726SOL     OW27076   6.899   1.593   0.333
 8726SOL    HW127077   6.967   1.667   0.333
 8726SOL    HW227078   6.930   1.520   0.273
 8727SOL     OW27079   6.336   6.764   6.563
 8727SOL    HW127080   6.399   6.687   6.574
 8727SOL    HW227081   6.359   6.836   6.628
 8728SOL     OW27082   5.438   1.104   2.796
 8728SOL    HW127083   5.466   1.162   2.872
 8728SOL    HW227084   5.423   1.010   2.829
 8729SOL     OW27085   3.294   5.103   5.279
 8729SOL    HW127086   3.326   5.009   5.293
 8729SOL    HW227087   3.254   5.138   5.364
 8730SOL     OW27088   5.467   4.358   3.247
 8730SOL    HW127089   5.408   4.309   3.183
 8730SOL    HW227090   5.532   4.415   3.196
 8731SOL     OW27091   6.984   2.489   3.046
 8731SOL    HW127092   0.064   2.497   3.034
 8731SOL    HW227093   6.961   2.500   3.142
 8732SOL     OW27094   5.318   4.901   1.233
 8732SOL    HW127095   5.386   4.946   1.174
 8732SOL    HW227096   5.351   4.899   1.327
 8733SOL     OW27097   0.781   5.580   0.879
 8733SOL    HW127098   0.830   5.493   0.867
 8733SOL    HW227099   0.782   5.630   0.792
 8734SOL     OW27100   6.914   3.609   2.399
 8734SOL    HW127101   6.990   3.669   2.423
 8734SOL    HW227102   6.939   3.514   2.418
 8735SOL     OW27103   1.579   3.396   5.291
 8735SOL    HW127104   1.566   3.299   5.271
 8735SOL    HW227105   1.491   3.437   5.315
 8736SOL     OW27106   0.675   5.621   2.203
 8736SOL    HW127107   0.713   5.575   2.284
 8736SOL    HW227108   0.575   5.619   2.208
 8737SOL     OW27109   2.289   5.691   6.512
 8737SOL    HW127110   2.273   5.635   6.431
 8737SOL    HW227111   2.308   5.632   6.591
 8738SOL     OW27112   1.193   3.817   3.544
 8738SOL    HW127113   1.231   3.821   3.636
 8738SOL    HW227114   1.258   3.771   3.483
 8739SOL     OW27115   5.581   3.897   5.310
 8739SOL    HW127116   5.553   3.973   5.369
 8739SOL    HW227117   5.635   3.832   5.364
 8740SOL     OW27118   3.810   2.180   3.167
 8740SOL    HW127119   3.845   2.144   3.080
 8740SOL    HW227120   3.868   2.255   3.197
 8741SOL     OW27121   2.196   6.908   2.575
 8741SOL    HW127122   2.249   6.921   2.659
 8741SOL    HW227123   2.208   6.988   2.515
 8742SOL     OW27124   3.892   0.673   2.625
 8742SOL    HW127125   3.826   0.627   2.684
 8742SOL    HW227126   3.871   0.771   2.623
 8743SOL     OW27127   1.478   0.835   1.983
 8743SOL    HW127128   1.556   0.776   1.962
 8743SOL    HW227129   1.511   0.922   2.022
 8744SOL     OW27130   4.388   3.111   6.965
 8744SOL    HW127131   4.425   3.055   0.020
 8744SOL    HW227132   4.289   3.101   6.961
 8745SOL     OW27133   6.757   2.494   6.661
 8745SOL    HW127134   6.804   2.420   6.710
 8745SOL    HW227135   6.739   2.466   6.567
 8746SOL     OW27136   4.842   4.909   4.160
 8746SOL    HW127137   4.744   4.922   4.178
 8746SOL    HW227138   4.871   4.974   4.089
 8747SOL     OW27139   6.528   1.176   2.109
 8747SOL    HW127140   6.570   1.265   2.122
 8747SOL    HW227141   6.552   1.116   2.185
 8748SOL     OW27142   0.862   1.721   4.044
 8748SOL    HW127143   0.803   1.774   3.982
 8748SOL    HW227144   0.944   1.773   4.064
 8749SOL     OW27145   1.903   1.040   5.256
 8749SOL    HW127146   1.841   1.000   5.323
 8749SOL    HW227147   1.994   0.999   5.267
 8750SOL     OW27148   4.030   2.755   5.918
 8750SOL    HW127149   4.080   2.723   5.999
 8750SOL    HW227150   3.941   2.791   5.947
 8751SOL     OW27151   6.801   7.016   0.736
 8751SOL    HW127152   6.846   6.979   0.817
 8751SOL    HW227153   6.705   6.987   0.735
 8752SOL     OW27154   5.029   2.847   0.261
 8752SOL    HW127155   5.063   2.807   0.346
 8752SOL    HW227156   4.981   2.778   0.208
 8753SOL     OW27157   1.682   3.518   0.105
 8753SOL    HW127158   1.671   3.594   0.041
 8753SOL    HW227159   1.655   3.433   0.060
 8754SOL     OW27160   2.715   5.035   6.481
 8754SOL    HW127161   2.712   5.134   6.488
 8754SOL    HW227162   2.796   5.000   6.528
 8755SOL     OW27163   0.816   1.535   1.257
 8755SOL    HW127164   0.782   1.484   1.177
 8755SOL    HW227165   0.812   1.477   1.338
 8756SOL     OW27166   2.340   2.700   4.071
 8756SOL    HW127167   2.424   2.739   4.035
 8756SOL    HW227168   2.263   2.726   4.013
 8757SOL     OW27169   5.310   5.834   5.256
 8757SOL    HW127170   5.309   5.834   5.156
 8757SOL    HW227171   5.402   5.859   5.287
 8758SOL     OW27172   3.915   0.218   3.216
 8758SOL    HW127173   3.969   0.233   3.299
 8758SOL    HW227174   3.977   0.204   3.138
 8759SOL     OW27175   6.352   1.263   6.778
 8759SOL    HW127176   6.284   1.280   6.707
 8759SOL    HW227177   6.409   1.344   6.791
 8760SOL     OW27178   1.961   1.825   4.106
 8760SOL    HW127179   2.038   1.776   4.063
 8760SOL    HW227180   1.989   1.857   4.196
 8761SOL     OW27181   5.297   1.450   1.980
 8761SOL    HW127182   5.223   1.509   1.948
 8761SOL    HW227183   5.272   1.354   1.965
 8762SOL     OW27184   1.744   6.005   3.957
 8762SOL    HW127185   1.772   6.092   3.916
 8762SOL    HW227186   1.790   5.930   3.911
 8763SOL     OW27187   0.016   0.809   5.337
 8763SOL    HW127188   0.037   0.888   5.279
 8763SOL    HW227189   6.937   0.803   5.352
 8764SOL     OW27190   4.331   5.720   5.946
 8764SOL    HW127191   4.231   5.724   5.953
 8764SOL    HW227192   4.372   5.781   6.014
 8765SOL     OW27193   5.969   1.098   5.455
 8765SOL    HW127194   5.929   1.024   5.509
 8765SOL    HW227195   6.022   1.059   5.380
 8766SOL     OW27196   4.741   4.256   5.709
 8766SOL    HW127197   4.690   4.331   5.751
 8766SOL    HW227198   4.821   4.234   5.764
 8767SOL     OW27199   3.294   0.179   3.511
 8767SOL    HW127200   3.361   0.184   3.584
 8767SOL    HW227201   3.209   0.140   3.545
 8768SOL     OW27202   0.323   2.228   6.690
 8768SOL    HW127203   0.277   2.142   6.670
 8768SOL    HW227204   0.293   2.262   6.779
 8769SOL     OW27205   6.314   1.130   1.786
 8769SOL    HW127206   6.376   1.063   1.826
 8769SOL    HW227207   6.219   1.102   1.803
 8770SOL     OW27208   5.425   4.032   2.110
 8770SOL    HW127209   5.394   3.976   2.032
 8770SOL    HW227210   5.353   4.094   2.137
 8771SOL     OW27211   0.444   3.564   6.686
 8771SOL    HW127212   0.416   3.647   6.734
 8771SOL    HW227213   0.399   3.562   6.596
 8772SOL     OW27214   5.382   0.812   4.882
 8772SOL    HW127215   5.476   0.786   4.903
 8772SOL    HW227216   5.359   0.783   4.789
 8773SOL     OW27217   6.367   2.559   4.127
 8773SOL    HW127218   6.343   2.573   4.223
 8773SOL    HW227219   6.359   2.646   4.078
 8774SOL     OW27220   0.837   6.686   6.988
 8774SOL    HW127221   0.762   6.646   6.936
 8774SOL    HW227222   0.804   6.763   0.022
 8775SOL     OW27223   5.685   1.650   4.764
 8775SOL    HW127224   5.700   1.717   4.691
 8775SOL    HW227225   5.766   1.646   4.823
 8776SOL     OW27226   4.324   3.040   1.023
 8776SOL    HW127227   4.263   3.102   1.073
 8776SOL    HW227228   4.273   2.959   0.994
 8777SOL     OW27229   1.028   3.139   2.880
 8777SOL    HW127230   1.001   3.098   2.793
 8777SOL    HW227231   1.128   3.138   2.887
 8778SOL     OW27232   4.131   3.964   6.188
 8778SOL    HW127233   4.178   4.052   6.194
 8778SOL    HW227234   4.112   3.930   6.280
 8779SOL     OW27235   2.969   5.209   2.532
 8779SOL    HW127236   2.952   5.165   2.621
 8779SOL    HW227237   2.974   5.308   2.544
 8780SOL     OW27238   0.390   5.635   2.168
 8780SOL    HW127239   0.344   5.711   2.213
 8780SOL    HW227240   0.361   5.549   2.210
 8781SOL     OW27241   4.449   0.149   2.603
 8781SOL    HW127242   4.509   0.215   2.556
 8781SOL    HW227243   4.355   0.184   2.603
 8782SOL     OW27244   5.620   0.784   1.939
 8782SOL    HW127245   5.611   0.831   1.851
 8782SOL    HW227246   5.622   0.852   2.013
 8783SOL     OW27247   5.455   3.450   4.689
 8783SOL    HW127248   5.392   3.448   4.767
 8783SOL    HW227249   5.477   3.356   4.662
 8784SOL     OW27250   6.336   6.146   0.606
 8784SOL    HW127251   6.343   6.207   0.528
 8784SOL    HW227252   6.255   6.089   0.597
 8785SOL     OW27253   0.675   5.243   6.252
 8785SOL    HW127254   0.745   5.285   6.310
 8785SOL    HW227255   0.657   5.304   6.174
 8786SOL     OW27256   4.377   2.267   2.159
 8786SOL    HW127257   4.396   2.181   2.110
 8786SOL    HW227258   4.294   2.308   2.122
 8787SOL     OW27259   3.465   0.933   1.456
 8787SOL    HW127260   3.376   0.939   1.501
 8787SOL    HW227261   3.469   0.849   1.401
 8788SOL     OW27262   0.365   0.477   5.591
 8788SOL    HW127263   0.419   0.443   5.514
 8788SOL    HW227264   0.268   0.475   5.567
 8789SOL     OW27265   0.291   3.689   5.302
 8789SOL    HW127266   0.218   3.698   5.370
 8789SOL    HW227267   0.258   3.717   5.212
 8790SOL     OW27268   6.302   2.287   0.433
 8790SOL    HW127269   6.246   2.240   0.365
 8790SOL    HW227270   6.307   2.233   0.517
 8791SOL     OW27271   4.654   6.151   5.122
 8791SOL    HW127272   4.707   6.071   5.093
 8791SOL    HW227273   4.690   6.233   5.077
 8792SOL     OW27274   4.060   5.433   1.530
 8792SOL    HW127275   4.031   5.359   1.591
 8792SOL    HW227276   4.155   5.457   1.548
 8793SOL     OW27277   1.248   5.250   4.280
 8793SOL    HW127278   1.233   5.189   4.358
 8793SOL    HW227279   1.182   5.325   4.283
 8794SOL     OW27280   6.029   1.135   3.257
 8794SOL    HW127281   6.050   1.080   3.338
 8794SOL    HW227282   6.004   1.227   3.284
 8795SOL     OW27283   1.385   5.105   5.489
 8795SOL    HW127284   1.426   5.093   5.579
 8795SOL    HW227285   1.364   5.201   5.474
 8796SOL     OW27286   6.183   3.712   3.449
 8796SOL    HW127287   6.180   3.711   3.349
 8796SOL    HW227288   6.106   3.765   3.485
 8797SOL     OW27289   6.952   6.524   3.675
 8797SOL    HW127290   6.919   6.598   3.616
 8797SOL    HW227291   0.033   6.526   3.678
 8798SOL     OW27292   4.581   6.687   4.977
 8798SOL    HW127293   4.572   6.716   5.073
 8798SOL    HW227294   4.572   6.767   4.917
 8799SOL     OW27295   2.223   4.917   2.011
 8799SOL    HW127296   2.226   5.015   2.032
 8799SOL    HW227297   2.128   4.888   2.004
 8800SOL     OW27298   6.898   6.573   5.622
 8800SOL    HW127299   6.911   6.628   5.540
 8800SOL    HW227300   6.892   6.633   5.702
 8801SOL     OW27301   5.949   2.008   5.326
 8801SOL    HW127302   5.957   2.103   5.294
 8801SOL    HW227303   5.854   1.989   5.351
 8802SOL     OW27304   1.458   5.445   5.721
 8802SOL    HW127305   1.501   5.534   5.710
 8802SOL    HW227306   1.410   5.442   5.809
 8803SOL     OW27307   6.444   0.729   7.004
 8803SOL    HW127308   6.346   0.710   7.012
 8803SOL    HW227309   6.476   0.704   6.912
 8804SOL     OW27310   1.766   6.010   1.002
 8804SOL    HW127311   1.735   6.051   1.088
 8804SOL    HW227312   1.779   6.082   0.934
 8805SOL     OW27313   4.541   5.935   3.496
 8805SOL    HW127314   4.506   5.860   3.440
 8805SOL    HW227315   4.466   5.997   3.519
 8806SOL     OW27316   2.444   6.380   0.568
 8806SOL    HW127317   2.373   6.320   0.606
 8806SOL    HW227318   2.455   6.360   0.471
 8807SOL     OW27319   4.670   1.903   0.542
 8807SOL    HW127320   4.767   1.922   0.527
 8807SOL    HW227321   4.661   1.842   0.621
 8808SOL     OW27322   1.946   2.390   0.715
 8808SOL    HW127323   2.043   2.393   0.738
 8808SOL    HW227324   1.934   2.396   0.616
 8809SOL     OW27325   2.105   3.836   3.539
 8809SOL    HW127326   2.005   3.846   3.537
 8809SOL    HW227327   2.137   3.840   3.633
 8810SOL     OW27328   6.521   1.573   5.453
 8810SOL    HW127329   6.455   1.570   5.528
 8810SOL    HW227330   6.472   1.575   5.365
 8811SOL     OW27331   4.768   6.982   2.710
 8811SOL    HW127332   4.768   0.038   2.643
 8811SOL    HW227333   4.859   6.973   2.749
 8812SOL     OW27334   3.544   0.632   6.608
 8812SOL    HW127335   3.586   0.582   6.532
 8812SOL    HW227336   3.614   0.686   6.655
 8813SOL     OW27337   2.236   4.223   2.800
 8813SOL    HW127338   2.210   4.177   2.715
 8813SOL    HW227339   2.304   4.294   2.780
 8814SOL     OW27340   5.660   6.726   0.072
 8814SOL    HW127341   5.698   6.798   0.130
 8814SOL    HW227342   5.616   6.656   0.129
 8815SOL     OW27343   5.285   0.671   0.764
 8815SOL    HW127344   5.321   0.600   0.704
 8815SOL    HW227345   5.207   0.635   0.815
 8816SOL     OW27346   0.205   6.218   6.273
 8816SOL    HW127347   0.173   6.311   6.293
 8816SOL    HW227348   0.135   6.169   6.221
 8817SOL     OW27349   0.842   3.391   4.767
 8817SOL    HW127350   0.789   3.333   4.705
 8817SOL    HW227351   0.803   3.483   4.769
 8818SOL     OW27352   1.762   6.757   3.903
 8818SOL    HW127353   1.670   6.726   3.880
 8818SOL    HW227354   1.764   6.857   3.907
 8819SOL     OW27355   5.530   4.530   5.804
 8819SOL    HW127356   5.487   4.619   5.787
 8819SOL    HW227357   5.477   4.458   5.759
 8820SOL     OW27358   3.854   0.935   4.763
 8820SOL    HW127359   3.850   0.996   4.842
 8820SOL    HW227360   3.842   0.988   4.679
 8821SOL     OW27361   0.915   5.198   0.849
 8821SOL    HW127362   0.818   5.205   0.826
 8821SOL    HW227363   0.968   5.257   0.788
 8822SOL     OW27364   6.604   6.829   4.283
 8822SOL    HW127365   6.561   6.852   4.370
 8822SOL    HW227366   6.562   6.883   4.210
 8823SOL     OW27367   2.728   1.386   2.212
 8823SOL    HW127368   2.643   1.340   2.236
 8823SOL    HW227369   2.708   1.477   2.175
 8824SOL     OW27370   1.538   0.557   0.727
 8824SOL    HW127371   1.598   0.635   0.743
 8824SOL    HW227372   1.501   0.561   0.634
 8825SOL     OW27373   0.260   0.545   1.276
 8825SOL    HW127374   0.316   0.601   1.337
 8825SOL    HW227375   0.283   0.448   1.289
 8826SOL     OW27376   1.199   3.485   0.772
 8826SOL    HW127377   1.113   3.537   0.777
 8826SOL    HW227378   1.263   3.519   0.840
 8827SOL     OW27379   4.052   0.318   2.374
 8827SOL    HW127380   3.995   0.236   2.370
 8827SOL    HW227381   4.132   0.305   2.315
 8828SOL     OW27382   4.316   4.141   6.305
 8828SOL    HW127383   4.307   4.091   6.391
 8828SOL    HW227384   4.387   4.097   6.249
 8829SOL     OW27385   0.284   1.502   2.198
 8829SOL    HW127386   0.343   1.473   2.123
 8829SOL    HW227387   0.334   1.497   2.284
 8830SOL     OW27388   2.374   1.553   2.508
 8830SOL    HW127389   2.309   1.483   2.536
 8830SOL    HW227390   2.392   1.545   2.410
 8831SOL     OW27391   0.344   2.713   2.592
 8831SOL    HW127392   0.307   2.772   2.663
 8831SOL    HW227393   0.275   2.698   2.521
 8832SOL     OW27394   6.306   6.936   3.828
 8832SOL    HW127395   6.393   6.986   3.832
 8832SOL    HW227396   6.304   6.880   3.745
 8833SOL     OW27397   4.100   2.621   0.961
 8833SOL    HW127398   4.160   2.584   0.890
 8833SOL    HW227399   4.022   2.560   0.973
 8834SOL     OW27400   6.098   3.562   5.436
 8834SOL    HW127401   6.145   3.521   5.358
 8834SOL    HW227402   6.141   3.649   5.459
 8835SOL     OW27403   5.660   0.561   6.104
 8835SOL    HW127404   5.645   0.550   6.202
 8835SOL    HW227405   5.623   0.649   6.074
 8836SOL     OW27406   5.597   2.503   0.134
 8836SOL    HW127407   5.673   2.539   0.080
 8836SOL    HW227408   5.610   2.527   0.231
 8837SOL     OW27409   0.058   6.742   1.995
 8837SOL    HW127410   0.068   6.657   1.943
 8837SOL    HW227411   0.087   6.819   1.939
 8838SOL     OW27412   0.709   4.384   3.191
 8838SOL    HW127413   0.682   4.297   3.151
 8838SOL    HW227414   0.778   4.368   3.261
 8839SOL     OW27415   5.400   5.662   2.680
 8839SOL    HW127416   5.420   5.740   2.621
 8839SOL    HW227417   5.482   5.603   2.686
 8840SOL     OW27418   6.890   0.400   2.050
 8840SOL    HW127419   6.849   0.372   1.964
 8840SOL    HW227420   6.874   0.498   2.065
 8841SOL     OW27421   4.211   1.058   2.152
 8841SOL    HW127422   4.120   1.060   2.110
 8841SOL    HW227423   4.247   1.151   2.156
 8842SOL     OW27424   3.510   4.120   4.057
 8842SOL    HW127425   3.537   4.127   4.153
 8842SOL    HW227426   3.590   4.095   4.002
 8843SOL     OW27427   1.962   3.093   5.284
 8843SOL    HW127428   1.922   3.184   5.271
 8843SOL    HW227429   2.054   3.102   5.322
 8844SOL     OW27430   6.211   1.961   5.202
 8844SOL    HW127431   6.241   2.014   5.122
 8844SOL    HW227432   6.128   2.002   5.239
 8845SOL     OW27433   2.154   5.581   1.313
 8845SOL    HW127434   2.178   5.490   1.346
 8845SOL    HW227435   2.099   5.573   1.230
 8846SOL     OW27436   5.226   4.578   4.012
 8846SOL    HW127437   5.245   4.670   4.045
 8846SOL    HW227438   5.136   4.574   3.970
 8847SOL     OW27439   1.468   2.155   2.724
 8847SOL    HW127440   1.561   2.131   2.749
 8847SOL    HW227441   1.415   2.071   2.707
 8848SOL     OW27442   3.209   1.999   1.216
 8848SOL    HW127443   3.290   1.969   1.167
 8848SOL    HW227444   3.127   1.977   1.162
 8849SOL     OW27445   2.454   5.493   4.158
 8849SOL    HW127446   2.439   5.427   4.232
 8849SOL    HW227447   2.542   5.539   4.172
 8850SOL     OW27448   2.747   1.702   0.148
 8850SOL    HW127449   2.808   1.740   0.217
 8850SOL    HW227450   2.801   1.658   0.076
 8851SOL     OW27451   0.673   4.518   2.893
 8851SOL    HW127452   0.577   4.501   2.914
 8851SOL    HW227453   0.729   4.445   2.933
 8852SOL     OW27454   5.214   2.728   6.070
 8852SOL    HW127455   5.185   2.690   6.157
 8852SOL    HW227456   5.172   2.819   6.057
 8853SOL     OW27457   3.778   1.318   5.033
 8853SOL    HW127458   3.706   1.318   5.102
 8853SOL    HW227459   3.738   1.293   4.944
 8854SOL     OW27460   1.914   0.438   5.713
 8854SOL    HW127461   1.949   0.354   5.755
 8854SOL    HW227462   1.910   0.511   5.781
 8855SOL     OW27463   5.919   6.115   6.649
 8855SOL    HW127464   5.901   6.213   6.649
 8855SOL    HW227465   5.901   6.078   6.557
 8856SOL     OW27466   6.603   0.395   4.556
 8856SOL    HW127467   6.584   0.426   4.463
 8856SOL    HW227468   6.646   0.468   4.608
 8857SOL     OW27469   6.227   1.978   3.233
 8857SOL    HW127470   6.307   2.011   3.283
 8857SOL    HW227471   6.256   1.927   3.152
 8858SOL     OW27472   1.283   4.058   5.812
 8858SOL    HW127473   1.263   4.058   5.714
 8858SOL    HW227474   1.359   3.995   5.830
 8859SOL     OW27475   0.642   6.823   5.109
 8859SOL    HW127476   0.698   6.892   5.155
 8859SOL    HW227477   0.559   6.866   5.073
 8860SOL     OW27478   1.400   2.904   2.254
 8860SOL    HW127479   1.352   2.911   2.166
 8860SOL    HW227480   1.474   2.971   2.257
 8861SOL     OW27481   3.343   3.336   0.058
 8861SOL    HW127482   3.422   3.318   7.018
 8861SOL    HW227483   3.322   3.434   0.056
 8862SOL     OW27484   6.056   1.449   4.642
 8862SOL    HW127485   6.005   1.369   4.610
 8862SOL    HW227486   6.056   1.519   4.570
 8863SOL     OW27487   1.842   5.410   4.440
 8863SOL    HW127488   1.916   5.453   4.389
 8863SOL    HW227489   1.877   5.333   4.493
 8864SOL     OW27490   2.140   3.178   6.238
 8864SOL    HW127491   2.193   3.107   6.285
 8864SOL    HW227492   2.043   3.154   6.241
 8865SOL     OW27493   3.225   1.400   4.376
 8865SOL    HW127494   3.319   1.386   4.406
 8865SOL    HW227495   3.190   1.486   4.414
 8866SOL     OW27496   4.236   6.515   3.286
 8866SOL    HW127497   4.195   6.439   3.235
 8866SOL    HW227498   4.192   6.523   3.375
 8867SOL     OW27499   5.914   2.277   2.624
 8867SOL    HW127500   5.962   2.198   2.662
 8867SOL    HW227501   5.880   2.255   2.532
 8868SOL     OW27502   5.202   3.367   0.511
 8868SOL    HW127503   5.300   3.353   0.496
 8868SOL    HW227504   5.172   3.308   0.587
 8869SOL     OW27505   4.850   4.058   3.092
 8869SOL    HW127506   4.794   4.120   3.036
 8869SOL    HW227507   4.840   4.084   3.189
 8870SOL     OW27508   3.698   0.770   1.184
 8870SOL    HW127509   3.730   0.683   1.146
 8870SOL    HW227510   3.677   0.833   1.109
 8871SOL     OW27511   2.502   1.512   3.994
 8871SOL    HW127512   2.428   1.482   4.054
 8871SOL    HW227513   2.557   1.432   3.966
 8872SOL     OW27514   1.839   4.521   4.220
 8872SOL    HW127515   1.854   4.452   4.290
 8872SOL    HW227516   1.921   4.578   4.210
 8873SOL     OW27517   0.015   5.836   2.754
 8873SOL    HW127518   0.109   5.818   2.782
 8873SOL    HW227519   7.008   5.772   2.681
 8874SOL     OW27520   1.856   0.024   0.997
 8874SOL    HW127521   1.905   0.090   0.940
 8874SOL    HW227522   1.871   0.046   1.093
 8875SOL     OW27523   1.228   2.606   4.685
 8875SOL    HW127524   1.151   2.562   4.732
 8875SOL    HW227525   1.263   2.681   4.741
 8876SOL     OW27526   6.926   0.524   4.297
 8876SOL    HW127527   6.861   0.601   4.301
 8876SOL    HW227528   6.991   0.531   4.373
 8877SOL     OW27529   2.996   0.609   4.038
 8877SOL    HW127530   2.991   0.670   3.959
 8877SOL    HW227531   3.034   0.658   4.116
 8878SOL     OW27532   0.192   5.123   0.811
 8878SOL    HW127533   0.277   5.087   0.774
 8878SOL    HW227534   0.142   5.050   0.858
 8879SOL     OW27535   5.038   5.462   0.504
 8879SOL    HW127536   5.074   5.410   0.581
 8879SOL    HW227537   5.113   5.502   0.452
 8880SOL     OW27538   6.849   5.668   4.694
 8880SOL    HW127539   6.928   5.723   4.668
 8880SOL    HW227540   6.878   5.597   4.758
 8881SOL     OW27541   6.270   0.802   3.177
 8881SOL    HW127542   6.327   0.767   3.252
 8881SOL    HW227543   6.206   0.731   3.148
 8882SOL     OW27544   5.252   0.715   6.767
 8882SOL    HW127545   5.230   0.802   6.812
 8882SOL    HW227546   5.351   0.707   6.757
 8883SOL     OW27547   0.257   1.203   5.809
 8883SOL    HW127548   0.184   1.201   5.740
 8883SOL    HW227549   0.280   1.110   5.836
 8884SOL     OW27550   6.061   6.628   6.581
 8884SOL    HW127551   5.999   6.703   6.603
 8884SOL    HW227552   6.156   6.658   6.590
 8885SOL     OW27553   6.643   3.788   1.367
 8885SOL    HW127554   6.622   3.693   1.388
 8885SOL    HW227555   6.564   3.845   1.389
 8886SOL     OW27556   2.623   5.886   5.326
 8886SOL    HW127557   2.720   5.899   5.346
 8886SOL    HW227558   2.569   5.928   5.399
 8887SOL     OW27559   2.821   0.965   0.797
 8887SOL    HW127560   2.845   0.942   0.891
 8887SOL    HW227561   2.815   0.882   0.742
 8888SOL     OW27562   1.181   2.209   0.943
 8888SOL    HW127563   1.088   2.196   0.912
 8888SOL    HW227564   1.225   2.119   0.957
 8889SOL     OW27565   5.551   6.825   5.021
 8889SOL    HW127566   5.607   6.869   5.092
 8889SOL    HW227567   5.475   6.776   5.064
 8890SOL     OW27568   6.410   5.976   4.714
 8890SOL    HW127569   6.432   5.942   4.806
 8890SOL    HW227570   6.349   5.911   4.669
 8891SOL     OW27571   6.197   3.034   6.653
 8891SOL    HW127572   6.150   3.120   6.675
 8891SOL    HW227573   6.129   2.963   6.634
 8892SOL     OW27574   2.984   6.997   3.176
 8892SOL    HW127575   3.002   6.899   3.186
 8892SOL    HW227576   2.962   7.017   3.080
 8893SOL     OW27577   0.548   1.248   1.771
 8893SOL    HW127578   0.647   1.256   1.784
 8893SOL    HW227579   0.527   1.162   1.724
 8894SOL     OW27580   3.916   3.286   6.235
 8894SOL    HW127581   3.989   3.235   6.282
 8894SOL    HW227582   3.874   3.350   6.299
 8895SOL     OW27583   0.405   0.357   1.909
 8895SOL    HW127584   0.353   0.426   1.858
 8895SOL    HW227585   0.503   0.371   1.893
 8896SOL     OW27586   1.012   3.541   5.330
 8896SOL    HW127587   0.951   3.580   5.399
 8896SOL    HW227588   0.996   3.586   5.242
 8897SOL     OW27589   1.547   1.562   1.950
 8897SOL    HW127590   1.641   1.591   1.965
 8897SOL    HW227591   1.546   1.467   1.918
 8898SOL     OW27592   6.301   2.957   4.438
 8898SOL    HW127593   6.256   2.878   4.480
 8898SOL    HW227594   6.360   3.001   4.506
 8899SOL     OW27595   2.358   4.075   6.501
 8899SOL    HW127596   2.330   4.138   6.428
 8899SOL    HW227597   2.279   4.021   6.530
 8900SOL     OW27598   5.395   3.209   3.450
 8900SOL    HW127599   5.489   3.225   3.481
 8900SOL    HW227600   5.340   3.291   3.466
 8901SOL     OW27601   2.030   0.899   3.107
 8901SOL    HW127602   2.024   0.991   3.144
 8901SOL    HW227603   2.121   0.862   3.126
 8902SOL     OW27604   2.939   5.789   6.338
 8902SOL    HW127605   2.996   5.711   6.311
 8902SOL    HW227606   2.954   5.865   6.274
 8903SOL     OW27607   2.148   1.658   4.005
 8903SOL    HW127608   2.197   1.599   4.069
 8903SOL    HW227609   2.211   1.692   3.936
 8904SOL     OW27610   6.924   5.157   3.546
 8904SOL    HW127611   6.850   5.090   3.542
 8904SOL    HW227612   6.902   5.226   3.616
 8905SOL     OW27613   2.142   3.377   5.104
 8905SOL    HW127614   2.056   3.364   5.153
 8905SOL    HW227615   2.158   3.475   5.088
 8906SOL     OW27616   6.751   0.001   6.814
 8906SOL    HW127617   6.845   6.985   6.812
 8906SOL    HW227618   6.729   0.042   6.726
 8907SOL     OW27619   3.361   2.524   5.282
 8907SOL    HW127620   3.448   2.493   5.318
 8907SOL    HW227621   3.318   2.451   5.229
 8908SOL     OW27622   1.623   2.893   0.529
 8908SOL    HW127623   1.572   2.947   0.596
 8908SOL    HW227624   1.701   2.946   0.496
 8909SOL     OW27625   2.805   0.482   4.940
 8909SOL    HW127626   2.711   0.501   4.969
 8909SOL    HW227627   2.803   0.433   4.853
 8910SOL     OW27628   2.639   3.336   5.914
 8910SOL    HW127629   2.606   3.286   5.833
 8910SOL    HW227630   2.688   3.273   5.974
 8911SOL     OW27631   3.324   2.065   4.389
 8911SOL    HW127632   3.242   2.108   4.427
 8911SOL    HW227633   3.401   2.080   4.451
 8912SOL     OW27634   3.997   1.479   6.350
 8912SOL    HW127635   4.037   1.404   6.403
 8912SOL    HW227636   4.047   1.490   6.264
 8913SOL     OW27637   5.284   4.184   1.693
 8913SOL    HW127638   5.197   4.220   1.726
 8913SOL    HW227639   5.318   4.240   1.618
 8914SOL     OW27640   4.576   1.434   5.260
 8914SOL    HW127641   4.504   1.446   5.329
 8914SOL    HW227642   4.662   1.469   5.295
 8915SOL     OW27643   1.548   2.504   3.872
 8915SOL    HW127644   1.545   2.405   3.866
 8915SOL    HW227645   1.642   2.536   3.858
 8916SOL     OW27646   0.185   3.733   1.719
 8916SOL    HW127647   0.274   3.771   1.743
 8916SOL    HW227648   0.196   3.662   1.649
 8917SOL     OW27649   5.955   5.175   6.712
 8917SOL    HW127650   6.028   5.168   6.644
 8917SOL    HW227651   5.948   5.270   6.743
 8918SOL     OW27652   6.533   6.226   6.740
 8918SOL    HW127653   6.541   6.262   6.833
 8918SOL    HW227654   6.442   6.187   6.727
 8919SOL     OW27655   4.137   3.502   0.925
 8919SOL    HW127656   4.067   3.464   0.865
 8919SOL    HW227657   4.109   3.593   0.956
 8920SOL     OW27658   6.533   5.794   6.154
 8920SOL    HW127659   6.613   5.802   6.095
 8920SOL    HW227660   6.474   5.874   6.139
 8921SOL     OW27661   1.455   1.448   2.917
 8921SOL    HW127662   1.533   1.509   2.930
 8921SOL    HW227663   1.478   1.356   2.950
 8922SOL     OW27664   2.366   5.160   1.052
 8922SOL    HW127665   2.297   5.116   0.995
 8922SOL    HW227666   2.456   5.125   1.027
 8923SOL     OW27667   2.086   3.766   6.824
 8923SOL    HW127668   2.053   3.740   6.915
 8923SOL    HW227669   2.107   3.684   6.771
 8924SOL     OW27670   2.656   5.357   5.577
 8924SOL    HW127671   2.727   5.383   5.512
 8924SOL    HW227672   2.624   5.439   5.626
 8925SOL     OW27673   0.769   0.670   2.152
 8925SOL    HW127674   0.734   0.586   2.194
 8925SOL    HW227675   0.869   0.665   2.145
 8926SOL     OW27676   5.842   2.474   1.759
 8926SOL    HW127677   5.768   2.502   1.820
 8926SOL    HW227678   5.810   2.400   1.700
 8927SOL     OW27679   2.796   2.304   5.087
 8927SOL    HW127680   2.857   2.351   5.150
 8927SOL    HW227681   2.839   2.219   5.056
 8928SOL     OW27682   0.207   0.997   5.556
 8928SOL    HW127683   0.242   1.086   5.530
 8928SOL    HW227684   0.255   0.925   5.506
 8929SOL     OW27685   0.210   3.237   3.924
 8929SOL    HW127686   0.286   3.173   3.912
 8929SOL    HW227687   0.227   3.319   3.869
 8930SOL     OW27688   1.720   4.982   5.264
 8930SOL    HW127689   1.764   5.032   5.189
 8930SOL    HW227690   1.668   4.905   5.227
 8931SOL     OW27691   4.559   2.652   1.113
 8931SOL    HW127692   4.545   2.611   1.023
 8931SOL    HW227693   4.656   2.671   1.127
 8932SOL     OW27694   5.355   6.818   6.336
 8932SOL    HW127695   5.395   6.840   6.247
 8932SOL    HW227696   5.353   6.899   6.393
 8933SOL     OW27697   1.083   0.964   5.117
 8933SOL    HW127698   0.988   0.936   5.131
 8933SOL    HW227699   1.140   0.883   5.101
 8934SOL     OW27700   3.490   5.187   2.743
 8934SOL    HW127701   3.462   5.227   2.830
 8934SOL    HW227702   3.487   5.257   2.671
 8935SOL     OW27703   4.912   3.428   2.411
 8935SOL    HW127704   4.885   3.395   2.320
 8935SOL    HW227705   4.892   3.525   2.419
 8936SOL     OW27706   0.994   3.662   0.837
 8936SOL    HW127707   1.002   3.761   0.832
 8936SOL    HW227708   0.934   3.629   0.764
 8937SOL     OW27709   0.530   0.588   3.883
 8937SOL    HW127710   0.592   0.599   3.805
 8937SOL    HW227711   0.552   0.655   3.953
 8938SOL     OW27712   5.622   0.655   0.435
 8938SOL    HW127713   5.600   0.609   0.349
 8938SOL    HW227714   5.635   0.586   0.507
 8939SOL     OW27715   6.385   2.850   4.737
 8939SOL    HW127716   6.430   2.939   4.748
 8939SOL    HW227717   6.439   2.792   4.676
 8940SOL     OW27718   6.497   2.775   0.433
 8940SOL    HW127719   6.424   2.826   0.478
 8940SOL    HW227720   6.481   2.677   0.444
 8941SOL     OW27721   5.176   1.899   1.941
 8941SOL    HW127722   5.142   1.988   1.972
 8941SOL    HW227723   5.142   1.881   1.849
 8942SOL     OW27724   6.650   4.786   4.074
 8942SOL    HW127725   6.624   4.816   4.166
 8942SOL    HW227726   6.687   4.693   4.079
 8943SOL     OW27727   4.518   3.801   0.191
 8943SOL    HW127728   4.528   3.841   0.100
 8943SOL    HW227729   4.433   3.834   0.232
 8944SOL     OW27730   4.467   5.020   4.489
 8944SOL    HW127731   4.373   5.003   4.519
 8944SOL    HW227732   4.473   5.110   4.445
 8945SOL     OW27733   6.333   3.387   5.415
 8945SOL    HW127734   6.432   3.376   5.422
 8945SOL    HW227735   6.288   3.300   5.437
 8946SOL     OW27736   4.482   0.513   4.177
 8946SOL    HW127737   4.484   0.436   4.241
 8946SOL    HW227738   4.573   0.553   4.169
 8947SOL     OW27739   1.187   4.473   6.725
 8947SOL    HW127740   1.166   4.475   6.823
 8947SOL    HW227741   1.245   4.551   6.701
 8948SOL     OW27742   6.369   6.497   4.123
 8948SOL    HW127743   6.410   6.554   4.194
 8948SOL    HW227744   6.435   6.427   4.094
 8949SOL     OW27745   3.853   6.204   0.307
 8949SOL    HW127746   3.875   6.116   0.349
 8949SOL    HW227747   3.795   6.257   0.368
 8950SOL     OW27748   4.701   3.816   1.270
 8950SOL    HW127749   4.753   3.893   1.234
 8950SOL    HW227750   4.646   3.846   1.348
 8951SOL     OW27751   2.306   1.030   4.053
 8951SOL    HW127752   2.361   1.050   3.972
 8951SOL    HW227753   2.351   0.960   4.108
 8952SOL     OW27754   2.257   4.736   3.312
 8952SOL    HW127755   2.199   4.714   3.234
 8952SOL    HW227756   2.350   4.703   3.295
 8953SOL     OW27757   2.317   5.193   1.980
 8953SOL    HW127758   2.340   5.192   2.078
 8953SOL    HW227759   2.393   5.157   1.927
 8954SOL     OW27760   0.956   5.742   4.534
 8954SOL    HW127761   0.987   5.704   4.446
 8954SOL    HW227762   0.860   5.721   4.547
 8955SOL     OW27763   6.298   3.183   2.722
 8955SOL    HW127764   6.346   3.157   2.639
 8955SOL    HW227765   6.348   3.149   2.802
 8956SOL     OW27766   0.550   6.625   6.501
 8956SOL    HW127767   0.477   6.558   6.510
 8956SOL    HW227768   0.546   6.689   6.578
 8957SOL     OW27769   1.719   5.434   2.196
 8957SOL    HW127770   1.717   5.428   2.096
 8957SOL    HW227771   1.812   5.453   2.227
 8958SOL     OW27772   1.472   3.447   5.568
 8958SOL    HW127773   1.405   3.481   5.501
 8958SOL    HW227774   1.524   3.372   5.527
 8959SOL     OW27775   0.856   3.336   2.273
 8959SOL    HW127776   0.918   3.389   2.214
 8959SOL    HW227777   0.864   3.239   2.252
 8960SOL     OW27778   6.790   3.703   3.877
 8960SOL    HW127779   6.851   3.778   3.902
 8960SOL    HW227780   6.838   3.638   3.820
 8961SOL     OW27781   2.989   6.999   4.190
 8961SOL    HW127782   2.943   0.054   4.240
 8961SOL    HW227783   3.040   0.019   4.113
 8962SOL     OW27784   1.383   6.026   1.089
 8962SOL    HW127785   1.444   5.969   1.144
 8962SOL    HW227786   1.290   6.020   1.125
 8963SOL     OW27787   3.429   5.506   4.384
 8963SOL    HW127788   3.379   5.566   4.446
 8963SOL    HW227789   3.493   5.561   4.329
 8964SOL     OW27790   5.927   4.061   3.044
 8964SOL    HW127791   5.897   4.010   3.125
 8964SOL    HW227792   5.924   4.001   2.964
 8965SOL     OW27793   4.265   4.642   0.873
 8965SOL    HW127794   4.230   4.682   0.789
 8965SOL    HW227795   4.192   4.634   0.940
 8966SOL     OW27796   5.838   5.286   6.064
 8966SOL    HW127797   5.831   5.385   6.075
 8966SOL    HW227798   5.748   5.248   6.040
 8967SOL     OW27799   3.552   0.902   2.775
 8967SOL    HW127800   3.547   0.852   2.862
 8967SOL    HW227801   3.640   0.948   2.769
 8968SOL     OW27802   2.551   4.682   1.680
 8968SOL    HW127803   2.644   4.685   1.643
 8968SOL    HW227804   2.554   4.650   1.774
 8969SOL     OW27805   6.971   6.826   3.214
 8969SOL    HW127806   7.019   6.914   3.214
 8969SOL    HW227807   6.927   6.812   3.125
 8970SOL     OW27808   1.242   1.596   5.894
 8970SOL    HW127809   1.304   1.608   5.817
 8970SOL    HW227810   1.158   1.649   5.878
 8971SOL     OW27811   4.304   6.282   0.997
 8971SOL    HW127812   4.244   6.256   1.073
 8971SOL    HW227813   4.319   6.381   0.999
 8972SOL     OW27814   5.729   5.377   0.228
 8972SOL    HW127815   5.768   5.367   0.319
 8972SOL    HW227816   5.635   5.343   0.229
 8973SOL     OW27817   0.740   2.537   2.026
 8973SOL    HW127818   0.691   2.472   2.084
 8973SOL    HW227819   0.786   2.605   2.083
 8974SOL     OW27820   2.268   4.179   4.393
 8974SOL    HW127821   2.329   4.104   4.420
 8974SOL    HW227822   2.181   4.170   4.443
 8975SOL     OW27823   0.289   0.340   6.610
 8975SOL    HW127824   0.262   0.436   6.614
 8975SOL    HW227825   0.371   0.330   6.554
 8976SOL     OW27826   6.088   6.556   1.590
 8976SOL    HW127827   6.120   6.468   1.556
 8976SOL    HW227828   6.127   6.629   1.534
 8977SOL     OW27829   0.162   5.045   6.220
 8977SOL    HW127830   0.260   5.063   6.224
 8977SOL    HW227831   0.126   5.074   6.132
 8978SOL     OW27832   5.935   5.830   5.072
 8978SOL    HW127833   6.025   5.862   5.101
 8978SOL    HW227834   5.914   5.865   4.981
 8979SOL     OW27835   1.138   5.395   6.147
 8979SOL    HW127836   1.095   5.478   6.184
 8979SOL    HW227837   1.136   5.323   6.216
 8980SOL     OW27838   4.313   1.728   5.491
 8980SOL    HW127839   4.276   1.819   5.473
 8980SOL    HW227840   4.408   1.724   5.460
 8981SOL     OW27841   4.379   1.948   6.150
 8981SOL    HW127842   4.440   2.027   6.155
 8981SOL    HW227843   4.284   1.979   6.147
 8982SOL     OW27844   6.616   1.182   1.844
 8982SOL    HW127845   6.562   1.257   1.806
 8982SOL    HW227846   6.584   1.161   1.936
 8983SOL     OW27847   1.134   4.925   1.962
 8983SOL    HW127848   1.225   4.965   1.952
 8983SOL    HW227849   1.068   4.981   1.913
 8984SOL     OW27850   5.989   0.537   4.549
 8984SOL    HW127851   5.912   0.535   4.613
 8984SOL    HW227852   6.069   0.576   4.594
 8985SOL     OW27853   4.655   1.791   0.802
 8985SOL    HW127854   4.702   1.708   0.772
 8985SOL    HW227855   4.681   1.812   0.896
 8986SOL     OW27856   6.292   4.507   1.800
 8986SOL    HW127857   6.264   4.524   1.705
 8986SOL    HW227858   6.236   4.434   1.838
 8987SOL     OW27859   2.519   0.253   1.290
 8987SOL    HW127860   2.561   0.343   1.304
 8987SOL    HW227861   2.487   0.217   1.378
 8988SOL     OW27862   2.376   5.782   0.875
 8988SOL    HW127863   2.358   5.842   0.953
 8988SOL    HW227864   2.373   5.687   0.905
 8989SOL     OW27865   5.053   2.517   2.684
 8989SOL    HW127866   5.078   2.614   2.682
 8989SOL    HW227867   5.126   2.465   2.728
 8990SOL     OW27868   3.378   6.176   0.815
 8990SOL    HW127869   3.398   6.266   0.854
 8990SOL    HW227870   3.279   6.159   0.819
 8991SOL     OW27871   2.187   2.360   0.834
 8991SOL    HW127872   2.126   2.408   0.898
 8991SOL    HW227873   2.282   2.382   0.855
 8992SOL     OW27874   0.738   2.913   0.232
 8992SOL    HW127875   0.835   2.935   0.242
 8992SOL    HW227876   0.689   2.992   0.196
 8993SOL     OW27877   5.119   1.851   3.689
 8993SOL    HW127878   5.058   1.926   3.662
 8993SOL    HW227879   5.211   1.871   3.657
 8994SOL     OW27880   1.577   5.665   3.892
 8994SOL    HW127881   1.617   5.642   3.980
 8994SOL    HW227882   1.626   5.743   3.852
 8995SOL     OW27883   1.320   3.008   5.101
 8995SOL    HW127884   1.223   3.025   5.116
 8995SOL    HW227885   1.373   3.052   5.173
 8996SOL     OW27886   0.512   3.735   1.386
 8996SOL    HW127887   0.461   3.814   1.421
 8996SOL    HW227888   0.603   3.764   1.356
 8997SOL     OW27889   4.620   1.510   6.200
 8997SOL    HW127890   4.634   1.556   6.112
 8997SOL    HW227891   4.530   1.536   6.237
 8998SOL     OW27892   1.095   2.812   5.277
 8998SOL    HW127893   1.041   2.881   5.229
 8998SOL    HW227894   1.149   2.856   5.349
 8999SOL     OW27895   4.711   1.887   6.396
 8999SOL    HW127896   4.723   1.818   6.468
 8999SOL    HW227897   4.732   1.846   6.307
 9000SOL     OW27898   2.998   3.524   6.978
 9000SOL    HW127899   3.036   3.505   0.049
 9000SOL    HW227900   3.072   3.532   6.911
 9001SOL     OW27901   1.849   4.598   3.214
 9001SOL    HW127902   1.930   4.608   3.156
 9001SOL    HW227903   1.820   4.688   3.246
 9002SOL     OW27904   6.343   5.058   5.870
 9002SOL    HW127905   6.314   5.086   5.961
 9002SOL    HW227906   6.266   5.017   5.821
 9003SOL     OW27907   6.203   2.525   0.498
 9003SOL    HW127908   6.251   2.442   0.470
 9003SOL    HW227909   6.123   2.539   0.440
 9004SOL     OW27910   5.070   6.527   1.325
 9004SOL    HW127911   5.149   6.471   1.300
 9004SOL    HW227912   5.093   6.582   1.406
 9005SOL     OW27913   4.739   2.235   3.686
 9005SOL    HW127914   4.752   2.302   3.759
 9005SOL    HW227915   4.751   2.143   3.721
 9006SOL     OW27916   1.623   4.955   1.116
 9006SOL    HW127917   1.680   4.984   1.040
 9006SOL    HW227918   1.527   4.958   1.089
 9007SOL     OW27919   3.057   5.473   3.775
 9007SOL    HW127920   2.965   5.478   3.816
 9007SOL    HW227921   3.051   5.434   3.683
 9008SOL     OW27922   0.260   4.088   2.069
 9008SOL    HW127923   0.202   4.054   1.995
 9008SOL    HW227924   0.329   4.019   2.092
 9009SOL     OW27925   2.389   7.018   1.287
 9009SOL    HW127926   2.462   0.065   1.267
 9009SOL    HW227927   2.379   6.955   1.210
 9010SOL     OW27928   0.829   6.818   4.405
 9010SOL    HW127929   0.763   6.800   4.333
 9010SOL    HW227930   0.782   6.849   4.487
 9011SOL     OW27931   3.719   2.008   0.910
 9011SOL    HW127932   3.740   1.913   0.888
 9011SOL    HW227933   3.726   2.021   1.009
 9012SOL     OW27934   0.798   4.889   1.251
 9012SOL    HW127935   0.884   4.934   1.277
 9012SOL    HW227936   0.768   4.923   1.162
 9013SOL     OW27937   6.243   6.119   4.409
 9013SOL    HW127938   6.325   6.175   4.417
 9013SOL    HW227939   6.164   6.177   4.393
 9014SOL     OW27940   1.041   1.078   0.336
 9014SOL    HW127941   1.024   1.002   0.274
 9014SOL    HW227942   1.106   1.141   0.295
 9015SOL     OW27943   0.163   1.208   6.186
 9015SOL    HW127944   0.180   1.269   6.264
 9015SOL    HW227945   0.201   1.248   6.103
 9016SOL     OW27946   6.764   6.210   5.974
 9016SOL    HW127947   6.709   6.147   5.920
 9016SOL    HW227948   6.861   6.198   5.953
 9017SOL     OW27949   5.679   2.004   4.212
 9017SOL    HW127950   5.582   2.022   4.200
 9017SOL    HW227951   5.731   2.088   4.193
 9018SOL     OW27952   3.616   0.811   4.809
 9018SOL    HW127953   3.708   0.839   4.837
 9018SOL    HW227954   3.616   0.791   4.711
 9019SOL     OW27955   3.013   6.150   6.937
 9019SOL    HW127956   3.051   6.236   6.902
 9019SOL    HW227957   3.034   6.142   0.016
 9020SOL     OW27958   1.881   4.415   2.878
 9020SOL    HW127959   1.964   4.458   2.913
 9020SOL    HW227960   1.828   4.482   2.825
 9021SOL     OW27961   6.860   6.106   4.250
 9021SOL    HW127962   6.868   6.181   4.316
 9021SOL    HW227963   6.931   6.038   4.269
 9022SOL     OW27964   2.809   0.508   0.366
 9022SOL    HW127965   2.766   0.442   0.304
 9022SOL    HW227966   2.830   0.462   0.453
 9023SOL     OW27967   3.294   3.491   3.846
 9023SOL    HW127968   3.286   3.395   3.817
 9023SOL    HW227969   3.363   3.537   3.790
 9024SOL     OW27970   1.640   6.027   6.005
 9024SOL    HW127971   1.645   5.932   6.034
 9024SOL    HW227972   1.558   6.041   5.950
 9025SOL     OW27973   6.520   5.070   1.934
 9025SOL    HW127974   6.548   5.032   1.845
 9025SOL    HW227975   6.509   5.169   1.925
 9026SOL     OW27976   3.830   2.929   4.512
 9026SOL    HW127977   3.751   2.969   4.558
 9026SOL    HW227978   3.911   2.939   4.569
 9027SOL     OW27979   2.596   2.124   3.177
 9027SOL    HW127980   2.641   2.212   3.165
 9027SOL    HW227981   2.587   2.103   3.274
 9028SOL     OW27982   2.470   4.283   5.896
 9028SOL    HW127983   2.457   4.197   5.848
 9028SOL    HW227984   2.507   4.265   5.987
 9029SOL     OW27985   4.198   5.437   3.902
 9029SOL    HW127986   4.111   5.412   3.945
 9029SOL    HW227987   4.272   5.387   3.946
 9030SOL     OW27988   2.102   0.818   2.816
 9030SOL    HW127989   2.181   0.863   2.859
 9030SOL    HW227990   2.025   0.881   2.814
 9031SOL     OW27991   2.754   6.110   5.971
 9031SOL    HW127992   2.697   6.142   5.896
 9031SOL    HW227993   2.818   6.182   5.997
 9032SOL     OW27994   2.802   2.349   1.572
 9032SOL    HW127995   2.874   2.315   1.632
 9032SOL    HW227996   2.739   2.406   1.625
 9033SOL     OW27997   1.942   3.520   4.250
 9033SOL    HW127998   1.878   3.444   4.265
 9033SOL    HW227999   1.891   3.605   4.242
 9034SOL     OW28000   2.897   6.416   5.363
 9034SOL    HW128001   2.825   6.347   5.368
 9034SOL    HW228002   2.985   6.371   5.344
 9035SOL     OW28003   6.973   6.774   4.641
 9035SOL    HW128004   6.949   6.730   4.728
 9035SOL    HW228005   0.024   6.843   4.657
 9036SOL     OW28006   1.744   2.458   5.440
 9036SOL    HW128007   1.754   2.553   5.411
 9036SOL    HW228008   1.720   2.401   5.362
 9037SOL     OW28009   2.243   3.730   5.937
 9037SOL    HW128010   2.337   3.760   5.951
 9037SOL    HW228011   2.217   3.665   6.008
 9038SOL     OW28012   5.219   0.861   5.486
 9038SOL    HW128013   5.287   0.789   5.477
 9038SOL    HW228014   5.131   0.828   5.450
 9039SOL     OW28015   1.873   4.694   5.447
 9039SOL    HW128016   1.865   4.772   5.509
 9039SOL    HW228017   1.953   4.639   5.472
 9040SOL     OW28018   2.931   1.289   2.374
 9040SOL    HW128019   2.861   1.307   2.306
 9040SOL    HW228020   2.906   1.208   2.428
 9041SOL     OW28021   0.746   2.852   1.926
 9041SOL    HW128022   0.808   2.814   1.994
 9041SOL    HW228023   0.680   2.912   1.973
 9042SOL     OW28024   2.567   5.765   2.781
 9042SOL    HW128025   2.635   5.764   2.855
 9042SOL    HW228026   2.589   5.694   2.715
 9043SOL     OW28027   1.354   2.331   6.092
 9043SOL    HW128028   1.339   2.234   6.111
 9043SOL    HW228029   1.445   2.343   6.052
 9044SOL     OW28030   5.927   0.333   0.872
 9044SOL    HW128031   6.006   0.363   0.817
 9044SOL    HW228032   5.866   0.410   0.887
 9045SOL     OW28033   3.465   0.589   3.330
 9045SOL    HW128034   3.528   0.517   3.360
 9045SOL    HW228035   3.371   0.561   3.351
 9046SOL     OW28036   3.477   4.370   5.401
 9046SOL    HW128037   3.491   4.350   5.498
 9046SOL    HW228038   3.393   4.423   5.389
 9047SOL     OW28039   1.526   4.078   4.678
 9047SOL    HW128040   1.577   4.142   4.734
 9047SOL    HW228041   1.503   3.997   4.732
 9048SOL     OW28042   1.545   3.768   5.516
 9048SOL    HW128043   1.612   3.768   5.590
 9048SOL    HW228044   1.585   3.725   5.435
 9049SOL     OW28045   5.269   6.112   6.252
 9049SOL    HW128046   5.300   6.158   6.335
 9049SOL    HW228047   5.185   6.061   6.271
 9050SOL     OW28048   0.728   5.298   6.957
 9050SOL    HW128049   0.802   5.347   7.004
 9050SOL    HW228050   0.709   5.213   7.007
 9051SOL     OW28051   4.847   6.493   0.535
 9051SOL    HW128052   4.763   6.537   0.567
 9051SOL    HW228053   4.926   6.533   0.581
 9052SOL     OW28054   2.743   4.715   4.471
 9052SOL    HW128055   2.684   4.645   4.432
 9052SOL    HW228056   2.733   4.715   4.571
 9053SOL     OW28057   2.114   2.738   3.902
 9053SOL    HW128058   2.133   2.798   3.825
 9053SOL    HW228059   2.067   2.656   3.870
 9054SOL     OW28060   1.727   0.672   1.432
 9054SOL    HW128061   1.780   0.657   1.516
 9054SOL    HW228062   1.788   0.662   1.353
 9055SOL     OW28063   1.058   2.833   3.897
 9055SOL    HW128064   1.132   2.868   3.954
 9055SOL    HW228065   1.044   2.736   3.916
 9056SOL     OW28066   5.658   0.175   1.530
 9056SOL    HW128067   5.614   0.093   1.566
 9056SOL    HW228068   5.645   0.251   1.594
 9057SOL     OW28069   6.000   5.423   6.802
 9057SOL    HW128070   6.072   5.419   6.872
 9057SOL    HW228071   6.036   5.469   6.721
 9058SOL     OW28072   2.109   2.425   4.659
 9058SOL    HW128073   2.092   2.513   4.614
 9058SOL    HW228074   2.164   2.440   4.741
 9059SOL     OW28075   6.225   1.082   3.505
 9059SOL    HW128076   6.153   1.132   3.554
 9059SOL    HW228077   6.306   1.140   3.497
 9060SOL     OW28078   6.542   3.643   2.014
 9060SOL    HW128079   6.600   3.568   2.046
 9060SOL    HW228080   6.534   3.712   2.085
 9061SOL     OW28081   4.298   5.903   3.159
 9061SOL    HW128082   4.336   5.995   3.159
 9061SOL    HW228083   4.327   5.855   3.242
 9062SOL     OW28084   1.597   4.749   2.233
 9062SOL    HW128085   1.532   4.825   2.222
 9062SOL    HW228086   1.679   4.782   2.279
 9063SOL     OW28087   3.016   1.792   2.666
 9063SOL    HW128088   3.111   1.822   2.667
 9063SOL    HW228089   3.010   1.700   2.627
 9064SOL     OW28090   6.795   4.501   3.584
 9064SOL    HW128091   6.851   4.532   3.507
 9064SOL    HW228092   6.812   4.404   3.600
 9065SOL     OW28093   2.709   6.207   5.336
 9065SOL    HW128094   2.662   6.209   5.248
 9065SOL    HW228095   2.642   6.195   5.410
 9066SOL     OW28096   6.797   6.455   6.335
 9066SOL    HW128097   6.718   6.453   6.274
 9066SOL    HW228098   6.847   6.541   6.322
 9067SOL     OW28099   6.685   6.426   4.615
 9067SOL    HW128100   6.678   6.523   4.640
 9067SOL    HW228101   6.600   6.380   4.639
 9068SOL     OW28102   4.744   0.429   5.164
 9068SOL    HW128103   4.681   0.382   5.102
 9068SOL    HW228104   4.691   0.477   5.234
 9069SOL     OW28105   4.669   2.658   2.191
 9069SOL    HW128106   4.663   2.701   2.281
 9069SOL    HW228107   4.728   2.713   2.132
 9070SOL     OW28108   1.707   1.705   6.234
 9070SOL    HW128109   1.798   1.679   6.202
 9070SOL    HW228110   1.649   1.727   6.156
 9071SOL     OW28111   4.377   0.992   5.801
 9071SOL    HW128112   4.449   1.007   5.868
 9071SOL    HW228113   4.321   1.075   5.794
 9072SOL     OW28114   5.312   6.795   2.183
 9072SOL    HW128115   5.277   6.703   2.163
 9072SOL    HW228116   5.320   6.806   2.282
 9073SOL     OW28117   4.458   0.093   0.419
 9073SOL    HW128118   4.365   0.128   0.432
 9073SOL    HW228119   4.456   0.015   0.357
 9074SOL     OW28120   1.664   0.424   1.192
 9074SOL    HW128121   1.664   0.414   1.093
 9074SOL    HW228122   1.644   0.519   1.216
 9075SOL     OW28123   6.906   0.971   2.459
 9075SOL    HW128124   6.825   0.960   2.402
 9075SOL    HW228125   6.942   1.064   2.448
 9076SOL     OW28126   4.775   1.623   3.444
 9076SOL    HW128127   4.703   1.568   3.486
 9076SOL    HW228128   4.742   1.661   3.358
 9077SOL     OW28129   4.982   1.457   6.312
 9077SOL    HW128130   4.991   1.517   6.232
 9077SOL    HW228131   4.929   1.376   6.287
 9078SOL     OW28132   5.284   4.979   6.394
 9078SOL    HW128133   5.380   4.977   6.366
 9078SOL    HW228134   5.226   4.967   6.314
 9079SOL     OW28135   1.586   0.600   5.041
 9079SOL    HW128136   1.518   0.536   5.004
 9079SOL    HW228137   1.581   0.600   5.141
 9080SOL     OW28138   6.093   3.360   0.060
 9080SOL    HW128139   6.009   3.308   0.067
 9080SOL    HW228140   6.150   3.343   0.141
 9081SOL     OW28141   4.109   1.632   1.398
 9081SOL    HW128142   4.036   1.623   1.465
 9081SOL    HW228143   4.072   1.667   1.312
 9082SOL     OW28144   2.487   6.706   5.314
 9082SOL    HW128145   2.433   6.626   5.341
 9082SOL    HW228146   2.584   6.687   5.329
 9083SOL     OW28147   4.637   4.534   6.288
 9083SOL    HW128148   4.735   4.525   6.275
 9083SOL    HW228149   4.591   4.542   6.200
 9084SOL     OW28150   0.558   2.597   5.660
 9084SOL    HW128151   0.655   2.579   5.669
 9084SOL    HW228152   0.514   2.586   5.749
 9085SOL     OW28153   3.006   5.307   0.905
 9085SOL    HW128154   2.929   5.300   0.969
 9085SOL    HW228155   3.085   5.344   0.952
 9086SOL     OW28156   6.049   4.280   1.012
 9086SOL    HW128157   5.972   4.315   0.958
 9086SOL    HW228158   6.015   4.224   1.087
 9087SOL     OW28159   5.993   3.165   3.106
 9087SOL    HW128160   6.053   3.242   3.125
 9087SOL    HW228161   5.915   3.196   3.052
 9088SOL     OW28162   6.037   6.918   2.128
 9088SOL    HW128163   6.115   6.967   2.087
 9088SOL    HW228164   6.046   6.820   2.110
 9089SOL     OW28165   4.259   5.553   4.251
 9089SOL    HW128166   4.357   5.570   4.260
 9089SOL    HW228167   4.238   5.527   4.156
 9090SOL     OW28168   5.048   6.199   4.917
 9090SOL    HW128169   5.032   6.295   4.894
 9090SOL    HW228170   5.018   6.141   4.841
 9091SOL     OW28171   3.270   2.319   0.565
 9091SOL    HW128172   3.244   2.227   0.536
 9091SOL    HW228173   3.201   2.384   0.533
 9092SOL     OW28174   1.553   0.717   6.015
 9092SOL    HW128175   1.596   0.628   5.999
 9092SOL    HW228176   1.466   0.721   5.965
 9093SOL     OW28177   1.609   6.146   0.023
 9093SOL    HW128178   1.541   6.218   0.016
 9093SOL    HW228179   1.697   6.185   0.049
 9094SOL     OW28180   0.455   6.006   2.113
 9094SOL    HW128181   0.500   5.923   2.080
 9094SOL    HW228182   0.360   6.006   2.085
 9095SOL     OW28183   5.452   3.970   6.340
 9095SOL    HW128184   5.478   3.934   6.251
 9095SOL    HW228185   5.503   3.921   6.412
 9096SOL     OW28186   5.500   3.427   2.578
 9096SOL    HW128187   5.412   3.397   2.542
 9096SOL    HW228188   5.553   3.470   2.504
 9097SOL     OW28189   0.817   3.807   0.426
 9097SOL    HW128190   0.845   3.727   0.373
 9097SOL    HW228191   0.720   3.798   0.450
 9098SOL     OW28192   3.982   3.045   1.055
 9098SOL    HW128193   3.991   3.141   1.027
 9098SOL    HW228194   3.889   3.014   1.039
 9099SOL     OW28195   3.254   3.436   0.910
 9099SOL    HW128196   3.333   3.376   0.899
 9099SOL    HW228197   3.172   3.391   0.875
 9100SOL     OW28198   0.913   2.581   2.325
 9100SOL    HW128199   0.888   2.629   2.409
 9100SOL    HW228200   0.881   2.486   2.330
 9101SOL     OW28201   2.186   3.075   2.558
 9101SOL    HW128202   2.273   3.028   2.540
 9101SOL    HW228203   2.124   3.014   2.607
 9102SOL     OW28204   3.584   6.326   2.070
 9102SOL    HW128205   3.674   6.369   2.073
 9102SOL    HW228206   3.583   6.246   2.131
 9103SOL     OW28207   6.996   3.766   0.508
 9103SOL    HW128208   7.006   3.671   0.478
 9103SOL    HW228209   6.948   3.818   0.439
 9104SOL     OW28210   4.162   6.288   1.989
 9104SOL    HW128211   4.228   6.237   1.934
 9104SOL    HW228212   4.138   6.373   1.943
 9105SOL     OW28213   1.693   0.684   0.055
 9105SOL    HW128214   1.691   0.727   0.146
 9105SOL    HW228215   1.690   0.755   7.004
 9106SOL     OW28216   5.570   3.497   0.193
 9106SOL    HW128217   5.586   3.456   0.283
 9106SOL    HW228218   5.472   3.515   0.182
 9107SOL     OW28219   3.968   6.875   6.412
 9107SOL    HW128220   4.060   6.842   6.432
 9107SOL    HW228221   3.959   6.894   6.315
 9108SOL     OW28222   4.875   4.641   5.597
 9108SOL    HW128223   4.810   4.685   5.535
 9108SOL    HW228224   4.916   4.562   5.551
 9109SOL     OW28225   1.393   2.566   2.850
 9109SOL    HW128226   1.422   2.574   2.945
 9109SOL    HW228227   1.451   2.499   2.803
 9110SOL     OW28228   2.183   4.369   3.949
 9110SOL    HW128229   2.185   4.276   3.912
 9110SOL    HW228230   2.098   4.414   3.922
 9111SOL     OW28231   4.307   3.271   0.524
 9111SOL    HW128232   4.367   3.285   0.446
 9111SOL    HW228233   4.220   3.317   0.508
 9112SOL     OW28234   0.092   4.222   4.568
 9112SOL    HW128235   0.117   4.232   4.664
 9112SOL    HW228236   7.011   4.211   4.560
 9113SOL     OW28237   4.356   6.803   0.568
 9113SOL    HW128238   4.302   6.825   0.486
 9113SOL    HW228239   4.383   6.888   0.613
 9114SOL     OW28240   1.466   4.950   2.140
 9114SOL    HW128241   1.517   5.036   2.131
 9114SOL    HW228242   1.405   4.940   2.061
 9115SOL     OW28243   0.903   5.882   5.419
 9115SOL    HW128244   0.876   5.802   5.366
 9115SOL    HW228245   0.940   5.952   5.357
 9116SOL     OW28246   6.511   2.061   0.341
 9116SOL    HW128247   6.434   2.104   0.295
 9116SOL    HW228248   6.528   2.106   0.428
 9117SOL     OW28249   5.807   2.670   0.009
 9117SOL    HW128250   5.842   2.624   6.946
 9117SOL    HW228251   5.778   2.762   7.004
 9118SOL     OW28252   5.993   5.784   0.471
 9118SOL    HW128253   5.977   5.728   0.552
 9118SOL    HW228254   6.079   5.756   0.428
 9119SOL     OW28255   5.545   1.281   2.970
 9119SOL    HW128256   5.524   1.365   2.920
 9119SOL    HW228257   5.644   1.273   2.980
 9120SOL     OW28258   5.314   3.097   5.682
 9120SOL    HW128259   5.276   3.039   5.754
 9120SOL    HW228260   5.257   3.178   5.670
 9121SOL     OW28261   1.023   2.970   6.745
 9121SOL    HW128262   1.005   2.958   6.648
 9121SOL    HW228263   0.937   2.965   6.796
 9122SOL     OW28264   1.709   2.964   1.746
 9122SOL    HW128265   1.736   2.880   1.698
 9122SOL    HW228266   1.789   3.023   1.757
 9123SOL     OW28267   3.843   0.582   4.302
 9123SOL    HW128268   3.779   0.554   4.373
 9123SOL    HW228269   3.937   0.576   4.337
 9124SOL     OW28270   5.852   6.746   5.437
 9124SOL    HW128271   5.949   6.767   5.449
 9124SOL    HW228272   5.842   6.658   5.390
 9125SOL     OW28273   4.978   3.763   2.734
 9125SOL    HW128274   4.961   3.793   2.828
 9125SOL    HW228275   5.057   3.702   2.732
 9126SOL     OW28276   5.627   2.507   1.949
 9126SOL    HW128277   5.607   2.425   1.894
 9126SOL    HW228278   5.674   2.480   2.033
 9127SOL     OW28279   6.293   0.945   6.397
 9127SOL    HW128280   6.359   0.913   6.465
 9127SOL    HW228281   6.319   1.035   6.365
 9128SOL     OW28282   3.863   2.145   4.895
 9128SOL    HW128283   3.897   2.219   4.953
 9128SOL    HW228284   3.787   2.098   4.942
 9129SOL     OW28285   1.565   2.734   0.946
 9129SOL    HW128286   1.571   2.670   0.870
 9129SOL    HW228287   1.631   2.710   1.016
 9130SOL     OW28288   0.188   3.407   0.318
 9130SOL    HW128289   0.202   3.309   0.304
 9130SOL    HW228290   0.226   3.457   0.240
 9131SOL     OW28291   0.257   3.459   5.944
 9131SOL    HW128292   0.219   3.547   5.914
 9131SOL    HW228293   0.318   3.423   5.873
 9132SOL     OW28294   0.323   4.842   4.357
 9132SOL    HW128295   0.410   4.822   4.312
 9132SOL    HW228296   0.284   4.757   4.394
 9133SOL     OW28297   3.056   5.492   1.262
 9133SOL    HW128298   3.047   5.424   1.335
 9133SOL    HW228299   3.095   5.576   1.300
 9134SOL     OW28300   3.192   6.298   0.368
 9134SOL    HW128301   3.271   6.253   0.408
 9134SOL    HW228302   3.222   6.382   0.321
 9135SOL     OW28303   6.635   6.027   2.270
 9135SOL    HW128304   6.658   6.082   2.190
 9135SOL    HW228305   6.696   6.050   2.345
 9136SOL     OW28306   5.033   4.854   5.810
 9136SOL    HW128307   5.083   4.838   5.725
 9136SOL    HW228308   4.993   4.946   5.808
 9137SOL     OW28309   4.887   1.952   1.310
 9137SOL    HW128310   4.843   2.036   1.343
 9137SOL    HW228311   4.876   1.880   1.379
 9138SOL     OW28312   6.122   5.294   5.812
 9138SOL    HW128313   6.138   5.202   5.775
 9138SOL    HW228314   6.210   5.338   5.832
 9139SOL     OW28315   2.194   1.735   4.871
 9139SOL    HW128316   2.224   1.640   4.878
 9139SOL    HW228317   2.164   1.755   4.778
 9140SOL     OW28318   6.044   3.187   2.600
 9140SOL    HW128319   6.137   3.177   2.635
 9140SOL    HW228320   5.984   3.216   2.674
 9141SOL     OW28321   5.711   0.456   6.565
 9141SOL    HW128322   5.728   0.378   6.625
 9141SOL    HW228323   5.782   0.459   6.494
 9142SOL     OW28324   0.768   2.184   0.135
 9142SOL    HW128325   0.712   2.134   0.202
 9142SOL    HW228326   0.755   2.282   0.148
 9143SOL     OW28327   5.145   3.530   1.235
 9143SOL    HW128328   5.120   3.579   1.151
 9143SOL    HW228329   5.221   3.468   1.216
 9144SOL     OW28330   2.418   5.312   5.077
 9144SOL    HW128331   2.339   5.252   5.090
 9144SOL    HW228332   2.387   5.404   5.053
 9145SOL     OW28333   6.621   5.301   6.850
 9145SOL    HW128334   6.642   5.265   6.759
 9145SOL    HW228335   6.534   5.262   6.882
 9146SOL     OW28336   5.596   2.491   2.622
 9146SOL    HW128337   5.680   2.474   2.674
 9146SOL    HW228338   5.545   2.565   2.665
 9147SOL     OW28339   5.643   0.356   4.034
 9147SOL    HW128340   5.684   0.305   4.109
 9147SOL    HW228341   5.706   0.358   3.957
 9148SOL     OW28342   4.601   6.713   0.663
 9148SOL    HW128343   4.503   6.732   0.664
 9148SOL    HW228344   4.616   6.615   0.678
 9149SOL     OW28345   5.078   3.334   3.485
 9149SOL    HW128346   5.044   3.272   3.556
 9149SOL    HW228347   5.141   3.400   3.526
 9150SOL     OW28348   3.389   5.233   3.160
 9150SOL    HW128349   3.342   5.317   3.134
 9150SOL    HW228350   3.352   5.199   3.246
 9151SOL     OW28351   1.629   4.203   4.008
 9151SOL    HW128352   1.675   4.291   4.000
 9151SOL    HW228353   1.545   4.205   3.954
 9152SOL     OW28354   2.384   4.717   4.826
 9152SOL    HW128355   2.448   4.682   4.894
 9152SOL    HW228356   2.294   4.675   4.841
 9153SOL     OW28357   0.989   2.971   1.100
 9153SOL    HW128358   1.028   3.052   1.145
 9153SOL    HW228359   0.908   2.998   1.048
 9154SOL     OW28360   4.427   5.112   6.488
 9154SOL    HW128361   4.333   5.076   6.496
 9154SOL    HW228362   4.490   5.049   6.534
 9155SOL     OW28363   0.934   3.050   1.414
 9155SOL    HW128364   0.932   3.131   1.356
 9155SOL    HW228365   1.015   3.054   1.473
 9156SOL     OW28366   1.844   2.681   0.133
 9156SOL    HW128367   1.877   2.668   0.227
 9156SOL    HW228368   1.908   2.740   0.083
 9157SOL     OW28369   6.067   4.549   6.644
 9157SOL    HW128370   5.986   4.566   6.588
 9157SOL    HW228371   6.079   4.450   6.656
 9158SOL     OW28372   5.811   3.563   4.377
 9158SOL    HW128373   5.801   3.656   4.412
 9158SOL    HW228374   5.763   3.555   4.290
 9159SOL     OW28375   1.489   0.185   2.771
 9159SOL    HW128376   1.411   0.218   2.823
 9159SOL    HW228377   1.457   0.141   2.687
 9160SOL     OW28378   6.327   0.205   4.923
 9160SOL    HW128379   6.285   0.261   4.851
 9160SOL    HW228380   6.396   0.145   4.882
 9161SOL     OW28381   4.796   4.226   5.116
 9161SOL    HW128382   4.794   4.214   5.017
 9161SOL    HW228383   4.878   4.185   5.154
 9162SOL     OW28384   4.768   0.673   4.168
 9162SOL    HW128385   4.758   0.666   4.267
 9162SOL    HW228386   4.695   0.730   4.130
 9163SOL     OW28387   2.093   3.331   4.548
 9163SOL    HW128388   2.117   3.299   4.457
 9163SOL    HW228389   2.121   3.263   4.616
 9164SOL     OW28390   2.389   0.772   6.841
 9164SOL    HW128391   2.393   0.826   6.757
 9164SOL    HW228392   2.482   0.749   6.869
 9165SOL     OW28393   5.957   2.077   4.868
 9165SOL    HW128394   6.052   2.089   4.898
 9165SOL    HW228395   5.909   2.021   4.936
 9166SOL     OW28396   4.256   6.216   0.703
 9166SOL    HW128397   4.252   6.224   0.803
 9166SOL    HW228398   4.175   6.167   0.671
 9167SOL     OW28399   2.182   2.551   6.525
 9167SOL    HW128400   2.236   2.635   6.533
 9167SOL    HW228401   2.208   2.488   6.599
 9168SOL     OW28402   0.684   0.467   6.526
 9168SOL    HW128403   0.599   0.418   6.508
 9168SOL    HW228404   0.676   0.515   6.614
 9169SOL     OW28405   6.198   1.480   5.205
 9169SOL    HW128406   6.257   1.428   5.144
 9169SOL    HW228407   6.103   1.450   5.194
 9170SOL     OW28408   1.164   5.110   0.062
 9170SOL    HW128409   1.188   5.190   0.008
 9170SOL    HW228410   1.245   5.051   0.070
 9171SOL     OW28411   3.876   5.090   0.589
 9171SOL    HW128412   3.776   5.084   0.582
 9171SOL    HW228413   3.911   5.149   0.516
 9172SOL     OW28414   3.625   0.377   4.343
 9172SOL    HW128415   3.607   0.312   4.417
 9172SOL    HW228416   3.563   0.456   4.353
 9173SOL     OW28417   6.393   3.677   4.894
 9173SOL    HW128418   6.334   3.623   4.953
 9173SOL    HW228419   6.392   3.639   4.801
 9174SOL     OW28420   6.080   3.884   1.664
 9174SOL    HW128421   6.048   3.922   1.751
 9174SOL    HW228422   6.174   3.913   1.647
 9175SOL     OW28423   0.334   6.917   4.301
 9175SOL    HW128424   0.425   6.874   4.302
 9175SOL    HW228425   0.344   7.016   4.294
 9176SOL     OW28426   3.060   1.224   5.192
 9176SOL    HW128427   3.035   1.234   5.288
 9176SOL    HW228428   3.095   1.131   5.177
 9177SOL     OW28429   0.675   5.282   4.861
 9177SOL    HW128430   0.667   5.280   4.960
 9177SOL    HW228431   0.584   5.291   4.820
 9178SOL     OW28432   2.079   5.472   0.562
 9178SOL    HW128433   2.164   5.497   0.608
 9178SOL    HW228434   2.024   5.554   0.546
 9179SOL     OW28435   3.054   5.315   4.430
 9179SOL    HW128436   2.976   5.257   4.406
 9179SOL    HW228437   3.067   5.314   4.529
 9180SOL     OW28438   6.081   2.529   2.973
 9180SOL    HW128439   6.050   2.611   2.924
 9180SOL    HW228440   6.105   2.458   2.907
 9181SOL     OW28441   4.225   2.191   4.712
 9181SOL    HW128442   4.301   2.128   4.721
 9181SOL    HW228443   4.246   2.258   4.641
 9182SOL     OW28444   2.298   6.911   2.142
 9182SOL    HW128445   2.202   6.914   2.172
 9182SOL    HW228446   2.331   6.817   2.146
 9183SOL     OW28447   5.099   6.078   0.624
 9183SOL    HW128448   5.101   6.070   0.524
 9183SOL    HW228449   5.006   6.097   0.654
 9184SOL     OW28450   5.088   1.661   0.768
 9184SOL    HW128451   5.070   1.621   0.857
 9184SOL    HW228452   5.005   1.661   0.713
 9185SOL     OW28453   4.345   6.681   4.630
 9185SOL    HW128454   4.285   6.610   4.595
 9185SOL    HW228455   4.380   6.735   4.554
 9186SOL     OW28456   5.729   6.989   4.356
 9186SOL    HW128457   5.777   6.991   4.268
 9186SOL    HW228458   5.697   6.896   4.375
 9187SOL     OW28459   2.754   1.902   0.814
 9187SOL    HW128460   2.801   1.936   0.733
 9187SOL    HW228461   2.815   1.841   0.865
 9188SOL     OW28462   1.468   6.404   1.841
 9188SOL    HW128463   1.421   6.484   1.803
 9188SOL    HW228464   1.564   6.427   1.859
 9189SOL     OW28465   4.666   6.429   1.583
 9189SOL    HW128466   4.715   6.357   1.634
 9189SOL    HW228467   4.685   6.418   1.485
 9190SOL     OW28468   2.463   4.483   6.605
 9190SOL    HW128469   2.377   4.499   6.655
 9190SOL    HW228470   2.469   4.546   6.528
 9191SOL     OW28471   6.595   2.178   5.342
 9191SOL    HW128472   6.671   2.176   5.407
 9191SOL    HW228473   6.569   2.084   5.318
 9192SOL     OW28474   0.706   3.533   6.489
 9192SOL    HW128475   0.608   3.530   6.512
 9192SOL    HW228476   0.759   3.485   6.559
 9193SOL     OW28477   4.692   4.290   6.939
 9193SOL    HW128478   4.741   4.353   7.000
 9193SOL    HW228479   4.758   4.241   6.883
 9194SOL     OW28480   2.730   0.176   3.575
 9194SOL    HW128481   2.778   0.261   3.552
 9194SOL    HW228482   2.639   0.177   3.534
 9195SOL     OW28483   1.561   1.644   3.888
 9195SOL    HW128484   1.590   1.711   3.820
 9195SOL    HW228485   1.588   1.552   3.859
 9196SOL     OW28486   4.785   6.596   3.125
 9196SOL    HW128487   4.870   6.590   3.073
 9196SOL    HW228488   4.711   6.628   3.065
 9197SOL     OW28489   1.773   4.984   1.810
 9197SOL    HW128490   1.740   5.078   1.808
 9197SOL    HW228491   1.696   4.921   1.799
 9198SOL     OW28492   6.522   5.070   6.647
 9198SOL    HW128493   6.441   5.126   6.664
 9198SOL    HW228494   6.555   5.086   6.554
 9199SOL     OW28495   1.065   4.355   5.644
 9199SOL    HW128496   0.968   4.330   5.632
 9199SOL    HW228497   1.078   4.392   5.736
 9200SOL     OW28498   2.513   0.046   0.159
 9200SOL    HW128499   2.596   0.024   0.211
 9200SOL    HW228500   2.437   7.010   0.194
 9201SOL     OW28501   0.702   2.594   0.901
 9201SOL    HW128502   0.738   2.520   0.960
 9201SOL    HW228503   0.772   2.619   0.834
 9202SOL     OW28504   1.187   6.928   2.483
 9202SOL    HW128505   1.212   6.838   2.448
 9202SOL    HW228506   1.126   6.973   2.419
 9203SOL     OW28507   0.765   4.215   6.724
 9203SOL    HW128508   0.792   4.124   6.755
 9203SOL    HW228509   0.774   4.280   6.799
 9204SOL     OW28510   4.888   2.885   6.160
 9204SOL    HW128511   4.800   2.836   6.162
 9204SOL    HW228512   4.884   2.956   6.089
 9205SOL     OW28513   6.232   4.681   3.103
 9205SOL    HW128514   6.186   4.768   3.084
 9205SOL    HW228515   6.221   4.658   3.200
 9206SOL     OW28516   3.858   5.427   2.582
 9206SOL    HW128517   3.805   5.347   2.611
 9206SOL    HW228518   3.807   5.510   2.604
 9207SOL     OW28519   4.981   4.024   6.244
 9207SOL    HW128520   5.064   3.969   6.241
 9207SOL    HW228521   5.001   4.113   6.285
 9208SOL     OW28522   6.247   4.084   3.870
 9208SOL    HW128523   6.183   4.035   3.929
 9208SOL    HW228524   6.259   4.177   3.905
 9209SOL     OW28525   3.443   0.334   6.766
 9209SOL    HW128526   3.542   0.351   6.766
 9209SOL    HW228527   3.403   0.371   6.682
 9210SOL     OW28528   0.093   1.130   2.792
 9210SOL    HW128529   7.018   1.112   2.760
 9210SOL    HW228530   0.140   1.189   2.727
 9211SOL     OW28531   0.469   2.543   5.924
 9211SOL    HW128532   0.493   2.455   5.963
 9211SOL    HW228533   0.551   2.601   5.919
 9212SOL     OW28534   5.124   5.014   4.499
 9212SOL    HW128535   5.089   4.966   4.419
 9212SOL    HW228536   5.205   5.067   4.475
 9213SOL     OW28537   5.215   3.522   5.791
 9213SOL    HW128538   5.310   3.504   5.767
 9213SOL    HW228539   5.155   3.461   5.739
 9214SOL     OW28540   6.433   3.500   7.016
 9214SOL    HW128541   6.524   3.522   0.032
 9214SOL    HW228542   6.372   3.482   0.074
 9215SOL     OW28543   0.863   2.263   1.243
 9215SOL    HW128544   0.799   2.306   1.307
 9215SOL    HW228545   0.812   2.225   1.166
 9216SOL     OW28546   2.733   0.413   2.194
 9216SOL    HW128547   2.666   0.475   2.235
 9216SOL    HW228548   2.790   0.463   2.130
 9217SOL     OW28549   0.814   2.114   6.906
 9217SOL    HW128550   0.807   2.138   7.002
 9217SOL    HW228551   0.734   2.062   6.878
 9218SOL     OW28552   2.048   6.637   0.473
 9218SOL    HW128553   2.063   6.578   0.394
 9218SOL    HW228554   2.042   6.581   0.556
 9219SOL     OW28555   7.003   2.616   1.559
 9219SOL    HW128556   0.057   2.572   1.507
 9219SOL    HW228557   0.023   2.670   1.633
 9220SOL     OW28558   1.786   6.614   1.325
 9220SOL    HW128559   1.722   6.626   1.402
 9220SOL    HW228560   1.777   6.691   1.263
 9221SOL     OW28561   2.840   0.749   3.120
 9221SOL    HW128562   2.926   0.729   3.072
 9221SOL    HW228563   2.855   0.740   3.219
 9222SOL     OW28564   2.069   6.919   6.207
 9222SOL    HW128565   2.000   6.920   6.280
 9222SOL    HW228566   2.158   6.896   6.246
 9223SOL     OW28567   0.862   1.171   3.996
 9223SOL    HW128568   0.949   1.124   3.983
 9223SOL    HW228569   0.878   1.269   4.003
 9224SOL     OW28570   1.469   4.814   5.063
 9224SOL    HW128571   1.534   4.792   5.136
 9224SOL    HW228572   1.383   4.846   5.104
 9225SOL     OW28573   3.234   6.814   5.878
 9225SOL    HW128574   3.225   6.726   5.925
 9225SOL    HW228575   3.283   6.801   5.791
 9226SOL     OW28576   6.246   6.767   1.095
 9226SOL    HW128577   6.229   6.836   1.024
 9226SOL    HW228578   6.311   6.804   1.161
 9227SOL     OW28579   1.151   5.253   0.639
 9227SOL    HW128580   1.122   5.347   0.656
 9227SOL    HW228581   1.083   5.207   0.583
 9228SOL     OW28582   1.431   1.164   5.494
 9228SOL    HW128583   1.369   1.087   5.480
 9228SOL    HW228584   1.411   1.236   5.427
 9229SOL     OW28585   0.600   5.925   4.745
 9229SOL    HW128586   0.593   5.957   4.839
 9229SOL    HW228587   0.511   5.892   4.714
 9230SOL     OW28588   4.848   1.889   3.511
 9230SOL    HW128589   4.866   1.934   3.424
 9230SOL    HW228590   4.795   1.805   3.495
 9231SOL     OW28591   0.608   4.305   4.566
 9231SOL    HW128592   0.638   4.281   4.474
 9231SOL    HW228593   0.521   4.354   4.561
 9232SOL     OW28594   3.594   5.328   0.418
 9232SOL    HW128595   3.655   5.328   0.339
 9232SOL    HW228596   3.525   5.257   0.407
 9233SOL     OW28597   5.390   5.188   2.126
 9233SOL    HW128598   5.487   5.192   2.101
 9233SOL    HW228599   5.335   5.230   2.054
 9234SOL     OW28600   3.799   5.415   5.806
 9234SOL    HW128601   3.725   5.390   5.868
 9234SOL    HW228602   3.882   5.433   5.859
 9235SOL     OW28603   1.897   3.127   3.045
 9235SOL    HW128604   1.845   3.056   3.092
 9235SOL    HW228605   1.984   3.089   3.012
 9236SOL     OW28606   2.965   3.957   5.365
 9236SOL    HW128607   2.867   3.938   5.373
 9236SOL    HW228608   2.981   4.012   5.283
 9237SOL     OW28609   1.554   5.354   4.443
 9237SOL    HW128610   1.646   5.362   4.405
 9237SOL    HW228611   1.554   5.286   4.516
 9238SOL     OW28612   4.011   1.735   6.772
 9238SOL    HW128613   3.978   1.666   6.836
 9238SOL    HW228614   3.985   1.708   6.679
 9239SOL     OW28615   6.682   4.461   0.624
 9239SOL    HW128616   6.769   4.505   0.648
 9239SOL    HW228617   6.659   4.484   0.529
 9240SOL     OW28618   4.904   1.581   1.275
 9240SOL    HW128619   4.933   1.515   1.344
 9240SOL    HW228620   4.829   1.637   1.312
 9241SOL     OW28621   0.572   5.006   5.456
 9241SOL    HW128622   0.598   4.983   5.363
 9241SOL    HW228623   0.612   4.941   5.520
 9242SOL     OW28624   6.950   5.326   0.511
 9242SOL    HW128625   6.944   5.228   0.490
 9242SOL    HW228626   0.005   5.342   0.576
 9243SOL     OW28627   6.082   6.655   2.035
 9243SOL    HW128628   6.177   6.666   2.005
 9243SOL    HW228629   6.021   6.676   1.959
 9244SOL     OW28630   4.143   5.192   6.733
 9244SOL    HW128631   4.222   5.214   6.790
 9244SOL    HW228632   4.088   5.274   6.719
 9245SOL     OW28633   1.462   4.595   3.350
 9245SOL    HW128634   1.386   4.538   3.379
 9245SOL    HW228635   1.549   4.551   3.375
 9246SOL     OW28636   0.515   4.462   2.604
 9246SOL    HW128637   0.585   4.403   2.565
 9246SOL    HW228638   0.429   4.411   2.611
 9247SOL     OW28639   1.060   0.141   2.661
 9247SOL    HW128640   0.961   0.137   2.667
 9247SOL    HW228641   1.094   0.067   2.603
 9248SOL     OW28642   1.538   2.504   5.152
 9248SOL    HW128643   1.507   2.593   5.118
 9248SOL    HW228644   1.466   2.463   5.209
 9249SOL     OW28645   4.882   3.672   7.002
 9249SOL    HW128646   4.861   3.720   0.068
 9249SOL    HW228647   4.836   3.583   7.002
 9250SOL     OW28648   5.635   3.182   4.928
 9250SOL    HW128649   5.712   3.246   4.929
 9250SOL    HW228650   5.596   3.179   4.836
 9251SOL     OW28651   4.105   2.260   3.155
 9251SOL    HW128652   4.201   2.270   3.130
 9251SOL    HW228653   4.062   2.192   3.097
 9252SOL     OW28654   5.829   0.249   4.216
 9252SOL    HW128655   5.831   0.232   4.315
 9252SOL    HW228656   5.838   0.162   4.168
 9253SOL     OW28657   5.862   6.573   5.726
 9253SOL    HW128658   5.782   6.518   5.703
 9253SOL    HW228659   5.924   6.577   5.647
 9254SOL     OW28660   6.444   4.628   2.676
 9254SOL    HW128661   6.395   4.541   2.681
 9254SOL    HW228662   6.430   4.679   2.761
 9255SOL     OW28663   4.698   4.025   0.423
 9255SOL    HW128664   4.642   4.093   0.471
 9255SOL    HW228665   4.700   3.940   0.474
 9256SOL     OW28666   4.223   6.853   2.457
 9256SOL    HW128667   4.146   6.916   2.451
 9256SOL    HW228668   4.201   6.768   2.409
 9257SOL     OW28669   0.843   3.992   3.035
 9257SOL    HW128670   0.788   3.965   2.956
 9257SOL    HW228671   0.898   3.915   3.065
 9258SOL     OW28672   3.184   3.518   3.537
 9258SOL    HW128673   3.223   3.439   3.586
 9258SOL    HW228674   3.255   3.562   3.483
 9259SOL     OW28675   1.281   2.433   0.468
 9259SOL    HW128676   1.354   2.451   0.401
 9259SOL    HW228677   1.321   2.421   0.558
 9260SOL     OW28678   5.110   1.648   5.700
 9260SOL    HW128679   5.093   1.659   5.602
 9260SOL    HW228680   5.208   1.657   5.718
 9261SOL     OW28681   4.507   0.510   6.584
 9261SOL    HW128682   4.484   0.542   6.492
 9261SOL    HW228683   4.490   0.583   6.650
 9262SOL     OW28684   6.432   3.140   5.367
 9262SOL    HW128685   6.398   3.052   5.399
 9262SOL    HW228686   6.527   3.151   5.396
 9263SOL     OW28687   5.679   5.209   1.970
 9263SOL    HW128688   5.728   5.295   1.957
 9263SOL    HW228689   5.745   5.134   1.971
 9264SOL     OW28690   5.561   4.029   0.281
 9264SOL    HW128691   5.551   4.024   0.381
 9264SOL    HW228692   5.547   3.938   0.242
 9265SOL     OW28693   3.200   1.580   6.654
 9265SOL    HW128694   3.233   1.563   6.561
 9265SOL    HW228695   3.103   1.558   6.659
 9266SOL     OW28696   1.681   6.401   2.205
 9266SOL    HW128697   1.698   6.345   2.124
 9266SOL    HW228698   1.730   6.362   2.283
 9267SOL     OW28699   0.558   3.701   5.924
 9267SOL    HW128700   0.653   3.729   5.909
 9267SOL    HW228701   0.530   3.639   5.851
 9268SOL     OW28702   1.647   5.023   1.388
 9268SOL    HW128703   1.674   5.024   1.291
 9268SOL    HW228704   1.570   4.960   1.400
 9269SOL     OW28705   3.218   2.080   5.812
 9269SOL    HW128706   3.215   2.049   5.717
 9269SOL    HW228707   3.198   2.177   5.816
 9270SOL     OW28708   4.906   0.062   5.912
 9270SOL    HW128709   4.882   0.159   5.912
 9270SOL    HW228710   4.824   0.008   5.929
 9271SOL     OW28711   1.801   5.990   6.549
 9271SOL    HW128712   1.748   5.947   6.476
 9271SOL    HW228713   1.882   5.935   6.569
 9272SOL     OW28714   1.711   5.591   5.762
 9272SOL    HW128715   1.657   5.646   5.698
 9272SOL    HW228716   1.808   5.614   5.752
 9273SOL     OW28717   5.172   5.730   4.272
 9273SOL    HW128718   5.101   5.782   4.319
 9273SOL    HW228719   5.132   5.682   4.194
 9274SOL     OW28720   6.686   2.458   0.228
 9274SOL    HW128721   6.705   2.548   0.189
 9274SOL    HW228722   6.765   2.398   0.217
 9275SOL     OW28723   0.101   2.231   0.315
 9275SOL    HW128724   0.081   2.143   0.273
 9275SOL    HW228725   0.198   2.252   0.305
 9276SOL     OW28726   2.104   4.611   3.086
 9276SOL    HW128727   2.106   4.521   3.130
 9276SOL    HW228728   2.138   4.602   2.992
 9277SOL     OW28729   5.591   2.934   0.573
 9277SOL    HW128730   5.651   2.854   0.576
 9277SOL    HW228731   5.565   2.952   0.478
 9278SOL     OW28732   1.401   0.436   4.887
 9278SOL    HW128733   1.304   0.457   4.877
 9278SOL    HW228734   1.451   0.468   4.807
 9279SOL     OW28735   4.740   0.626   2.114
 9279SOL    HW128736   4.747   0.544   2.171
 9279SOL    HW228737   4.832   0.654   2.087
 9280SOL     OW28738   1.682   1.179   2.740
 9280SOL    HW128739   1.731   1.092   2.732
 9280SOL    HW228740   1.679   1.223   2.651
 9281SOL     OW28741   3.193   4.441   1.085
 9281SOL    HW128742   3.155   4.530   1.110
 9281SOL    HW228743   3.241   4.402   1.163
 9282SOL     OW28744   5.114   1.383   4.915
 9282SOL    HW128745   5.172   1.305   4.939
 9282SOL    HW228746   5.088   1.431   4.999
 9283SOL     OW28747   5.864   0.339   3.812
 9283SOL    HW128748   5.964   0.342   3.815
 9283SOL    HW228749   5.830   0.406   3.747
 9284SOL     OW28750   3.199   4.774   5.640
 9284SOL    HW128751   3.182   4.855   5.696
 9284SOL    HW228752   3.295   4.774   5.610
 9285SOL     OW28753   5.401   2.924   1.240
 9285SOL    HW128754   5.487   2.901   1.284
 9285SOL    HW228755   5.416   2.941   1.142
 9286SOL     OW28756   5.123   6.644   6.348
 9286SOL    HW128757   5.186   6.721   6.360
 9286SOL    HW228758   5.145   6.597   6.262
 9287SOL     OW28759   3.132   5.525   0.479
 9287SOL    HW128760   3.100   5.431   0.467
 9287SOL    HW228761   3.221   5.536   0.435
 9288SOL     OW28762   4.026   1.443   4.144
 9288SOL    HW128763   3.954   1.457   4.076
 9288SOL    HW228764   4.100   1.509   4.127
 9289SOL     OW28765   3.357   2.006   2.721
 9289SOL    HW128766   3.365   2.055   2.808
 9289SOL    HW228767   3.402   1.917   2.728
 9290SOL     OW28768   4.764   1.992   3.804
 9290SOL    HW128769   4.826   1.947   3.869
 9290SOL    HW228770   4.782   1.958   3.712
 9291SOL     OW28771   2.555   0.029   4.538
 9291SOL    HW128772   2.508   0.113   4.510
 9291SOL    HW228773   2.494   6.970   4.525
 9292SOL     OW28774   0.548   3.309   6.779
 9292SOL    HW128775   0.491   3.385   6.748
 9292SOL    HW228776   0.564   3.246   6.704
 9293SOL     OW28777   5.537   3.862   6.905
 9293SOL    HW128778   5.519   3.812   6.990
 9293SOL    HW228779   5.450   3.887   6.862
 9294SOL     OW28780   3.307   6.882   5.127
 9294SOL    HW128781   3.298   6.881   5.028
 9294SOL    HW228782   3.314   6.976   5.160
 9295SOL     OW28783   5.206   2.520   4.721
 9295SOL    HW128784   5.170   2.503   4.813
 9295SOL    HW228785   5.219   2.434   4.674
 9296SOL     OW28786   0.767   6.566   6.157
 9296SOL    HW128787   0.675   6.593   6.186
 9296SOL    HW228788   0.785   6.604   6.066
 9297SOL     OW28789   6.124   0.995   0.597
 9297SOL    HW128790   6.086   1.051   0.671
 9297SOL    HW228791   6.224   0.990   0.608
 9298SOL     OW28792   1.760   0.478   4.571
 9298SOL    HW128793   1.715   0.424   4.499
 9298SOL    HW228794   1.799   0.560   4.531
 9299SOL     OW28795   0.549   2.613   4.328
 9299SOL    HW128796   0.451   2.596   4.340
 9299SOL    HW228797   0.570   2.615   4.230
 9300SOL     OW28798   0.408   4.490   5.621
 9300SOL    HW128799   0.358   4.474   5.706
 9300SOL    HW228800   0.353   4.457   5.543
 9301SOL     OW28801   5.064   4.456   3.825
 9301SOL    HW128802   5.092   4.432   3.732
 9301SOL    HW228803   5.053   4.373   3.879
 9302SOL     OW28804   2.154   2.933   4.359
 9302SOL    HW128805   2.205   3.015   4.387
 9302SOL    HW228806   2.103   2.953   4.275
 9303SOL     OW28807   3.992   5.960   0.063
 9303SOL    HW128808   4.052   5.904   0.121
 9303SOL    HW228809   3.997   6.055   0.093
 9304SOL     OW28810   4.926   4.093   1.642
 9304SOL    HW128811   4.831   4.069   1.664
 9304SOL    HW228812   4.982   4.010   1.644
 9305SOL     OW28813   3.493   1.209   2.100
 9305SOL    HW128814   3.522   1.208   2.195
 9305SOL    HW228815   3.395   1.228   2.094
 9306SOL     OW28816   0.249   4.332   4.840
 9306SOL    HW128817   0.332   4.361   4.886
 9306SOL    HW228818   0.244   4.232   4.840
 9307SOL     OW28819   1.305   3.625   0.977
 9307SOL    HW128820   1.339   3.580   1.059
 9307SOL    HW228821   1.282   3.720   0.999
 9308SOL     OW28822   1.072   4.209   0.827
 9308SOL    HW128823   1.104   4.265   0.904
 9308SOL    HW228824   1.106   4.249   0.741
 9309SOL     OW28825   3.479   4.806   5.522
 9309SOL    HW128826   3.526   4.872   5.580
 9309SOL    HW228827   3.510   4.714   5.546
 9310SOL     OW28828   4.275   5.455   5.899
 9310SOL    HW128829   4.306   5.377   5.846
 9310SOL    HW228830   4.340   5.530   5.890
 9311SOL     OW28831   4.875   5.338   2.091
 9311SOL    HW128832   4.839   5.387   2.171
 9311SOL    HW228833   4.893   5.243   2.115
 9312SOL     OW28834   1.266   3.313   1.245
 9312SOL    HW128835   1.213   3.396   1.257
 9312SOL    HW228836   1.363   3.335   1.241
 9313SOL     OW28837   6.664   0.636   0.985
 9313SOL    HW128838   6.670   0.616   0.888
 9313SOL    HW228839   6.684   0.733   1.001
 9314SOL     OW28840   4.629   5.848   6.068
 9314SOL    HW128841   4.578   5.895   5.996
 9314SOL    HW228842   4.564   5.810   6.134
 9315SOL     OW28843   6.635   0.868   5.223
 9315SOL    HW128844   6.579   0.916   5.155
 9315SOL    HW228845   6.603   0.774   5.232
 9316SOL     OW28846   4.676   6.112   5.402
 9316SOL    HW128847   4.625   6.027   5.411
 9316SOL    HW228848   4.678   6.140   5.306
 9317SOL     OW28849   6.545   4.789   3.188
 9317SOL    HW128850   6.481   4.865   3.195
 9317SOL    HW228851   6.521   4.719   3.256
 9318SOL     OW28852   6.150   0.602   5.709
 9318SOL    HW128853   6.142   0.695   5.674
 9318SOL    HW228854   6.059   0.565   5.727
 9319SOL     OW28855   1.024   2.863   0.019
 9319SOL    HW128856   0.941   2.819   0.052
 9319SOL    HW228857   1.001   2.928   6.965
 9320SOL     OW28858   3.820   1.076   5.964
 9320SOL    HW128859   3.805   0.996   5.906
 9320SOL    HW228860   3.844   1.155   5.906
 9321SOL     OW28861   6.182   0.276   3.286
 9321SOL    HW128862   6.233   0.326   3.356
 9321SOL    HW228863   6.126   0.205   3.330
 9322SOL     OW28864   1.038   4.770   6.318
 9322SOL    HW128865   1.078   4.707   6.384
 9322SOL    HW228866   1.010   4.854   6.365
 9323SOL     OW28867   1.283   0.236   5.407
 9323SOL    HW128868   1.236   0.152   5.434
 9323SOL    HW228869   1.343   0.267   5.481
 9324SOL     OW28870   1.552   5.020   0.601
 9324SOL    HW128871   1.495   5.093   0.638
 9324SOL    HW228872   1.611   5.057   0.529
 9325SOL     OW28873   5.042   0.977   6.512
 9325SOL    HW128874   5.100   0.915   6.565
 9325SOL    HW228875   5.019   0.934   6.425
 9326SOL     OW28876   2.063   6.736   0.874
 9326SOL    HW128877   2.066   6.792   0.792
 9326SOL    HW228878   2.042   6.793   0.953
 9327SOL     OW28879   5.034   6.938   2.784
 9327SOL    HW128880   5.090   0.001   2.789
 9327SOL    HW228881   5.064   6.882   2.706
 9328SOL     OW28882   3.267   0.737   5.439
 9328SOL    HW128883   3.240   0.768   5.348
 9328SOL    HW228884   3.366   0.725   5.442
 9329SOL     OW28885   6.664   4.244   2.208
 9329SOL    HW128886   6.699   4.282   2.122
 9329SOL    HW228887   6.585   4.297   2.239
 9330SOL     OW28888   6.819   6.374   6.595
 9330SOL    HW128889   6.898   6.328   6.555
 9330SOL    HW228890   6.757   6.404   6.522
 9331SOL     OW28891   1.646   1.279   6.533
 9331SOL    HW128892   1.638   1.204   6.599
 9331SOL    HW228893   1.568   1.341   6.543
 9332SOL     OW28894   4.125   4.000   1.773
 9332SOL    HW128895   4.182   4.076   1.804
 9332SOL    HW228896   4.096   4.015   1.679
 9333SOL     OW28897   4.292   3.523   1.271
 9333SOL    HW128898   4.211   3.464   1.273
 9333SOL    HW228899   4.333   3.527   1.362
 9334SOL     OW28900   4.890   5.358   4.067
 9334SOL    HW128901   4.867   5.271   4.024
 9334SOL    HW228902   4.936   5.341   4.154
 9335SOL     OW28903   0.911   1.323   5.934
 9335SOL    HW128904   0.942   1.397   5.994
 9335SOL    HW228905   0.827   1.349   5.888
 9336SOL     OW28906   2.690   5.237   5.261
 9336SOL    HW128907   2.623   5.181   5.309
 9336SOL    HW228908   2.687   5.217   5.163
 9337SOL     OW28909   5.368   1.812   4.036
 9337SOL    HW128910   5.420   1.779   3.958
 9337SOL    HW228911   5.407   1.775   4.121
 9338SOL     OW28912   3.903   0.307   1.923
 9338SOL    HW128913   3.996   0.319   1.957
 9338SOL    HW228914   3.885   0.374   1.851
 9339SOL     OW28915   5.961   0.165   1.480
 9339SOL    HW128916   5.861   0.153   1.479
 9339SOL    HW228917   5.984   0.249   1.528
 9340SOL     OW28918   5.423   3.845   3.706
 9340SOL    HW128919   5.330   3.823   3.733
 9340SOL    HW228920   5.451   3.932   3.748
 9341SOL     OW28921   0.040   6.206   0.095
 9341SOL    HW128922   0.050   6.127   0.155
 9341SOL    HW228923   0.014   6.286   0.148
 9342SOL     OW28924   1.595   6.866   3.229
 9342SOL    HW128925   1.520   6.812   3.191
 9342SOL    HW228926   1.638   6.816   3.304
 9343SOL     OW28927   6.075   4.246   2.701
 9343SOL    HW128928   6.097   4.165   2.756
 9343SOL    HW228929   6.031   4.314   2.759
 9344SOL     OW28930   4.549   6.499   1.833
 9344SOL    HW128931   4.586   6.501   1.740
 9344SOL    HW228932   4.537   6.592   1.867
 9345SOL     OW28933   6.654   4.619   2.502
 9345SOL    HW128934   6.736   4.659   2.542
 9345SOL    HW228935   6.577   4.629   2.567
 9346SOL     OW28936   6.118   0.835   1.284
 9346SOL    HW128937   6.073   0.924   1.276
 9346SOL    HW228938   6.116   0.805   1.379
 9347SOL     OW28939   1.025   4.246   0.390
 9347SOL    HW128940   0.928   4.243   0.366
 9347SOL    HW228941   1.069   4.160   0.363
 9348SOL     OW28942   4.114   6.065   1.778
 9348SOL    HW128943   4.109   6.020   1.688
 9348SOL    HW228944   4.179   6.015   1.836
 9349SOL     OW28945   1.042   6.290   2.610
 9349SOL    HW128946   1.065   6.319   2.703
 9349SOL    HW228947   0.944   6.303   2.595
 9350SOL     OW28948   0.116   3.431   5.311
 9350SOL    HW128949   0.133   3.392   5.401
 9350SOL    HW228950   0.188   3.402   5.248
 9351SOL     OW28951   2.785   0.490   6.839
 9351SOL    HW128952   2.728   0.436   6.776
 9351SOL    HW228953   2.864   0.525   6.789
 9352SOL     OW28954   3.448   1.911   6.786
 9352SOL    HW128955   3.528   1.967   6.765
 9352SOL    HW228956   3.366   1.956   6.748
 9353SOL     OW28957   0.427   4.993   0.742
 9353SOL    HW128958   0.515   4.986   0.789
 9353SOL    HW228959   0.391   4.901   0.726
 9354SOL     OW28960   6.250   1.924   6.407
 9354SOL    HW128961   6.268   1.831   6.375
 9354SOL    HW228962   6.239   1.985   6.328
 9355SOL     OW28963   0.552   2.428   4.701
 9355SOL    HW128964   0.570   2.368   4.779
 9355SOL    HW228965   0.638   2.453   4.657
 9356SOL     OW28966   4.477   0.111   1.654
 9356SOL    HW128967   4.552   0.170   1.625
 9356SOL    HW228968   4.495   0.017   1.622
 9357SOL     OW28969   1.168   3.577   6.448
 9357SOL    HW128970   1.179   3.544   6.354
 9357SOL    HW228971   1.246   3.635   6.472
 9358SOL     OW28972   0.177   3.765   2.325
 9358SOL    HW128973   0.233   3.843   2.355
 9358SOL    HW228974   0.188   3.753   2.227
 9359SOL     OW28975   1.366   4.947   0.126
 9359SOL    HW128976   1.393   4.864   0.077
 9359SOL    HW228977   1.364   4.928   0.224
 9360SOL     OW28978   2.062   5.334   6.145
 9360SOL    HW128979   2.051   5.333   6.046
 9360SOL    HW228980   1.979   5.368   6.188
 9361SOL     OW28981   2.040   5.258   3.277
 9361SOL    HW128982   2.035   5.318   3.197
 9361SOL    HW228983   2.123   5.278   3.329
 9362SOL     OW28984   0.838   0.984   2.740
 9362SOL    HW128985   0.898   1.052   2.698
 9362SOL    HW228986   0.824   0.908   2.677
 9363SOL     OW28987   3.670   5.426   2.117
 9363SOL    HW128988   3.710   5.343   2.155
 9363SOL    HW228989   3.573   5.411   2.098
 9364SOL     OW28990   2.588   2.310   0.101
 9364SOL    HW128991   2.500   2.315   0.054
 9364SOL    HW228992   2.661   2.304   0.033
 9365SOL     OW28993   3.076   1.743   3.581
 9365SOL    HW128994   3.001   1.736   3.515
 9365SOL    HW228995   3.104   1.651   3.608
 9366SOL     OW28996   3.318   5.217   0.687
 9366SOL    HW128997   3.266   5.302   0.677
 9366SOL    HW228998   3.395   5.233   0.749
 9367SOL     OW28999   6.598   0.262   1.474
 9367SOL    HW129000   6.583   0.205   1.393
 9367SOL    HW229001   6.552   0.349   1.463
 9368SOL     OW29002   3.841   6.415   2.191
 9368SOL    HW129003   3.887   6.326   2.183
 9368SOL    HW229004   3.883   6.480   2.128
 9369SOL     OW29005   6.942   6.010   4.815
 9369SOL    HW129006   7.000   5.928   4.816
 9369SOL    HW229007   6.890   6.012   4.730
 9370SOL     OW29008   5.254   7.007   3.442
 9370SOL    HW129009   5.323   0.031   3.500
 9370SOL    HW229010   5.298   6.956   3.368
 9371SOL     OW29011   2.741   5.889   0.933
 9371SOL    HW129012   2.670   5.837   0.980
 9371SOL    HW229013   2.701   5.972   0.894
 9372SOL     OW29014   5.336   0.137   1.491
 9372SOL    HW129015   5.410   0.125   1.557
 9372SOL    HW229016   5.312   0.233   1.483
 9373SOL     OW29017   5.306   1.970   0.677
 9373SOL    HW129018   5.395   2.005   0.704
 9373SOL    HW229019   5.280   1.894   0.737
 9374SOL     OW29020   6.615   3.432   5.644
 9374SOL    HW129021   6.545   3.502   5.630
 9374SOL    HW229022   6.676   3.460   5.719
 9375SOL     OW29023   6.947   1.974   0.874
 9375SOL    HW129024   6.941   1.883   0.913
 9375SOL    HW229025   6.903   1.976   0.784
 9376SOL     OW29026   2.245   3.721   1.739
 9376SOL    HW129027   2.173   3.697   1.673
 9376SOL    HW229028   2.247   3.652   1.812
 9377SOL     OW29029   2.015   5.007   3.198
 9377SOL    HW129030   2.009   5.107   3.203
 9377SOL    HW229031   2.110   4.980   3.183
 9378SOL     OW29032   3.436   0.991   3.762
 9378SOL    HW129033   3.388   1.045   3.692
 9378SOL    HW229034   3.447   0.897   3.730
 9379SOL     OW29035   5.326   0.163   4.986
 9379SOL    HW129036   5.367   0.219   5.058
 9379SOL    HW229037   5.317   0.216   4.902
 9380SOL     OW29038   3.666   5.515   5.581
 9380SOL    HW129039   3.712   5.476   5.661
 9380SOL    HW229040   3.615   5.443   5.534
 9381SOL     OW29041   5.021   2.730   5.111
 9381SOL    HW129042   5.046   2.801   5.177
 9381SOL    HW229043   5.033   2.765   5.018
 9382SOL     OW29044   3.729   1.062   3.768
 9382SOL    HW129045   3.638   1.048   3.808
 9382SOL    HW229046   3.736   1.156   3.734
 9383SOL     OW29047   5.033   4.618   4.446
 9383SOL    HW129048   4.988   4.577   4.366
 9383SOL    HW229049   5.099   4.554   4.483
 9384SOL     OW29050   3.218   6.930   1.889
 9384SOL    HW129051   3.298   6.960   1.838
 9384SOL    HW229052   3.246   6.895   1.978
 9385SOL     OW29053   4.228   1.632   4.140
 9385SOL    HW129054   4.157   1.668   4.200
 9385SOL    HW229055   4.318   1.644   4.183
 9386SOL     OW29056   2.775   5.649   5.266
 9386SOL    HW129057   2.719   5.627   5.186
 9386SOL    HW229058   2.859   5.696   5.236
 9387SOL     OW29059   3.762   2.273   0.459
 9387SOL    HW129060   3.786   2.354   0.514
 9387SOL    HW229061   3.793   2.191   0.507
 9388SOL     OW29062   1.665   6.467   3.088
 9388SOL    HW129063   1.627   6.419   3.166
 9388SOL    HW229064   1.712   6.402   3.028
 9389SOL     OW29065   3.203   6.152   2.703
 9389SOL    HW129066   3.123   6.102   2.739
 9389SOL    HW229067   3.189   6.250   2.716
 9390SOL     OW29068   5.847   5.068   5.906
 9390SOL    HW129069   5.849   5.079   5.807
 9390SOL    HW229070   5.875   5.154   5.950
 9391SOL     OW29071   0.473   0.423   4.941
 9391SOL    HW129072   0.447   0.371   4.860
 9391SOL    HW229073   0.449   0.519   4.928
 9392SOL     OW29074   4.570   4.403   4.139
 9392SOL    HW129075   4.589   4.354   4.224
 9392SOL    HW229076   4.596   4.346   4.061
 9393SOL     OW29077   2.836   0.261   6.219
 9393SOL    HW129078   2.803   0.278   6.126
 9393SOL    HW229079   2.936   0.266   6.220
 9394SOL     OW29080   5.844   0.595   1.504
 9394SOL    HW129081   5.940   0.569   1.515
 9394SOL    HW229082   5.829   0.684   1.546
 9395SOL     OW29083   2.115   1.334   0.803
 9395SOL    HW129084   2.190   1.362   0.864
 9395SOL    HW229085   2.094   1.410   0.741
 9396SOL     OW29086   2.151   5.091   5.105
 9396SOL    HW129087   2.111   5.154   5.038
 9396SOL    HW229088   2.077   5.045   5.155
 9397SOL     OW29089   2.912   6.785   5.592
 9397SOL    HW129090   2.846   6.800   5.666
 9397SOL    HW229091   2.964   6.702   5.611
 9398SOL     OW29092   6.072   1.251   5.666
 9398SOL    HW129093   6.045   1.190   5.592
 9398SOL    HW229094   6.170   1.272   5.657
 9399SOL     OW29095   1.037   2.512   4.496
 9399SOL    HW129096   1.105   2.557   4.554
 9399SOL    HW229097   1.008   2.575   4.424
 9400SOL     OW29098   4.825   0.236   0.370
 9400SOL    HW129099   4.831   0.297   0.291
 9400SOL    HW229100   4.810   0.289   0.453
 9401SOL     OW29101   0.117   2.775   1.744
 9401SOL    HW129102   0.186   2.782   1.672
 9401SOL    HW229103   0.162   2.781   1.833
 9402SOL     OW29104   1.653   4.964   3.549
 9402SOL    HW129105   1.622   4.926   3.462
 9402SOL    HW229106   1.578   5.013   3.593
 9403SOL     OW29107   0.176   1.661   2.476
 9403SOL    HW129108   0.270   1.627   2.474
 9403SOL    HW229109   0.173   1.752   2.432
 9404SOL     OW29110   0.241   2.125   1.326
 9404SOL    HW129111   0.158   2.151   1.375
 9404SOL    HW229112   0.216   2.090   1.235
 9405SOL     OW29113   0.709   4.347   4.816
 9405SOL    HW129114   0.698   4.442   4.786
 9405SOL    HW229115   0.666   4.286   4.749
 9406SOL     OW29116   1.256   3.119   6.820
 9406SOL    HW129117   1.166   3.083   6.796
 9406SOL    HW229118   1.305   3.145   6.736
 9407SOL     OW29119   2.748   5.018   4.851
 9407SOL    HW129120   2.672   4.984   4.796
 9407SOL    HW229121   2.719   5.027   4.946
 9408SOL     OW29122   0.179   2.510   5.875
 9408SOL    HW129123   0.268   2.550   5.899
 9408SOL    HW229124   0.122   2.504   5.957
 9409SOL     OW29125   6.515   5.568   2.473
 9409SOL    HW129126   6.596   5.516   2.499
 9409SOL    HW229127   6.531   5.666   2.487
 9410SOL     OW29128   4.925   1.132   1.494
 9410SOL    HW129129   4.911   1.211   1.434
 9410SOL    HW229130   4.894   1.155   1.586
 9411SOL     OW29131   3.228   3.160   3.104
 9411SOL    HW129132   3.155   3.200   3.049
 9411SOL    HW229133   3.257   3.074   3.062
 9412SOL     OW29134   0.844   0.722   1.310
 9412SOL    HW129135   0.780   0.646   1.309
 9412SOL    HW229136   0.814   0.790   1.377
 9413SOL     OW29137   4.688   4.739   4.830
 9413SOL    HW129138   4.621   4.665   4.827
 9413SOL    HW229139   4.745   4.737   4.747
 9414SOL     OW29140   2.625   2.186   4.578
 9414SOL    HW129141   2.665   2.187   4.669
 9414SOL    HW229142   2.646   2.272   4.531
 9415SOL     OW29143   2.836   0.086   1.805
 9415SOL    HW129144   2.772   0.035   1.863
 9415SOL    HW229145   2.784   0.141   1.739
 9416SOL     OW29146   0.495   0.642   5.233
 9416SOL    HW129147   0.417   0.644   5.295
 9416SOL    HW229148   0.466   0.672   5.142
 9417SOL     OW29149   3.221   6.328   1.848
 9417SOL    HW129150   3.266   6.411   1.882
 9417SOL    HW229151   3.233   6.322   1.749
 9418SOL     OW29152   2.943   1.548   2.972
 9418SOL    HW129153   2.862   1.573   2.918
 9418SOL    HW229154   2.978   1.629   3.019
 9419SOL     OW29155   2.724   2.910   6.392
 9419SOL    HW129156   2.649   2.907   6.326
 9419SOL    HW229157   2.688   2.924   6.484
 9420SOL     OW29158   5.906   4.753   0.667
 9420SOL    HW129159   5.840   4.678   0.662
 9420SOL    HW229160   5.990   4.728   0.619
 9421SOL     OW29161   2.996   5.716   4.242
 9421SOL    HW129162   3.003   5.768   4.157
 9421SOL    HW229163   2.985   5.619   4.221
 9422SOL     OW29164   2.461   6.188   4.198
 9422SOL    HW129165   2.489   6.194   4.103
 9422SOL    HW229166   2.516   6.119   4.245
 9423SOL     OW29167   4.224   6.550   2.753
 9423SOL    HW129168   4.241   6.646   2.734
 9423SOL    HW229169   4.279   6.493   2.691
 9424SOL     OW29170   5.294   1.721   4.577
 9424SOL    HW129171   5.361   1.711   4.651
 9424SOL    HW229172   5.297   1.639   4.519
 9425SOL     OW29173   6.101   4.851   1.551
 9425SOL    HW129174   6.077   4.879   1.458
 9425SOL    HW229175   6.107   4.932   1.609
 9426SOL     OW29176   1.680   1.400   6.185
 9426SOL    HW129177   1.624   1.431   6.262
 9426SOL    HW229178   1.648   1.442   6.100
 9427SOL     OW29179   2.387   5.886   2.934
 9427SOL    HW129180   2.438   5.819   2.881
 9427SOL    HW229181   2.289   5.869   2.922
 9428SOL     OW29182   6.458   6.366   0.089
 9428SOL    HW129183   6.503   6.453   0.108
 9428SOL    HW229184   6.527   6.298   0.063
 9429SOL     OW29185   1.458   2.258   3.882
 9429SOL    HW129186   1.458   2.160   3.865
 9429SOL    HW229187   1.447   2.275   3.980
 9430SOL     OW29188   0.129   2.426   4.584
 9430SOL    HW129189   0.044   2.386   4.550
 9430SOL    HW229190   0.116   2.457   4.678
 9431SOL     OW29191   6.677   4.386   0.890
 9431SOL    HW129192   6.660   4.436   0.805
 9431SOL    HW229193   6.748   4.317   0.874
 9432SOL     OW29194   6.548   1.874   4.144
 9432SOL    HW129195   6.472   1.938   4.133
 9432SOL    HW229196   6.610   1.882   4.065
 9433SOL     OW29197   4.142   5.725   3.003
 9433SOL    HW129198   4.199   5.731   2.921
 9433SOL    HW229199   4.166   5.800   3.065
 9434SOL     OW29200   5.884   5.447   3.585
 9434SOL    HW129201   5.803   5.422   3.531
 9434SOL    HW229202   5.865   5.532   3.635
 9435SOL     OW29203   0.445   2.662   2.138
 9435SOL    HW129204   0.416   2.679   2.044
 9435SOL    HW229205   0.415   2.571   2.166
 9436SOL     OW29206   1.243   1.125   2.426
 9436SOL    HW129207   1.240   1.084   2.334
 9436SOL    HW229208   1.244   1.224   2.418
 9437SOL     OW29209   0.804   5.238   3.458
 9437SOL    HW129210   0.756   5.197   3.536
 9437SOL    HW229211   0.752   5.317   3.424
 9438SOL     OW29212   1.488   0.101   1.899
 9438SOL    HW129213   1.406   0.045   1.891
 9438SOL    HW229214   1.505   0.147   1.812
 9439SOL     OW29215   0.353   3.142   1.076
 9439SOL    HW129216   0.305   3.142   0.988
 9439SOL    HW229217   0.390   3.051   1.094
 9440SOL     OW29218   2.573   4.816   3.307
 9440SOL    HW129219   2.636   4.893   3.302
 9440SOL    HW229220   2.593   4.763   3.389
 9441SOL     OW29221   6.936   5.649   5.534
 9441SOL    HW129222   6.859   5.700   5.494
 9441SOL    HW229223   6.960   5.573   5.474
 9442SOL     OW29224   4.747   3.514   1.404
 9442SOL    HW129225   4.671   3.479   1.350
 9442SOL    HW229226   4.724   3.605   1.439
 9443SOL     OW29227   2.759   5.776   1.575
 9443SOL    HW129228   2.661   5.796   1.562
 9443SOL    HW229229   2.785   5.798   1.668
 9444SOL     OW29230   1.769   3.766   0.786
 9444SOL    HW129231   1.705   3.697   0.820
 9444SOL    HW229232   1.844   3.721   0.738
 9445SOL     OW29233   6.753   1.969   3.962
 9445SOL    HW129234   6.807   1.884   3.962
 9445SOL    HW229235   6.747   2.005   3.869
 9446SOL     OW29236   6.448   4.915   4.536
 9446SOL    HW129237   6.412   5.008   4.535
 9446SOL    HW229238   6.387   4.856   4.590
 9447SOL     OW29239   4.765   5.228   2.856
 9447SOL    HW129240   4.731   5.257   2.945
 9447SOL    HW229241   4.833   5.293   2.823
 9448SOL     OW29242   6.099   6.797   5.894
 9448SOL    HW129243   6.161   6.784   5.816
 9448SOL    HW229244   6.034   6.869   5.872
 9449SOL     OW29245   5.309   6.639   6.803
 9449SOL    HW129246   5.209   6.639   6.802
 9449SOL    HW229247   5.342   6.581   6.877
 9450SOL     OW29248   1.740   5.347   4.043
 9450SOL    HW129249   1.750   5.324   3.946
 9450SOL    HW229250   1.663   5.297   4.081
 9451SOL     OW29251   3.701   5.792   6.006
 9451SOL    HW129252   3.667   5.857   5.938
 9451SOL    HW229253   3.769   5.732   5.963
 9452SOL     OW29254   0.576   4.335   0.746
 9452SOL    HW129255   0.658   4.349   0.802
 9452SOL    HW229256   0.584   4.248   0.697
 9453SOL     OW29257   2.968   5.106   3.339
 9453SOL    HW129258   2.869   5.119   3.349
 9453SOL    HW229259   2.994   5.018   3.378
 9454SOL     OW29260   4.482   3.725   1.080
 9454SOL    HW129261   4.465   3.641   1.030
 9454SOL    HW229262   4.562   3.713   1.140
 9455SOL     OW29263   2.424   2.073   2.575
 9455SOL    HW129264   2.367   2.081   2.657
 9455SOL    HW229265   2.513   2.115   2.592
 9456SOL     OW29266   6.254   4.190   2.299
 9456SOL    HW129267   6.212   4.160   2.214
 9456SOL    HW229268   6.209   4.274   2.331
 9457SOL     OW29269   0.614   5.205   4.445
 9457SOL    HW129270   0.687   5.143   4.417
 9457SOL    HW229271   0.653   5.290   4.479
 9458SOL     OW29272   0.141   4.379   0.396
 9458SOL    HW129273   0.094   4.315   0.458
 9458SOL    HW229274   0.230   4.342   0.371
 9459SOL     OW29275   5.197   4.006   4.060
 9459SOL    HW129276   5.215   3.913   4.093
 9459SOL    HW229277   5.266   4.068   4.098
 9460SOL     OW29278   1.703   3.130   4.605
 9460SOL    HW129279   1.764   3.078   4.666
 9460SOL    HW229280   1.711   3.227   4.625
 9461SOL     OW29281   1.138   1.531   1.310
 9461SOL    HW129282   1.065   1.594   1.285
 9461SOL    HW229283   1.184   1.565   1.393
 9462SOL     OW29284   1.836   2.878   3.196
 9462SOL    HW129285   1.910   2.868   3.263
 9462SOL    HW229286   1.748   2.881   3.244
 9463SOL     OW29287   5.228   6.699   1.486
 9463SOL    HW129288   5.235   6.707   1.586
 9463SOL    HW229289   5.306   6.745   1.444
 9464SOL     OW29290   6.797   0.207   1.808
 9464SOL    HW129291   6.819   0.129   1.866
 9464SOL    HW229292   6.699   0.206   1.786
 9465SOL     OW29293   0.371   3.971   1.480
 9465SOL    HW129294   0.439   3.957   1.552
 9465SOL    HW229295   0.298   4.030   1.514
 9466SOL     OW29296   4.431   5.663   6.473
 9466SOL    HW129297   4.405   5.716   6.554
 9466SOL    HW229298   4.530   5.651   6.472
 9467SOL     OW29299   1.705   2.579   0.765
 9467SOL    HW129300   1.663   2.580   0.675
 9467SOL    HW229301   1.786   2.520   0.763
 9468SOL     OW29302   6.365   3.448   6.757
 9468SOL    HW129303   6.389   3.442   6.854
 9468SOL    HW229304   6.268   3.425   6.746
 9469SOL     OW29305   6.769   6.429   0.257
 9469SOL    HW129306   6.778   6.527   0.235
 9469SOL    HW229307   6.735   6.419   0.350
 9470SOL     OW29308   4.809   3.811   0.220
 9470SOL    HW129309   4.715   3.837   0.196
 9470SOL    HW229310   4.811   3.777   0.313
 9471SOL     OW29311   5.700   2.300   5.397
 9471SOL    HW129312   5.684   2.315   5.494
 9471SOL    HW229313   5.704   2.202   5.379
 9472SOL     OW29314   1.302   4.272   6.221
 9472SOL    HW129315   1.249   4.356   6.233
 9472SOL    HW229316   1.397   4.288   6.248
 9473SOL     OW29317   3.134   3.567   6.748
 9473SOL    HW129318   3.072   3.495   6.716
 9473SOL    HW229319   3.201   3.587   6.677
 9474SOL     OW29320   6.335   3.288   1.535
 9474SOL    HW129321   6.283   3.370   1.510
 9474SOL    HW229322   6.272   3.216   1.564
 9475SOL     OW29323   4.377   3.494   6.600
 9475SOL    HW129324   4.355   3.426   6.531
 9475SOL    HW229325   4.292   3.531   6.639
 9476SOL     OW29326   3.723   4.107   5.713
 9476SOL    HW129327   3.792   4.129   5.643
 9476SOL    HW229328   3.767   4.058   5.788
 9477SOL     OW29329   1.591   3.540   0.809
 9477SOL    HW129330   1.524   3.612   0.826
 9477SOL    HW229331   1.544   3.458   0.775
 9478SOL     OW29332   4.359   2.835   1.222
 9478SOL    HW129333   4.444   2.793   1.190
 9478SOL    HW229334   4.328   2.903   1.156
 9479SOL     OW29335   3.929   0.551   1.448
 9479SOL    HW129336   4.021   0.529   1.417
 9479SOL    HW229337   3.908   0.646   1.425
 9480SOL     OW29338   5.458   5.740   6.765
 9480SOL    HW129339   5.526   5.810   6.788
 9480SOL    HW229340   5.488   5.652   6.802
 9481SOL     OW29341   5.105   2.272   3.108
 9481SOL    HW129342   5.062   2.261   3.197
 9481SOL    HW229343   5.196   2.231   3.109
 9482SOL     OW29344   6.069   6.988   1.327
 9482SOL    HW129345   6.039   0.046   1.383
 9482SOL    HW229346   5.990   6.943   1.286
 9483SOL     OW29347   1.565   0.556   6.607
 9483SOL    HW129348   1.570   0.465   6.649
 9483SOL    HW229349   1.606   0.623   6.668
 9484SOL     OW29350   2.594   0.228   4.309
 9484SOL    HW129351   2.534   0.150   4.293
 9484SOL    HW229352   2.557   0.308   4.261
 9485SOL     OW29353   5.947   1.848   1.362
 9485SOL    HW129354   6.006   1.823   1.438
 9485SOL    HW229355   5.987   1.816   1.276
 9486SOL     OW29356   5.045   5.723   0.925
 9486SOL    HW129357   5.017   5.744   1.018
 9486SOL    HW229358   5.092   5.634   0.924
 9487SOL     OW29359   3.393   3.247   4.713
 9487SOL    HW129360   3.317   3.312   4.707
 9487SOL    HW229361   3.358   3.158   4.742
 9488SOL     OW29362   1.988   1.326   1.532
 9488SOL    HW129363   1.964   1.329   1.435
 9488SOL    HW229364   2.014   1.418   1.563
 9489SOL     OW29365   5.438   4.259   1.360
 9489SOL    HW129366   5.453   4.356   1.380
 9489SOL    HW229367   5.344   4.245   1.330
 9490SOL     OW29368   6.646   5.751   3.988
 9490SOL    HW129369   6.744   5.767   3.980
 9490SOL    HW229370   6.612   5.793   4.072
 9491SOL     OW29371   5.475   5.525   4.144
 9491SOL    HW129372   5.416   5.562   4.072
 9491SOL    HW229373   5.541   5.462   4.103
 9492SOL     OW29374   4.473   3.450   5.511
 9492SOL    HW129375   4.418   3.386   5.457
 9492SOL    HW229376   4.465   3.427   5.608
 9493SOL     OW29377   3.336   6.200   3.772
 9493SOL    HW129378   3.395   6.137   3.722
 9493SOL    HW229379   3.304   6.272   3.710
 9494SOL     OW29380   6.124   3.157   2.143
 9494SOL    HW129381   6.138   3.227   2.213
 9494SOL    HW229382   6.213   3.119   2.117
 9495SOL     OW29383   7.003   1.260   2.321
 9495SOL    HW129384   7.007   1.344   2.266
 9495SOL    HW229385   0.014   1.182   2.266
 9496SOL     OW29386   4.703   2.123   2.096
 9496SOL    HW129387   4.707   2.218   2.125
 9496SOL    HW229388   4.630   2.111   2.029
 9497SOL     OW29389   5.548   5.895   5.344
 9497SOL    HW129390   5.555   5.946   5.430
 9497SOL    HW229391   5.582   5.802   5.358
 9498SOL     OW29392   0.187   4.848   4.765
 9498SOL    HW129393   0.175   4.833   4.863
 9498SOL    HW229394   0.163   4.765   4.715
 9499SOL     OW29395   0.111   5.468   5.289
 9499SOL    HW129396   0.073   5.395   5.346
 9499SOL    HW229397   0.044   5.541   5.279
 9500SOL     OW29398   3.913   6.235   1.176
 9500SOL    HW129399   3.905   6.334   1.167
 9500SOL    HW229400   4.008   6.211   1.199
 9501SOL     OW29401   1.581   1.560   4.341
 9501SOL    HW129402   1.636   1.605   4.272
 9501SOL    HW229403   1.559   1.624   4.415
 9502SOL     OW29404   6.365   3.881   4.533
 9502SOL    HW129405   6.330   3.975   4.533
 9502SOL    HW229406   6.462   3.882   4.557
 9503SOL     OW29407   0.690   2.375   0.730
 9503SOL    HW129408   0.660   2.452   0.787
 9503SOL    HW229409   0.787   2.356   0.749
 9504SOL     OW29410   6.581   4.037   1.858
 9504SOL    HW129411   6.595   4.005   1.765
 9504SOL    HW229412   6.670   4.045   1.904
 9505SOL     OW29413   4.910   4.686   6.006
 9505SOL    HW129414   4.858   4.755   6.057
 9505SOL    HW229415   4.971   4.731   5.941
 9506SOL     OW29416   2.415   2.581   0.208
 9506SOL    HW129417   2.484   2.591   0.136
 9506SOL    HW229418   2.378   2.487   0.206
 9507SOL     OW29419   6.389   0.507   0.930
 9507SOL    HW129420   6.431   0.598   0.928
 9507SOL    HW229421   6.363   0.484   1.024
 9508SOL     OW29422   5.648   1.710   2.468
 9508SOL    HW129423   5.678   1.802   2.492
 9508SOL    HW229424   5.557   1.714   2.426
 9509SOL     OW29425   6.507   0.244   3.250
 9509SOL    HW129426   6.437   0.274   3.185
 9509SOL    HW229427   6.489   0.149   3.276
 9510SOL     OW29428   0.982   3.957   3.377
 9510SOL    HW129429   1.046   3.903   3.432
 9510SOL    HW229430   0.911   3.995   3.436
 9511SOL     OW29431   0.870   1.074   1.678
 9511SOL    HW129432   0.923   0.998   1.715
 9511SOL    HW229433   0.932   1.147   1.650
 9512SOL     OW29434   7.015   2.577   1.146
 9512SOL    HW129435   6.920   2.599   1.170
 9512SOL    HW229436   0.048   2.561   1.230
 9513SOL     OW29437   3.279   5.068   5.741
 9513SOL    HW129438   3.351   5.117   5.791
 9513SOL    HW229439   3.215   5.134   5.701
 9514SOL     OW29440   2.794   3.681   6.894
 9514SOL    HW129441   2.869   3.628   6.933
 9514SOL    HW229442   2.811   3.695   6.796
 9515SOL     OW29443   2.424   5.104   3.340
 9515SOL    HW129444   2.401   5.149   3.427
 9515SOL    HW229445   2.438   5.174   3.270
 9516SOL     OW29446   5.379   4.586   0.703
 9516SOL    HW129447   5.356   4.549   0.613
 9516SOL    HW229448   5.401   4.511   0.766
 9517SOL     OW29449   0.973   4.344   1.156
 9517SOL    HW129450   0.940   4.259   1.114
 9517SOL    HW229451   0.919   4.421   1.121
 9518SOL     OW29452   2.807   1.427   0.341
 9518SOL    HW129453   2.832   1.401   0.434
 9518SOL    HW229454   2.857   1.510   0.315
 9519SOL     OW29455   1.655   1.956   5.848
 9519SOL    HW129456   1.709   2.023   5.797
 9519SOL    HW229457   1.696   1.942   5.938
 9520SOL     OW29458   2.849   0.243   2.393
 9520SOL    HW129459   2.842   0.149   2.359
 9520SOL    HW229460   2.829   0.307   2.319
 9521SOL     OW29461   5.356   5.998   3.220
 9521SOL    HW129462   5.443   5.958   3.191
 9521SOL    HW229463   5.372   6.065   3.293
 9522SOL     OW29464   3.583   5.998   1.254
 9522SOL    HW129465   3.643   5.922   1.280
 9522SOL    HW229466   3.599   6.022   1.158
 9523SOL     OW29467   3.012   5.735   3.929
 9523SOL    HW129468   3.075   5.811   3.911
 9523SOL    HW229469   3.045   5.652   3.884
 9524SOL     OW29470   4.106   2.489   1.480
 9524SOL    HW129471   4.044   2.562   1.509
 9524SOL    HW229472   4.119   2.495   1.381
 9525SOL     OW29473   1.912   1.228   6.133
 9525SOL    HW129474   1.963   1.252   6.051
 9525SOL    HW229475   1.860   1.307   6.165
 9526SOL     OW29476   5.587   5.871   3.188
 9526SOL    HW129477   5.647   5.916   3.253
 9526SOL    HW229478   5.611   5.774   3.182
 9527SOL     OW29479   1.299   0.980   2.152
 9527SOL    HW129480   1.343   0.948   2.068
 9527SOL    HW229481   1.322   0.919   2.228
 9528SOL     OW29482   6.472   0.259   0.846
 9528SOL    HW129483   6.451   0.353   0.872
 9528SOL    HW229484   6.496   0.206   0.928
 9529SOL     OW29485   0.994   3.027   6.118
 9529SOL    HW129486   0.943   3.104   6.157
 9529SOL    HW229487   1.065   2.998   6.183
 9530SOL     OW29488   1.576   3.035   2.967
 9530SOL    HW129489   1.552   3.132   2.972
 9530SOL    HW229490   1.595   3.010   2.872
 9531SOL     OW29491   3.867   5.935   2.964
 9531SOL    HW129492   3.926   5.965   3.039
 9531SOL    HW229493   3.863   5.835   2.963
 9532SOL     OW29494   1.539   5.877   1.301
 9532SOL    HW129495   1.608   5.946   1.282
 9532SOL    HW229496   1.578   5.807   1.361
 9533SOL     OW29497   0.254   1.503   5.087
 9533SOL    HW129498   0.232   1.567   5.161
 9533SOL    HW229499   0.188   1.514   5.013
 9534SOL     OW29500   5.292   3.027   5.025
 9534SOL    HW129501   5.392   3.033   5.028
 9534SOL    HW229502   5.256   3.030   5.118
 9535SOL     OW29503   2.700   1.099   5.437
 9535SOL    HW129504   2.649   1.020   5.470
 9535SOL    HW229505   2.697   1.101   5.337
 9536SOL     OW29506   2.180   5.915   5.646
 9536SOL    HW129507   2.153   5.951   5.736
 9536SOL    HW229508   2.100   5.916   5.585
 9537SOL     OW29509   3.065   0.393   2.513
 9537SOL    HW129510   2.997   0.332   2.473
 9537SOL    HW229511   3.034   0.487   2.508
 9538SOL     OW29512   6.909   1.375   4.296
 9538SOL    HW129513   6.873   1.407   4.383
 9538SOL    HW229514   6.862   1.421   4.221
 9539SOL     OW29515   2.419   4.660   5.927
 9539SOL    HW129516   2.503   4.626   5.970
 9539SOL    HW229517   2.379   4.587   5.871
 9540SOL     OW29518   4.610   4.702   5.490
 9540SOL    HW129519   4.610   4.800   5.468
 9540SOL    HW229520   4.522   4.676   5.528
 9541SOL     OW29521   1.629   2.076   5.163
 9541SOL    HW129522   1.644   2.167   5.123
 9541SOL    HW229523   1.687   2.009   5.116
 9542SOL     OW29524   4.919   3.334   5.086
 9542SOL    HW129525   4.956   3.411   5.138
 9542SOL    HW229526   4.874   3.369   5.003
 9543SOL     OW29527   4.688   0.680   4.423
 9543SOL    HW129528   4.593   0.661   4.447
 9543SOL    HW229529   4.747   0.663   4.502
 9544SOL     OW29530   5.784   7.009   2.107
 9544SOL    HW129531   5.718   6.935   2.092
 9544SOL    HW229532   5.876   6.972   2.111
 9545SOL     OW29533   6.675   6.259   3.337
 9545SOL    HW129534   6.631   6.179   3.377
 9545SOL    HW229535   6.606   6.325   3.309
 9546SOL     OW29536   2.974   3.888   6.532
 9546SOL    HW129537   2.923   3.904   6.448
 9546SOL    HW229538   3.072   3.884   6.511
 9547SOL     OW29539   2.008   6.213   4.153
 9547SOL    HW129540   1.990   6.248   4.062
 9547SOL    HW229541   2.093   6.252   4.189
 9548SOL     OW29542   6.340   5.026   4.849
 9548SOL    HW129543   6.407   5.092   4.816
 9548SOL    HW229544   6.374   4.984   4.934
 9549SOL     OW29545   3.720   5.598   0.980
 9549SOL    HW129546   3.692   5.580   1.074
 9549SOL    HW229547   3.652   5.656   0.935
 9550SOL     OW29548   0.265   1.320   0.158
 9550SOL    HW129549   0.171   1.345   0.135
 9550SOL    HW229550   0.322   1.403   0.158
 9551SOL     OW29551   0.125   0.039   5.022
 9551SOL    HW129552   0.179   0.061   5.103
 9551SOL    HW229553   0.065   0.116   5.000
 9552SOL     OW29554   1.024   6.869   3.272
 9552SOL    HW129555   1.121   6.885   3.294
 9552SOL    HW229556   0.968   6.901   3.347
 9553SOL     OW29557   6.224   4.613   6.878
 9553SOL    HW129558   6.168   4.682   6.923
 9553SOL    HW229559   6.187   4.595   6.787
 9554SOL     OW29560   2.799   0.594   1.963
 9554SOL    HW129561   2.798   0.574   1.865
 9554SOL    HW229562   2.886   0.565   2.003
 9555SOL     OW29563   6.326   2.234   1.492
 9555SOL    HW129564   6.361   2.158   1.547
 9555SOL    HW229565   6.370   2.319   1.520
 9556SOL     OW29566   2.623   1.496   1.410
 9556SOL    HW129567   2.601   1.500   1.313
 9556SOL    HW229568   2.595   1.407   1.447
 9557SOL     OW29569   6.588   0.370   2.807
 9557SOL    HW129570   6.589   0.446   2.872
 9557SOL    HW229571   6.665   0.379   2.744
 9558SOL     OW29572   0.145   4.970   3.183
 9558SOL    HW129573   0.087   5.026   3.241
 9558SOL    HW229574   0.233   4.954   3.229
 9559SOL     OW29575   0.699   3.817   1.870
 9559SOL    HW129576   0.748   3.899   1.900
 9559SOL    HW229577   0.653   3.775   1.948
 9560SOL     OW29578   2.364   1.458   2.904
 9560SOL    HW129579   2.455   1.421   2.884
 9560SOL    HW229580   2.362   1.490   2.999
 9561SOL     OW29581   3.437   6.428   0.919
 9561SOL    HW129582   3.338   6.443   0.910
 9561SOL    HW229583   3.464   6.439   1.014
 9562SOL     OW29584   4.188   5.732   3.609
 9562SOL    HW129585   4.199   5.802   3.679
 9562SOL    HW229586   4.257   5.660   3.623
 9563SOL     OW29587   7.000   6.634   6.505
 9563SOL    HW129588   6.924   6.678   6.554
 9563SOL    HW229589   0.064   6.639   6.560
 9564SOL     OW29590   2.658   6.602   6.439
 9564SOL    HW129591   2.634   6.680   6.381
 9564SOL    HW229592   2.651   6.518   6.386
 9565SOL     OW29593   3.591   5.850   4.505
 9565SOL    HW129594   3.574   5.808   4.415
 9565SOL    HW229595   3.608   5.779   4.572
 9566SOL     OW29596   3.390   4.642   6.472
 9566SOL    HW129597   3.376   4.641   6.373
 9566SOL    HW229598   3.414   4.551   6.504
 9567SOL     OW29599   5.863   6.070   6.364
 9567SOL    HW129600   5.828   5.986   6.323
 9567SOL    HW229601   5.943   6.101   6.313
 9568SOL     OW29602   5.185   3.914   6.548
 9568SOL    HW129603   5.239   3.961   6.478
 9568SOL    HW229604   5.096   3.958   6.556
 9569SOL     OW29605   6.467   1.456   0.506
 9569SOL    HW129606   6.499   1.535   0.558
 9569SOL    HW229607   6.394   1.410   0.556
 9570SOL     OW29608   6.930   1.495   0.853
 9570SOL    HW129609   6.973   1.542   0.930
 9570SOL    HW229610   6.983   1.413   0.830
 9571SOL     OW29611   2.362   3.974   0.411
 9571SOL    HW129612   2.449   3.930   0.430
 9571SOL    HW229613   2.372   4.073   0.418
 9572SOL     OW29614   0.970   4.708   0.921
 9572SOL    HW129615   1.019   4.781   0.875
 9572SOL    HW229616   0.979   4.623   0.869
 9573SOL     OW29617   0.908   1.164   6.730
 9573SOL    HW129618   0.926   1.084   6.672
 9573SOL    HW229619   0.950   1.150   6.820
 9574SOL     OW29620   3.678   3.725   5.747
 9574SOL    HW129621   3.606   3.714   5.679
 9574SOL    HW229622   3.747   3.788   5.713
 9575SOL     OW29623   5.616   0.510   1.902
 9575SOL    HW129624   5.627   0.475   1.995
 9575SOL    HW229625   5.618   0.610   1.904
 9576SOL     OW29626   3.151   1.249   4.118
 9576SOL    HW129627   3.178   1.279   4.210
 9576SOL    HW229628   3.095   1.166   4.126
 9577SOL     OW29629   7.017   6.856   2.481
 9577SOL    HW129630   0.071   6.826   2.420
 9577SOL    HW229631   0.036   6.918   2.550
 9578SOL     OW29632   6.030   2.674   2.339
 9578SOL    HW129633   6.107   2.736   2.324
 9578SOL    HW229634   5.946   2.717   2.309
 9579SOL     OW29635   1.631   0.050   1.393
 9579SOL    HW129636   1.592   0.038   1.302
 9579SOL    HW229637   1.718   0.001   1.399
 9580SOL     OW29638   4.833   3.704   0.480
 9580SOL    HW129639   4.932   3.695   0.492
 9580SOL    HW229640   4.789   3.618   0.506
 9581SOL     OW29641   1.266   5.179   5.957
 9581SOL    HW129642   1.206   5.140   5.886
 9581SOL    HW229643   1.221   5.173   6.046
 9582SOL     OW29644   3.970   5.129   4.207
 9582SOL    HW129645   3.893   5.162   4.262
 9582SOL    HW229646   3.986   5.033   4.227
 9583SOL     OW29647   2.089   3.786   1.996
 9583SOL    HW129648   2.053   3.840   1.920
 9583SOL    HW229649   2.142   3.709   1.961
 9584SOL     OW29650   6.202   5.053   6.611
 9584SOL    HW129651   6.122   4.996   6.625
 9584SOL    HW229652   6.235   5.042   6.517
 9585SOL     OW29653   5.874   6.878   2.828
 9585SOL    HW129654   5.858   6.851   2.923
 9585SOL    HW229655   5.945   6.949   2.826
 9586SOL     OW29656   5.414   2.901   3.220
 9586SOL    HW129657   5.359   2.877   3.299
 9586SOL    HW229658   5.397   2.996   3.194
 9587SOL     OW29659   5.951   0.077   1.835
 9587SOL    HW129660   5.989   7.017   1.884
 9587SOL    HW229661   5.899   0.134   1.898
 9588SOL     OW29662   0.085   0.730   1.440
 9588SOL    HW129663   0.101   0.707   1.344
 9588SOL    HW229664   7.006   0.748   1.454
 9589SOL     OW29665   2.117   6.556   5.480
 9589SOL    HW129666   2.115   6.648   5.520
 9589SOL    HW229667   2.186   6.501   5.526
 9590SOL     OW29668   0.451   4.207   2.917
 9590SOL    HW129669   0.411   4.299   2.912
 9590SOL    HW229670   0.396   4.144   2.862
 9591SOL     OW29671   2.590   6.322   1.096
 9591SOL    HW129672   2.628   6.234   1.123
 9591SOL    HW229673   2.555   6.370   1.176
 9592SOL     OW29674   4.496   5.320   2.777
 9592SOL    HW129675   4.506   5.286   2.870
 9592SOL    HW229676   4.408   5.291   2.739
 9593SOL     OW29677   6.514   2.701   4.547
 9593SOL    HW129678   6.549   2.609   4.532
 9593SOL    HW229679   6.590   2.766   4.550
 9594SOL     OW29680   6.899   6.492   2.394
 9594SOL    HW129681   6.803   6.475   2.371
 9594SOL    HW229682   6.927   6.430   2.467
 9595SOL     OW29683   1.644   5.599   4.127
 9595SOL    HW129684   1.657   5.501   4.114
 9595SOL    HW229685   1.725   5.638   4.169
 9596SOL     OW29686   6.333   5.915   5.416
 9596SOL    HW129687   6.412   5.971   5.443
 9596SOL    HW229688   6.299   5.865   5.496
 9597SOL     OW29689   0.834   4.339   1.887
 9597SOL    HW129690   0.901   4.406   1.856
 9597SOL    HW229691   0.871   4.286   1.963
 9598SOL     OW29692   0.066   4.443   6.376
 9598SOL    HW129693   0.134   4.485   6.316
 9598SOL    HW229694   7.017   4.512   6.403
 9599SOL     OW29695   3.883   0.361   5.485
 9599SOL    HW129696   3.955   0.417   5.442
 9599SOL    HW229697   3.849   0.294   5.420
 9600SOL     OW29698   1.050   0.313   5.513
 9600SOL    HW129699   1.092   0.370   5.583
 9600SOL    HW229700   1.120   0.282   5.448
 9601SOL     OW29701   0.602   4.561   5.937
 9601SOL    HW129702   0.644   4.473   5.956
 9601SOL    HW229703   0.589   4.572   5.839
 9602SOL     OW29704   0.451   4.643   6.498
 9602SOL    HW129705   0.370   4.688   6.460
 9602SOL    HW229706   0.491   4.701   6.569
 9603SOL     OW29707   1.838   5.736   4.264
 9603SOL    HW129708   1.908   5.751   4.334
 9603SOL    HW229709   1.803   5.825   4.233
 9604SOL     OW29710   4.614   1.306   6.712
 9604SOL    HW129711   4.632   1.278   6.806
 9604SOL    HW229712   4.701   1.318   6.663
 9605SOL     OW29713   2.141   5.738   6.068
 9605SOL    HW129714   2.238   5.757   6.053
 9605SOL    HW229715   2.089   5.756   5.985
 9606SOL     OW29716   0.139   6.010   3.508
 9606SOL    HW129717   0.111   5.933   3.564
 9606SOL    HW229718   0.058   6.063   3.482
 9607SOL     OW29719   0.886   1.622   2.577
 9607SOL    HW129720   0.951   1.579   2.514
 9607SOL    HW229721   0.935   1.651   2.659
 9608SOL     OW29722   0.138   0.393   2.733
 9608SOL    HW129723   0.136   0.475   2.676
 9608SOL    HW229724   0.073   0.325   2.697
 9609SOL     OW29725   2.261   4.302   4.884
 9609SOL    HW129726   2.266   4.203   4.893
 9609SOL    HW229727   2.184   4.337   4.938
 9610SOL     OW29728   2.210   1.890   6.162
 9610SOL    HW129729   2.149   1.950   6.213
 9610SOL    HW229730   2.200   1.796   6.196
 9611SOL     OW29731   6.330   0.622   1.198
 9611SOL    HW129732   6.290   0.707   1.231
 9611SOL    HW229733   6.301   0.547   1.257
 9612SOL     OW29734   6.079   3.098   1.077
 9612SOL    HW129735   6.154   3.127   1.137
 9612SOL    HW229736   5.999   3.074   1.134
 9613SOL     OW29737   6.315   6.460   5.079
 9613SOL    HW129738   6.367   6.396   5.136
 9613SOL    HW229739   6.292   6.541   5.133
 9614SOL     OW29740   3.578   3.829   2.162
 9614SOL    HW129741   3.528   3.769   2.224
 9614SOL    HW229742   3.665   3.787   2.138
 9615SOL     OW29743   1.229   6.107   2.494
 9615SOL    HW129744   1.152   6.171   2.500
 9615SOL    HW229745   1.304   6.150   2.443
 9616SOL     OW29746   3.514   2.197   0.867
 9616SOL    HW129747   3.568   2.117   0.842
 9616SOL    HW229748   3.573   2.278   0.868
 9617SOL     OW29749   1.481   3.177   3.864
 9617SOL    HW129750   1.463   3.240   3.940
 9617SOL    HW229751   1.420   3.198   3.788
 9618SOL     OW29752   3.773   6.283   6.239
 9618SOL    HW129753   3.707   6.211   6.264
 9618SOL    HW229754   3.851   6.278   6.301
 9619SOL     OW29755   2.253   6.026   0.277
 9619SOL    HW129756   2.283   5.936   0.245
 9619SOL    HW229757   2.156   6.023   0.299
 9620SOL     OW29758   3.273   0.912   6.876
 9620SOL    HW129759   3.316   0.823   6.892
 9620SOL    HW229760   3.269   0.963   6.962
 9621SOL     OW29761   0.263   1.026   2.421
 9621SOL    HW129762   0.350   1.013   2.373
 9621SOL    HW229763   0.266   1.111   2.474
 9622SOL     OW29764   5.490   0.589   6.751
 9622SOL    HW129765   5.551   0.630   6.820
 9622SOL    HW229766   5.541   0.522   6.697
 9623SOL     OW29767   4.903   5.929   6.046
 9623SOL    HW129768   4.896   6.016   6.095
 9623SOL    HW229769   4.819   5.877   6.058
 9624SOL     OW29770   4.497   5.798   4.997
 9624SOL    HW129771   4.520   5.884   4.951
 9624SOL    HW229772   4.424   5.814   5.064
 9625SOL     OW29773   5.243   4.334   6.577
 9625SOL    HW129774   5.210   4.316   6.670
 9625SOL    HW229775   5.167   4.327   6.513
 9626SOL     OW29776   2.065   4.486   5.959
 9626SOL    HW129777   2.138   4.479   5.891
 9626SOL    HW229778   1.981   4.516   5.914
 9627SOL     OW29779   1.349   5.186   6.526
 9627SOL    HW129780   1.398   5.108   6.486
 9627SOL    HW229781   1.303   5.157   6.610
 9628SOL     OW29782   5.670   4.033   6.673
 9628SOL    HW129783   5.647   4.031   6.770
 9628SOL    HW229784   5.612   4.100   6.626
 9629SOL     OW29785   0.229   5.898   2.540
 9629SOL    HW129786   0.197   5.880   2.633
 9629SOL    HW229787   0.210   5.994   2.517
 9630SOL     OW29788   6.451   6.508   5.787
 9630SOL    HW129789   6.394   6.427   5.798
 9630SOL    HW229790   6.512   6.495   5.708
 9631SOL     OW29791   4.194   1.074   0.917
 9631SOL    HW129792   4.293   1.057   0.913
 9631SOL    HW229793   4.172   1.120   1.002
 9632SOL     OW29794   3.400   5.662   1.060
 9632SOL    HW129795   3.422   5.671   0.963
 9632SOL    HW229796   3.342   5.582   1.074
 9633SOL     OW29797   3.897   3.041   2.287
 9633SOL    HW129798   3.926   2.955   2.244
 9633SOL    HW229799   3.928   3.118   2.232
 9634SOL     OW29800   5.358   4.799   2.956
 9634SOL    HW129801   5.392   4.721   2.903
 9634SOL    HW229802   5.431   4.836   3.013
 9635SOL     OW29803   1.165   3.993   4.266
 9635SOL    HW129804   1.185   4.048   4.346
 9635SOL    HW229805   1.193   3.898   4.282
 9636SOL     OW29806   4.571   2.135   5.252
 9636SOL    HW129807   4.539   2.148   5.346
 9636SOL    HW229808   4.655   2.188   5.238
 9637SOL     OW29809   2.042   2.807   0.899
 9637SOL    HW129810   2.023   2.722   0.948
 9637SOL    HW229811   1.956   2.845   0.865
 9638SOL     OW29812   0.460   4.016   6.424
 9638SOL    HW129813   0.524   4.004   6.348
 9638SOL    HW229814   0.384   3.952   6.414
 9639SOL     OW29815   4.574   2.145   1.655
 9639SOL    HW129816   4.651   2.208   1.654
 9639SOL    HW229817   4.593   2.069   1.593
 9640SOL     OW29818   4.178   0.981   2.425
 9640SOL    HW129819   4.184   1.067   2.476
 9640SOL    HW229820   4.219   0.992   2.335
 9641SOL     OW29821   5.490   4.842   2.622
 9641SOL    HW129822   5.449   4.758   2.659
 9641SOL    HW229823   5.429   4.882   2.554
 9642SOL     OW29824   1.445   0.170   3.679
 9642SOL    HW129825   1.482   0.096   3.734
 9642SOL    HW229826   1.422   0.248   3.737
 9643SOL     OW29827   5.179   3.728   4.146
 9643SOL    HW129828   5.083   3.715   4.123
 9643SOL    HW229829   5.233   3.657   4.102
 9644SOL     OW29830   1.229   6.242   5.184
 9644SOL    HW129831   1.269   6.151   5.194
 9644SOL    HW229832   1.216   6.262   5.087
 9645SOL     OW29833   1.432   5.442   6.377
 9645SOL    HW129834   1.372   5.361   6.376
 9645SOL    HW229835   1.502   5.430   6.447
 9646SOL     OW29836   2.851   6.604   4.995
 9646SOL    HW129837   2.942   6.565   5.006
 9646SOL    HW229838   2.855   6.684   4.936
 9647SOL     OW29839   6.333   6.233   3.562
 9647SOL    HW129840   6.358   6.278   3.647
 9647SOL    HW229841   6.249   6.181   3.575
 9648SOL     OW29842   5.170   2.222   1.536
 9648SOL    HW129843   5.111   2.277   1.476
 9648SOL    HW229844   5.265   2.232   1.507
 9649SOL     OW29845   2.142   3.350   0.597
 9649SOL    HW129846   2.207   3.326   0.525
 9649SOL    HW229847   2.142   3.449   0.611
 9650SOL     OW29848   6.320   4.563   4.120
 9650SOL    HW129849   6.309   4.634   4.189
 9650SOL    HW229850   6.372   4.487   4.159
 9651SOL     OW29851   2.721   1.410   6.917
 9651SOL    HW129852   2.696   1.449   7.005
 9651SOL    HW229853   2.638   1.392   6.864
 9652SOL     OW29854   0.373   4.096   0.943
 9652SOL    HW129855   0.376   4.097   0.843
 9652SOL    HW229856   0.450   4.043   0.979
 9653SOL     OW29857   4.549   4.068   6.149
 9653SOL    HW129858   4.531   3.991   6.088
 9653SOL    HW229859   4.595   4.141   6.098
 9654SOL     OW29860   4.068   3.346   3.722
 9654SOL    HW129861   4.109   3.319   3.635
 9654SOL    HW229862   4.057   3.446   3.724
 9655SOL     OW29863   5.906   0.731   1.909
 9655SOL    HW129864   5.956   0.708   1.992
 9655SOL    HW229865   5.808   0.733   1.928
 9656SOL     OW29866   5.844   3.715   0.857
 9656SOL    HW129867   5.849   3.618   0.833
 9656SOL    HW229868   5.890   3.730   0.944
 9657SOL     OW29869   5.560   3.738   3.173
 9657SOL    HW129870   5.504   3.786   3.105
 9657SOL    HW229871   5.524   3.754   3.264
 9658SOL     OW29872   4.417   1.634   2.716
 9658SOL    HW129873   4.407   1.710   2.781
 9658SOL    HW229874   4.504   1.643   2.668
 9659SOL     OW29875   3.764   2.645   0.832
 9659SOL    HW129876   3.738   2.581   0.905
 9659SOL    HW229877   3.684   2.664   0.775
 9660SOL     OW29878   0.496   6.034   0.568
 9660SOL    HW129879   0.554   6.034   0.486
 9660SOL    HW229880   0.482   5.940   0.599
 9661SOL     OW29881   5.160   4.990   1.581
 9661SOL    HW129882   5.096   4.957   1.511
 9661SOL    HW229883   5.229   5.048   1.538
 9662SOL     OW29884   5.616   4.764   0.031
 9662SOL    HW129885   5.642   4.772   6.953
 9662SOL    HW229886   5.625   4.853   0.076
 9663SOL     OW29887   0.916   4.437   3.654
 9663SOL    HW129888   0.870   4.482   3.578
 9663SOL    HW229889   0.950   4.506   3.718
 9664SOL     OW29890   5.264   3.589   3.454
 9664SOL    HW129891   5.237   3.684   3.436
 9664SOL    HW229892   5.284   3.543   3.368
 9665SOL     OW29893   6.652   7.006   6.235
 9665SOL    HW129894   6.738   0.037   6.222
 9665SOL    HW229895   6.589   0.008   6.159
 9666SOL     OW29896   6.373   4.547   1.316
 9666SOL    HW129897   6.341   4.488   1.241
 9666SOL    HW229898   6.468   4.524   1.337
 9667SOL     OW29899   4.211   5.495   0.490
 9667SOL    HW129900   4.279   5.563   0.516
 9667SOL    HW229901   4.245   5.404   0.513
 9668SOL     OW29902   1.196   6.628   5.548
 9668SOL    HW129903   1.290   6.662   5.542
 9668SOL    HW229904   1.167   6.595   5.459
 9669SOL     OW29905   2.632   0.138   1.073
 9669SOL    HW129906   2.595   0.201   1.141
 9669SOL    HW229907   2.683   0.065   1.118
 9670SOL     OW29908   0.592   0.517   5.993
 9670SOL    HW129909   0.647   0.479   6.067
 9670SOL    HW229910   0.582   0.448   5.920
 9671SOL     OW29911   1.022   4.894   6.748
 9671SOL    HW129912   0.971   4.907   6.833
 9671SOL    HW229913   0.966   4.842   6.684
 9672SOL     OW29914   0.371   4.190   3.568
 9672SOL    HW129915   0.400   4.173   3.662
 9672SOL    HW229916   0.333   4.106   3.529
 9673SOL     OW29917   3.422   4.297   1.664
 9673SOL    HW129918   3.499   4.283   1.602
 9673SOL    HW229919   3.344   4.242   1.634
 9674SOL     OW29920   3.564   6.713   2.783
 9674SOL    HW129921   3.604   6.773   2.852
 9674SOL    HW229922   3.502   6.765   2.724
 9675SOL     OW29923   4.864   3.836   0.853
 9675SOL    HW129924   4.773   3.869   0.876
 9675SOL    HW229925   4.933   3.893   0.899
 9676SOL     OW29926   1.345   2.673   6.228
 9676SOL    HW129927   1.415   2.603   6.234
 9676SOL    HW229928   1.285   2.668   6.308
 9677SOL     OW29929   5.995   5.311   0.185
 9677SOL    HW129930   6.063   5.383   0.168
 9677SOL    HW229931   5.909   5.352   0.216
 9678SOL     OW29932   3.267   3.561   4.403
 9678SOL    HW129933   3.201   3.491   4.376
 9678SOL    HW229934   3.235   3.651   4.372
 9679SOL     OW29935   3.048   1.920   4.342
 9679SOL    HW129936   3.094   1.843   4.299
 9679SOL    HW229937   2.982   1.887   4.409
 9680SOL     OW29938   4.837   6.661   4.506
 9680SOL    HW129939   4.769   6.619   4.446
 9680SOL    HW229940   4.903   6.713   4.451
 9681SOL     OW29941   2.247   1.261   1.053
 9681SOL    HW129942   2.325   1.202   1.035
 9681SOL    HW229943   2.170   1.207   1.086
 9682SOL     OW29944   5.281   5.246   4.383
 9682SOL    HW129945   5.307   5.342   4.387
 9682SOL    HW229946   5.364   5.190   4.372
 9683SOL     OW29947   1.725   6.641   0.966
 9683SOL    HW129948   1.646   6.588   0.998
 9683SOL    HW229949   1.806   6.583   0.968
 9684SOL     OW29950   1.370   4.168   5.394
 9684SOL    HW129951   1.308   4.195   5.321
 9684SOL    HW229952   1.426   4.090   5.364
 9685SOL     OW29953   4.488   3.504   0.905
 9685SOL    HW129954   4.571   3.540   0.862
 9685SOL    HW229955   4.460   3.419   0.861
 9686SOL     OW29956   6.900   2.308   6.754
 9686SOL    HW129957   6.960   2.373   6.801
 9686SOL    HW229958   6.952   2.263   6.681
 9687SOL     OW29959   6.383   6.561   1.183
 9687SOL    HW129960   6.306   6.612   1.142
 9687SOL    HW229961   6.469   6.606   1.159
 9688SOL     OW29962   1.407   4.716   0.951
 9688SOL    HW129963   1.449   4.628   0.971
 9688SOL    HW229964   1.421   4.739   0.855
 9689SOL     OW29965   0.990   5.599   6.256
 9689SOL    HW129966   0.967   5.660   6.180
 9689SOL    HW229967   0.962   5.641   6.342
 9690SOL     OW29968   4.680   5.465   4.733
 9690SOL    HW129969   4.659   5.397   4.663
 9690SOL    HW229970   4.607   5.466   4.802
 9691SOL     OW29971   3.568   4.151   2.258
 9691SOL    HW129972   3.631   4.163   2.334
 9691SOL    HW229973   3.478   4.123   2.293
 9692SOL     OW29974   4.435   5.234   0.044
 9692SOL    HW129975   4.363   5.165   0.050
 9692SOL    HW229976   4.439   5.286   0.130
 9693SOL     OW29977   5.914   3.937   4.176
 9693SOL    HW129978   5.847   3.978   4.238
 9693SOL    HW229979   6.002   3.932   4.222
 9694SOL     OW29980   2.621   0.039   1.964
 9694SOL    HW129981   2.632   0.139   1.959
 9694SOL    HW229982   2.545   0.011   1.905
 9695SOL     OW29983   7.009   3.884   3.243
 9695SOL    HW129984   0.025   3.974   3.269
 9695SOL    HW229985   0.022   3.816   3.308
 9696SOL     OW29986   6.056   1.435   3.214
 9696SOL    HW129987   5.983   1.474   3.158
 9696SOL    HW229988   6.116   1.381   3.155
 9697SOL     OW29989   6.899   5.981   0.052
 9697SOL    HW129990   6.933   6.074   0.057
 9697SOL    HW229991   6.967   5.921   0.011
 9698SOL     OW29992   5.912   3.525   6.543
 9698SOL    HW129993   5.850   3.523   6.622
 9698SOL    HW229994   5.916   3.435   6.501
 9699SOL     OW29995   0.939   5.430   0.103
 9699SOL    HW129996   0.989   5.395   0.183
 9699SOL    HW229997   0.998   5.426   0.023
 9700SOL     OW29998   6.248   6.571   3.901
 9700SOL    HW129999   6.304   6.556   3.984
 9700SOL    HW230000   6.169   6.627   3.924
 9701SOL     OW30001   4.948   3.132   6.561
 9701SOL    HW130002   5.043   3.132   6.531
 9701SOL    HW230003   4.896   3.197   6.505
 9702SOL     OW30004   3.533   2.704   0.390
 9702SOL    HW130005   3.613   2.761   0.370
 9702SOL    HW230006   3.528   2.629   0.325
 9703SOL     OW30007   6.396   3.649   4.356
 9703SOL    HW130008   6.405   3.733   4.410
 9703SOL    HW230009   6.430   3.572   4.409
 9704SOL     OW30010   3.143   4.876   2.775
 9704SOL    HW130011   3.046   4.891   2.755
 9704SOL    HW230012   3.173   4.942   2.844
 9705SOL     OW30013   6.228   4.171   5.402
 9705SOL    HW130014   6.311   4.200   5.355
 9705SOL    HW230015   6.176   4.252   5.430
 9706SOL     OW30016   1.481   1.849   1.811
 9706SOL    HW130017   1.508   1.759   1.845
 9706SOL    HW230018   1.540   1.919   1.852
 9707SOL     OW30019   5.630   4.797   1.965
 9707SOL    HW130020   5.542   4.839   1.940
 9707SOL    HW230021   5.650   4.816   2.061
 9708SOL     OW30022   1.756   1.315   2.219
 9708SOL    HW130023   1.856   1.310   2.224
 9708SOL    HW230024   1.727   1.410   2.211
 9709SOL     OW30025   5.574   3.308   2.218
 9709SOL    HW130026   5.507   3.268   2.281
 9709SOL    HW230027   5.566   3.408   2.221
 9710SOL     OW30028   6.392   0.000   6.684
 9710SOL    HW130029   6.438   7.013   6.595
 9710SOL    HW230030   6.449   0.053   6.747
 9711SOL     OW30031   3.916   6.289   5.961
 9711SOL    HW130032   3.869   6.284   6.049
 9711SOL    HW230033   4.015   6.295   5.976
 9712SOL     OW30034   6.290   2.837   0.961
 9712SOL    HW130035   6.195   2.860   0.984
 9712SOL    HW230036   6.329   2.910   0.905
 9713SOL     OW30037   2.300   6.314   3.281
 9713SOL    HW130038   2.236   6.369   3.228
 9713SOL    HW230039   2.270   6.219   3.283
 9714SOL     OW30040   3.874   5.451   4.657
 9714SOL    HW130041   3.847   5.355   4.653
 9714SOL    HW230042   3.900   5.474   4.751
 9715SOL     OW30043   6.456   4.817   1.234
 9715SOL    HW130044   6.427   4.827   1.139
 9715SOL    HW230045   6.412   4.736   1.274
 9716SOL     OW30046   3.630   4.195   6.939
 9716SOL    HW130047   3.691   4.115   6.936
 9716SOL    HW230048   3.603   4.213   0.014
 9717SOL     OW30049   4.579   6.597   6.186
 9717SOL    HW130050   4.580   6.674   6.122
 9717SOL    HW230051   4.664   6.597   6.239
 9718SOL     OW30052   4.019   1.826   0.488
 9718SOL    HW130053   3.951   1.810   0.416
 9718SOL    HW230054   4.109   1.836   0.446
 9719SOL     OW30055   5.267   6.595   5.410
 9719SOL    HW130056   5.179   6.553   5.388
 9719SOL    HW230057   5.284   6.671   5.348
 9720SOL     OW30058   1.582   3.823   2.853
 9720SOL    HW130059   1.665   3.876   2.837
 9720SOL    HW230060   1.560   3.770   2.772
 9721SOL     OW30061   0.297   1.769   0.764
 9721SOL    HW130062   0.294   1.794   0.861
 9721SOL    HW230063   0.208   1.788   0.722
 9722SOL     OW30064   3.711   2.279   5.328
 9722SOL    HW130065   3.656   2.232   5.396
 9722SOL    HW230066   3.698   2.378   5.337
 9723SOL     OW30067   5.974   4.741   4.904
 9723SOL    HW130068   6.049   4.780   4.851
 9723SOL    HW230069   5.898   4.806   4.910
 9724SOL     OW30070   2.196   5.250   6.436
 9724SOL    HW130071   2.112   5.196   6.444
 9724SOL    HW230072   2.177   5.344   6.463
 9725SOL     OW30073   3.796   5.790   4.871
 9725SOL    HW130074   3.768   5.733   4.793
 9725SOL    HW230075   3.887   5.763   4.901
 9726SOL     OW30076   5.050   0.830   4.111
 9726SOL    HW130077   4.990   0.826   4.031
 9726SOL    HW230078   5.116   0.755   4.107
 9727SOL     OW30079   0.778   2.463   0.059
 9727SOL    HW130080   0.751   2.558   0.041
 9727SOL    HW230081   0.870   2.447   0.023
 9728SOL     OW30082   6.344   1.481   6.176
 9728SOL    HW130083   6.423   1.430   6.144
 9728SOL    HW230084   6.260   1.436   6.146
 9729SOL     OW30085   1.641   3.705   3.937
 9729SOL    HW130086   1.702   3.783   3.952
 9729SOL    HW230087   1.695   3.620   3.939
 9730SOL     OW30088   0.704   4.180   4.286
 9730SOL    HW130089   0.626   4.117   4.284
 9730SOL    HW230090   0.772   4.151   4.220
 9731SOL     OW30091   4.992   4.583   2.372
 9731SOL    HW130092   4.920   4.525   2.335
 9731SOL    HW230093   5.065   4.593   2.305
 9732SOL     OW30094   0.725   3.297   1.964
 9732SOL    HW130095   0.800   3.253   2.013
 9732SOL    HW230096   0.666   3.345   2.028
 9733SOL     OW30097   6.211   5.580   2.054
 9733SOL    HW130098   6.180   5.665   2.009
 9733SOL    HW230099   6.288   5.601   2.114
 9734SOL     OW30100   6.418   6.741   6.978
 9734SOL    HW130101   6.512   6.734   6.946
 9734SOL    HW230102   6.355   6.720   6.903
 9735SOL     OW30103   1.507   2.346   3.481
 9735SOL    HW130104   1.435   2.376   3.544
 9735SOL    HW230105   1.595   2.384   3.510
 9736SOL     OW30106   4.815   1.873   6.125
 9736SOL    HW130107   4.887   1.860   6.193
 9736SOL    HW230108   4.832   1.957   6.074
 9737SOL     OW30109   5.783   2.419   2.814
 9737SOL    HW130110   5.837   2.359   2.754
 9737SOL    HW230111   5.810   2.402   2.909
 9738SOL     OW30112   2.075   6.875   0.626
 9738SOL    HW130113   1.998   6.933   0.603
 9738SOL    HW230114   2.077   6.796   0.565
 9739SOL     OW30115   4.576   5.930   6.747
 9739SOL    HW130116   4.515   5.857   6.777
 9739SOL    HW230117   4.565   5.945   6.649
 9740SOL     OW30118   5.643   0.404   2.137
 9740SOL    HW130119   5.569   0.341   2.162
 9740SOL    HW230120   5.682   0.444   2.220
 9741SOL     OW30121   2.748   0.921   3.815
 9741SOL    HW130122   2.824   0.939   3.878
 9741SOL    HW230123   2.743   0.823   3.795
 9742SOL     OW30124   4.314   1.163   6.800
 9742SOL    HW130125   4.354   1.198   6.884
 9742SOL    HW230126   4.373   1.183   6.722
 9743SOL     OW30127   0.509   3.522   3.422
 9743SOL    HW130128   0.595   3.530   3.372
 9743SOL    HW230129   0.445   3.591   3.389
 9744SOL     OW30130   2.315   6.672   2.594
 9744SOL    HW130131   2.311   6.622   2.680
 9744SOL    HW230132   2.245   6.744   2.594
 9745SOL     OW30133   5.276   2.150   6.179
 9745SOL    HW130134   5.275   2.086   6.102
 9745SOL    HW230135   5.362   2.141   6.229
 9746SOL     OW30136   5.048   6.619   6.777
 9746SOL    HW130137   5.056   6.686   6.703
 9746SOL    HW230138   5.014   6.533   6.740
 9747SOL     OW30139   2.608   1.984   1.302
 9747SOL    HW130140   2.604   2.025   1.393
 9747SOL    HW230141   2.544   2.033   1.242
 9748SOL     OW30142   0.084   0.601   2.960
 9748SOL    HW130143   0.109   0.697   2.973
 9748SOL    HW230144   0.142   0.561   2.889
 9749SOL     OW30145   0.373   2.416   2.221
 9749SOL    HW130146   0.322   2.421   2.307
 9749SOL    HW230147   0.333   2.346   2.162
 9750SOL     OW30148   6.023   4.531   4.018
 9750SOL    HW130149   6.099   4.595   4.035
 9750SOL    HW230150   5.971   4.562   3.938
 9751SOL     OW30151   2.667   0.481   1.305
 9751SOL    HW130152   2.633   0.548   1.239
 9751SOL    HW230153   2.766   0.474   1.296
 9752SOL     OW30154   4.063   2.439   6.844
 9752SOL    HW130155   4.122   2.433   6.764
 9752SOL    HW230156   3.989   2.503   6.826
 9753SOL     OW30157   1.012   5.355   5.905
 9753SOL    HW130158   0.970   5.265   5.897
 9753SOL    HW230159   1.062   5.361   5.992
 9754SOL     OW30160   3.751   0.122   0.616
 9754SOL    HW130161   3.820   0.060   0.579
 9754SOL    HW230162   3.776   0.148   0.710
 9755SOL     OW30163   3.068   4.164   5.124
 9755SOL    HW130164   3.057   4.108   5.042
 9755SOL    HW230165   3.035   4.256   5.107
 9756SOL     OW30166   5.481   1.780   6.208
 9756SOL    HW130167   5.514   1.691   6.175
 9756SOL    HW230168   5.402   1.766   6.268
 9757SOL     OW30169   5.259   4.847   4.077
 9757SOL    HW130170   5.353   4.880   4.079
 9757SOL    HW230171   5.218   4.859   4.168
 9758SOL     OW30172   0.904   1.446   0.157
 9758SOL    HW130173   0.994   1.409   0.134
 9758SOL    HW230174   0.913   1.508   0.235
 9759SOL     OW30175   0.852   1.477   0.609
 9759SOL    HW130176   0.878   1.384   0.586
 9759SOL    HW230177   0.864   1.536   0.529
 9760SOL     OW30178   5.066   2.573   6.948
 9760SOL    HW130179   4.983   2.597   6.997
 9760SOL    HW230180   5.139   2.553   7.014
 9761SOL     OW30181   1.312   1.494   2.127
 9761SOL    HW130182   1.265   1.413   2.092
 9761SOL    HW230183   1.384   1.520   2.063
 9762SOL     OW30184   3.220   1.636   4.563
 9762SOL    HW130185   3.266   1.648   4.651
 9762SOL    HW230186   3.233   1.718   4.507
 9763SOL     OW30187   5.991   1.202   2.725
 9763SOL    HW130188   6.091   1.213   2.727
 9763SOL    HW230189   5.968   1.119   2.673
 9764SOL     OW30190   6.397   2.284   2.927
 9764SOL    HW130191   6.446   2.371   2.930
 9764SOL    HW230192   6.462   2.209   2.911
 9765SOL     OW30193   6.246   1.465   2.732
 9765SOL    HW130194   6.256   1.369   2.759
 9765SOL    HW230195   6.336   1.505   2.715
 9766SOL     OW30196   1.955   0.074   3.416
 9766SOL    HW130197   1.948   0.095   3.319
 9766SOL    HW230198   2.021   7.019   3.429
 9767SOL     OW30199   2.022   2.878   5.113
 9767SOL    HW130200   2.000   2.951   5.179
 9767SOL    HW230201   2.112   2.840   5.134
 9768SOL     OW30202   5.566   2.137   0.780
 9768SOL    HW130203   5.507   2.129   0.861
 9768SOL    HW230204   5.652   2.089   0.797
 9769SOL     OW30205   3.539   0.703   5.088
 9769SOL    HW130206   3.592   0.770   5.141
 9769SOL    HW230207   3.551   0.722   4.991
 9770SOL     OW30208   3.637   1.863   5.463
 9770SOL    HW130209   3.590   1.936   5.512
 9770SOL    HW230210   3.735   1.885   5.454
 9771SOL     OW30211   2.279   7.004   1.617
 9771SOL    HW130212   2.302   6.971   1.709
 9771SOL    HW230213   2.213   6.942   1.575
 9772SOL     OW30214   1.758   6.484   1.859
 9772SOL    HW130215   1.823   6.431   1.914
 9772SOL    HW230216   1.767   6.459   1.763
 9773SOL     OW30217   5.657   4.957   3.471
 9773SOL    HW130218   5.606   4.974   3.387
 9773SOL    HW230219   5.596   4.965   3.550
 9774SOL     OW30220   0.988   4.603   3.869
 9774SOL    HW130221   0.915   4.583   3.934
 9774SOL    HW230222   1.038   4.685   3.897
 9775SOL     OW30223   2.760   0.540   2.926
 9775SOL    HW130224   2.797   0.620   2.973
 9775SOL    HW230225   2.664   0.528   2.952
 9776SOL     OW30226   1.383   4.635   5.928
 9776SOL    HW130227   1.437   4.552   5.943
 9776SOL    HW230228   1.409   4.704   5.996
 9777SOL     OW30229   5.156   6.306   6.853
 9777SOL    HW130230   5.079   6.297   6.915
 9777SOL    HW230231   5.197   6.216   6.836
 9778SOL     OW30232   0.272   2.090   4.805
 9778SOL    HW130233   0.355   2.042   4.835
 9778SOL    HW230234   0.270   2.094   4.705
 9779SOL     OW30235   0.765   2.703   3.961
 9779SOL    HW130236   0.738   2.665   3.872
 9779SOL    HW230237   0.846   2.655   3.994
 9780SOL     OW30238   1.899   1.322   1.266
 9780SOL    HW130239   1.800   1.323   1.251
 9780SOL    HW230240   1.944   1.378   1.197
 9781SOL     OW30241   2.088   3.597   4.657
 9781SOL    HW130242   2.054   3.563   4.745
 9781SOL    HW230243   2.118   3.520   4.601
 9782SOL     OW30244   0.745   1.823   0.758
 9782SOL    HW130245   0.844   1.832   0.747
 9782SOL    HW230246   0.703   1.805   0.669
 9783SOL     OW30247   4.507   1.843   3.450
 9783SOL    HW130248   4.544   1.775   3.386
 9783SOL    HW230249   4.464   1.795   3.526
 9784SOL     OW30250   3.638   1.135   6.445
 9784SOL    HW130251   3.575   1.082   6.388
 9784SOL    HW230252   3.714   1.167   6.389
 9785SOL     OW30253   6.163   2.394   5.389
 9785SOL    HW130254   6.119   2.386   5.299
 9785SOL    HW230255   6.223   2.315   5.403
 9786SOL     OW30256   2.631   4.257   0.409
 9786SOL    HW130257   2.662   4.349   0.433
 9786SOL    HW230258   2.594   4.212   0.490
 9787SOL     OW30259   4.016   3.608   4.513
 9787SOL    HW130260   4.039   3.703   4.492
 9787SOL    HW230261   4.056   3.549   4.443
 9788SOL     OW30262   1.524   5.862   1.943
 9788SOL    HW130263   1.462   5.846   1.866
 9788SOL    HW230264   1.517   5.786   2.007
 9789SOL     OW30265   2.852   6.966   0.263
 9789SOL    HW130266   2.853   6.927   0.171
 9789SOL    HW230267   2.768   6.939   0.309
 9790SOL     OW30268   6.486   4.381   6.433
 9790SOL    HW130269   6.462   4.470   6.471
 9790SOL    HW230270   6.403   4.336   6.399
 9791SOL     OW30271   0.618   0.298   0.274
 9791SOL    HW130272   0.713   0.270   0.287
 9791SOL    HW230273   0.558   0.236   0.324
 9792SOL     OW30274   4.151   5.110   1.040
 9792SOL    HW130275   4.171   5.080   0.946
 9792SOL    HW230276   4.069   5.166   1.040
 9793SOL     OW30277   4.168   0.066   1.798
 9793SOL    HW130278   4.149   0.151   1.847
 9793SOL    HW230279   4.171   0.084   1.699
 9794SOL     OW30280   5.495   4.152   4.915
 9794SOL    HW130281   5.592   4.177   4.914
 9794SOL    HW230282   5.475   4.096   4.834
 9795SOL     OW30283   1.131   3.100   4.211
 9795SOL    HW130284   1.179   3.169   4.265
 9795SOL    HW230285   1.192   3.023   4.192
 9796SOL     OW30286   3.749   4.059   3.622
 9796SOL    HW130287   3.845   4.038   3.605
 9796SOL    HW230288   3.721   4.135   3.563
 9797SOL     OW30289   2.371   6.278   0.308
 9797SOL    HW130290   2.323   6.191   0.323
 9797SOL    HW230291   2.374   6.297   0.210
 9798SOL     OW30292   2.006   1.519   1.089
 9798SOL    HW130293   2.018   1.602   1.143
 9798SOL    HW230294   2.064   1.524   1.008
 9799SOL     OW30295   3.290   4.076   6.187
 9799SOL    HW130296   3.227   4.037   6.120
 9799SOL    HW230297   3.362   4.010   6.209
 9800SOL     OW30298   5.724   3.914   3.969
 9800SOL    HW130299   5.629   3.943   3.982
 9800SOL    HW230300   5.774   3.923   4.055
 9801SOL     OW30301   5.166   4.636   0.423
 9801SOL    HW130302   5.160   4.654   0.324
 9801SOL    HW230303   5.210   4.713   0.468
 9802SOL     OW30304   4.282   4.753   0.428
 9802SOL    HW130305   4.211   4.755   0.499
 9802SOL    HW230306   4.290   4.660   0.392
 9803SOL     OW30307   1.808   3.512   6.389
 9803SOL    HW130308   1.896   3.468   6.371
 9803SOL    HW230309   1.740   3.475   6.325
 9804SOL     OW30310   0.284   5.887   3.091
 9804SOL    HW130311   0.333   5.901   3.177
 9804SOL    HW230312   0.197   5.937   3.093
 9805SOL     OW30313   1.153   0.252   3.074
 9805SOL    HW130314   1.138   0.177   3.138
 9805SOL    HW230315   1.215   0.222   3.001
 9806SOL     OW30316   2.899   2.532   5.995
 9806SOL    HW130317   2.906   2.449   6.051
 9806SOL    HW230318   2.821   2.524   5.933
 9807SOL     OW30319   3.210   2.920   2.175
 9807SOL    HW130320   3.288   2.900   2.116
 9807SOL    HW230321   3.212   2.859   2.254
 9808SOL     OW30322   3.640   5.514   3.864
 9808SOL    HW130323   3.735   5.488   3.850
 9808SOL    HW230324   3.583   5.470   3.796
 9809SOL     OW30325   1.321   3.311   0.504
 9809SOL    HW130326   1.374   3.361   0.436
 9809SOL    HW230327   1.266   3.241   0.458
 9810SOL     OW30328   2.949   2.087   5.022
 9810SOL    HW130329   2.949   2.000   4.972
 9810SOL    HW230330   3.036   2.134   5.006
 9811SOL     OW30331   5.998   3.929   3.510
 9811SOL    HW130332   5.980   3.967   3.601
 9811SOL    HW230333   6.065   3.986   3.463
 9812SOL     OW30334   3.374   0.523   4.362
 9812SOL    HW130335   3.366   0.623   4.361
 9812SOL    HW230336   3.283   0.482   4.363
 9813SOL     OW30337   5.863   2.164   0.895
 9813SOL    HW130338   5.926   2.201   0.963
 9813SOL    HW230339   5.824   2.238   0.841
 9814SOL     OW30340   5.096   1.386   6.745
 9814SOL    HW130341   5.175   1.325   6.742
 9814SOL    HW230342   5.116   1.470   6.695
 9815SOL     OW30343   5.071   2.491   4.090
 9815SOL    HW130344   5.054   2.570   4.031
 9815SOL    HW230345   5.142   2.515   4.157
 9816SOL     OW30346   1.138   0.517   6.427
 9816SOL    HW130347   1.228   0.547   6.397
 9816SOL    HW230348   1.125   0.539   6.523
 9817SOL     OW30349   0.621   6.847   3.152
 9817SOL    HW130350   0.596   6.803   3.238
 9817SOL    HW230351   0.546   6.834   3.086
 9818SOL     OW30352   6.224   2.108   4.956
 9818SOL    HW130353   6.299   2.174   4.969
 9818SOL    HW230354   6.257   2.031   4.901
 9819SOL     OW30355   4.540   2.622   3.123
 9819SOL    HW130356   4.610   2.691   3.141
 9819SOL    HW230357   4.493   2.644   3.037
 9820SOL     OW30358   3.429   3.210   6.744
 9820SOL    HW130359   3.484   3.201   6.661
 9820SOL    HW230360   3.472   3.276   6.805
 9821SOL     OW30361   5.553   0.549   6.367
 9821SOL    HW130362   5.529   0.645   6.357
 9821SOL    HW230363   5.597   0.534   6.456
 9822SOL     OW30364   0.682   6.950   2.875
 9822SOL    HW130365   0.746   6.993   2.939
 9822SOL    HW230366   0.727   6.873   2.830
 9823SOL     OW30367   3.590   7.012   1.555
 9823SOL    HW130368   3.607   0.091   1.549
 9823SOL    HW230369   3.534   6.983   1.477
 9824SOL     OW30370   2.219   4.009   5.787
 9824SOL    HW130371   2.230   3.912   5.807
 9824SOL    HW230372   2.135   4.023   5.735
 9825SOL     OW30373   3.285   5.377   5.223
 9825SOL    HW130374   3.260   5.423   5.308
 9825SOL    HW230375   3.319   5.285   5.243
 9826SOL     OW30376   4.536   5.520   6.027
 9826SOL    HW130377   4.566   5.531   5.933
 9826SOL    HW230378   4.464   5.586   6.047
 9827SOL     OW30379   2.349   4.378   4.212
 9827SOL    HW130380   2.287   4.370   4.135
 9827SOL    HW230381   2.320   4.315   4.285
 9828SOL     OW30382   3.004   2.841   6.805
 9828SOL    HW130383   2.955   2.754   6.804
 9828SOL    HW230384   3.029   2.863   6.900
 9829SOL     OW30385   2.922   6.671   0.890
 9829SOL    HW130386   2.910   6.755   0.838
 9829SOL    HW230387   2.859   6.670   0.967
 9830SOL     OW30388   5.606   2.785   1.993
 9830SOL    HW130389   5.621   2.779   2.092
 9830SOL    HW230390   5.608   2.694   1.953
 9831SOL     OW30391   1.779   6.266   0.886
 9831SOL    HW130392   1.718   6.332   0.842
 9831SOL    HW230393   1.853   6.314   0.932
 9832SOL     OW30394   4.991   5.183   2.429
 9832SOL    HW130395   5.085   5.185   2.394
 9832SOL    HW230396   4.928   5.209   2.356
 9833SOL     OW30397   3.264   2.924   4.796
 9833SOL    HW130398   3.362   2.920   4.817
 9833SOL    HW230399   3.221   2.839   4.826
 9834SOL     OW30400   2.839   3.723   5.927
 9834SOL    HW130401   2.851   3.730   6.026
 9834SOL    HW230402   2.836   3.626   5.900
 9835SOL     OW30403   3.630   2.280   5.805
 9835SOL    HW130404   3.555   2.339   5.835
 9835SOL    HW230405   3.673   2.319   5.724
 9836SOL     OW30406   6.253   4.241   3.639
 9836SOL    HW130407   6.350   4.240   3.613
 9836SOL    HW230408   6.240   4.189   3.723
 9837SOL     OW30409   2.211   0.144   2.470
 9837SOL    HW130410   2.218   0.158   2.372
 9837SOL    HW230411   2.155   0.217   2.510
 9838SOL     OW30412   0.691   6.773   5.977
 9838SOL    HW130413   0.737   6.862   5.974
 9838SOL    HW230414   0.613   6.774   5.915
 9839SOL     OW30415   5.814   1.271   2.927
 9839SOL    HW130416   5.858   1.338   2.986
 9839SOL    HW230417   5.872   1.254   2.847
 9840SOL     OW30418   0.417   0.998   1.186
 9840SOL    HW130419   0.417   0.913   1.237
 9840SOL    HW230420   0.436   0.979   1.089
 9841SOL     OW30421   1.180   4.911   4.903
 9841SOL    HW130422   1.235   4.839   4.860
 9841SOL    HW230423   1.205   5.000   4.865
 9842SOL     OW30424   3.430   4.119   3.544
 9842SOL    HW130425   3.413   4.093   3.449
 9842SOL    HW230426   3.419   4.038   3.603
 9843SOL     OW30427   6.657   1.886   1.999
 9843SOL    HW130428   6.739   1.830   1.986
 9843SOL    HW230429   6.585   1.855   1.937
 9844SOL     OW30430   4.986   0.319   2.583
 9844SOL    HW130431   5.061   0.321   2.649
 9844SOL    HW230432   4.990   0.401   2.526
 9845SOL     OW30433   2.560   1.533   4.600
 9845SOL    HW130434   2.502   1.603   4.557
 9845SOL    HW230435   2.650   1.571   4.618
 9846SOL     OW30436   3.822   3.376   2.351
 9846SOL    HW130437   3.728   3.341   2.350
 9846SOL    HW230438   3.879   3.321   2.290
 9847SOL     OW30439   3.574   2.722   5.616
 9847SOL    HW130440   3.621   2.773   5.688
 9847SOL    HW230441   3.508   2.660   5.658
 9848SOL     OW30442   3.357   2.434   6.391
 9848SOL    HW130443   3.258   2.443   6.386
 9848SOL    HW230444   3.383   2.402   6.482
 9849SOL     OW30445   5.951   0.412   0.209
 9849SOL    HW130446   5.904   0.500   0.201
 9849SOL    HW230447   5.982   0.383   0.118
 9850SOL     OW30448   5.686   6.295   2.698
 9850SOL    HW130449   5.637   6.266   2.780
 9850SOL    HW230450   5.623   6.338   2.634
 9851SOL     OW30451   4.732   2.194   5.699
 9851SOL    HW130452   4.809   2.134   5.676
 9851SOL    HW230453   4.648   2.140   5.706
 9852SOL     OW30454   4.469   2.057   3.281
 9852SOL    HW130455   4.476   1.966   3.320
 9852SOL    HW230456   4.485   2.126   3.352
 9853SOL     OW30457   4.830   4.138   3.368
 9853SOL    HW130458   4.911   4.197   3.363
 9853SOL    HW230459   4.859   4.042   3.371
 9854SOL     OW30460   6.577   5.200   5.078
 9854SOL    HW130461   6.494   5.209   5.134
 9854SOL    HW230462   6.561   5.239   4.988
 9855SOL     OW30463   2.352   4.324   2.159
 9855SOL    HW130464   2.399   4.262   2.097
 9855SOL    HW230465   2.279   4.275   2.207
 9856SOL     OW30466   5.027   4.008   0.189
 9856SOL    HW130467   5.037   4.093   0.240
 9856SOL    HW230468   4.945   3.960   0.219
 9857SOL     OW30469   4.373   2.057   4.349
 9857SOL    HW130470   4.427   2.071   4.266
 9857SOL    HW230471   4.366   2.144   4.399
 9858SOL     OW30472   6.973   1.270   1.528
 9858SOL    HW130473   6.905   1.326   1.481
 9858SOL    HW230474   0.045   1.295   1.497
 9859SOL     OW30475   6.190   0.075   1.114
 9859SOL    HW130476   6.096   0.101   1.094
 9859SOL    HW230477   6.194   0.027   1.201
 9860SOL     OW30478   6.905   0.924   2.990
 9860SOL    HW130479   6.991   0.946   2.945
 9860SOL    HW230480   6.836   0.992   2.965
 9861SOL     OW30481   2.876   0.089   2.928
 9861SOL    HW130482   2.821   0.094   2.844
 9861SOL    HW230483   2.910   0.181   2.950
 9862SOL     OW30484   2.502   4.720   0.492
 9862SOL    HW130485   2.472   4.730   0.397
 9862SOL    HW230486   2.537   4.808   0.525
 9863SOL     OW30487   2.900   0.205   3.289
 9863SOL    HW130488   2.991   0.244   3.277
 9863SOL    HW230489   2.902   0.108   3.265
 9864SOL     OW30490   3.879   5.810   4.194
 9864SOL    HW130491   3.817   5.732   4.190
 9864SOL    HW230492   3.926   5.811   4.282
 9865SOL     OW30493   1.358   1.305   3.995
 9865SOL    HW130494   1.309   1.291   4.081
 9865SOL    HW230495   1.457   1.299   4.012
 9866SOL     OW30496   5.769   4.161   5.195
 9866SOL    HW130497   5.853   4.198   5.236
 9866SOL    HW230498   5.785   4.143   5.098
 9867SOL     OW30499   6.044   0.444   1.161
 9867SOL    HW130500   5.967   0.413   1.217
 9867SOL    HW230501   6.021   0.531   1.118
 9868SOL     OW30502   1.403   4.295   5.626
 9868SOL    HW130503   1.336   4.369   5.626
 9868SOL    HW230504   1.409   4.256   5.534
 9869SOL     OW30505   1.717   3.668   2.388
 9869SOL    HW130506   1.808   3.663   2.429
 9869SOL    HW230507   1.690   3.764   2.379
 9870SOL     OW30508   4.445   5.740   2.551
 9870SOL    HW130509   4.474   5.665   2.609
 9870SOL    HW230510   4.386   5.705   2.478
 9871SOL     OW30511   1.171   6.818   5.281
 9871SOL    HW130512   1.119   6.733   5.296
 9871SOL    HW230513   1.212   6.816   5.190
 9872SOL     OW30514   3.081   5.154   4.186
 9872SOL    HW130515   3.037   5.127   4.271
 9872SOL    HW230516   3.155   5.219   4.205
 9873SOL     OW30517   2.910   2.090   1.296
 9873SOL    HW130518   2.811   2.080   1.285
 9873SOL    HW230519   2.933   2.187   1.304
 9874SOL     OW30520   0.813   3.714   4.110
 9874SOL    HW130521   0.730   3.686   4.061
 9874SOL    HW230522   0.855   3.791   4.063
 9875SOL     OW30523   0.153   6.799   2.255
 9875SOL    HW130524   0.127   6.755   2.169
 9875SOL    HW230525   0.236   6.755   2.290
 9876SOL     OW30526   6.361   0.589   2.529
 9876SOL    HW130527   6.460   0.576   2.523
 9876SOL    HW230528   6.342   0.675   2.577
 9877SOL     OW30529   0.337   5.896   3.365
 9877SOL    HW130530   0.298   5.951   3.439
 9877SOL    HW230531   0.343   5.800   3.395
 9878SOL     OW30532   2.645   5.465   4.713
 9878SOL    HW130533   2.711   5.536   4.688
 9878SOL    HW230534   2.687   5.402   4.779
 9879SOL     OW30535   6.029   5.255   4.093
 9879SOL    HW130536   6.045   5.171   4.144
 9879SOL    HW230537   6.108   5.316   4.103
 9880SOL     OW30538   2.634   1.745   5.515
 9880SOL    HW130539   2.583   1.825   5.482
 9880SOL    HW230540   2.721   1.774   5.553
 9881SOL     OW30541   1.934   1.089   5.004
 9881SOL    HW130542   2.007   1.031   4.966
 9881SOL    HW230543   1.907   1.054   5.093
 9882SOL     OW30544   1.019   2.257   4.153
 9882SOL    HW130545   1.102   2.252   4.209
 9882SOL    HW230546   1.043   2.286   4.061
 9883SOL     OW30547   1.975   5.427   0.262
 9883SOL    HW130548   1.973   5.403   0.359
 9883SOL    HW230549   1.886   5.407   0.221
 9884SOL     OW30550   3.886   1.811   3.224
 9884SOL    HW130551   3.860   1.716   3.237
 9884SOL    HW230552   3.856   1.865   3.303
 9885SOL     OW30553   6.696   3.163   5.531
 9885SOL    HW130554   6.789   3.173   5.566
 9885SOL    HW230555   6.638   3.235   5.571
 9886SOL     OW30556   0.798   4.246   1.397
 9886SOL    HW130557   0.844   4.158   1.405
 9886SOL    HW230558   0.850   4.306   1.336
 9887SOL     OW30559   3.849   0.491   6.135
 9887SOL    HW130560   3.842   0.458   6.041
 9887SOL    HW230561   3.844   0.591   6.136
 9888SOL     OW30562   6.129   4.106   2.057
 9888SOL    HW130563   6.047   4.056   2.084
 9888SOL    HW230564   6.193   4.044   2.012
 9889SOL     OW30565   0.173   5.562   1.486
 9889SOL    HW130566   0.101   5.494   1.498
 9889SOL    HW230567   0.262   5.520   1.504
 9890SOL     OW30568   1.698   1.739   0.597
 9890SOL    HW130569   1.711   1.835   0.621
 9890SOL    HW230570   1.711   1.682   0.678
 9891SOL     OW30571   5.525   2.792   1.731
 9891SOL    HW130572   5.561   2.882   1.709
 9891SOL    HW230573   5.506   2.787   1.829
 9892SOL     OW30574   6.847   5.034   0.761
 9892SOL    HW130575   6.893   5.054   0.675
 9892SOL    HW230576   6.863   5.109   0.825
 9893SOL     OW30577   1.207   0.143   1.199
 9893SOL    HW130578   1.163   0.137   1.288
 9893SOL    HW230579   1.161   0.082   1.134
 9894SOL     OW30580   2.386   2.658   1.850
 9894SOL    HW130581   2.308   2.705   1.890
 9894SOL    HW230582   2.443   2.723   1.800
 9895SOL     OW30583   6.771   3.600   5.199
 9895SOL    HW130584   6.859   3.612   5.153
 9895SOL    HW230585   6.783   3.544   5.281
 9896SOL     OW30586   6.065   0.393   6.962
 9896SOL    HW130587   6.162   0.411   6.951
 9896SOL    HW230588   6.040   0.312   6.908
 9897SOL     OW30589   6.002   5.808   3.186
 9897SOL    HW130590   5.997   5.760   3.273
 9897SOL    HW230591   6.070   5.764   3.128
 9898SOL     OW30592   1.452   5.737   4.284
 9898SOL    HW130593   1.410   5.698   4.366
 9898SOL    HW230594   1.509   5.668   4.240
 9899SOL     OW30595   0.791   5.820   6.942
 9899SOL    HW130596   0.773   5.774   0.010
 9899SOL    HW230597   0.884   5.800   6.913
 9900SOL     OW30598   1.878   3.561   3.620
 9900SOL    HW130599   1.858   3.655   3.647
 9900SOL    HW230600   1.823   3.537   3.540
 9901SOL     OW30601   3.032   0.711   6.084
 9901SOL    HW130602   2.946   0.735   6.040
 9901SOL    HW230603   3.071   0.630   6.039
 9902SOL     OW30604   3.233   4.911   0.678
 9902SOL    HW130605   3.258   4.877   0.768
 9902SOL    HW230606   3.285   4.995   0.659
 9903SOL     OW30607   5.261   1.408   2.269
 9903SOL    HW130608   5.307   1.428   2.182
 9903SOL    HW230609   5.179   1.464   2.276
 9904SOL     OW30610   1.307   4.232   6.661
 9904SOL    HW130611   1.368   4.237   6.581
 9904SOL    HW230612   1.270   4.323   6.680
 9905SOL     OW30613   2.278   0.215   6.087
 9905SOL    HW130614   2.191   0.258   6.112
 9905SOL    HW230615   2.353   0.263   6.131
 9906SOL     OW30616   2.554   3.408   1.720
 9906SOL    HW130617   2.486   3.386   1.790
 9906SOL    HW230618   2.531   3.359   1.636
 9907SOL     OW30619   6.486   0.518   1.412
 9907SOL    HW130620   6.398   0.507   1.459
 9907SOL    HW230621   6.470   0.551   1.319
 9908SOL     OW30622   5.551   1.938   4.895
 9908SOL    HW130623   5.514   1.922   4.986
 9908SOL    HW230624   5.588   1.853   4.858
 9909SOL     OW30625   4.218   0.890   3.436
 9909SOL    HW130626   4.210   0.793   3.458
 9909SOL    HW230627   4.248   0.901   3.342
 9910SOL     OW30628   1.377   4.461   3.081
 9910SOL    HW130629   1.476   4.449   3.076
 9910SOL    HW230630   1.353   4.496   3.172
 9911SOL     OW30631   3.023   5.824   2.314
 9911SOL    HW130632   3.079   5.906   2.301
 9911SOL    HW230633   3.080   5.751   2.352
 9912SOL     OW30634   4.203   0.468   1.382
 9912SOL    HW130635   4.230   0.539   1.318
 9912SOL    HW230636   4.234   0.379   1.348
 9913SOL     OW30637   6.168   4.112   1.337
 9913SOL    HW130638   6.145   4.206   1.365
 9913SOL    HW230639   6.094   4.051   1.366
 9914SOL     OW30640   5.544   1.415   4.564
 9914SOL    HW130641   5.475   1.355   4.524
 9914SOL    HW230642   5.539   1.409   4.664
 9915SOL     OW30643   4.907   0.529   3.540
 9915SOL    HW130644   4.812   0.509   3.517
 9915SOL    HW230645   4.933   0.617   3.499
 9916SOL     OW30646   2.309   2.822   3.021
 9916SOL    HW130647   2.246   2.869   3.082
 9916SOL    HW230648   2.281   2.836   2.926
 9917SOL     OW30649   5.392   4.115   7.004
 9917SOL    HW130650   5.361   4.137   0.077
 9917SOL    HW230651   5.492   4.122   7.000
 9918SOL     OW30652   3.535   1.650   3.212
 9918SOL    HW130653   3.483   1.574   3.252
 9918SOL    HW230654   3.605   1.613   3.151
 9919SOL     OW30655   6.665   5.005   1.695
 9919SOL    HW130656   6.706   4.918   1.722
 9919SOL    HW230657   6.696   5.029   1.603
 9920SOL     OW30658   4.696   1.487   2.064
 9920SOL    HW130659   4.769   1.433   2.106
 9920SOL    HW230660   4.730   1.579   2.044
 9921SOL     OW30661   4.266   6.990   5.418
 9921SOL    HW130662   4.218   6.957   5.499
 9921SOL    HW230663   4.223   0.056   5.386
 9922SOL     OW30664   2.882   4.177   0.521
 9922SOL    HW130665   2.896   4.227   0.607
 9922SOL    HW230666   2.799   4.211   0.477
 9923SOL     OW30667   5.206   4.723   6.554
 9923SOL    HW130668   5.206   4.811   6.506
 9923SOL    HW230669   5.173   4.736   6.648
 9924SOL     OW30670   6.450   1.852   4.770
 9924SOL    HW130671   6.445   1.853   4.670
 9924SOL    HW230672   6.364   1.817   4.807
 9925SOL     OW30673   6.922   3.104   4.433
 9925SOL    HW130674   6.890   3.113   4.339
 9925SOL    HW230675   6.997   3.167   4.449
 9926SOL     OW30676   4.123   2.120   0.571
 9926SOL    HW130677   4.025   2.117   0.587
 9926SOL    HW230678   4.144   2.085   0.479
 9927SOL     OW30679   0.089   6.720   0.329
 9927SOL    HW130680   0.105   6.782   0.406
 9927SOL    HW230681   7.017   6.735   0.292
 9928SOL     OW30682   5.010   3.985   2.606
 9928SOL    HW130683   4.995   3.890   2.633
 9928SOL    HW230684   5.092   3.991   2.549
 9929SOL     OW30685   3.114   4.529   5.618
 9929SOL    HW130686   3.128   4.622   5.651
 9929SOL    HW230687   3.016   4.509   5.614
 9930SOL     OW30688   6.549   6.259   4.935
 9930SOL    HW130689   6.488   6.213   5.000
 9930SOL    HW230690   6.530   6.225   4.843
 9931SOL     OW30691   0.358   5.769   4.061
 9931SOL    HW130692   0.280   5.787   4.123
 9931SOL    HW230693   0.383   5.673   4.067
 9932SOL     OW30694   3.207   4.063   6.869
 9932SOL    HW130695   3.129   4.070   6.808
 9932SOL    HW230696   3.206   4.138   6.935
 9933SOL     OW30697   0.118   5.787   3.667
 9933SOL    HW130698   0.190   5.826   3.724
 9933SOL    HW230699   0.099   5.693   3.697
 9934SOL     OW30700   6.077   2.108   5.824
 9934SOL    HW130701   6.003   2.084   5.761
 9934SOL    HW230702   6.165   2.084   5.783
 9935SOL     OW30703   2.609   6.483   6.838
 9935SOL    HW130704   2.559   6.409   6.792
 9935SOL    HW230705   2.687   6.445   6.887
 9936SOL     OW30706   6.721   5.325   6.530
 9936SOL    HW130707   6.803   5.349   6.583
 9936SOL    HW230708   6.740   5.242   6.477
 9937SOL     OW30709   6.449   1.538   0.989
 9937SOL    HW130710   6.440   1.622   1.043
 9937SOL    HW230711   6.363   1.520   0.941
 9938SOL     OW30712   6.791   5.028   2.598
 9938SOL    HW130713   6.807   4.930   2.608
 9938SOL    HW230714   6.692   5.045   2.596
 9939SOL     OW30715   4.185   2.281   0.788
 9939SOL    HW130716   4.182   2.233   0.700
 9939SOL    HW230717   4.265   2.251   0.840
 9940SOL     OW30718   1.099   0.645   1.322
 9940SOL    HW130719   1.001   0.663   1.329
 9940SOL    HW230720   1.115   0.546   1.327
 9941SOL     OW30721   2.990   3.649   5.454
 9941SOL    HW130722   2.987   3.684   5.548
 9941SOL    HW230723   3.081   3.663   5.416
 9942SOL     OW30724   2.547   5.511   2.321
 9942SOL    HW130725   2.568   5.460   2.238
 9942SOL    HW230726   2.455   5.549   2.315
 9943SOL     OW30727   0.239   3.968   5.756
 9943SOL    HW130728   0.292   4.036   5.806
 9943SOL    HW230729   0.192   4.011   5.679
 9944SOL     OW30730   1.563   4.568   6.513
 9944SOL    HW130731   1.617   4.484   6.516
 9944SOL    HW230732   1.612   4.640   6.562
 9945SOL     OW30733   5.866   5.717   6.383
 9945SOL    HW130734   5.941   5.743   6.443
 9945SOL    HW230735   5.846   5.791   6.319
 9946SOL     OW30736   5.045   0.959   3.695
 9946SOL    HW130737   5.136   0.955   3.735
 9946SOL    HW230738   5.023   1.053   3.669
 9947SOL     OW30739   1.860   2.392   4.817
 9947SOL    HW130740   1.823   2.453   4.887
 9947SOL    HW230741   1.959   2.384   4.829
 9948SOL     OW30742   5.954   4.132   4.672
 9948SOL    HW130743   5.928   4.165   4.581
 9948SOL    HW230744   5.893   4.058   4.700
 9949SOL     OW30745   6.662   4.870   4.354
 9949SOL    HW130746   6.591   4.915   4.408
 9949SOL    HW230747   6.680   4.779   4.392
 9950SOL     OW30748   5.610   5.683   5.037
 9950SOL    HW130749   5.624   5.767   4.985
 9950SOL    HW230750   5.513   5.659   5.037
 9951SOL     OW30751   0.116   0.539   4.529
 9951SOL    HW130752   0.209   0.572   4.542
 9951SOL    HW230753   0.079   0.508   4.617
 9952SOL     OW30754   1.306   3.938   0.959
 9952SOL    HW130755   1.227   3.994   0.931
 9952SOL    HW230756   1.372   3.936   0.884
 9953SOL     OW30757   5.554   2.849   4.821
 9953SOL    HW130758   5.553   2.881   4.916
 9953SOL    HW230759   5.462   2.819   4.796
 9954SOL     OW30760   6.591   1.072   6.480
 9954SOL    HW130761   6.649   1.052   6.560
 9954SOL    HW230762   6.641   1.050   6.397
 9955SOL     OW30763   6.451   3.647   5.589
 9955SOL    HW130764   6.414   3.713   5.653
 9955SOL    HW230765   6.407   3.657   5.500
 9956SOL     OW30766   1.603   6.895   2.610
 9956SOL    HW130767   1.610   6.819   2.545
 9956SOL    HW230768   1.572   6.860   2.699
 9957SOL     OW30769   5.041   5.788   2.617
 9957SOL    HW130770   5.085   5.700   2.627
 9957SOL    HW230771   5.051   5.841   2.701
 9958SOL     OW30772   3.388   5.526   0.374
 9958SOL    HW130773   3.409   5.529   0.276
 9958SOL    HW230774   3.450   5.462   0.419
 9959SOL     OW30775   4.054   3.685   5.193
 9959SOL    HW130776   4.109   3.628   5.133
 9959SOL    HW230777   4.095   3.776   5.199
 9960SOL     OW30778   0.141   0.263   1.926
 9960SOL    HW130779   0.103   0.293   2.014
 9960SOL    HW230780   0.235   0.295   1.918
 9961SOL     OW30781   1.286   5.052   4.499
 9961SOL    HW130782   1.383   5.028   4.493
 9961SOL    HW230783   1.260   5.067   4.595
 9962SOL     OW30784   6.349   6.503   2.723
 9962SOL    HW130785   6.285   6.430   2.746
 9962SOL    HW230786   6.301   6.573   2.669
 9963SOL     OW30787   2.723   3.390   6.640
 9963SOL    HW130788   2.723   3.426   6.547
 9963SOL    HW230789   2.816   3.385   6.674
 9964SOL     OW30790   5.154   4.812   5.565
 9964SOL    HW130791   5.167   4.720   5.527
 9964SOL    HW230792   5.112   4.871   5.497
 9965SOL     OW30793   3.734   6.495   6.059
 9965SOL    HW130794   3.762   6.588   6.082
 9965SOL    HW230795   3.759   6.433   6.134
 9966SOL     OW30796   1.732   6.066   1.663
 9966SOL    HW130797   1.759   5.974   1.691
 9966SOL    HW230798   1.815   6.121   1.645
 9967SOL     OW30799   0.439   0.128   2.178
 9967SOL    HW130800   0.432   0.228   2.176
 9967SOL    HW230801   0.530   0.101   2.147
 9968SOL     OW30802   3.243   3.905   1.080
 9968SOL    HW130803   3.240   3.874   0.985
 9968SOL    HW230804   3.161   3.875   1.128
 9969SOL     OW30805   1.789   3.120   2.632
 9969SOL    HW130806   1.790   3.154   2.726
 9969SOL    HW230807   1.711   3.158   2.583
 9970SOL     OW30808   5.309   4.028   2.508
 9970SOL    HW130809   5.294   3.960   2.436
 9970SOL    HW230810   5.379   4.092   2.479
 9971SOL     OW30811   2.313   5.624   1.583
 9971SOL    HW130812   2.381   5.689   1.550
 9971SOL    HW230813   2.242   5.611   1.514
 9972SOL     OW30814   4.529   5.098   1.608
 9972SOL    HW130815   4.500   5.152   1.687
 9972SOL    HW230816   4.493   5.006   1.615
 9973SOL     OW30817   5.046   2.004   3.990
 9973SOL    HW130818   5.053   2.064   3.910
 9973SOL    HW230819   5.112   1.930   3.981
 9974SOL     OW30820   0.497   2.909   2.815
 9974SOL    HW130821   0.579   2.874   2.771
 9974SOL    HW230822   0.497   3.009   2.813
 9975SOL     OW30823   6.129   4.384   0.035
 9975SOL    HW130824   6.102   4.327   6.976
 9975SOL    HW230825   6.183   4.461   0.003
 9976SOL     OW30826   0.545   6.323   5.603
 9976SOL    HW130827   0.569   6.349   5.696
 9976SOL    HW230828   0.518   6.227   5.600
 9977SOL     OW30829   0.204   5.026   5.646
 9977SOL    HW130830   0.164   4.975   5.570
 9977SOL    HW230831   0.211   4.966   5.726
 9978SOL     OW30832   0.307   2.109   4.313
 9978SOL    HW130833   0.241   2.052   4.363
 9978SOL    HW230834   0.347   2.176   4.376
 9979SOL     OW30835   6.402   5.158   5.419
 9979SOL    HW130836   6.402   5.062   5.391
 9979SOL    HW230837   6.354   5.213   5.351
 9980SOL     OW30838   1.825   0.905   5.753
 9980SOL    HW130839   1.770   0.949   5.823
 9980SOL    HW230840   1.921   0.928   5.767
 9981SOL     OW30841   2.381   1.855   2.424
 9981SOL    HW130842   2.415   1.940   2.465
 9981SOL    HW230843   2.445   1.824   2.354
 9982SOL     OW30844   6.293   6.679   4.441
 9982SOL    HW130845   6.223   6.750   4.449
 9982SOL    HW230846   6.381   6.716   4.473
 9983SOL     OW30847   6.577   2.518   2.856
 9983SOL    HW130848   6.671   2.487   2.870
 9983SOL    HW230849   6.557   2.521   2.758
 9984SOL     OW30850   1.959   0.759   6.911
 9984SOL    HW130851   1.868   0.751   6.873
 9984SOL    HW230852   1.954   0.803   7.001
 9985SOL     OW30853   0.982   1.342   0.865
 9985SOL    HW130854   0.925   1.286   0.805
 9985SOL    HW230855   0.952   1.438   0.859
 9986SOL     OW30856   5.521   4.173   6.037
 9986SOL    HW130857   5.605   4.136   6.076
 9986SOL    HW230858   5.493   4.254   6.088
 9987SOL     OW30859   0.112   3.316   4.181
 9987SOL    HW130860   0.142   3.280   4.093
 9987SOL    HW230861   0.181   3.379   4.217
 9988SOL     OW30862   6.505   5.870   4.198
 9988SOL    HW130863   6.460   5.808   4.262
 9988SOL    HW230864   6.552   5.943   4.248
 9989SOL     OW30865   6.441   3.703   3.556
 9989SOL    HW130866   6.363   3.692   3.495
 9989SOL    HW230867   6.412   3.750   3.639
 9990SOL     OW30868   2.597   5.362   1.831
 9990SOL    HW130869   2.556   5.320   1.750
 9990SOL    HW230870   2.540   5.437   1.863
 9991SOL     OW30871   2.178   2.312   3.445
 9991SOL    HW130872   2.215   2.401   3.420
 9991SOL    HW230873   2.233   2.239   3.404
 9992SOL     OW30874   5.767   5.344   6.963
 9992SOL    HW130875   5.804   5.333   0.037
 9992SOL    HW230876   5.837   5.322   6.896
 9993SOL     OW30877   2.796   0.736   0.675
 9993SOL    HW130878   2.736   0.656   0.683
 9993SOL    HW230879   2.871   0.728   0.742
 9994SOL     OW30880   6.021   4.318   3.308
 9994SOL    HW130881   5.923   4.305   3.315
 9994SOL    HW230882   6.068   4.233   3.333
 9995SOL     OW30883   4.974   1.110   2.882
 9995SOL    HW130884   5.046   1.174   2.857
 9995SOL    HW230885   5.015   1.024   2.913
 9996SOL     OW30886   2.935   3.186   1.182
 9996SOL    HW130887   3.014   3.243   1.160
 9996SOL    HW230888   2.878   3.176   1.101
 9997SOL     OW30889   3.726   1.769   6.881
 9997SOL    HW130890   3.756   1.737   6.791
 9997SOL    HW230891   3.678   1.694   6.927
 9998SOL     OW30892   5.825   4.705   6.175
 9998SOL    HW130893   5.854   4.767   6.248
 9998SOL    HW230894   5.898   4.639   6.157
 9999SOL     OW30895   6.127   3.171   5.819
 9999SOL    HW130896   6.097   3.235   5.748
 9999SOL    HW230897   6.221   3.192   5.846
10000SOL     OW30898   6.998   4.490   6.932
10000SOL    HW130899   6.975   4.402   6.974
10000SOL    HW230900   0.053   4.533   6.984
10001SOL     OW30901   4.919   6.798   1.913
10001SOL    HW130902   4.849   6.767   1.976
10001SOL    HW230903   4.980   6.862   1.959
10002SOL     OW30904   1.045   0.495   2.943
10002SOL    HW130905   1.066   0.568   3.007
10002SOL    HW230906   1.131   0.458   2.906
10003SOL     OW30907   3.811   1.530   3.397
10003SOL    HW130908   3.805   1.434   3.424
10003SOL    HW230909   3.733   1.580   3.436
10004SOL     OW30910   6.599   2.417   4.413
10004SOL    HW130911   6.612   2.448   4.319
10004SOL    HW230912   6.589   2.318   4.414
10005SOL     OW30913   5.523   0.487   4.958
10005SOL    HW130914   5.550   0.487   4.862
10005SOL    HW230915   5.439   0.434   4.970
10006SOL     OW30916   4.665   5.140   4.320
10006SOL    HW130917   4.646   5.052   4.276
10006SOL    HW230918   4.731   5.127   4.394
10007SOL     OW30919   6.711   4.560   5.826
10007SOL    HW130920   6.708   4.624   5.750
10007SOL    HW230921   6.669   4.474   5.799
10008SOL     OW30922   3.782   1.375   4.425
10008SOL    HW130923   3.685   1.396   4.411
10008SOL    HW230924   3.808   1.296   4.370
10009SOL     OW30925   1.983   3.870   1.742
10009SOL    HW130926   2.018   3.954   1.702
10009SOL    HW230927   1.986   3.797   1.673
10010SOL     OW30928   2.334   0.726   5.317
10010SOL    HW130929   2.333   0.639   5.268
10010SOL    HW230930   2.312   0.711   5.413
10011SOL     OW30931   5.886   0.867   5.595
10011SOL    HW130932   5.859   0.781   5.551
10011SOL    HW230933   5.840   0.875   5.683
10012SOL     OW30934   5.538   1.347   3.428
10012SOL    HW130935   5.478   1.331   3.349
10012SOL    HW230936   5.514   1.434   3.471
10013SOL     OW30937   0.318   1.282   3.352
10013SOL    HW130938   0.365   1.219   3.291
10013SOL    HW230939   0.270   1.230   3.423
10014SOL     OW30940   6.757   4.067   0.689
10014SOL    HW130941   6.833   4.004   0.671
10014SOL    HW230942   6.783   4.131   0.761
10015SOL     OW30943   2.179   5.083   0.579
10015SOL    HW130944   2.172   5.115   0.484
10015SOL    HW230945   2.167   5.160   0.641
10016SOL     OW30946   1.303   1.203   6.383
10016SOL    HW130947   1.366   1.258   6.329
10016SOL    HW230948   1.209   1.233   6.365
10017SOL     OW30949   2.819   1.759   3.150
10017SOL    HW130950   2.793   1.810   3.068
10017SOL    HW230951   2.751   1.689   3.169
10018SOL     OW30952   4.549   0.425   6.259
10018SOL    HW130953   4.623   0.465   6.314
10018SOL    HW230954   4.584   0.399   6.169
10019SOL     OW30955   0.294   1.639   3.073
10019SOL    HW130956   0.266   1.543   3.074
10019SOL    HW230957   0.300   1.671   2.979
10020SOL     OW30958   1.941   2.098   0.972
10020SOL    HW130959   1.954   2.045   1.056
10020SOL    HW230960   1.932   2.036   0.894
10021SOL     OW30961   0.695   2.352   1.422
10021SOL    HW130962   0.606   2.369   1.381
10021SOL    HW230963   0.715   2.423   1.489
10022SOL     OW30964   2.491   1.519   5.843
10022SOL    HW130965   2.436   1.485   5.919
10022SOL    HW230966   2.549   1.594   5.874
10023SOL     OW30967   0.050   4.897   0.943
10023SOL    HW130968   6.993   4.844   0.905
10023SOL    HW230969   0.029   4.922   1.037
10024SOL     OW30970   1.782   6.356   2.456
10024SOL    HW130971   1.805   6.453   2.448
10024SOL    HW230972   1.832   6.316   2.533
10025SOL     OW30973   1.050   0.807   0.265
10025SOL    HW130974   1.013   0.784   0.355
10025SOL    HW230975   1.104   0.730   0.231
10026SOL     OW30976   4.829   6.569   3.987
10026SOL    HW130977   4.843   6.597   3.892
10026SOL    HW230978   4.900   6.609   4.045
10027SOL     OW30979   6.722   3.972   4.064
10027SOL    HW130980   6.685   3.879   4.069
10027SOL    HW230981   6.647   4.037   4.075
10028SOL     OW30982   1.095   0.360   2.021
10028SOL    HW130983   1.065   0.326   1.932
10028SOL    HW230984   1.053   0.450   2.038
10029SOL     OW30985   4.862   1.787   4.475
10029SOL    HW130986   4.766   1.795   4.502
10029SOL    HW230987   4.877   1.841   4.392
10030SOL     OW30988   1.974   0.990   3.458
10030SOL    HW130989   1.881   1.026   3.453
10030SOL    HW230990   2.031   1.035   3.390
10031SOL     OW30991   5.329   4.233   4.624
10031SOL    HW130992   5.319   4.278   4.713
10031SOL    HW230993   5.326   4.134   4.636
10032SOL     OW30994   3.114   0.982   5.146
10032SOL    HW130995   3.143   0.887   5.158
10032SOL    HW230996   3.015   0.984   5.129
10033SOL     OW30997   6.731   2.891   4.534
10033SOL    HW130998   6.763   2.866   4.443
10033SOL    HW230999   6.678   2.976   4.529
10034SOL     OW31000   3.831   0.186   4.376
10034SOL    HW131001   3.788   0.109   4.422
10034SOL    HW231002   3.768   0.263   4.373
10035SOL     OW31003   6.632   5.444   1.627
10035SOL    HW131004   6.678   5.379   1.686
10035SOL    HW231005   6.536   5.453   1.655
10036SOL     OW31006   6.250   2.172   0.859
10036SOL    HW131007   6.340   2.128   0.860
10036SOL    HW231008   6.217   2.180   0.765
10037SOL     OW31009   6.904   1.869   6.734
10037SOL    HW131010   6.829   1.810   6.765
10037SOL    HW231011   6.926   1.847   6.639
10038SOL     OW31012   6.069   6.910   0.257
10038SOL    HW131013   6.111   6.821   0.272
10038SOL    HW231014   6.072   6.964   0.341
10039SOL     OW31015   3.540   0.830   3.414
10039SOL    HW131016   3.638   0.850   3.417
10039SOL    HW231017   3.524   0.744   3.365
10040SOL     OW31018   5.734   5.068   6.816
10040SOL    HW131019   5.825   5.091   6.781
10040SOL    HW231020   5.734   5.075   6.916
10041SOL     OW31021   3.438   6.310   6.903
10041SOL    HW131022   3.437   6.400   6.859
10041SOL    HW231023   3.392   6.316   6.992
10042SOL     OW31024   6.911   1.517   3.689
10042SOL    HW131025   6.976   1.489   3.758
10042SOL    HW231026   6.943   1.602   3.645
10043SOL     OW31027   6.316   1.730   5.273
10043SOL    HW131028   6.273   1.649   5.234
10043SOL    HW231029   6.263   1.812   5.247
10044SOL     OW31030   2.494   3.200   5.709
10044SOL    HW131031   2.515   3.295   5.684
10044SOL    HW231032   2.508   3.141   5.630
10045SOL     OW31033   4.085   0.598   1.139
10045SOL    HW131034   4.063   0.695   1.140
10045SOL    HW231035   4.120   0.572   1.048
10046SOL     OW31036   2.048   3.858   1.152
10046SOL    HW131037   1.950   3.867   1.135
10046SOL    HW231038   2.079   3.933   1.209
10047SOL     OW31039   0.844   3.267   6.171
10047SOL    HW131040   0.850   3.255   6.270
10047SOL    HW231041   0.830   3.364   6.150
10048SOL     OW31042   6.887   6.522   3.260
10048SOL    HW131043   6.876   6.478   3.170
10048SOL    HW231044   6.798   6.541   3.299
10049SOL     OW31045   0.718   1.762   6.040
10049SOL    HW131046   0.810   1.764   6.002
10049SOL    HW231047   0.685   1.856   6.054
10050SOL     OW31048   4.995   3.752   5.340
10050SOL    HW131049   4.954   3.833   5.381
10050SOL    HW231050   5.093   3.750   5.361
10051SOL     OW31051   0.636   3.979   5.119
10051SOL    HW131052   0.604   3.909   5.183
10051SOL    HW231053   0.560   4.006   5.059
10052SOL     OW31054   1.359   1.257   3.244
10052SOL    HW131055   1.308   1.232   3.162
10052SOL    HW231056   1.295   1.289   3.315
10053SOL     OW31057   4.931   5.043   3.944
10053SOL    HW131058   5.022   5.083   3.933
10053SOL    HW231059   4.873   5.070   3.867
10054SOL     OW31060   5.615   4.511   4.709
10054SOL    HW131061   5.669   4.488   4.789
10054SOL    HW231062   5.528   4.552   4.737
10055SOL     OW31063   6.813   2.611   6.977
10055SOL    HW131064   6.768   2.586   6.891
10055SOL    HW231065   6.753   2.672   0.010
10056SOL     OW31066   5.331   3.316   2.962
10056SOL    HW131067   5.251   3.309   2.904
10056SOL    HW231068   5.414   3.308   2.906
10057SOL     OW31069   5.962   3.763   5.905
10057SOL    HW131070   5.943   3.766   5.806
10057SOL    HW231071   6.028   3.691   5.924
10058SOL     OW31072   6.952   2.874   4.002
10058SOL    HW131073   0.022   2.828   4.011
10058SOL    HW231074   6.958   2.966   4.041
10059SOL     OW31075   5.959   1.528   0.978
10059SOL    HW131076   5.931   1.514   1.073
10059SOL    HW231077   5.882   1.505   0.918
10060SOL     OW31078   2.714   1.622   2.819
10060SOL    HW131079   2.682   1.582   2.734
10060SOL    HW231080   2.699   1.721   2.818
10061SOL     OW31081   4.101   1.305   3.603
10061SOL    HW131082   4.157   1.292   3.685
10061SOL    HW231083   4.060   1.396   3.604
10062SOL     OW31084   0.392   6.889   3.757
10062SOL    HW131085   0.301   6.889   3.798
10062SOL    HW231086   0.390   6.936   3.669
10063SOL     OW31087   2.251   2.086   4.541
10063SOL    HW131088   2.160   2.096   4.583
10063SOL    HW231089   2.276   2.172   4.496
10064SOL     OW31090   3.606   6.292   0.124
10064SOL    HW131091   3.681   6.241   0.165
10064SOL    HW231092   3.579   6.249   0.038
10065SOL     OW31093   1.498   0.628   1.323
10065SOL    HW131094   1.424   0.586   1.377
10065SOL    HW231095   1.573   0.654   1.383
10066SOL     OW31096   0.038   3.571   4.837
10066SOL    HW131097   0.025   3.570   4.936
10066SOL    HW231098   0.119   3.625   4.814
10067SOL     OW31099   0.593   2.887   6.823
10067SOL    HW131100   0.503   2.926   6.846
10067SOL    HW231101   0.604   2.887   6.724
10068SOL     OW31102   1.785   3.547   2.903
10068SOL    HW131103   1.729   3.628   2.888
10068SOL    HW231104   1.799   3.534   3.001
10069SOL     OW31105   3.544   5.135   1.849
10069SOL    HW131106   3.547   5.222   1.799
10069SOL    HW231107   3.506   5.151   1.941
10070SOL     OW31108   2.770   6.077   4.355
10070SOL    HW131109   2.771   6.054   4.452
10070SOL    HW231110   2.705   6.017   4.308
10071SOL     OW31111   0.443   6.395   3.915
10071SOL    HW131112   0.382   6.464   3.954
10071SOL    HW231113   0.464   6.418   3.820
10072SOL     OW31114   0.038   1.438   2.865
10072SOL    HW131115   0.118   1.395   2.906
10072SOL    HW231116   6.974   1.389   2.892
10073SOL     OW31117   6.170   2.795   3.731
10073SOL    HW131118   6.124   2.866   3.785
10073SOL    HW231119   6.109   2.717   3.720
10074SOL     OW31120   1.908   4.948   0.583
10074SOL    HW131121   2.005   4.969   0.576
10074SOL    HW231122   1.868   4.944   0.491
10075SOL     OW31123   2.153   1.417   2.622
10075SOL    HW131124   2.080   1.475   2.659
10075SOL    HW231125   2.133   1.321   2.644
10076SOL     OW31126   4.800   5.355   3.344
10076SOL    HW131127   4.821   5.257   3.344
10076SOL    HW231128   4.884   5.408   3.334
10077SOL     OW31129   6.348   3.492   0.250
10077SOL    HW131130   6.330   3.584   0.286
10077SOL    HW231131   6.367   3.429   0.326
10078SOL     OW31132   6.777   6.152   5.022
10078SOL    HW131133   6.697   6.206   4.995
10078SOL    HW231134   6.826   6.123   4.941
10079SOL     OW31135   5.499   2.811   2.972
10079SOL    HW131136   5.555   2.730   2.991
10079SOL    HW231137   5.482   2.861   3.057
10080SOL     OW31138   5.532   0.921   6.114
10080SOL    HW131139   5.482   0.999   6.153
10080SOL    HW231140   5.481   0.885   6.035
10081SOL     OW31141   1.666   1.886   6.747
10081SOL    HW131142   1.671   1.826   6.667
10081SOL    HW231143   1.620   1.838   6.821
10082SOL     OW31144   1.610   4.783   2.792
10082SOL    HW131145   1.545   4.844   2.836
10082SOL    HW231146   1.560   4.720   2.732
10083SOL     OW31147   3.655   5.096   3.962
10083SOL    HW131148   3.736   5.062   4.010
10083SOL    HW231149   3.611   5.167   4.017
10084SOL     OW31150   0.862   0.466   5.380
10084SOL    HW131151   0.920   0.406   5.436
10084SOL    HW231152   0.920   0.530   5.329
10085SOL     OW31153   4.000   6.782   6.981
10085SOL    HW131154   3.907   6.820   6.986
10085SOL    HW231155   4.057   6.842   6.925
10086SOL     OW31156   6.643   6.489   2.280
10086SOL    HW131157   6.546   6.511   2.277
10086SOL    HW231158   6.686   6.517   2.194
10087SOL     OW31159   0.942   6.798   4.040
10087SOL    HW131160   0.955   6.895   4.058
10087SOL    HW231161   0.954   6.746   4.125
10088SOL     OW31162   0.424   2.832   0.078
10088SOL    HW131163   0.324   2.829   0.071
10088SOL    HW231164   0.458   2.746   0.116
10089SOL     OW31165   4.421   2.035   2.017
10089SOL    HW131166   4.338   1.985   2.042
10089SOL    HW231167   4.438   2.024   1.919
10090SOL     OW31168   1.028   5.040   1.254
10090SOL    HW131169   1.066   5.120   1.208
10090SOL    HW231170   1.090   4.963   1.242
10091SOL     OW31171   6.634   5.188   6.163
10091SOL    HW131172   6.695   5.168   6.087
10091SOL    HW231173   6.667   5.268   6.213
10092SOL     OW31174   0.640   3.074   5.502
10092SOL    HW131175   0.670   3.167   5.481
10092SOL    HW231176   0.571   3.045   5.436
10093SOL     OW31177   5.693   3.651   5.827
10093SOL    HW131178   5.718   3.584   5.757
10093SOL    HW231179   5.775   3.697   5.860
10094SOL     OW31180   3.058   0.153   1.209
10094SOL    HW131181   3.149   0.192   1.196
10094SOL    HW231182   2.997   0.189   1.139
10095SOL     OW31183   5.087   2.507   5.327
10095SOL    HW131184   5.002   2.553   5.354
10095SOL    HW231185   5.109   2.531   5.232
10096SOL     OW31186   4.856   1.007   2.618
10096SOL    HW131187   4.887   1.102   2.617
10096SOL    HW231188   4.932   0.947   2.594
10097SOL     OW31189   1.342   1.369   6.086
10097SOL    HW131190   1.276   1.295   6.079
10097SOL    HW231191   1.323   1.438   6.016
10098SOL     OW31192   3.047   5.863   4.458
10098SOL    HW131193   3.020   5.791   4.394
10098SOL    HW231194   3.108   5.927   4.412
10099SOL     OW31195   0.019   4.154   2.192
10099SOL    HW131196   0.008   4.254   2.192
10099SOL    HW231197   0.093   4.128   2.131
10100SOL     OW31198   5.343   5.233   5.238
10100SOL    HW131199   5.353   5.330   5.261
10100SOL    HW231200   5.246   5.208   5.239
10101SOL     OW31201   1.202   2.400   1.516
10101SOL    HW131202   1.261   2.321   1.532
10101SOL    HW231203   1.165   2.394   1.423
10102SOL     OW31204   6.069   6.554   0.967
10102SOL    HW131205   6.077   6.558   0.867
10102SOL    HW231206   6.119   6.630   1.008
10103SOL     OW31207   0.253   0.064   5.622
10103SOL    HW131208   0.322   0.022   5.564
10103SOL    HW231209   0.294   0.090   5.710
10104SOL     OW31210   2.434   0.533   5.828
10104SOL    HW131211   2.508   0.594   5.799
10104SOL    HW231212   2.465   0.438   5.824
10105SOL     OW31213   2.890   1.238   5.873
10105SOL    HW131214   2.928   1.280   5.791
10105SOL    HW231215   2.893   1.139   5.864
10106SOL     OW31216   5.034   6.125   1.213
10106SOL    HW131217   5.013   6.045   1.157
10106SOL    HW231218   5.124   6.160   1.188
10107SOL     OW31219   5.398   4.524   6.487
10107SOL    HW131220   5.370   4.445   6.540
10107SOL    HW231221   5.336   4.601   6.505
10108SOL     OW31222   1.447   3.311   0.752
10108SOL    HW131223   1.389   3.305   0.671
10108SOL    HW231224   1.406   3.258   0.827
10109SOL     OW31225   0.638   1.376   0.217
10109SOL    HW131226   0.644   1.278   0.199
10109SOL    HW231227   0.731   1.415   0.219
10110SOL     OW31228   4.854   5.682   2.970
10110SOL    HW131229   4.866   5.781   2.962
10110SOL    HW231230   4.796   5.662   3.049
10111SOL     OW31231   1.309   1.869   2.069
10111SOL    HW131232   1.368   1.886   1.990
10111SOL    HW231233   1.360   1.816   2.137
10112SOL     OW31234   6.147   2.599   3.491
10112SOL    HW131235   6.242   2.573   3.508
10112SOL    HW231236   6.098   2.522   3.450
10113SOL     OW31237   4.854   1.359   6.618
10113SOL    HW131238   4.885   1.318   6.532
10113SOL    HW231239   4.932   1.368   6.681
10114SOL     OW31240   4.113   1.738   2.845
10114SOL    HW131241   4.054   1.816   2.868
10114SOL    HW231242   4.091   1.706   2.753
10115SOL     OW31243   3.380   1.569   5.132
10115SOL    HW131244   3.337   1.626   5.202
10115SOL    HW231245   3.480   1.577   5.139
10116SOL     OW31246   6.545   0.605   5.037
10116SOL    HW131247   6.446   0.590   5.040
10116SOL    HW231248   6.584   0.558   4.958
10117SOL     OW31249   6.402   5.429   4.369
10117SOL    HW131250   6.479   5.365   4.377
10117SOL    HW231251   6.437   5.522   4.361
10118SOL     OW31252   3.167   4.829   5.003
10118SOL    HW131253   3.263   4.847   4.981
10118SOL    HW231254   3.119   4.800   4.920
10119SOL     OW31255   0.035   5.329   4.696
10119SOL    HW131256   7.008   5.310   4.609
10119SOL    HW231257   0.085   5.247   4.726
10120SOL     OW31258   1.950   2.944   2.028
10120SOL    HW131259   1.927   3.016   1.963
10120SOL    HW231260   2.028   2.973   2.083
10121SOL     OW31261   6.207   4.438   0.715
10121SOL    HW131262   6.294   4.429   0.666
10121SOL    HW231263   6.225   4.469   0.809
10122SOL     OW31264   0.405   1.883   3.633
10122SOL    HW131265   0.467   1.835   3.695
10122SOL    HW231266   0.317   1.898   3.678
10123SOL     OW31267   5.489   6.120   0.877
10123SOL    HW131268   5.553   6.193   0.852
10123SOL    HW231269   5.397   6.143   0.844
10124SOL     OW31270   0.818   4.511   2.631
10124SOL    HW131271   0.858   4.599   2.607
10124SOL    HW231272   0.769   4.519   2.718
10125SOL     OW31273   1.379   2.124   6.850
10125SOL    HW131274   1.373   2.032   6.812
10125SOL    HW231275   1.474   2.153   6.853
10126SOL     OW31276   6.348   0.381   6.919
10126SOL    HW131277   6.338   0.399   7.017
10126SOL    HW231278   6.388   0.291   6.905
10127SOL     OW31279   2.704   5.209   6.177
10127SOL    HW131280   2.737   5.278   6.242
10127SOL    HW231281   2.606   5.224   6.160
10128SOL     OW31282   3.557   0.449   0.311
10128SOL    HW131283   3.463   0.420   0.290
10128SOL    HW231284   3.560   0.487   0.403
10129SOL     OW31285   6.480   1.191   4.176
10129SOL    HW131286   6.487   1.286   4.208
10129SOL    HW231287   6.558   1.139   4.212
10130SOL     OW31288   1.639   2.308   2.357
10130SOL    HW131289   1.583   2.332   2.437
10130SOL    HW231290   1.684   2.220   2.373
10131SOL     OW31291   1.976   0.581   4.163
10131SOL    HW131292   1.929   0.501   4.124
10131SOL    HW231293   1.935   0.604   4.251
10132SOL     OW31294   0.223   1.069   3.109
10132SOL    HW131295   0.315   1.058   3.147
10132SOL    HW231296   0.209   0.999   3.039
10133SOL     OW31297   4.765   5.974   0.687
10133SOL    HW131298   4.672   5.976   0.724
10133SOL    HW231299   4.784   6.060   0.640
10134SOL     OW31300   6.197   0.869   2.068
10134SOL    HW131301   6.215   0.797   2.135
10134SOL    HW231302   6.107   0.909   2.084
10135SOL     OW31303   5.507   0.477   3.390
10135SOL    HW131304   5.432   0.475   3.324
10135SOL    HW231305   5.586   0.524   3.350
10136SOL     OW31306   4.673   1.759   2.816
10136SOL    HW131307   4.582   1.798   2.828
10136SOL    HW231308   4.670   1.693   2.741
10137SOL     OW31309   0.088   5.944   5.723
10137SOL    HW131310   0.133   5.863   5.761
10137SOL    HW231311   0.005   5.916   5.674
10138SOL     OW31312   5.602   1.127   0.107
10138SOL    HW131313   5.553   1.110   0.192
10138SOL    HW231314   5.641   1.219   0.109
10139SOL     OW31315   3.365   3.511   5.381
10139SOL    HW131316   3.353   3.413   5.396
10139SOL    HW231317   3.292   3.546   5.322
10140SOL     OW31318   0.024   5.455   6.065
10140SOL    HW131319   0.026   5.527   6.134
10140SOL    HW231320   6.953   5.453   6.021
10141SOL     OW31321   2.710   1.473   4.337
10141SOL    HW131322   2.660   1.553   4.305
10141SOL    HW231323   2.798   1.502   4.375
10142SOL     OW31324   6.080   6.441   4.156
10142SOL    HW131325   6.166   6.432   4.107
10142SOL    HW231326   6.092   6.408   4.250
10143SOL     OW31327   5.875   3.040   0.272
10143SOL    HW131328   5.811   3.090   0.330
10143SOL    HW231329   5.887   3.089   0.186
10144SOL     OW31330   3.698   6.453   5.379
10144SOL    HW131331   3.622   6.399   5.341
10144SOL    HW231332   3.742   6.504   5.305
10145SOL     OW31333   5.386   5.936   0.252
10145SOL    HW131334   5.434   5.862   0.205
10145SOL    HW231335   5.382   6.016   0.192
10146SOL     OW31336   0.247   2.587   4.387
10146SOL    HW131337   0.201   2.549   4.468
10146SOL    HW231338   0.232   2.686   4.384
10147SOL     OW31339   4.698   5.678   6.450
10147SOL    HW131340   4.794   5.698   6.468
10147SOL    HW231341   4.690   5.613   6.375
10148SOL     OW31342   0.843   4.766   6.587
10148SOL    HW131343   0.781   4.820   6.530
10148SOL    HW231344   0.808   4.673   6.596
10149SOL     OW31345   4.622   3.952   0.940
10149SOL    HW131346   4.572   3.879   0.987
10149SOL    HW231347   4.557   4.017   0.900
10150SOL     OW31348   4.631   4.160   0.199
10150SOL    HW131349   4.641   4.096   0.275
10150SOL    HW231350   4.714   4.215   0.192
10151SOL     OW31351   6.319   0.053   5.563
10151SOL    HW131352   6.251   0.126   5.564
10151SOL    HW231353   6.342   0.028   5.657
10152SOL     OW31354   5.478   6.690   2.829
10152SOL    HW131355   5.493   6.766   2.892
10152SOL    HW231356   5.524   6.608   2.865
10153SOL     OW31357   5.412   4.500   3.817
10153SOL    HW131358   5.414   4.400   3.806
10153SOL    HW231359   5.332   4.525   3.871
10154SOL     OW31360   4.800   5.173   5.047
10154SOL    HW131361   4.853   5.256   5.032
10154SOL    HW231362   4.771   5.136   4.958
10155SOL     OW31363   4.475   2.190   5.485
10155SOL    HW131364   4.497   2.136   5.567
10155SOL    HW231365   4.415   2.266   5.511
10156SOL     OW31366   5.007   0.914   0.884
10156SOL    HW131367   4.968   0.921   0.976
10156SOL    HW231368   4.935   0.892   0.818
10157SOL     OW31369   0.360   3.164   1.402
10157SOL    HW131370   0.432   3.100   1.375
10157SOL    HW231371   0.335   3.147   1.498
10158SOL     OW31372   5.819   6.329   1.691
10158SOL    HW131373   5.818   6.246   1.747
10158SOL    HW231374   5.820   6.303   1.594
10159SOL     OW31375   3.660   3.259   3.058
10159SOL    HW131376   3.746   3.290   3.098
10159SOL    HW231377   3.660   3.159   3.052
10160SOL     OW31378   2.374   4.329   3.343
10160SOL    HW131379   2.360   4.289   3.253
10160SOL    HW231380   2.297   4.389   3.365
10161SOL     OW31381   4.658   4.217   5.972
10161SOL    HW131382   4.732   4.284   5.969
10161SOL    HW231383   4.593   4.236   5.898
10162SOL     OW31384   1.470   4.037   2.687
10162SOL    HW131385   1.407   4.105   2.725
10162SOL    HW231386   1.508   3.981   2.761
10163SOL     OW31387   0.909   6.490   4.979
10163SOL    HW131388   0.854   6.495   5.062
10163SOL    HW231389   0.849   6.485   4.899
10164SOL     OW31390   0.111   3.224   3.330
10164SOL    HW131391   0.138   3.237   3.425
10164SOL    HW231392   0.086   3.128   3.315
10165SOL     OW31393   6.447   3.417   4.088
10165SOL    HW131394   6.461   3.361   4.007
10165SOL    HW231395   6.535   3.443   4.127
10166SOL     OW31396   1.272   1.941   0.930
10166SOL    HW131397   1.187   1.908   0.890
10166SOL    HW231398   1.335   1.864   0.941
10167SOL     OW31399   1.196   6.474   6.108
10167SOL    HW131400   1.114   6.505   6.060
10167SOL    HW231401   1.263   6.442   6.041
10168SOL     OW31402   5.615   1.475   0.575
10168SOL    HW131403   5.592   1.547   0.642
10168SOL    HW231404   5.607   1.386   0.619
10169SOL     OW31405   6.503   2.981   3.462
10169SOL    HW131406   6.494   2.937   3.372
10169SOL    HW231407   6.459   2.923   3.531
10170SOL     OW31408   6.090   5.872   6.265
10170SOL    HW131409   6.061   5.911   6.178
10170SOL    HW231410   6.131   5.944   6.322
10171SOL     OW31411   1.986   3.362   5.650
10171SOL    HW131412   2.045   3.300   5.597
10171SOL    HW231413   1.917   3.401   5.589
10172SOL     OW31414   6.293   0.159   3.027
10172SOL    HW131415   6.310   0.092   3.100
10172SOL    HW231416   6.196   0.183   3.027
10173SOL     OW31417   3.334   4.914   6.452
10173SOL    HW131418   3.384   4.949   6.373
10173SOL    HW231419   3.345   4.815   6.457
10174SOL     OW31420   4.715   6.189   2.213
10174SOL    HW131421   4.692   6.194   2.116
10174SOL    HW231422   4.641   6.229   2.267
10175SOL     OW31423   0.112   1.951   4.058
10175SOL    HW131424   0.025   1.999   4.056
10175SOL    HW231425   0.185   2.013   4.029
10176SOL     OW31426   6.373   2.833   5.812
10176SOL    HW131427   6.378   2.906   5.880
10176SOL    HW231428   6.333   2.870   5.727
10177SOL     OW31429   2.256   0.771   1.951
10177SOL    HW131430   2.321   0.711   1.997
10177SOL    HW231431   2.298   0.808   1.868
10178SOL     OW31432   1.527   1.215   0.255
10178SOL    HW131433   1.606   1.276   0.246
10178SOL    HW231434   1.557   1.120   0.251
10179SOL     OW31435   0.080   4.336   1.092
10179SOL    HW131436   0.106   4.433   1.098
10179SOL    HW231437   0.157   4.283   1.057
10180SOL     OW31438   3.245   0.024   5.483
10180SOL    HW131439   3.333   0.037   5.437
10180SOL    HW231440   3.252   6.967   5.548
10181SOL     OW31441   0.025   3.942   1.300
10181SOL    HW131442   0.088   3.942   1.223
10181SOL    HW231443   6.995   3.854   1.304
10182SOL     OW31444   4.941   0.980   6.826
10182SOL    HW131445   5.034   1.013   6.843
10182SOL    HW231446   4.936   0.940   6.734
10183SOL     OW31447   6.078   2.358   6.318
10183SOL    HW131448   6.037   2.285   6.263
10183SOL    HW231449   6.092   2.438   6.261
10184SOL     OW31450   5.761   3.696   6.364
10184SOL    HW131451   5.688   3.753   6.401
10184SOL    HW231452   5.813   3.655   6.440
10185SOL     OW31453   3.698   5.654   2.701
10185SOL    HW131454   3.666   5.739   2.660
10185SOL    HW231455   3.751   5.674   2.783
10186SOL     OW31456   4.825   3.620   6.000
10186SOL    HW131457   4.788   3.559   5.931
10186SOL    HW231458   4.846   3.568   6.083
10187SOL     OW31459   2.711   4.876   6.186
10187SOL    HW131460   2.707   4.911   6.279
10187SOL    HW231461   2.778   4.929   6.133
10188SOL     OW31462   2.941   0.090   0.496
10188SOL    HW131463   2.896   0.046   0.419
10188SOL    HW231464   2.876   0.104   0.570
10189SOL     OW31465   0.932   1.660   6.481
10189SOL    HW131466   0.972   1.700   6.563
10189SOL    HW231467   0.906   1.565   6.499
10190SOL     OW31468   3.422   4.950   1.673
10190SOL    HW131469   3.382   4.883   1.736
10190SOL    HW231470   3.434   5.037   1.721
10191SOL     OW31471   5.446   5.882   6.311
10191SOL    HW131472   5.382   5.952   6.281
10191SOL    HW231473   5.433   5.864   6.408
10192SOL     OW31474   2.385   1.868   5.007
10192SOL    HW131475   2.316   1.822   4.951
10192SOL    HW231476   2.462   1.895   4.950
10193SOL     OW31477   4.025   3.812   3.023
10193SOL    HW131478   3.990   3.906   3.031
10193SOL    HW231479   3.978   3.765   2.948
10194SOL     OW31480   3.640   0.304   4.045
10194SOL    HW131481   3.610   0.209   4.035
10194SOL    HW231482   3.637   0.330   4.141
10195SOL     OW31483   4.866   0.193   2.229
10195SOL    HW131484   4.938   0.240   2.178
10195SOL    HW231485   4.903   0.160   2.315
10196SOL     OW31486   5.570   1.622   2.991
10196SOL    HW131487   5.554   1.671   3.077
10196SOL    HW231488   5.517   1.665   2.918
10197SOL     OW31489   6.248   0.672   2.231
10197SOL    HW131490   6.308   0.634   2.161
10197SOL    HW231491   6.286   0.653   2.322
10198SOL     OW31492   3.084   6.520   1.586
10198SOL    HW131493   2.985   6.528   1.602
10198SOL    HW231494   3.132   6.552   1.667
10199SOL     OW31495   0.664   1.626   6.463
10199SOL    HW131496   0.630   1.552   6.406
10199SOL    HW231497   0.763   1.632   6.455
10200SOL     OW31498   5.057   4.417   5.485
10200SOL    HW131499   5.145   4.465   5.482
10200SOL    HW231500   5.070   4.326   5.526
10201SOL     OW31501   0.718   5.519   2.472
10201SOL    HW131502   0.741   5.616   2.482
10201SOL    HW231503   0.802   5.467   2.452
10202SOL     OW31504   1.022   3.414   1.586
10202SOL    HW131505   0.957   3.447   1.655
10202SOL    HW231506   0.990   3.443   1.496
10203SOL     OW31507   2.099   2.969   2.249
10203SOL    HW131508   2.010   2.979   2.294
10203SOL    HW231509   2.150   2.896   2.293
10204SOL     OW31510   3.094   4.660   5.245
10204SOL    HW131511   2.995   4.653   5.240
10204SOL    HW231512   3.128   4.714   5.168
10205SOL     OW31513   5.653   2.067   3.751
10205SOL    HW131514   5.722   2.138   3.766
10205SOL    HW231515   5.589   2.066   3.828
10206SOL     OW31516   5.757   6.810   5.795
10206SOL    HW131517   5.777   6.721   5.754
10206SOL    HW231518   5.742   6.799   5.893
10207SOL     OW31519   2.968   1.114   2.953
10207SOL    HW131520   2.878   1.070   2.954
10207SOL    HW231521   2.995   1.139   3.046
10208SOL     OW31522   5.660   4.831   5.731
10208SOL    HW131523   5.678   4.909   5.792
10208SOL    HW231524   5.678   4.858   5.636
10209SOL     OW31525   6.984   0.237   6.528
10209SOL    HW131526   6.900   0.278   6.490
10209SOL    HW231527   7.003   0.151   6.481
10210SOL     OW31528   5.795   6.393   2.365
10210SOL    HW131529   5.717   6.422   2.421
10210SOL    HW231530   5.852   6.472   2.344
10211SOL     OW31531   3.850   6.040   5.578
10211SOL    HW131532   3.867   6.101   5.500
10211SOL    HW231533   3.795   5.962   5.547
10212SOL     OW31534   0.633   1.323   3.827
10212SOL    HW131535   0.708   1.296   3.887
10212SOL    HW231536   0.602   1.243   3.775
10213SOL     OW31537   6.034   1.785   3.254
10213SOL    HW131538   6.099   1.855   3.224
10213SOL    HW231539   6.084   1.706   3.289
10214SOL     OW31540   6.466   0.947   1.975
10214SOL    HW131541   6.488   1.032   2.022
10214SOL    HW231542   6.379   0.912   2.010
10215SOL     OW31543   3.818   3.464   6.404
10215SOL    HW131544   3.719   3.471   6.405
10215SOL    HW231545   3.858   3.552   6.379
10216SOL     OW31546   5.939   0.161   1.074
10216SOL    HW131547   5.931   0.226   0.998
10216SOL    HW231548   5.933   0.211   1.161
10217SOL     OW31549   2.771   2.263   3.888
10217SOL    HW131550   2.868   2.256   3.864
10217SOL    HW231551   2.740   2.177   3.929
10218SOL     OW31552   1.999   0.893   0.738
10218SOL    HW131553   2.018   0.877   0.642
10218SOL    HW231554   1.925   0.833   0.769
10219SOL     OW31555   0.739   2.809   1.645
10219SOL    HW131556   0.769   2.810   1.740
10219SOL    HW231557   0.650   2.855   1.638
10220SOL     OW31558   4.334   2.008   1.332
10220SOL    HW131559   4.317   2.062   1.250
10220SOL    HW231560   4.267   2.031   1.402
10221SOL     OW31561   2.944   0.786   5.340
10221SOL    HW131562   3.017   0.726   5.306
10221SOL    HW231563   2.856   0.739   5.330
10222SOL     OW31564   1.396   4.378   4.963
10222SOL    HW131565   1.484   4.340   4.936
10222SOL    HW231566   1.334   4.304   4.988
10223SOL     OW31567   1.675   4.732   6.707
10223SOL    HW131568   1.667   4.819   6.755
10223SOL    HW231569   1.649   4.658   6.769
10224SOL     OW31570   0.375   0.274   4.233
10224SOL    HW131571   0.295   0.333   4.240
10224SOL    HW231572   0.374   0.226   4.146
10225SOL     OW31573   6.637   5.832   4.604
10225SOL    HW131574   6.567   5.863   4.668
10225SOL    HW231575   6.703   5.775   4.653
10226SOL     OW31576   2.574   1.082   6.758
10226SOL    HW131577   2.549   1.123   6.846
10226SOL    HW231578   2.618   1.150   6.700
10227SOL     OW31579   4.398   4.203   0.365
10227SOL    HW131580   4.477   4.224   0.308
10227SOL    HW231581   4.343   4.285   0.377
10228SOL     OW31582   0.941   5.051   2.669
10228SOL    HW131583   0.932   5.139   2.718
10228SOL    HW231584   0.852   5.007   2.665
10229SOL     OW31585   0.984   0.222   3.457
10229SOL    HW131586   1.057   0.259   3.515
10229SOL    HW231587   0.973   0.281   3.377
10230SOL     OW31588   5.962   6.712   3.307
10230SOL    HW131589   5.999   6.772   3.236
10230SOL    HW231590   6.025   6.636   3.321
10231SOL     OW31591   5.996   7.001   4.745
10231SOL    HW131592   5.942   6.919   4.764
10231SOL    HW231593   6.042   6.991   4.657
10232SOL     OW31594   3.371   0.789   4.375
10232SOL    HW131595   3.286   0.816   4.419
10232SOL    HW231596   3.385   0.844   4.292
10233SOL     OW31597   4.192   3.221   6.046
10233SOL    HW131598   4.146   3.305   6.018
10233SOL    HW231599   4.177   3.150   5.977
10234SOL     OW31600   5.240   0.182   0.647
10234SOL    HW131601   5.165   0.132   0.689
10234SOL    HW231602   5.233   0.176   0.548
10235SOL     OW31603   5.026   1.627   6.958
10235SOL    HW131604   5.058   1.533   6.954
10235SOL    HW231605   5.064   1.672   0.020
10236SOL     OW31606   2.068   6.627   2.061
10236SOL    HW131607   2.104   6.593   2.148
10236SOL    HW231608   2.005   6.702   2.077
10237SOL     OW31609   6.511   4.428   2.309
10237SOL    HW131610   6.529   4.510   2.362
10237SOL    HW231611   6.430   4.442   2.252
10238SOL     OW31612   3.788   4.503   5.279
10238SOL    HW131613   3.758   4.413   5.247
10238SOL    HW231614   3.874   4.494   5.328
10239SOL     OW31615   0.381   4.147   5.150
10239SOL    HW131616   0.322   4.117   5.075
10239SOL    HW231617   0.411   4.241   5.134
10240SOL     OW31618   1.015   4.415   3.039
10240SOL    HW131619   0.964   4.394   3.123
10240SOL    HW231620   1.092   4.351   3.031
10241SOL     OW31621   0.585   1.285   2.447
10241SOL    HW131622   0.582   1.259   2.350
10241SOL    HW231623   0.637   1.217   2.498
10242SOL     OW31624   0.028   1.300   5.308
10242SOL    HW131625   7.015   1.219   5.357
10242SOL    HW231626   6.986   1.319   5.231
10243SOL     OW31627   0.584   5.401   1.191
10243SOL    HW131628   0.621   5.494   1.187
10243SOL    HW231629   0.610   5.358   1.277
10244SOL     OW31630   2.536   4.854   6.939
10244SOL    HW131631   2.621   4.870   6.889
10244SOL    HW231632   2.487   4.941   6.950
10245SOL     OW31633   1.599   3.186   6.869
10245SOL    HW131634   1.582   3.268   6.815
10245SOL    HW231635   1.547   3.191   6.955
10246SOL     OW31636   2.991   3.754   4.745
10246SOL    HW131637   3.003   3.731   4.841
10246SOL    HW231638   3.069   3.810   4.715
10247SOL     OW31639   0.093   5.107   5.976
10247SOL    HW131640   0.103   5.122   5.878
10247SOL    HW231641   0.045   5.020   5.992
10248SOL     OW31642   3.012   0.463   2.068
10248SOL    HW131643   3.021   0.364   2.079
10248SOL    HW231644   3.095   0.508   2.099
10249SOL     OW31645   4.615   0.555   5.385
10249SOL    HW131646   4.551   0.478   5.383
10249SOL    HW231647   4.618   0.594   5.478
10250SOL     OW31648   6.086   1.251   1.508
10250SOL    HW131649   6.185   1.248   1.518
10250SOL    HW231650   6.061   1.252   1.411
10251SOL     OW31651   3.036   3.044   6.616
10251SOL    HW131652   3.026   2.960   6.669
10251SOL    HW231653   3.063   3.022   6.522
10252SOL     OW31654   6.307   6.396   0.765
10252SOL    HW131655   6.304   6.364   0.860
10252SOL    HW231656   6.313   6.317   0.704
10253SOL     OW31657   4.754   4.821   0.499
10253SOL    HW131658   4.832   4.885   0.502
10253SOL    HW231659   4.708   4.830   0.411
10254SOL     OW31660   3.084   1.542   4.852
10254SOL    HW131661   3.066   1.444   4.862
10254SOL    HW231662   3.105   1.561   4.756
10255SOL     OW31663   1.847   6.199   2.041
10255SOL    HW131664   1.754   6.162   2.033
10255SOL    HW231665   1.911   6.140   1.991
10256SOL     OW31666   4.984   7.012   0.416
10256SOL    HW131667   5.077   0.026   0.404
10256SOL    HW231668   4.923   0.070   0.433
10257SOL     OW31669   1.438   5.158   5.745
10257SOL    HW131670   1.373   5.178   5.819
10257SOL    HW231671   1.495   5.239   5.728
10258SOL     OW31672   4.393   6.339   3.579
10258SOL    HW131673   4.409   6.438   3.572
10258SOL    HW231674   4.477   6.295   3.612
10259SOL     OW31675   6.917   4.738   4.260
10259SOL    HW131676   6.993   4.725   4.196
10259SOL    HW231677   6.929   4.824   4.309
10260SOL     OW31678   0.681   6.317   2.860
10260SOL    HW131679   0.588   6.355   2.858
10260SOL    HW231680   0.676   6.218   2.873
10261SOL     OW31681   0.069   5.416   2.393
10261SOL    HW131682   7.018   5.434   2.324
10261SOL    HW231683   0.027   5.375   2.474
10262SOL     OW31684   3.412   5.002   4.409
10262SOL    HW131685   3.330   4.946   4.415
10262SOL    HW231686   3.387   5.098   4.394
10263SOL     OW31687   4.919   2.072   6.751
10263SOL    HW131688   4.923   1.972   6.757
10263SOL    HW231689   4.931   2.100   6.655
10264SOL     OW31690   5.810   1.435   6.201
10264SOL    HW131691   5.828   1.384   6.117
10264SOL    HW231692   5.713   1.459   6.206
10265SOL     OW31693   3.461   1.735   2.716
10265SOL    HW131694   3.393   1.667   2.744
10265SOL    HW231695   3.542   1.725   2.773
10266SOL     OW31696   3.651   3.799   6.407
10266SOL    HW131697   3.620   3.824   6.498
10266SOL    HW231698   3.583   3.740   6.363
10267SOL     OW31699   6.990   2.004   0.232
10267SOL    HW131700   7.005   1.909   0.257
10267SOL    HW231701   6.899   2.014   0.192
10268SOL     OW31702   5.630   6.181   1.191
10268SOL    HW131703   5.611   6.090   1.156
10268SOL    HW231704   5.610   6.249   1.120
10269SOL     OW31705   2.598   2.005   5.788
10269SOL    HW131706   2.573   2.006   5.885
10269SOL    HW231707   2.515   2.001   5.733
10270SOL     OW31708   2.105   5.895   0.856
10270SOL    HW131709   2.033   5.893   0.787
10270SOL    HW231710   2.188   5.854   0.820
10271SOL     OW31711   3.396   3.592   1.077
10271SOL    HW131712   3.488   3.576   1.043
10271SOL    HW231713   3.331   3.534   1.027
10272SOL     OW31714   1.190   0.881   4.330
10272SOL    HW131715   1.216   0.976   4.313
10272SOL    HW231716   1.243   0.844   4.406
10273SOL     OW31717   3.466   5.829   4.219
10273SOL    HW131718   3.394   5.885   4.258
10273SOL    HW231719   3.426   5.750   4.173
10274SOL     OW31720   1.559   4.893   5.803
10274SOL    HW131721   1.584   4.881   5.899
10274SOL    HW231722   1.508   4.979   5.792
10275SOL     OW31723   0.853   6.468   2.979
10275SOL    HW131724   0.800   6.417   2.911
10275SOL    HW231725   0.808   6.463   3.068
10276SOL     OW31726   0.158   5.654   5.844
10276SOL    HW131727   0.199   5.597   5.915
10276SOL    HW231728   0.064   5.676   5.870
10277SOL     OW31729   2.648   6.549   3.896
10277SOL    HW131730   2.708   6.511   3.966
10277SOL    HW231731   2.572   6.597   3.940
10278SOL     OW31732   6.534   0.427   6.527
10278SOL    HW131733   6.510   0.524   6.516
10278SOL    HW231734   6.516   0.378   6.442
10279SOL     OW31735   3.316   6.972   4.092
10279SOL    HW131736   3.345   0.049   4.094
10279SOL    HW231737   3.297   6.941   4.185
10280SOL     OW31738   1.902   4.294   1.000
10280SOL    HW131739   1.923   4.390   0.983
10280SOL    HW231740   1.869   4.284   1.094
10281SOL     OW31741   4.912   1.536   2.740
10281SOL    HW131742   4.962   1.622   2.727
10281SOL    HW231743   4.932   1.500   2.831
10282SOL     OW31744   0.458   2.525   3.882
10282SOL    HW131745   0.394   2.529   3.958
10282SOL    HW231746   0.548   2.495   3.914
10283SOL     OW31747   1.024   3.330   0.958
10283SOL    HW131748   0.929   3.321   0.930
10283SOL    HW231749   1.077   3.371   0.884
10284SOL     OW31750   5.742   3.860   5.093
10284SOL    HW131751   5.819   3.821   5.143
10284SOL    HW231752   5.673   3.893   5.158
10285SOL     OW31753   4.898   0.186   1.385
10285SOL    HW131754   4.852   0.206   1.299
10285SOL    HW231755   4.977   0.128   1.368
10286SOL     OW31756   3.689   1.133   3.251
10286SOL    HW131757   3.591   1.123   3.232
10286SOL    HW231758   3.734   1.044   3.239
10287SOL     OW31759   1.218   6.652   1.971
10287SOL    HW131760   1.224   6.639   1.872
10287SOL    HW231761   1.262   6.575   2.017
10288SOL     OW31762   5.033   5.540   3.296
10288SOL    HW131763   5.088   5.470   3.342
10288SOL    HW231764   5.092   5.618   3.273
10289SOL     OW31765   3.055   1.484   1.752
10289SOL    HW131766   3.052   1.521   1.659
10289SOL    HW231767   3.112   1.542   1.810
10290SOL     OW31768   3.832   3.465   2.597
10290SOL    HW131769   3.905   3.416   2.644
10290SOL    HW231770   3.820   3.426   2.506
10291SOL     OW31771   3.832   0.849   3.375
10291SOL    HW131772   3.903   0.894   3.429
10291SOL    HW231773   3.844   0.873   3.278
10292SOL     OW31774   0.510   2.209   5.283
10292SOL    HW131775   0.570   2.147   5.232
10292SOL    HW231776   0.512   2.299   5.241
10293SOL     OW31777   1.842   5.869   2.897
10293SOL    HW131778   1.850   5.840   2.801
10293SOL    HW231779   1.745   5.885   2.918
10294SOL     OW31780   5.220   2.337   2.797
10294SOL    HW131781   5.274   2.286   2.729
10294SOL    HW231782   5.168   2.273   2.853
10295SOL     OW31783   6.835   4.717   5.373
10295SOL    HW131784   6.819   4.672   5.285
10295SOL    HW231785   6.843   4.648   5.445
10296SOL     OW31786   5.853   4.375   6.153
10296SOL    HW131787   5.773   4.419   6.114
10296SOL    HW231788   5.927   4.442   6.163
10297SOL     OW31789   2.264   6.423   3.984
10297SOL    HW131790   2.357   6.451   3.958
10297SOL    HW231791   2.260   6.406   4.082
10298SOL     OW31792   4.832   3.972   3.862
10298SOL    HW131793   4.753   4.031   3.854
10298SOL    HW231794   4.845   3.920   3.778
10299SOL     OW31795   4.754   4.200   3.667
10299SOL    HW131796   4.711   4.290   3.674
10299SOL    HW231797   4.752   4.169   3.572
10300SOL     OW31798   1.221   3.637   1.711
10300SOL    HW131799   1.161   3.692   1.653
10300SOL    HW231800   1.291   3.594   1.654
10301SOL     OW31801   5.831   1.331   3.380
10301SOL    HW131802   5.898   1.392   3.337
10301SOL    HW231803   5.739   1.359   3.355
10302SOL     OW31804   1.176   6.368   2.892
10302SOL    HW131805   1.197   6.278   2.930
10302SOL    HW231806   1.083   6.395   2.918
10303SOL     OW31807   3.635   3.422   1.650
10303SOL    HW131808   3.680   3.345   1.695
10303SOL    HW231809   3.684   3.507   1.673
10304SOL     OW31810   6.708   6.528   3.833
10304SOL    HW131811   6.700   6.487   3.924
10304SOL    HW231812   6.776   6.477   3.780
10305SOL     OW31813   1.952   5.621   6.924
10305SOL    HW131814   1.867   5.580   6.958
10305SOL    HW231815   2.026   5.602   6.988
10306SOL     OW31816   4.826   5.602   0.033
10306SOL    HW131817   4.738   5.555   0.028
10306SOL    HW231818   4.899   5.535   0.040
10307SOL     OW31819   1.313   0.727   5.401
10307SOL    HW131820   1.398   0.757   5.445
10307SOL    HW231821   1.244   0.712   5.471
10308SOL     OW31822   3.529   5.006   3.288
10308SOL    HW131823   3.610   5.065   3.285
10308SOL    HW231824   3.495   5.000   3.382
10309SOL     OW31825   5.762   6.734   3.101
10309SOL    HW131826   5.717   6.648   3.074
10309SOL    HW231827   5.822   6.717   3.179
10310SOL     OW31828   2.909   3.542   2.667
10310SOL    HW131829   2.837   3.592   2.619
10310SOL    HW231830   2.995   3.551   2.616
10311SOL     OW31831   0.476   5.747   0.718
10311SOL    HW131832   0.462   5.787   0.809
10311SOL    HW231833   0.574   5.743   0.699
10312SOL     OW31834   3.516   4.781   1.027
10312SOL    HW131835   3.419   4.800   1.015
10312SOL    HW231836   3.564   4.797   0.941
10313SOL     OW31837   4.760   0.173   2.530
10313SOL    HW131838   4.735   0.190   2.434
10313SOL    HW231839   4.849   0.214   2.549
10314SOL     OW31840   6.297   0.329   1.186
10314SOL    HW131841   6.285   0.234   1.158
10314SOL    HW231842   6.209   0.376   1.186
10315SOL     OW31843   6.686   5.788   5.461
10315SOL    HW131844   6.670   5.773   5.363
10315SOL    HW231845   6.599   5.786   5.510
10316SOL     OW31846   0.295   3.675   4.825
10316SOL    HW131847   0.391   3.686   4.850
10316SOL    HW231848   0.282   3.698   4.729
10317SOL     OW31849   4.247   4.850   6.178
10317SOL    HW131850   4.159   4.837   6.223
10317SOL    HW231851   4.319   4.805   6.232
10318SOL     OW31852   6.503   5.071   1.362
10318SOL    HW131853   6.602   5.084   1.367
10318SOL    HW231854   6.484   4.987   1.311
10319SOL     OW31855   0.258   4.769   3.675
10319SOL    HW131856   0.166   4.730   3.677
10319SOL    HW231857   0.326   4.695   3.678
10320SOL     OW31858   0.621   6.344   0.742
10320SOL    HW131859   0.709   6.349   0.696
10320SOL    HW231860   0.555   6.403   0.696
10321SOL     OW31861   4.468   5.541   4.893
10321SOL    HW131862   4.380   5.537   4.847
10321SOL    HW231863   4.480   5.630   4.937
10322SOL     OW31864   6.366   5.277   0.954
10322SOL    HW131865   6.369   5.256   1.052
10322SOL    HW231866   6.438   5.342   0.931
10323SOL     OW31867   5.940   3.282   6.417
10323SOL    HW131868   5.992   3.241   6.342
10323SOL    HW231869   5.899   3.209   6.473
10324SOL     OW31870   3.027   3.597   3.893
10324SOL    HW131871   3.027   3.673   3.958
10324SOL    HW231872   3.121   3.571   3.872
10325SOL     OW31873   6.849   3.413   3.542
10325SOL    HW131874   6.799   3.333   3.510
10325SOL    HW231875   6.904   3.449   3.467
10326SOL     OW31876   4.954   3.122   6.869
10326SOL    HW131877   4.990   3.208   6.905
10326SOL    HW231878   4.933   3.133   6.772
10327SOL     OW31879   1.168   1.155   3.059
10327SOL    HW131880   1.075   1.153   3.093
10327SOL    HW231881   1.185   1.075   3.001
10328SOL     OW31882   6.110   3.650   2.448
10328SOL    HW131883   6.109   3.749   2.436
10328SOL    HW231884   6.021   3.612   2.424
10329SOL     OW31885   3.194   0.570   2.779
10329SOL    HW131886   3.145   0.616   2.706
10329SOL    HW231887   3.195   0.471   2.761
10330SOL     OW31888   3.782   5.133   3.019
10330SOL    HW131889   3.849   5.063   3.044
10330SOL    HW231890   3.710   5.091   2.963
10331SOL     OW31891   5.347   0.765   3.769
10331SOL    HW131892   5.388   0.704   3.837
10331SOL    HW231893   5.281   0.825   3.814
10332SOL     OW31894   0.002   2.103   0.539
10332SOL    HW131895   0.052   2.129   0.456
10332SOL    HW231896   6.974   2.183   0.576
10333SOL     OW31897   6.071   5.079   4.614
10333SOL    HW131898   5.980   5.044   4.593
10333SOL    HW231899   6.071   5.179   4.608
10334SOL     OW31900   2.154   4.892   4.557
10334SOL    HW131901   2.057   4.865   4.558
10334SOL    HW231902   2.211   4.811   4.552
10335SOL     OW31903   2.500   5.421   0.492
10335SOL    HW131904   2.579   5.466   0.451
10335SOL    HW231905   2.485   5.333   0.447
10336SOL     OW31906   4.908   6.881   2.309
10336SOL    HW131907   4.934   6.845   2.399
10336SOL    HW231908   4.954   6.968   2.294
10337SOL     OW31909   0.212   5.311   5.030
10337SOL    HW131910   0.183   5.332   5.123
10337SOL    HW231911   0.264   5.225   5.030
10338SOL     OW31912   2.980   6.855   2.048
10338SOL    HW131913   2.924   6.782   2.008
10338SOL    HW231914   3.044   6.889   1.979
10339SOL     OW31915   3.098   5.964   1.405
10339SOL    HW131916   3.161   5.935   1.332
10339SOL    HW231917   3.108   6.062   1.420
10340SOL     OW31918   2.558   6.036   0.215
10340SOL    HW131919   2.507   6.085   0.285
10340SOL    HW231920   2.650   6.075   0.208
10341SOL     OW31921   1.987   1.746   2.150
10341SOL    HW131922   2.000   1.840   2.120
10341SOL    HW231923   2.032   1.733   2.239
10342SOL     OW31924   2.252   0.022   5.530
10342SOL    HW131925   2.322   0.010   5.601
10342SOL    HW231926   2.261   6.969   5.462
10343SOL     OW31927   2.698   3.782   6.210
10343SOL    HW131928   2.646   3.707   6.169
10343SOL    HW231929   2.635   3.851   6.245
10344SOL     OW31930   4.195   3.533   4.997
10344SOL    HW131931   4.263   3.480   4.946
10344SOL    HW231932   4.152   3.599   4.935
10345SOL     OW31933   2.114   1.454   6.920
10345SOL    HW131934   2.017   1.431   6.910
10345SOL    HW231935   2.134   1.474   7.016
10346SOL     OW31936   4.918   0.115   6.988
10346SOL    HW131937   4.872   0.197   0.003
10346SOL    HW231938   4.877   0.034   0.010
10347SOL     OW31939   5.564   2.053   1.355
10347SOL    HW131940   5.657   2.078   1.327
10347SOL    HW231941   5.524   2.127   1.409
10348SOL     OW31942   5.820   1.286   6.456
10348SOL    HW131943   5.817   1.350   6.379
10348SOL    HW231944   5.876   1.207   6.433
10349SOL     OW31945   6.259   1.327   1.263
10349SOL    HW131946   6.284   1.277   1.346
10349SOL    HW231947   6.284   1.272   1.183
10350SOL     OW31948   3.205   5.955   4.183
10350SOL    HW131949   3.161   5.932   4.096
10350SOL    HW231950   3.141   6.008   4.240
10351SOL     OW31951   5.936   5.339   5.300
10351SOL    HW131952   5.984   5.357   5.386
10351SOL    HW231953   5.967   5.252   5.262
10352SOL     OW31954   5.333   1.847   6.846
10352SOL    HW131955   5.332   1.941   6.811
10352SOL    HW231956   5.300   1.847   6.941
10353SOL     OW31957   0.383   2.925   3.124
10353SOL    HW131958   0.457   2.986   3.095
10353SOL    HW231959   0.405   2.887   3.214
10354SOL     OW31960   0.324   3.758   0.435
10354SOL    HW131961   0.306   3.799   0.524
10354SOL    HW231962   0.239   3.722   0.397
10355SOL     OW31963   1.386   0.157   0.276
10355SOL    HW131964   1.369   0.130   0.181
10355SOL    HW231965   1.484   0.171   0.290
10356SOL     OW31966   6.660   3.525   0.313
10356SOL    HW131967   6.753   3.531   0.349
10356SOL    HW231968   6.649   3.590   0.238
10357SOL     OW31969   1.177   2.730   6.482
10357SOL    HW131970   1.100   2.679   6.519
10357SOL    HW231971   1.252   2.733   6.549
10358SOL     OW31972   1.068   2.848   3.005
10358SOL    HW131973   1.096   2.942   3.026
10358SOL    HW231974   0.969   2.840   3.017
10359SOL     OW31975   5.532   2.033   2.803
10359SOL    HW131976   5.625   2.061   2.828
10359SOL    HW231977   5.474   2.114   2.794
10360SOL     OW31978   5.552   5.084   2.997
10360SOL    HW131979   5.600   5.041   2.920
10360SOL    HW231980   5.477   5.140   2.962
10361SOL     OW31981   1.057   1.279   1.594
10361SOL    HW131982   1.133   1.312   1.650
10361SOL    HW231983   1.076   1.298   1.497
10362SOL     OW31984   1.225   4.724   2.462
10362SOL    HW131985   1.129   4.739   2.484
10362SOL    HW231986   1.264   4.808   2.424
10363SOL     OW31987   5.297   3.260   0.792
10363SOL    HW131988   5.255   3.236   0.880
10363SOL    HW231989   5.392   3.228   0.790
10364SOL     OW31990   5.187   4.643   1.866
10364SOL    HW131991   5.254   4.577   1.834
10364SOL    HW231992   5.101   4.630   1.817
10365SOL     OW31993   5.883   5.404   0.493
10365SOL    HW131994   5.981   5.425   0.498
10365SOL    HW231995   5.836   5.451   0.568
10366SOL     OW31996   4.024   6.467   2.977
10366SOL    HW131997   4.073   6.512   2.902
10366SOL    HW231998   3.949   6.413   2.940
10367SOL     OW31999   6.119   1.783   1.118
10367SOL    HW132000   6.129   1.693   1.160
10367SOL    HW232001   6.210   1.821   1.098
10368SOL     OW32002   2.012   0.399   1.821
10368SOL    HW132003   1.920   0.378   1.856
10368SOL    HW232004   2.042   0.325   1.760
10369SOL     OW32005   3.123   6.447   5.030
10369SOL    HW132006   3.134   6.536   5.075
10369SOL    HW232007   3.182   6.380   5.075
10370SOL     OW32008   0.317   1.826   4.541
10370SOL    HW132009   0.327   1.819   4.442
10370SOL    HW232010   0.323   1.734   4.582
10371SOL     OW32011   3.550   6.274   3.380
10371SOL    HW132012   3.453   6.283   3.355
10371SOL    HW232013   3.572   6.178   3.395
10372SOL     OW32014   2.714   0.278   1.616
10372SOL    HW132015   2.780   0.254   1.546
10372SOL    HW232016   2.623   0.247   1.588
10373SOL     OW32017   6.942   1.805   5.933
10373SOL    HW132018   6.965   1.853   5.848
10373SOL    HW232019   0.008   1.777   5.978
10374SOL     OW32020   3.459   6.859   4.681
10374SOL    HW132021   3.392   6.801   4.727
10374SOL    HW232022   3.448   6.954   4.712
10375SOL     OW32023   3.708   2.816   0.043
10375SOL    HW132024   3.654   2.821   0.126
10375SOL    HW232025   3.673   2.882   6.995
10376SOL     OW32026   1.424   5.877   2.566
10376SOL    HW132027   1.391   5.900   2.475
10376SOL    HW232028   1.524   5.876   2.566
10377SOL     OW32029   0.534   1.650   1.916
10377SOL    HW132030   0.529   1.749   1.929
10377SOL    HW232031   0.580   1.630   1.829
10378SOL     OW32032   0.376   5.328   5.347
10378SOL    HW132033   0.284   5.366   5.344
10378SOL    HW232034   0.391   5.283   5.435
10379SOL     OW32035   2.486   6.702   4.020
10379SOL    HW132036   2.473   6.688   4.118
10379SOL    HW232037   2.490   6.800   4.002
10380SOL     OW32038   1.517   2.685   4.793
10380SOL    HW132039   1.555   2.593   4.789
10380SOL    HW232040   1.537   2.733   4.708
10381SOL     OW32041   4.287   4.431   1.721
10381SOL    HW132042   4.330   4.366   1.784
10381SOL    HW232043   4.321   4.417   1.629
10382SOL     OW32044   3.302   4.845   1.943
10382SOL    HW132045   3.351   4.758   1.931
10382SOL    HW232046   3.234   4.835   2.016
10383SOL     OW32047   1.923   5.082   0.130
10383SOL    HW132048   1.832   5.123   0.129
10383SOL    HW232049   1.970   5.105   0.045
10384SOL     OW32050   6.112   6.347   1.135
10384SOL    HW132051   6.108   6.263   1.082
10384SOL    HW232052   6.103   6.426   1.074
10385SOL     OW32053   3.488   5.149   6.072
10385SOL    HW132054   3.526   5.084   6.138
10385SOL    HW232055   3.407   5.192   6.112
10386SOL     OW32056   0.170   1.126   6.908
10386SOL    HW132057   0.255   1.155   6.864
10386SOL    HW232058   0.190   1.092   7.000
10387SOL     OW32059   4.839   3.073   3.159
10387SOL    HW132060   4.762   3.012   3.138
10387SOL    HW232061   4.920   3.018   3.180
10388SOL     OW32062   2.949   0.982   5.774
10388SOL    HW132063   2.986   0.894   5.804
10388SOL    HW232064   2.978   1.001   5.680
10389SOL     OW32065   6.633   3.710   0.100
10389SOL    HW132066   6.560   3.731   0.164
10389SOL    HW232067   6.629   3.772   0.022
10390SOL     OW32068   2.279   2.034   0.836
10390SOL    HW132069   2.326   2.011   0.751
10390SOL    HW232070   2.323   2.113   0.878
10391SOL     OW32071   0.630   6.073   3.614
10391SOL    HW132072   0.654   6.122   3.698
10391SOL    HW232073   0.546   6.111   3.576
10392SOL     OW32074   6.911   5.040   4.948
10392SOL    HW132075   6.871   5.131   4.932
10392SOL    HW232076   6.929   4.996   4.860
10393SOL     OW32077   2.145   3.758   4.204
10393SOL    HW132078   2.077   3.687   4.188
10393SOL    HW232079   2.104   3.848   4.192
10394SOL     OW32080   2.748   6.495   4.148
10394SOL    HW132081   2.689   6.431   4.198
10394SOL    HW232082   2.841   6.490   4.185
10395SOL     OW32083   0.388   6.592   1.357
10395SOL    HW132084   0.342   6.658   1.298
10395SOL    HW232085   0.449   6.535   1.302
10396SOL     OW32086   3.531   1.995   3.933
10396SOL    HW132087   3.556   2.067   3.869
10396SOL    HW232088   3.539   2.029   4.027
10397SOL     OW32089   3.102   2.157   2.990
10397SOL    HW132090   3.187   2.120   3.026
10397SOL    HW232091   3.036   2.083   2.976
10398SOL     OW32092   6.791   2.941   0.961
10398SOL    HW132093   6.769   2.870   1.028
10398SOL    HW232094   6.828   3.021   1.007
10399SOL     OW32095   5.448   2.417   2.988
10399SOL    HW132096   5.537   2.456   2.966
10399SOL    HW232097   5.393   2.410   2.905
10400SOL     OW32098   4.218   6.980   0.149
10400SOL    HW132099   4.234   7.008   0.055
10400SOL    HW232100   4.130   7.014   0.180
10401SOL     OW32101   5.960   0.868   3.888
10401SOL    HW132102   6.021   0.871   3.808
10401SOL    HW232103   5.866   0.854   3.858
10402SOL     OW32104   6.568   3.080   5.018
10402SOL    HW132105   6.551   3.105   4.923
10402SOL    HW232106   6.629   3.148   5.060
10403SOL     OW32107   3.783   1.209   3.502
10403SOL    HW132108   3.750   1.173   3.415
10403SOL    HW232109   3.867   1.160   3.528
10404SOL     OW32110   6.385   6.957   5.084
10404SOL    HW132111   6.293   6.995   5.084
10404SOL    HW232112   6.452   0.011   5.095
10405SOL     OW32113   0.218   1.608   5.745
10405SOL    HW132114   0.139   1.656   5.783
10405SOL    HW232115   0.187   1.545   5.673
10406SOL     OW32116   3.215   5.227   2.797
10406SOL    HW132117   3.133   5.274   2.830
10406SOL    HW232118   3.229   5.143   2.849
10407SOL     OW32119   3.223   6.555   5.983
10407SOL    HW132120   3.192   6.460   5.993
10407SOL    HW232121   3.322   6.559   5.994
10408SOL     OW32122   4.412   0.261   0.900
10408SOL    HW132123   4.449   0.226   0.986
10408SOL    HW232124   4.434   0.358   0.890
10409SOL     OW32125   6.946   4.582   1.267
10409SOL    HW132126   0.017   4.547   1.241
10409SOL    HW232127   6.875   4.526   1.224
10410SOL     OW32128   5.772   1.247   6.859
10410SOL    HW132129   5.762   1.259   6.957
10410SOL    HW232130   5.830   1.319   6.821
10411SOL     OW32131   4.056   6.761   3.403
10411SOL    HW132132   4.082   6.742   3.309
10411SOL    HW232133   4.044   6.674   3.453
10412SOL     OW32134   6.515   0.998   0.775
10412SOL    HW132135   6.537   0.970   0.868
10412SOL    HW232136   6.587   1.057   0.739
10413SOL     OW32137   6.010   2.655   0.651
10413SOL    HW132138   6.055   2.569   0.626
10413SOL    HW232139   6.016   2.667   0.750
10414SOL     OW32140   3.941   4.155   5.460
10414SOL    HW132141   3.988   4.239   5.487
10414SOL    HW232142   3.851   4.178   5.424
10415SOL     OW32143   0.680   4.048   4.641
10415SOL    HW132144   0.666   4.139   4.603
10415SOL    HW232145   0.741   3.996   4.581
10416SOL     OW32146   6.557   0.536   3.625
10416SOL    HW132147   6.463   0.505   3.608
10416SOL    HW232148   6.600   0.559   3.538
10417SOL     OW32149   3.548   5.275   4.540
10417SOL    HW132150   3.523   5.360   4.494
10417SOL    HW232151   3.470   5.239   4.590
10418SOL     OW32152   0.208   4.751   6.438
10418SOL    HW132153   0.202   4.711   6.529
10418SOL    HW232154   0.167   4.842   6.439
10419SOL     OW32155   1.180   6.980   6.235
10419SOL    HW132156   1.119   0.040   6.223
10419SOL    HW232157   1.159   6.934   6.321
10420SOL     OW32158   7.007   3.726   2.984
10420SOL    HW132159   0.058   3.777   3.034
10420SOL    HW232160   0.011   3.629   2.986
10421SOL     OW32161   0.067   2.085   3.533
10421SOL    HW132162   6.993   2.098   3.498
10421SOL    HW232163   0.073   1.998   3.582
10422SOL     OW32164   5.936   2.956   5.758
10422SOL    HW132165   5.971   2.865   5.738
10422SOL    HW232166   6.013   3.019   5.770
10423SOL     OW32167   5.421   4.927   4.813
10423SOL    HW132168   5.331   4.909   4.775
10423SOL    HW232169   5.422   5.018   4.856
10424SOL     OW32170   6.083   2.927   0.386
10424SOL    HW132171   5.993   2.967   0.369
10424SOL    HW232172   6.145   2.951   0.311
10425SOL     OW32173   1.669   6.935   2.045
10425SOL    HW132174   1.608   6.990   1.988
10425SOL    HW232175   1.690   6.984   2.130
10426SOL     OW32176   6.833   4.785   0.888
10426SOL    HW132177   6.823   4.873   0.843
10426SOL    HW232178   6.788   4.788   0.978
10427SOL     OW32179   3.832   1.175   0.005
10427SOL    HW132180   3.838   1.216   6.933
10427SOL    HW232181   3.739   1.142   0.022
10428SOL     OW32182   2.684   1.313   3.927
10428SOL    HW132183   2.722   1.349   3.842
10428SOL    HW232184   2.734   1.351   4.005
10429SOL     OW32185   7.014   5.600   0.741
10429SOL    HW132186   0.056   5.524   0.717
10429SOL    HW232187   0.047   5.671   0.788
10430SOL     OW32188   3.974   6.198   3.791
10430SOL    HW132189   4.034   6.127   3.753
10430SOL    HW232190   3.962   6.181   3.889
10431SOL     OW32191   3.328   5.946   4.543
10431SOL    HW132192   3.421   5.918   4.520
10431SOL    HW232193   3.322   5.967   4.640
10432SOL     OW32194   5.776   0.463   4.731
10432SOL    HW132195   5.718   0.482   4.651
10432SOL    HW232196   5.755   0.372   4.766
10433SOL     OW32197   1.581   0.072   1.123
10433SOL    HW132198   1.665   0.066   1.070
10433SOL    HW232199   1.517   0.135   1.077
10434SOL     OW32200   4.122   0.202   3.382
10434SOL    HW132201   4.133   0.126   3.445
10434SOL    HW232202   4.188   0.194   3.307
10435SOL     OW32203   6.772   6.946   4.709
10435SOL    HW132204   6.837   6.871   4.697
10435SOL    HW232205   6.680   6.912   4.689
10436SOL     OW32206   0.932   4.879   5.696
10436SOL    HW132207   0.979   4.962   5.725
10436SOL    HW232208   0.998   4.807   5.677
10437SOL     OW32209   6.033   4.721   5.890
10437SOL    HW132210   6.039   4.705   5.988
10437SOL    HW232211   6.117   4.764   5.857
10438SOL     OW32212   5.718   6.289   0.097
10438SOL    HW132213   5.654   6.337   0.157
10438SOL    HW232214   5.809   6.331   0.105
10439SOL     OW32215   3.747   1.378   5.957
10439SOL    HW132216   3.829   1.371   5.900
10439SOL    HW232217   3.696   1.460   5.930
10440SOL     OW32218   1.888   6.285   0.340
10440SOL    HW132219   1.984   6.311   0.343
10440SOL    HW232220   1.859   6.252   0.430
10441SOL     OW32221   4.387   1.251   0.272
10441SOL    HW132222   4.414   1.301   0.190
10441SOL    HW232223   4.459   1.258   0.341
10442SOL     OW32224   3.237   6.298   6.060
10442SOL    HW132225   3.234   6.315   6.158
10442SOL    HW232226   3.322   6.249   6.037
10443SOL     OW32227   5.075   3.771   4.820
10443SOL    HW132228   5.138   3.708   4.865
10443SOL    HW232229   4.981   3.748   4.845
10444SOL     OW32230   4.061   6.322   4.634
10444SOL    HW132231   3.999   6.271   4.574
10444SOL    HW232232   4.078   6.268   4.717
10445SOL     OW32233   0.504   5.490   4.066
10445SOL    HW132234   0.539   5.563   4.125
10445SOL    HW232235   0.489   5.408   4.120
10446SOL     OW32236   1.125   3.164   5.845
10446SOL    HW132237   1.193   3.227   5.882
10446SOL    HW232238   1.135   3.075   5.889
10447SOL     OW32239   6.649   1.402   2.199
10447SOL    HW132240   6.731   1.373   2.150
10447SOL    HW232241   6.645   1.501   2.203
10448SOL     OW32242   4.231   2.296   1.918
10448SOL    HW132243   4.164   2.225   1.898
10448SOL    HW232244   4.213   2.376   1.862
10449SOL     OW32245   2.026   5.472   4.739
10449SOL    HW132246   2.071   5.506   4.657
10449SOL    HW232247   1.938   5.517   4.750
10450SOL     OW32248   0.560   2.154   0.615
10450SOL    HW132249   0.585   2.244   0.650
10450SOL    HW232250   0.533   2.095   0.692
10451SOL     OW32251   2.011   5.078   2.882
10451SOL    HW132252   1.995   4.984   2.913
10451SOL    HW232253   2.107   5.089   2.855
10452SOL     OW32254   6.142   3.536   3.716
10452SOL    HW132255   6.115   3.528   3.812
10452SOL    HW232256   6.138   3.632   3.688
10453SOL     OW32257   5.317   6.059   1.871
10453SOL    HW132258   5.370   6.069   1.955
10453SOL    HW232259   5.269   6.145   1.852
10454SOL     OW32260   5.021   2.723   1.333
10454SOL    HW132261   4.993   2.689   1.423
10454SOL    HW232262   5.002   2.821   1.326
10455SOL     OW32263   0.293   4.838   2.582
10455SOL    HW132264   0.252   4.782   2.510
10455SOL    HW232265   0.387   4.808   2.597
10456SOL     OW32266   3.437   6.135   1.881
10456SOL    HW132267   3.360   6.188   1.846
10456SOL    HW232268   3.484   6.186   1.953
10457SOL     OW32269   3.534   2.950   2.531
10457SOL    HW132270   3.491   2.947   2.621
10457SOL    HW232271   3.624   2.992   2.538
10458SOL     OW32272   0.224   0.349   0.052
10458SOL    HW132273   0.130   0.384   0.054
10458SOL    HW232274   0.254   0.327   0.145
10459SOL     OW32275   5.329   5.248   2.917
10459SOL    HW132276   5.266   5.313   2.958
10459SOL    HW232277   5.279   5.183   2.861
10460SOL     OW32278   2.429   5.749   1.256
10460SOL    HW132279   2.461   5.799   1.176
10460SOL    HW232280   2.437   5.650   1.239
10461SOL     OW32281   1.264   6.325   5.617
10461SOL    HW132282   1.338   6.377   5.574
10461SOL    HW232283   1.230   6.374   5.696
10462SOL     OW32284   5.410   1.830   2.388
10462SOL    HW132285   5.316   1.809   2.361
10462SOL    HW232286   5.464   1.852   2.307
10463SOL     OW32287   3.606   3.418   5.833
10463SOL    HW132288   3.646   3.509   5.841
10463SOL    HW232289   3.567   3.391   5.921
10464SOL     OW32290   5.221   0.174   0.375
10464SOL    HW132291   5.190   0.181   0.280
10464SOL    HW232292   5.308   0.125   0.377
10465SOL     OW32293   6.367   6.787   0.672
10465SOL    HW132294   6.421   6.869   0.690
10465SOL    HW232295   6.283   6.790   0.726
10466SOL     OW32296   4.627   5.260   5.230
10466SOL    HW132297   4.688   5.222   5.160
10466SOL    HW232298   4.669   5.248   5.320
10467SOL     OW32299   1.412   1.992   5.423
10467SOL    HW132300   1.404   1.999   5.324
10467SOL    HW232301   1.478   2.059   5.456
10468SOL     OW32302   3.677   6.133   3.661
10468SOL    HW132303   3.640   6.100   3.574
10468SOL    HW232304   3.773   6.107   3.669
10469SOL     OW32305   3.554   3.876   0.882
10469SOL    HW132306   3.465   3.909   0.911
10469SOL    HW232307   3.545   3.784   0.845
10470SOL     OW32308   1.999   2.035   2.696
10470SOL    HW132309   1.968   2.121   2.737
10470SOL    HW232310   2.002   1.964   2.766
10471SOL     OW32311   2.421   3.210   1.145
10471SOL    HW132312   2.372   3.188   1.229
10471SOL    HW232313   2.432   3.127   1.090
10472SOL     OW32314   3.572   6.322   1.504
10472SOL    HW132315   3.499   6.265   1.467
10472SOL    HW232316   3.661   6.285   1.476
10473SOL     OW32317   5.347   6.977   0.854
10473SOL    HW132318   5.368   0.053   0.831
10473SOL    HW232319   5.264   6.973   0.908
10474SOL     OW32320   5.089   0.517   4.553
10474SOL    HW132321   5.090   0.459   4.634
10474SOL    HW232322   5.032   0.598   4.571
10475SOL     OW32323   4.789   6.527   1.305
10475SOL    HW132324   4.888   6.520   1.317
10475SOL    HW232325   4.763   6.623   1.296
10476SOL     OW32326   0.290   5.183   6.475
10476SOL    HW132327   0.273   5.280   6.457
10476SOL    HW232328   0.273   5.130   6.391
10477SOL     OW32329   6.169   3.019   4.870
10477SOL    HW132330   6.241   2.958   4.839
10477SOL    HW232331   6.207   3.089   4.930
10478SOL     OW32332   0.643   0.186   6.984
10478SOL    HW132333   0.558   0.138   7.006
10478SOL    HW232334   0.643   0.277   0.008
10479SOL     OW32335   1.110   2.373   1.247
10479SOL    HW132336   1.141   2.420   1.164
10479SOL    HW232337   1.021   2.331   1.230
10480SOL     OW32338   5.360   0.298   0.888
10480SOL    HW132339   5.303   0.257   0.817
10480SOL    HW232340   5.318   0.384   0.918
10481SOL     OW32341   3.104   1.158   4.494
10481SOL    HW132342   3.119   1.174   4.591
10481SOL    HW232343   3.128   1.240   4.442
10482SOL     OW32344   0.881   5.958   4.278
10482SOL    HW132345   0.966   5.930   4.233
10482SOL    HW232346   0.900   6.036   4.339
10483SOL     OW32347   6.532   5.197   0.174
10483SOL    HW132348   6.555   5.192   0.271
10483SOL    HW232349   6.472   5.275   0.158
10484SOL     OW32350   6.845   0.398   0.895
10484SOL    HW132351   6.804   0.461   0.829
10484SOL    HW232352   6.772   0.349   0.944
10485SOL     OW32353   3.923   3.797   3.340
10485SOL    HW132354   3.826   3.786   3.363
10485SOL    HW232355   3.934   3.801   3.241
10486SOL     OW32356   5.874   0.584   5.884
10486SOL    HW132357   5.851   0.580   5.981
10486SOL    HW232358   5.854   0.675   5.848
10487SOL     OW32359   4.731   1.744   1.429
10487SOL    HW132360   4.672   1.824   1.416
10487SOL    HW232361   4.719   1.709   1.522
10488SOL     OW32362   1.000   1.808   6.007
10488SOL    HW132363   1.070   1.865   5.965
10488SOL    HW232364   1.004   1.816   6.106
10489SOL     OW32365   5.672   5.738   3.505
10489SOL    HW132366   5.693   5.640   3.506
10489SOL    HW232367   5.721   5.784   3.579
10490SOL     OW32368   5.863   0.253   0.401
10490SOL    HW132369   5.907   0.316   0.337
10490SOL    HW232370   5.769   0.235   0.371
10491SOL     OW32371   1.744   2.802   6.428
10491SOL    HW132372   1.782   2.868   6.493
10491SOL    HW232373   1.671   2.751   6.473
10492SOL     OW32374   3.735   6.398   0.487
10492SOL    HW132375   3.775   6.351   0.567
10492SOL    HW232376   3.763   6.494   0.487
10493SOL     OW32377   3.997   5.696   0.923
10493SOL    HW132378   4.072   5.631   0.926
10493SOL    HW232379   3.910   5.648   0.938
10494SOL     OW32380   0.793   4.781   5.948
10494SOL    HW132381   0.738   4.698   5.943
10494SOL    HW232382   0.813   4.813   5.855
10495SOL     OW32383   6.733   6.045   6.744
10495SOL    HW132384   6.674   6.126   6.750
10495SOL    HW232385   6.679   5.963   6.761
10496SOL     OW32386   6.772   3.818   5.471
10496SOL    HW132387   6.720   3.900   5.496
10496SOL    HW232388   6.799   3.823   5.375
10497SOL     OW32389   1.578   6.964   1.627
10497SOL    HW132390   1.575   6.874   1.583
10497SOL    HW232391   1.598   0.015   1.559
10498SOL     OW32392   5.245   6.218   1.070
10498SOL    HW132393   5.332   6.170   1.065
10498SOL    HW232394   5.258   6.314   1.045
10499SOL     OW32395   5.860   5.715   1.352
10499SOL    HW132396   5.869   5.645   1.423
10499SOL    HW232397   5.771   5.705   1.307
10500SOL     OW32398   5.274   3.482   4.931
10500SOL    HW132399   5.245   3.535   5.011
10500SOL    HW232400   5.195   3.439   4.889
10501SOL     OW32401   2.327   5.811   2.346
10501SOL    HW132402   2.337   5.883   2.415
10501SOL    HW232403   2.237   5.769   2.354
10502SOL     OW32404   2.944   3.012   1.485
10502SOL    HW132405   2.964   3.110   1.478
10502SOL    HW232406   2.876   2.987   1.416
10503SOL     OW32407   6.421   3.747   6.903
10503SOL    HW132408   6.354   3.758   6.830
10503SOL    HW232409   6.409   3.658   6.947
10504SOL     OW32410   1.545   2.650   5.800
10504SOL    HW132411   1.483   2.703   5.858
10504SOL    HW232412   1.500   2.565   5.773
10505SOL     OW32413   5.864   5.858   2.270
10505SOL    HW132414   5.937   5.804   2.311
10505SOL    HW232415   5.805   5.799   2.214
10506SOL     OW32416   1.029   3.405   0.496
10506SOL    HW132417   0.989   3.493   0.471
10506SOL    HW232418   1.113   3.420   0.547
10507SOL     OW32419   2.626   4.675   0.120
10507SOL    HW132420   2.615   4.759   0.067
10507SOL    HW232421   2.719   4.672   0.158
10508SOL     OW32422   1.059   5.630   4.291
10508SOL    HW132423   1.150   5.637   4.332
10508SOL    HW232424   1.043   5.708   4.231
10509SOL     OW32425   5.108   3.192   4.540
10509SOL    HW132426   5.050   3.270   4.515
10509SOL    HW232427   5.134   3.200   4.636
10510SOL     OW32428   5.081   6.491   5.661
10510SOL    HW132429   5.028   6.486   5.576
10510SOL    HW232430   5.156   6.555   5.649
10511SOL     OW32431   3.134   1.227   1.774
10511SOL    HW132432   3.055   1.167   1.764
10511SOL    HW232433   3.104   1.322   1.780
10512SOL     OW32434   4.542   6.765   5.967
10512SOL    HW132435   4.488   6.814   5.899
10512SOL    HW232436   4.623   6.819   5.990
10513SOL     OW32437   6.227   2.875   2.282
10513SOL    HW132438   6.277   2.925   2.211
10513SOL    HW232439   6.132   2.906   2.285
10514SOL     OW32440   2.248   1.872   1.069
10514SOL    HW132441   2.239   1.934   0.991
10514SOL    HW232442   2.328   1.813   1.055
10515SOL     OW32443   2.414   2.298   4.162
10515SOL    HW132444   2.475   2.223   4.187
10515SOL    HW232445   2.407   2.362   4.238
10516SOL     OW32446   2.914   1.799   0.335
10516SOL    HW132447   3.011   1.810   0.354
10516SOL    HW232448   2.865   1.779   0.420
10517SOL     OW32449   1.755   3.966   2.714
10517SOL    HW132450   1.714   4.044   2.666
10517SOL    HW232451   1.838   3.996   2.762
10518SOL     OW32452   0.481   5.221   2.460
10518SOL    HW132453   0.394   5.171   2.461
10518SOL    HW232454   0.556   5.159   2.484
10519SOL     OW32455   2.989   5.168   1.674
10519SOL    HW132456   3.064   5.189   1.738
10519SOL    HW232457   2.993   5.071   1.651
10520SOL     OW32458   6.459   1.692   6.360
10520SOL    HW132459   6.544   1.646   6.331
10520SOL    HW232460   6.386   1.669   6.296
10521SOL     OW32461   6.476   4.240   1.496
10521SOL    HW132462   6.390   4.198   1.467
10521SOL    HW232463   6.495   4.320   1.438
10522SOL     OW32464   6.877   2.236   3.341
10522SOL    HW132465   6.818   2.277   3.271
10522SOL    HW232466   6.967   2.219   3.302
10523SOL     OW32467   0.406   4.026   3.800
10523SOL    HW132468   0.452   4.080   3.870
10523SOL    HW232469   0.311   4.010   3.827
10524SOL     OW32470   7.005   4.686   3.757
10524SOL    HW132471   6.962   4.719   3.673
10524SOL    HW232472   6.944   4.620   3.801
10525SOL     OW32473   4.728   0.869   4.758
10525SOL    HW132474   4.767   0.898   4.846
10525SOL    HW232475   4.639   0.912   4.744
10526SOL     OW32476   0.234   5.992   1.179
10526SOL    HW132477   0.256   6.085   1.151
10526SOL    HW232478   0.198   5.992   1.272
10527SOL     OW32479   0.144   0.924   6.064
10527SOL    HW132480   0.148   0.913   5.964
10527SOL    HW232481   0.230   0.962   6.096
10528SOL     OW32482   0.483   4.568   6.995
10528SOL    HW132483   0.409   4.523   0.025
10528SOL    HW232484   0.460   4.576   6.898
10529SOL     OW32485   1.362   6.003   5.229
10529SOL    HW132486   1.353   5.985   5.327
10529SOL    HW232487   1.430   6.074   5.214
10530SOL     OW32488   1.307   6.567   6.342
10530SOL    HW132489   1.254   6.549   6.425
10530SOL    HW232490   1.263   6.523   6.264
10531SOL     OW32491   2.969   2.395   5.293
10531SOL    HW132492   2.984   2.490   5.321
10531SOL    HW232493   3.046   2.364   5.237
10532SOL     OW32494   5.918   6.907   6.836
10532SOL    HW132495   5.916   6.936   6.741
10532SOL    HW232496   5.952   6.813   6.842
10533SOL     OW32497   2.956   6.029   4.013
10533SOL    HW132498   3.000   6.109   4.053
10533SOL    HW232499   2.923   6.052   3.922
10534SOL     OW32500   0.434   5.517   2.567
10534SOL    HW132501   0.380   5.509   2.483
10534SOL    HW232502   0.531   5.518   2.545
10535SOL     OW32503   2.507   1.374   1.802
10535SOL    HW132504   2.560   1.396   1.883
10535SOL    HW232505   2.563   1.319   1.740
10536SOL     OW32506   4.371   0.393   3.355
10536SOL    HW132507   4.354   0.339   3.438
10536SOL    HW232508   4.333   0.345   3.276
10537SOL     OW32509   4.501   6.640   3.511
10537SOL    HW132510   4.505   6.579   3.432
10537SOL    HW232511   4.484   6.734   3.480
10538SOL     OW32512   5.964   3.925   2.533
10538SOL    HW132513   6.060   3.938   2.510
10538SOL    HW232514   5.956   3.891   2.627
10539SOL     OW32515   6.104   5.723   2.358
10539SOL    HW132516   6.126   5.745   2.262
10539SOL    HW232517   6.180   5.752   2.417
10540SOL     OW32518   2.492   3.823   5.960
10540SOL    HW132519   2.574   3.876   5.939
10540SOL    HW232520   2.452   3.857   6.045
10541SOL     OW32521   3.018   3.170   4.761
10541SOL    HW132522   2.928   3.164   4.805
10541SOL    HW232523   3.066   3.083   4.770
10542SOL     OW32524   6.223   0.346   4.716
10542SOL    HW132525   6.171   0.298   4.645
10542SOL    HW232526   6.241   0.440   4.687
10543SOL     OW32527   6.520   2.255   5.702
10543SOL    HW132528   6.578   2.175   5.682
10543SOL    HW232529   6.502   2.258   5.800
10544SOL     OW32530   1.355   0.769   3.662
10544SOL    HW132531   1.301   0.705   3.607
10544SOL    HW232532   1.404   0.832   3.602
10545SOL     OW32533   1.155   3.063   2.532
10545SOL    HW132534   1.089   3.027   2.598
10545SOL    HW232535   1.156   3.005   2.450
10546SOL     OW32536   2.830   6.708   1.148
10546SOL    HW132537   2.763   6.695   1.221
10546SOL    HW232538   2.915   6.660   1.172
10547SOL     OW32539   4.991   0.296   4.276
10547SOL    HW132540   5.084   0.283   4.311
10547SOL    HW232541   4.979   0.391   4.246
10548SOL     OW32542   0.510   4.866   4.740
10548SOL    HW132543   0.556   4.950   4.711
10548SOL    HW232544   0.413   4.871   4.714
10549SOL     OW32545   0.294   1.785   0.453
10549SOL    HW132546   0.344   1.715   0.504
10549SOL    HW232547   0.227   1.829   0.512
10550SOL     OW32548   4.035   6.700   3.126
10550SOL    HW132549   4.011   6.613   3.081
10550SOL    HW232550   4.044   6.772   3.057
10551SOL     OW32551   2.482   2.033   6.053
10551SOL    HW132552   2.550   1.980   6.105
10551SOL    HW232553   2.392   1.993   6.067
10552SOL     OW32554   3.004   1.006   4.157
10552SOL    HW132555   2.908   0.991   4.177
10552SOL    HW232556   3.025   0.975   4.065
10553SOL     OW32557   6.835   5.324   0.928
10553SOL    HW132558   6.921   5.372   0.947
10553SOL    HW232559   6.765   5.390   0.900
10554SOL     OW32560   6.125   4.598   2.591
10554SOL    HW132561   6.191   4.604   2.516
10554SOL    HW232562   6.139   4.513   2.641
10555SOL     OW32563   2.696   2.488   0.676
10555SOL    HW132564   2.777   2.450   0.719
10555SOL    HW232565   2.635   2.414   0.647
10556SOL     OW32566   2.637   1.374   3.058
10556SOL    HW132567   2.674   1.316   3.131
10556SOL    HW232568   2.645   1.327   2.970
10557SOL     OW32569   1.763   3.450   4.989
10557SOL    HW132570   1.708   3.367   4.991
10557SOL    HW232571   1.730   3.511   4.917
10558SOL     OW32572   3.643   4.585   5.543
10558SOL    HW132573   3.579   4.541   5.606
10558SOL    HW232574   3.663   4.523   5.468
10559SOL     OW32575   3.033   1.179   0.699
10559SOL    HW132576   3.129   1.197   0.678
10559SOL    HW232577   3.019   1.082   0.718
10560SOL     OW32578   4.567   6.201   1.985
10560SOL    HW132579   4.595   6.166   1.896
10560SOL    HW232580   4.576   6.300   1.986
10561SOL     OW32581   4.814   4.513   2.095
10561SOL    HW132582   4.816   4.416   2.117
10561SOL    HW232583   4.901   4.541   2.055
10562SOL     OW32584   3.128   6.692   1.065
10562SOL    HW132585   3.154   6.596   1.066
10562SOL    HW232586   3.045   6.704   1.011
10563SOL     OW32587   1.040   0.107   0.791
10563SOL    HW132588   1.126   0.072   0.755
10563SOL    HW232589   1.030   0.204   0.766
10564SOL     OW32590   6.599   5.217   3.414
10564SOL    HW132591   6.625   5.239   3.320
10564SOL    HW232592   6.639   5.284   3.477
10565SOL     OW32593   6.682   6.946   5.833
10565SOL    HW132594   6.750   7.014   5.858
10565SOL    HW232595   6.673   6.942   5.733
10566SOL     OW32596   2.730   2.327   6.763
10566SOL    HW132597   2.758   2.365   6.675
10566SOL    HW232598   2.809   2.320   6.824
10567SOL     OW32599   1.902   1.979   6.003
10567SOL    HW132600   1.920   1.942   6.094
10567SOL    HW232601   1.963   2.055   5.984
10568SOL     OW32602   5.605   3.147   6.931
10568SOL    HW132603   5.620   3.218   6.863
10568SOL    HW232604   5.507   3.141   6.950
10569SOL     OW32605   5.470   0.200   2.172
10569SOL    HW132606   5.451   0.171   2.079
10569SOL    HW232607   5.408   0.154   2.235
10570SOL     OW32608   1.372   4.961   3.969
10570SOL    HW132609   1.457   4.932   4.013
10570SOL    HW232610   1.339   5.045   4.014
10571SOL     OW32611   0.205   4.151   6.500
10571SOL    HW132612   0.298   4.148   6.463
10571SOL    HW232613   0.193   4.237   6.550
10572SOL     OW32614   6.779   4.399   1.605
10572SOL    HW132615   6.682   4.397   1.628
10572SOL    HW232616   6.832   4.364   1.682
10573SOL     OW32617   5.341   0.726   4.623
10573SOL    HW132618   5.302   0.667   4.552
10573SOL    HW232619   5.440   0.728   4.614
10574SOL     OW32620   6.318   0.030   4.143
10574SOL    HW132621   6.354   0.087   4.069
10574SOL    HW232622   6.294   6.959   4.107
10575SOL     OW32623   5.219   0.499   3.676
10575SOL    HW132624   5.299   0.544   3.715
10575SOL    HW232625   5.217   0.515   3.577
10576SOL     OW32626   1.872   4.710   2.765
10576SOL    HW132627   1.924   4.715   2.850
10576SOL    HW232628   1.778   4.740   2.781
10577SOL     OW32629   2.976   6.320   0.816
10577SOL    HW132630   3.003   6.395   0.755
10577SOL    HW232631   2.877   6.321   0.828
10578SOL     OW32632   5.939   2.296   3.868
10578SOL    HW132633   5.887   2.379   3.890
10578SOL    HW232634   5.973   2.303   3.774
10579SOL     OW32635   2.696   3.588   1.337
10579SOL    HW132636   2.785   3.544   1.324
10579SOL    HW232637   2.698   3.645   1.419
10580SOL     OW32638   6.377   6.969   0.114
10580SOL    HW132639   6.290   7.007   0.081
10580SOL    HW232640   6.392   6.879   0.073
10581SOL     OW32641   5.114   6.334   2.918
10581SOL    HW132642   5.184   6.277   2.961
10581SOL    HW232643   5.157   6.415   2.877
10582SOL     OW32644   5.606   4.707   6.528
10582SOL    HW132645   5.602   4.764   6.446
10582SOL    HW232646   5.529   4.643   6.528
10583SOL     OW32647   3.489   0.538   4.028
10583SOL    HW132648   3.554   0.462   4.034
10583SOL    HW232649   3.409   0.519   4.086
10584SOL     OW32650   6.392   0.526   6.228
10584SOL    HW132651   6.356   0.487   6.143
10584SOL    HW232652   6.443   0.609   6.208
10585SOL     OW32653   0.886   2.073   6.437
10585SOL    HW132654   0.883   2.116   6.526
10585SOL    HW232655   0.799   2.026   6.419
10586SOL     OW32656   4.447   4.926   5.788
10586SOL    HW132657   4.403   4.956   5.873
10586SOL    HW232658   4.537   4.968   5.780
10587SOL     OW32659   0.610   5.643   5.941
10587SOL    HW132660   0.663   5.714   5.986
10587SOL    HW232661   0.635   5.639   5.844
10588SOL     OW32662   1.812   2.669   4.334
10588SOL    HW132663   1.746   2.614   4.385
10588SOL    HW232664   1.824   2.757   4.380
10589SOL     OW32665   5.312   6.101   4.694
10589SOL    HW132666   5.342   6.101   4.790
10589SOL    HW232667   5.212   6.112   4.691
10590SOL     OW32668   0.406   5.750   1.675
10590SOL    HW132669   0.316   5.788   1.697
10590SOL    HW232670   0.427   5.769   1.579
10591SOL     OW32671   1.755   0.960   1.009
10591SOL    HW132672   1.681   0.988   1.070
10591SOL    HW232673   1.804   1.041   0.976
10592SOL     OW32674   5.818   2.572   4.591
10592SOL    HW132675   5.855   2.491   4.545
10592SOL    HW232676   5.892   2.622   4.636
10593SOL     OW32677   2.274   6.230   0.705
10593SOL    HW132678   2.317   6.142   0.682
10593SOL    HW232679   2.261   6.236   0.804
10594SOL     OW32680   3.882   1.127   2.736
10594SOL    HW132681   3.898   1.068   2.657
10594SOL    HW232682   3.891   1.073   2.820
10595SOL     OW32683   5.999   0.619   0.510
10595SOL    HW132684   6.057   0.684   0.463
10595SOL    HW232685   5.937   0.574   0.445
10596SOL     OW32686   4.699   1.688   7.009
10596SOL    HW132687   4.735   1.629   0.063
10596SOL    HW232688   4.701   1.639   6.922
10597SOL     OW32689   2.795   0.765   5.960
10597SOL    HW132690   2.769   0.844   6.017
10597SOL    HW232691   2.736   0.688   5.982
10598SOL     OW32692   2.183   1.888   5.829
10598SOL    HW132693   2.199   1.801   5.782
10598SOL    HW232694   2.188   1.875   5.928
10599SOL     OW32695   6.285   4.204   6.389
10599SOL    HW132696   6.255   4.152   6.469
10599SOL    HW232697   6.280   4.146   6.308
10600SOL     OW32698   3.254   1.180   1.442
10600SOL    HW132699   3.321   1.244   1.480
10600SOL    HW232700   3.256   1.095   1.494
10601SOL     OW32701   0.077   6.383   5.662
10601SOL    HW132702   0.123   6.342   5.583
10601SOL    HW232703   0.006   6.445   5.630
10602SOL     OW32704   0.503   0.437   0.048
10602SOL    HW132705   0.404   0.436   0.035
10602SOL    HW232706   0.526   0.406   0.140
10603SOL     OW32707   4.715   6.692   1.588
10603SOL    HW132708   4.688   6.598   1.567
10603SOL    HW232709   4.815   6.699   1.590
10604SOL     OW32710   0.252   6.323   4.910
10604SOL    HW132711   0.318   6.278   4.971
10604SOL    HW232712   0.275   6.420   4.902
10605SOL     OW32713   2.131   0.359   0.351
10605SOL    HW132714   2.107   0.450   0.386
10605SOL    HW232715   2.193   0.369   0.273
10606SOL     OW32716   6.098   0.761   1.554
10606SOL    HW132717   6.019   0.735   1.609
10606SOL    HW232718   6.165   0.808   1.613
10607SOL     OW32719   4.125   4.202   7.016
10607SOL    HW132720   4.153   4.121   0.049
10607SOL    HW232721   4.046   4.244   0.043
10608SOL     OW32722   6.682   2.904   2.893
10608SOL    HW132723   6.735   2.836   2.944
10608SOL    HW232724   6.645   2.863   2.810
10609SOL     OW32725   2.847   6.664   0.554
10609SOL    HW132726   2.769   6.628   0.606
10609SOL    HW232727   2.866   6.758   0.583
10610SOL     OW32728   6.698   2.495   4.167
10610SOL    HW132729   6.779   2.507   4.109
10610SOL    HW232730   6.625   2.450   4.114
10611SOL     OW32731   2.551   5.748   4.897
10611SOL    HW132732   2.589   5.670   4.948
10611SOL    HW232733   2.575   5.739   4.800
10612SOL     OW32734   5.321   0.945   4.451
10612SOL    HW132735   5.383   1.024   4.445
10612SOL    HW232736   5.354   0.882   4.522
10613SOL     OW32737   5.323   6.111   4.276
10613SOL    HW132738   5.377   6.029   4.259
10613SOL    HW232739   5.276   6.104   4.364
10614SOL     OW32740   4.913   1.243   5.590
10614SOL    HW132741   5.001   1.291   5.594
10614SOL    HW232742   4.916   1.163   5.650
10615SOL     OW32743   3.591   1.345   5.558
10615SOL    HW132744   3.507   1.368   5.510
10615SOL    HW232745   3.649   1.427   5.565
10616SOL     OW32746   2.904   6.532   6.864
10616SOL    HW132747   2.871   6.617   6.906
10616SOL    HW232748   2.892   6.537   6.765
10617SOL     OW32749   2.322   3.992   1.702
10617SOL    HW132750   2.383   4.009   1.625
10617SOL    HW232751   2.304   3.894   1.710
10618SOL     OW32752   0.748   5.400   5.503
10618SOL    HW132753   0.758   5.303   5.529
10618SOL    HW232754   0.746   5.407   5.403
10619SOL     OW32755   0.496   2.186   2.879
10619SOL    HW132756   0.563   2.259   2.878
10619SOL    HW232757   0.520   2.118   2.809
10620SOL     OW32758   1.426   0.165   4.882
10620SOL    HW132759   1.350   0.121   4.930
10620SOL    HW232760   1.432   0.261   4.908
10621SOL     OW32761   1.115   4.224   2.458
10621SOL    HW132762   1.123   4.278   2.542
10621SOL    HW232763   1.127   4.284   2.379
10622SOL     OW32764   4.186   2.520   1.218
10622SOL    HW132765   4.185   2.542   1.120
10622SOL    HW232766   4.238   2.589   1.268
10623SOL     OW32767   6.187   5.925   5.127
10623SOL    HW132768   6.197   5.887   5.219
10623SOL    HW232769   6.266   5.899   5.071
10624SOL     OW32770   0.582   2.900   4.794
10624SOL    HW132771   0.611   2.889   4.699
10624SOL    HW232772   0.663   2.916   4.852
10625SOL     OW32773   0.837   3.251   0.318
10625SOL    HW132774   0.887   3.300   0.389
10625SOL    HW232775   0.890   3.172   0.288
10626SOL     OW32776   3.493   2.968   1.588
10626SOL    HW132777   3.398   2.945   1.568
10626SOL    HW232778   3.509   2.962   1.686
10627SOL     OW32779   5.784   0.940   6.554
10627SOL    HW132780   5.819   0.852   6.587
10627SOL    HW232781   5.716   0.975   6.618
10628SOL     OW32782   4.135   0.249   0.133
10628SOL    HW132783   4.145   0.330   0.190
10628SOL    HW232784   4.059   0.193   0.167
10629SOL     OW32785   3.261   5.161   4.961
10629SOL    HW132786   3.170   5.201   4.959
10629SOL    HW232787   3.297   5.164   5.054
10630SOL     OW32788   5.228   0.744   2.334
10630SOL    HW132789   5.298   0.678   2.363
10630SOL    HW232790   5.265   0.802   2.261
10631SOL     OW32791   4.259   4.414   6.124
10631SOL    HW132792   4.293   4.375   6.210
10631SOL    HW232793   4.181   4.474   6.143
10632SOL     OW32794   5.016   5.827   3.656
10632SOL    HW132795   4.971   5.755   3.603
10632SOL    HW232796   5.099   5.857   3.608
10633SOL     OW32797   2.183   2.817   1.658
10633SOL    HW132798   2.219   2.813   1.751
10633SOL    HW232799   2.172   2.724   1.622
10634SOL     OW32800   1.349   5.850   0.257
10634SOL    HW132801   1.360   5.849   0.158
10634SOL    HW232802   1.439   5.858   0.300
10635SOL     OW32803   2.077   3.631   0.548
10635SOL    HW132804   2.072   3.716   0.601
10635SOL    HW232805   1.997   3.625   0.488
10636SOL     OW32806   6.206   1.529   0.877
10636SOL    HW132807   6.121   1.532   0.929
10636SOL    HW232808   6.186   1.506   0.782
10637SOL     OW32809   2.368   6.085   6.483
10637SOL    HW132810   2.296   6.120   6.424
10637SOL    HW232811   2.457   6.117   6.449
10638SOL     OW32812   0.154   6.527   2.456
10638SOL    HW132813   0.062   6.537   2.494
10638SOL    HW232814   0.149   6.479   2.368
10639SOL     OW32815   2.068   3.457   1.737
10639SOL    HW132816   2.116   3.373   1.713
10639SOL    HW232817   2.123   3.510   1.802
10640SOL     OW32818   4.524   1.085   3.485
10640SOL    HW132819   4.581   1.146   3.539
10640SOL    HW232820   4.468   1.029   3.546
10641SOL     OW32821   1.993   1.388   3.614
10641SOL    HW132822   1.996   1.469   3.672
10641SOL    HW232823   1.997   1.306   3.672
10642SOL     OW32824   5.782   1.776   0.807
10642SOL    HW132825   5.776   1.866   0.764
10642SOL    HW232826   5.841   1.782   0.887
10643SOL     OW32827   1.915   5.731   5.025
10643SOL    HW132828   1.930   5.635   5.049
10643SOL    HW232829   1.988   5.787   5.065
10644SOL     OW32830   6.275   3.205   1.216
10644SOL    HW132831   6.309   3.298   1.225
10644SOL    HW232832   6.352   3.141   1.223
10645SOL     OW32833   2.195   3.066   3.738
10645SOL    HW132834   2.212   3.165   3.734
10645SOL    HW232835   2.239   3.022   3.660
10646SOL     OW32836   5.738   0.864   5.827
10646SOL    HW132837   5.785   0.853   5.915
10646SOL    HW232838   5.682   0.947   5.830
10647SOL     OW32839   3.703   5.385   5.217
10647SOL    HW132840   3.717   5.331   5.134
10647SOL    HW232841   3.791   5.422   5.248
10648SOL     OW32842   6.202   5.639   6.336
10648SOL    HW132843   6.142   5.715   6.311
10648SOL    HW232844   6.283   5.674   6.383
10649SOL     OW32845   1.229   3.183   3.743
10649SOL    HW132846   1.224   3.203   3.841
10649SOL    HW232847   1.147   3.219   3.698
10650SOL     OW32848   0.457   0.122   4.448
10650SOL    HW132849   0.379   0.066   4.475
10650SOL    HW232850   0.435   0.168   4.362
10651SOL     OW32851   5.890   6.040   5.833
10651SOL    HW132852   5.921   6.006   5.744
10651SOL    HW232853   5.805   6.092   5.821
10652SOL     OW32854   2.014   6.706   6.044
10652SOL    HW132855   2.019   6.744   5.951
10652SOL    HW232856   2.022   6.780   6.111
10653SOL     OW32857   3.736   6.152   4.568
10653SOL    HW132858   3.697   6.243   4.558
10653SOL    HW232859   3.707   6.094   4.492
10654SOL     OW32860   4.779   1.540   4.832
10654SOL    HW132861   4.835   1.541   4.749
10654SOL    HW232862   4.700   1.600   4.820
10655SOL     OW32863   1.972   4.565   0.991
10655SOL    HW132864   1.984   4.593   0.895
10655SOL    HW232865   1.881   4.593   1.022
10656SOL     OW32866   6.703   1.207   2.451
10656SOL    HW132867   6.719   1.276   2.522
10656SOL    HW232868   6.775   1.213   2.382
10657SOL     OW32869   6.206   1.075   4.731
10657SOL    HW132870   6.132   1.076   4.798
10657SOL    HW232871   6.168   1.077   4.639
10658SOL     OW32872   6.017   3.826   4.807
10658SOL    HW132873   6.055   3.871   4.888
10658SOL    HW232874   5.919   3.845   4.800
10659SOL     OW32875   0.956   4.497   0.727
10659SOL    HW132876   0.928   4.535   0.639
10659SOL    HW232877   1.038   4.440   0.715
10660SOL     OW32878   6.377   3.641   5.336
10660SOL    HW132879   6.352   3.546   5.353
10660SOL    HW232880   6.433   3.647   5.254
10661SOL     OW32881   1.559   5.452   0.497
10661SOL    HW132882   1.478   5.427   0.445
10661SOL    HW232883   1.630   5.382   0.486
10662SOL     OW32884   3.873   1.143   2.036
10662SOL    HW132885   3.814   1.063   2.046
10662SOL    HW232886   3.904   1.172   2.127
10663SOL     OW32887   0.571   2.043   3.418
10663SOL    HW132888   0.550   2.103   3.341
10663SOL    HW232889   0.489   1.990   3.442
10664SOL     OW32890   6.984   5.514   4.923
10664SOL    HW132891   0.060   5.487   4.905
10664SOL    HW232892   6.926   5.433   4.922
10665SOL     OW32893   2.132   2.545   6.980
10665SOL    HW132894   2.166   2.638   6.972
10665SOL    HW232895   2.208   2.484   7.003
10666SOL     OW32896   3.333   4.038   2.332
10666SOL    HW132897   3.312   4.064   2.426
10666SOL    HW232898   3.302   3.944   2.315
10667SOL     OW32899   4.955   1.689   4.123
10667SOL    HW132900   4.997   1.754   4.186
10667SOL    HW232901   4.979   1.596   4.151
10668SOL     OW32902   3.382   1.416   5.395
10668SOL    HW132903   3.341   1.498   5.436
10668SOL    HW232904   3.352   1.407   5.300
10669SOL     OW32905   5.760   0.548   0.827
10669SOL    HW132906   5.817   0.621   0.788
10669SOL    HW232907   5.712   0.500   0.754
10670SOL     OW32908   5.635   4.580   4.405
10670SOL    HW132909   5.594   4.583   4.496
10670SOL    HW232910   5.573   4.621   4.339
10671SOL     OW32911   1.586   1.767   4.528
10671SOL    HW132912   1.654   1.803   4.464
10671SOL    HW232913   1.553   1.841   4.586
10672SOL     OW32914   6.653   3.993   1.603
10672SOL    HW132915   6.722   3.929   1.569
10672SOL    HW232916   6.663   4.080   1.555
10673SOL     OW32917   1.544   6.790   0.105
10673SOL    HW132918   1.628   6.775   0.157
10673SOL    HW232919   1.548   6.737   0.020
10674SOL     OW32920   4.016   3.841   4.384
10674SOL    HW132921   3.969   3.929   4.382
10674SOL    HW232922   4.080   3.835   4.307
10675SOL     OW32923   3.056   0.738   6.366
10675SOL    HW132924   3.068   0.729   6.267
10675SOL    HW232925   3.144   0.759   6.409
10676SOL     OW32926   0.147   6.144   4.703
10676SOL    HW132927   0.070   6.103   4.752
10676SOL    HW232928   0.224   6.155   4.765
10677SOL     OW32929   1.554   1.033   1.217
10677SOL    HW132930   1.465   1.074   1.235
10677SOL    HW232931   1.577   0.969   1.291
10678SOL     OW32932   4.330   4.873   3.741
10678SOL    HW132933   4.308   4.969   3.757
10678SOL    HW232934   4.424   4.855   3.769
10679SOL     OW32935   3.884   5.647   6.773
10679SOL    HW132936   3.826   5.651   6.692
10679SOL    HW232937   3.899   5.740   6.808
10680SOL     OW32938   3.953   2.153   3.539
10680SOL    HW132939   4.005   2.218   3.483
10680SOL    HW232940   3.918   2.080   3.481
10681SOL     OW32941   6.453   3.767   0.326
10681SOL    HW132942   6.521   3.789   0.396
10681SOL    HW232943   6.368   3.738   0.370
10682SOL     OW32944   0.448   3.062   5.319
10682SOL    HW132945   0.465   3.066   5.221
10682SOL    HW232946   0.395   2.980   5.340
10683SOL     OW32947   4.578   1.047   3.898
10683SOL    HW132948   4.530   1.134   3.911
10683SOL    HW232949   4.676   1.065   3.888
10684SOL     OW32950   4.703   5.659   1.843
10684SOL    HW132951   4.683   5.586   1.908
10684SOL    HW232952   4.735   5.740   1.893
10685SOL     OW32953   0.619   5.660   1.087
10685SOL    HW132954   0.620   5.758   1.105
10685SOL    HW232955   0.684   5.638   1.014
10686SOL     OW32956   1.620   4.224   5.794
10686SOL    HW132957   1.628   4.130   5.827
10686SOL    HW232958   1.534   4.235   5.745
10687SOL     OW32959   6.531   4.482   4.459
10687SOL    HW132960   6.485   4.465   4.372
10687SOL    HW232961   6.620   4.524   4.443
10688SOL     OW32962   5.716   2.841   3.158
10688SOL    HW132963   5.779   2.882   3.225
10688SOL    HW232964   5.622   2.864   3.182
10689SOL     OW32965   6.878   0.732   2.048
10689SOL    HW132966   6.800   0.745   2.109
10689SOL    HW232967   6.963   0.738   2.102
10690SOL     OW32968   0.433   5.298   3.336
10690SOL    HW132969   0.488   5.382   3.345
10690SOL    HW232970   0.470   5.242   3.262
10691SOL     OW32971   1.749   2.019   1.608
10691SOL    HW132972   1.838   2.064   1.605
10691SOL    HW232973   1.709   2.031   1.699
10692SOL     OW32974   2.294   0.321   3.669
10692SOL    HW132975   2.220   0.325   3.603
10692SOL    HW232976   2.325   0.414   3.691
10693SOL     OW32977   1.426   6.165   0.865
10693SOL    HW132978   1.419   6.115   0.778
10693SOL    HW232979   1.407   6.102   0.940
10694SOL     OW32980   5.355   6.234   6.482
10694SOL    HW132981   5.442   6.192   6.457
10694SOL    HW232982   5.362   6.271   6.575
10695SOL     OW32983   1.723   2.496   2.177
10695SOL    HW132984   1.699   2.424   2.242
10695SOL    HW232985   1.801   2.549   2.212
10696SOL     OW32986   6.639   3.873   4.623
10696SOL    HW132987   6.660   3.780   4.654
10696SOL    HW232988   6.669   3.884   4.528
10697SOL     OW32989   0.097   0.513   5.577
10697SOL    HW132990   0.024   0.450   5.547
10697SOL    HW232991   0.059   0.577   5.644
10698SOL     OW32992   4.638   4.537   6.792
10698SOL    HW132993   4.649   4.454   6.847
10698SOL    HW232994   4.727   4.576   6.771
10699SOL     OW32995   3.896   4.914   1.836
10699SOL    HW132996   3.973   4.857   1.806
10699SOL    HW232997   3.926   4.971   1.912
10700SOL     OW32998   5.624   6.355   0.818
10700SOL    HW132999   5.712   6.385   0.782
10700SOL    HW233000   5.588   6.423   0.882
10701SOL     OW33001   2.570   0.276   5.756
10701SOL    HW133002   2.630   0.313   5.827
10701SOL    HW233003   2.607   0.297   5.666
10702SOL     OW33004   5.256   3.464   2.460
10702SOL    HW133005   5.188   3.406   2.505
10702SOL    HW233006   5.257   3.445   2.362
10703SOL     OW33007   2.489   2.574   5.447
10703SOL    HW133008   2.515   2.652   5.390
10703SOL    HW233009   2.511   2.489   5.399
10704SOL     OW33010   6.868   5.167   2.124
10704SOL    HW133011   6.869   5.104   2.202
10704SOL    HW233012   6.903   5.120   2.043
10705SOL     OW33013   6.459   5.170   1.632
10705SOL    HW133014   6.473   5.164   1.533
10705SOL    HW233015   6.510   5.096   1.677
10706SOL     OW33016   3.987   6.981   2.433
10706SOL    HW133017   3.924   0.022   2.482
10706SOL    HW233018   3.968   6.986   2.335
10707SOL     OW33019   0.702   6.240   3.816
10707SOL    HW133020   0.614   6.278   3.846
10707SOL    HW233021   0.762   6.314   3.785
10708SOL     OW33022   3.717   1.448   1.370
10708SOL    HW133023   3.663   1.370   1.402
10708SOL    HW233024   3.716   1.449   1.270
10709SOL     OW33025   5.421   5.250   4.833
10709SOL    HW133026   5.438   5.290   4.743
10709SOL    HW233027   5.488   5.286   4.899
10710SOL     OW33028   6.314   1.086   3.963
10710SOL    HW133029   6.330   0.999   3.917
10710SOL    HW233030   6.386   1.101   4.031
10711SOL     OW33031   2.071   6.750   4.251
10711SOL    HW133032   1.993   6.705   4.206
10711SOL    HW233033   2.063   6.737   4.350
10712SOL     OW33034   3.217   0.871   2.021
10712SOL    HW133035   3.182   0.951   2.069
10712SOL    HW233036   3.305   0.892   1.980
10713SOL     OW33037   0.773   3.575   0.663
10713SOL    HW133038   0.765   3.483   0.701
10713SOL    HW233039   0.722   3.580   0.577
10714SOL     OW33040   4.784   3.870   5.735
10714SOL    HW133041   4.809   3.879   5.831
10714SOL    HW233042   4.714   3.799   5.726
10715SOL     OW33043   4.759   0.477   2.411
10715SOL    HW133044   4.672   0.428   2.406
10715SOL    HW233045   4.764   0.529   2.496
10716SOL     OW33046   5.803   2.463   4.156
10716SOL    HW133047   5.743   2.505   4.224
10716SOL    HW233048   5.779   2.498   4.065
10717SOL     OW33049   1.178   2.461   0.995
10717SOL    HW133050   1.115   2.514   0.938
10717SOL    HW233051   1.192   2.371   0.954
10718SOL     OW33052   1.067   3.934   6.985
10718SOL    HW133053   0.991   3.871   7.000
10718SOL    HW233054   1.063   3.969   6.891
10719SOL     OW33055   0.273   5.815   2.828
10719SOL    HW133056   0.348   5.751   2.813
10719SOL    HW233057   0.263   5.833   2.926
10720SOL     OW33058   6.856   4.232   5.188
10720SOL    HW133059   6.871   4.133   5.192
10720SOL    HW233060   6.906   4.276   5.264
10721SOL     OW33061   5.045   3.510   5.268
10721SOL    HW133062   5.124   3.484   5.324
10721SOL    HW233063   5.013   3.601   5.296
10722SOL     OW33064   1.471   5.345   0.123
10722SOL    HW133065   1.378   5.317   0.101
10722SOL    HW233066   1.491   5.433   0.081
10723SOL     OW33067   0.303   2.840   6.445
10723SOL    HW133068   0.299   2.814   6.349
10723SOL    HW233069   0.364   2.777   6.494
10724SOL     OW33070   6.313   0.824   6.678
10724SOL    HW133071   6.252   0.898   6.709
10724SOL    HW233072   6.407   0.844   6.707
10725SOL     OW33073   1.412   5.420   4.837
10725SOL    HW133074   1.449   5.513   4.832
10725SOL    HW233075   1.331   5.413   4.778
10726SOL     OW33076   5.631   0.507   4.490
10726SOL    HW133077   5.673   0.585   4.444
10726SOL    HW233078   5.561   0.467   4.431
10727SOL     OW33079   0.378   5.439   5.686
10727SOL    HW133080   0.290   5.477   5.659
10727SOL    HW233081   0.382   5.343   5.662
10728SOL     OW33082   1.289   5.969   6.761
10728SOL    HW133083   1.296   5.927   6.670
10728SOL    HW233084   1.316   6.065   6.756
10729SOL     OW33085   4.693   1.575   2.593
10729SOL    HW133086   4.783   1.566   2.636
10729SOL    HW233087   4.704   1.617   2.503
10730SOL     OW33088   1.798   0.741   0.841
10730SOL    HW133089   1.831   0.648   0.828
10730SOL    HW233090   1.822   0.773   0.932
10731SOL     OW33091   3.153   0.458   1.138
10731SOL    HW133092   3.225   0.462   1.207
10731SOL    HW233093   3.190   0.420   1.053
10732SOL     OW33094   6.248   4.530   4.959
10732SOL    HW133095   6.183   4.479   5.014
10732SOL    HW233096   6.209   4.549   4.869
10733SOL     OW33097   6.377   1.865   0.475
10733SOL    HW133098   6.277   1.866   0.483
10733SOL    HW233099   6.403   1.908   0.389
10734SOL     OW33100   1.109   0.280   7.001
10734SOL    HW133101   1.031   0.273   6.939
10734SOL    HW233102   1.193   0.290   6.948
10735SOL     OW33103   0.449   2.685   2.944
10735SOL    HW133104   0.444   2.726   3.035
10735SOL    HW233105   0.439   2.757   2.875
10736SOL     OW33106   1.038   1.007   3.395
10736SOL    HW133107   1.078   0.941   3.458
10736SOL    HW233108   0.963   1.055   3.441
10737SOL     OW33109   0.990   1.617   0.910
10737SOL    HW133110   1.027   1.679   0.840
10737SOL    HW233111   0.938   1.670   0.977
10738SOL     OW33112   2.373   0.538   2.747
10738SOL    HW133113   2.421   0.451   2.756
10738SOL    HW233114   2.276   0.525   2.764
10739SOL     OW33115   1.373   1.389   1.193
10739SOL    HW133116   1.347   1.443   1.113
10739SOL    HW233117   1.308   1.405   1.267
10740SOL     OW33118   0.213   5.051   5.194
10740SOL    HW133119   0.114   5.061   5.202
10740SOL    HW233120   0.254   5.040   5.284
10741SOL     OW33121   5.091   0.268   1.101
10741SOL    HW133122   5.162   0.201   1.121
10741SOL    HW233123   5.002   0.222   1.095
10742SOL     OW33124   5.821   0.353   1.285
10742SOL    HW133125   5.814   0.289   1.361
10742SOL    HW233126   5.764   0.434   1.303
10743SOL     OW33127   2.216   1.498   5.229
10743SOL    HW133128   2.198   1.411   5.184
10743SOL    HW233129   2.136   1.557   5.221
10744SOL     OW33130   3.574   1.484   0.887
10744SOL    HW133131   3.571   1.433   0.800
10744SOL    HW233132   3.511   1.441   0.952
10745SOL     OW33133   0.239   5.644   6.624
10745SOL    HW133134   0.284   5.670   6.538
10745SOL    HW233135   0.308   5.637   6.696
10746SOL     OW33136   2.404   4.831   1.455
10746SOL    HW133137   2.437   4.781   1.535
10746SOL    HW233138   2.479   4.885   1.416
10747SOL     OW33139   3.896   1.211   4.225
10747SOL    HW133140   3.874   1.182   4.132
10747SOL    HW233141   3.960   1.288   4.222
10748SOL     OW33142   5.479   0.854   0.796
10748SOL    HW133143   5.407   0.786   0.805
10748SOL    HW233144   5.470   0.922   0.870
10749SOL     OW33145   0.370   5.615   3.127
10749SOL    HW133146   0.322   5.694   3.088
10749SOL    HW233147   0.398   5.553   3.054
10750SOL     OW33148   4.290   6.285   4.201
10750SOL    HW133149   4.342   6.262   4.119
10750SOL    HW233150   4.235   6.367   4.184
10751SOL     OW33151   1.788   4.822   4.797
10751SOL    HW133152   1.720   4.895   4.813
10751SOL    HW233153   1.879   4.857   4.819
10752SOL     OW33154   6.252   4.447   6.015
10752SOL    HW133155   6.187   4.392   5.962
10752SOL    HW233156   6.303   4.507   5.953
10753SOL     OW33157   4.730   5.057   4.806
10753SOL    HW133158   4.719   4.957   4.808
10753SOL    HW233159   4.758   5.085   4.714
10754SOL     OW33160   0.364   0.521   3.191
10754SOL    HW133161   0.398   0.592   3.252
10754SOL    HW233162   0.329   0.563   3.107
10755SOL     OW33163   0.093   1.101   0.421
10755SOL    HW133164   0.035   1.173   0.459
10755SOL    HW233165   0.054   1.011   0.444
10756SOL     OW33166   6.332   4.924   6.809
10756SOL    HW133167   6.250   4.890   6.856
10756SOL    HW233168   6.307   4.960   6.719
10757SOL     OW33169   1.995   2.944   6.888
10757SOL    HW133170   2.007   3.043   6.895
10757SOL    HW233171   2.079   2.898   6.919
10758SOL     OW33172   0.855   6.388   4.248
10758SOL    HW133173   0.913   6.311   4.276
10758SOL    HW233174   0.894   6.473   4.283
10759SOL     OW33175   1.762   2.759   1.144
10759SOL    HW133176   1.830   2.821   1.184
10759SOL    HW233177   1.788   2.665   1.165
10760SOL     OW33178   5.738   0.447   2.400
10760SOL    HW133179   5.680   0.488   2.470
10760SOL    HW233180   5.750   0.350   2.420
10761SOL     OW33181   0.896   6.341   6.122
10761SOL    HW133182   0.899   6.344   6.022
10761SOL    HW233183   0.852   6.424   6.156
10762SOL     OW33184   3.534   2.110   4.189
10762SOL    HW133185   3.460   2.109   4.256
10762SOL    HW233186   3.622   2.115   4.236
10763SOL     OW33187   5.260   0.120   2.832
10763SOL    HW133188   5.261   0.217   2.810
10763SOL    HW233189   5.274   0.107   2.930
10764SOL     OW33190   4.459   2.515   6.236
10764SOL    HW133191   4.394   2.521   6.161
10764SOL    HW233192   4.546   2.478   6.203
10765SOL     OW33193   4.878   2.389   0.729
10765SOL    HW133194   4.836   2.472   0.766
10765SOL    HW233195   4.973   2.407   0.705
10766SOL     OW33196   5.302   4.410   0.493
10766SOL    HW133197   5.267   4.317   0.500
10766SOL    HW233198   5.227   4.473   0.474
10767SOL     OW33199   2.114   0.080   0.262
10767SOL    HW133200   2.176   0.007   0.290
10767SOL    HW233201   2.129   0.160   0.320
10768SOL     OW33202   5.022   5.485   1.889
10768SOL    HW133203   5.006   5.422   1.813
10768SOL    HW233204   4.972   5.452   1.970
10769SOL     OW33205   2.396   4.209   5.332
10769SOL    HW133206   2.437   4.120   5.311
10769SOL    HW233207   2.389   4.263   5.249
10770SOL     OW33208   5.563   0.298   4.736
10770SOL    HW133209   5.559   0.199   4.749
10770SOL    HW233210   5.494   0.326   4.669
10771SOL     OW33211   5.589   6.820   3.434
10771SOL    HW133212   5.600   6.919   3.430
10771SOL    HW233213   5.619   6.786   3.524
10772SOL     OW33214   6.077   0.038   4.270
10772SOL    HW133215   6.161   0.054   4.220
10772SOL    HW233216   6.005   0.009   4.207
10773SOL     OW33217   6.124   5.620   6.005
10773SOL    HW133218   6.037   5.578   6.032
10773SOL    HW233219   6.166   5.663   6.085
10774SOL     OW33220   2.126   1.535   6.290
10774SOL    HW133221   2.060   1.514   6.218
10774SOL    HW233222   2.210   1.483   6.273
10775SOL     OW33223   0.614   4.499   1.944
10775SOL    HW133224   0.608   4.553   1.860
10775SOL    HW233225   0.688   4.433   1.937
10776SOL     OW33226   0.418   1.147   6.757
10776SOL    HW133227   0.469   1.227   6.726
10776SOL    HW233228   0.382   1.097   6.677
10777SOL     OW33229   4.200   5.328   2.234
10777SOL    HW133230   4.160   5.255   2.290
10777SOL    HW233231   4.299   5.318   2.231
10778SOL     OW33232   5.265   0.248   4.348
10778SOL    HW133233   5.300   0.258   4.255
10778SOL    HW233234   5.279   0.154   4.378
10779SOL     OW33235   6.269   3.425   3.472
10779SOL    HW133236   6.262   3.391   3.566
10779SOL    HW233237   6.218   3.511   3.464
10780SOL     OW33238   1.968   0.642   3.717
10780SOL    HW133239   1.888   0.596   3.679
10780SOL    HW233240   1.943   0.687   3.803
10781SOL     OW33241   4.412   1.137   4.273
10781SOL    HW133242   4.369   1.132   4.183
10781SOL    HW233243   4.450   1.047   4.297
10782SOL     OW33244   6.993   1.590   2.267
10782SOL    HW133245   0.032   1.615   2.345
10782SOL    HW233246   0.031   1.549   2.195
10783SOL     OW33247   0.550   2.588   2.704
10783SOL    HW133248   0.537   2.597   2.802
10783SOL    HW233249   0.472   2.628   2.656
10784SOL     OW33250   3.829   6.591   4.358
10784SOL    HW133251   3.806   6.656   4.285
10784SOL    HW233252   3.883   6.638   4.428
10785SOL     OW33253   6.621   4.802   0.351
10785SOL    HW133254   6.581   4.846   0.432
10785SOL    HW233255   6.682   4.865   0.305
10786SOL     OW33256   6.101   4.786   3.376
10786SOL    HW133257   6.049   4.785   3.461
10786SOL    HW233258   6.186   4.838   3.389
10787SOL     OW33259   1.980   1.531   5.530
10787SOL    HW133260   2.065   1.578   5.510
10787SOL    HW233261   1.918   1.540   5.451
10788SOL     OW33262   1.920   4.513   6.723
10788SOL    HW133263   1.859   4.436   6.705
10788SOL    HW233264   1.873   4.599   6.702
10789SOL     OW33265   6.487   2.742   6.704
10789SOL    HW133266   6.406   2.696   6.667
10789SOL    HW233267   6.556   2.751   6.631
10790SOL     OW33268   0.631   0.335   1.693
10790SOL    HW133269   0.726   0.351   1.720
10790SOL    HW233270   0.593   0.419   1.655
10791SOL     OW33271   6.613   6.420   1.590
10791SOL    HW133272   6.585   6.397   1.683
10791SOL    HW233273   6.532   6.441   1.535
10792SOL     OW33274   3.595   3.012   4.617
10792SOL    HW133275   3.511   3.037   4.570
10792SOL    HW233276   3.591   3.042   4.712
10793SOL     OW33277   5.768   3.062   5.575
10793SOL    HW133278   5.705   3.122   5.625
10793SOL    HW233279   5.803   2.992   5.636
10794SOL     OW33280   3.831   2.998   4.218
10794SOL    HW133281   3.896   2.984   4.293
10794SOL    HW233282   3.749   2.944   4.236
10795SOL     OW33283   0.271   5.055   2.436
10795SOL    HW133284   0.194   5.036   2.375
10795SOL    HW233285   0.299   4.970   2.481
10796SOL     OW33286   5.965   0.141   5.941
10796SOL    HW133287   5.997   0.162   6.033
10796SOL    HW233288   6.035   0.166   5.874
10797SOL     OW33289   3.194   2.228   1.552
10797SOL    HW133290   3.275   2.287   1.556
10797SOL    HW233291   3.131   2.263   1.482
10798SOL     OW33292   2.808   0.786   0.397
10798SOL    HW133293   2.834   0.701   0.352
10798SOL    HW233294   2.800   0.769   0.496
10799SOL     OW33295   3.959   1.274   2.271
10799SOL    HW133296   3.866   1.307   2.287
10799SOL    HW233297   4.024   1.332   2.321
10800SOL     OW33298   0.352   6.458   5.833
10800SOL    HW133299   0.297   6.374   5.836
10800SOL    HW233300   0.327   6.511   5.752
10801SOL     OW33301   1.164   6.863   6.936
10801SOL    HW133302   1.128   6.889   6.847
10801SOL    HW233303   1.116   6.913   7.008
10802SOL     OW33304   0.727   0.411   2.264
10802SOL    HW133305   0.785   0.361   2.329
10802SOL    HW233306   0.633   0.410   2.296
10803SOL     OW33307   1.974   5.391   5.883
10803SOL    HW133308   1.878   5.364   5.881
10803SOL    HW233309   1.981   5.489   5.901
10804SOL     OW33310   5.873   3.011   2.496
10804SOL    HW133311   5.847   2.946   2.568
10804SOL    HW233312   5.956   3.059   2.523
10805SOL     OW33313   4.888   6.874   5.650
10805SOL    HW133314   4.812   6.931   5.680
10805SOL    HW233315   4.969   6.894   5.705
10806SOL     OW33316   4.003   4.222   6.027
10806SOL    HW133317   3.981   4.313   6.062
10806SOL    HW233318   4.063   4.175   6.091
10807SOL     OW33319   1.644   0.115   3.256
10807SOL    HW133320   1.628   0.023   3.221
10807SOL    HW233321   1.556   0.162   3.266
10808SOL     OW33322   0.136   3.213   6.332
10808SOL    HW133323   0.067   3.284   6.346
10808SOL    HW233324   0.124   3.141   6.400
10809SOL     OW33325   2.295   4.191   3.538
10809SOL    HW133326   2.326   4.269   3.485
10809SOL    HW233327   2.242   4.130   3.480
10810SOL     OW33328   0.663   0.838   3.642
10810SOL    HW133329   0.742   0.883   3.684
10810SOL    HW233330   0.678   0.739   3.641
10811SOL     OW33331   4.091   4.693   5.753
10811SOL    HW133332   4.007   4.644   5.729
10811SOL    HW233333   4.069   4.765   5.819
10812SOL     OW33334   0.237   3.781   0.738
10812SOL    HW133335   0.287   3.706   0.781
10812SOL    HW233336   0.140   3.759   0.733
10813SOL     OW33337   0.843   3.559   5.843
10813SOL    HW133338   0.812   3.539   5.750
10813SOL    HW233339   0.943   3.571   5.843
10814SOL     OW33340   1.495   0.042   6.218
10814SOL    HW133341   1.490   6.964   6.193
10814SOL    HW233342   1.582   0.060   6.264
10815SOL     OW33343   4.912   3.335   3.229
10815SOL    HW133344   4.874   3.247   3.203
10815SOL    HW233345   4.990   3.322   3.290
10816SOL     OW33346   2.958   3.209   2.454
10816SOL    HW133347   2.981   3.171   2.364
10816SOL    HW233348   2.938   3.306   2.445
10817SOL     OW33349   3.788   0.578   3.406
10817SOL    HW133350   3.814   0.673   3.388
10817SOL    HW233351   3.869   0.520   3.402
10818SOL     OW33352   5.101   4.182   5.601
10818SOL    HW133353   5.080   4.192   5.698
10818SOL    HW233354   5.053   4.101   5.565
10819SOL     OW33355   6.006   5.112   6.192
10819SOL    HW133356   6.097   5.099   6.153
10819SOL    HW233357   5.946   5.150   6.122
10820SOL     OW33358   0.418   5.055   4.551
10820SOL    HW133359   0.400   4.978   4.491
10820SOL    HW233360   0.497   5.106   4.517
10821SOL     OW33361   4.470   6.899   3.474
10821SOL    HW133362   4.513   6.964   3.411
10821SOL    HW233363   4.385   6.939   3.510
10822SOL     OW33364   5.991   2.036   2.746
10822SOL    HW133365   6.090   2.043   2.739
10822SOL    HW233366   5.967   1.950   2.793
10823SOL     OW33367   1.101   0.824   2.040
10823SOL    HW133368   1.127   0.902   2.096
10823SOL    HW233369   1.124   0.739   2.088
10824SOL     OW33370   0.229   0.810   2.595
10824SOL    HW133371   0.213   0.905   2.566
10824SOL    HW233372   0.310   0.774   2.548
10825SOL     OW33373   2.439   1.988   6.815
10825SOL    HW133374   2.465   1.904   6.862
10825SOL    HW233375   2.517   2.022   6.763
10826SOL     OW33376   1.131   1.723   3.100
10826SOL    HW133377   1.134   1.635   3.052
10826SOL    HW233378   1.036   1.748   3.118
10827SOL     OW33379   0.207   3.348   4.820
10827SOL    HW133380   0.291   3.359   4.766
10827SOL    HW233381   0.157   3.434   4.822
10828SOL     OW33382   1.736   4.702   0.473
10828SOL    HW133383   1.828   4.682   0.439
10828SOL    HW233384   1.696   4.619   0.511
10829SOL     OW33385   4.838   2.332   0.455
10829SOL    HW133386   4.853   2.366   0.548
10829SOL    HW233387   4.914   2.274   0.427
10830SOL     OW33388   4.660   1.755   3.207
10830SOL    HW133389   4.632   1.725   3.116
10830SOL    HW233390   4.715   1.839   3.199
10831SOL     OW33391   2.950   6.400   2.781
10831SOL    HW133392   3.041   6.440   2.772
10831SOL    HW233393   2.948   6.309   2.738
10832SOL     OW33394   0.029   3.729   6.664
10832SOL    HW133395   0.054   3.632   6.668
10832SOL    HW233396   6.952   3.740   6.692
10833SOL     OW33397   0.494   1.399   1.549
10833SOL    HW133398   0.514   1.340   1.470
10833SOL    HW233399   0.487   1.342   1.631
10834SOL     OW33400   6.082   1.443   0.633
10834SOL    HW133401   6.041   1.534   0.627
10834SOL    HW233402   6.025   1.377   0.583
10835SOL     OW33403   6.156   2.429   0.024
10835SOL    HW133404   6.191   2.507   0.077
10835SOL    HW233405   6.230   2.362   0.011
10836SOL     OW33406   6.922   2.152   4.130
10836SOL    HW133407   6.844   2.162   4.192
10836SOL    HW233408   6.890   2.161   4.035
10837SOL     OW33409   6.913   5.134   1.153
10837SOL    HW133410   6.993   5.151   1.211
10837SOL    HW233411   6.923   5.185   1.067
10838SOL     OW33412   6.574   6.359   4.028
10838SOL    HW133413   6.673   6.344   4.030
10838SOL    HW233414   6.537   6.329   3.940
10839SOL     OW33415   4.388   3.294   0.769
10839SOL    HW133416   4.362   3.284   0.674
10839SOL    HW233417   4.373   3.208   0.818
10840SOL     OW33418   2.934   6.205   2.578
10840SOL    HW133419   2.854   6.210   2.518
10840SOL    HW233420   3.017   6.205   2.523
10841SOL     OW33421   6.637   4.257   5.334
10841SOL    HW133422   6.619   4.354   5.322
10841SOL    HW233423   6.705   4.228   5.267
10842SOL     OW33424   4.756   2.526   1.424
10842SOL    HW133425   4.736   2.624   1.432
10842SOL    HW233426   4.693   2.474   1.481
10843SOL     OW33427   1.304   1.055   1.312
10843SOL    HW133428   1.279   0.966   1.351
10843SOL    HW233429   1.225   1.116   1.317
10844SOL     OW33430   0.810   5.488   2.991
10844SOL    HW133431   0.829   5.561   3.056
10844SOL    HW233432   0.717   5.454   3.005
10845SOL     OW33433   3.928   6.269   5.405
10845SOL    HW133434   3.849   6.330   5.411
10845SOL    HW233435   3.985   6.280   5.486
10846SOL     OW33436   5.298   0.775   6.304
10846SOL    HW133437   5.247   0.763   6.389
10846SOL    HW233438   5.394   0.795   6.325
10847SOL     OW33439   3.278   2.190   0.204
10847SOL    HW133440   3.378   2.186   0.207
10847SOL    HW233441   3.244   2.135   0.128
10848SOL     OW33442   1.193   4.416   0.957
10848SOL    HW133443   1.182   4.468   1.042
10848SOL    HW233444   1.285   4.378   0.953
10849SOL     OW33445   2.679   4.906   4.119
10849SOL    HW133446   2.720   4.930   4.032
10849SOL    HW233447   2.612   4.976   4.145
10850SOL     OW33448   3.654   6.238   5.843
10850SOL    HW133449   3.747   6.264   5.869
10850SOL    HW233450   3.620   6.300   5.773
10851SOL     OW33451   3.155   3.709   0.516
10851SOL    HW133452   3.100   3.634   0.478
10851SOL    HW233453   3.144   3.711   0.616
10852SOL     OW33454   1.839   0.529   6.493
10852SOL    HW133455   1.806   0.602   6.434
10852SOL    HW233456   1.777   0.519   6.571
10853SOL     OW33457   1.831   3.024   5.531
10853SOL    HW133458   1.892   3.039   5.609
10853SOL    HW233459   1.885   3.023   5.446
10854SOL     OW33460   4.286   5.169   5.741
10854SOL    HW133461   4.287   5.098   5.670
10854SOL    HW233462   4.285   5.126   5.831
10855SOL     OW33463   4.155   0.457   0.341
10855SOL    HW133464   4.118   0.509   0.418
10855SOL    HW233465   4.225   0.511   0.294
10856SOL     OW33466   5.414   1.034   0.982
10856SOL    HW133467   5.380   0.987   1.064
10856SOL    HW233468   5.468   1.113   1.010
10857SOL     OW33469   0.928   2.467   2.686
10857SOL    HW133470   0.993   2.497   2.756
10857SOL    HW233471   0.962   2.383   2.643
10858SOL     OW33472   1.016   1.261   0.547
10858SOL    HW133473   1.059   1.200   0.479
10858SOL    HW233474   1.075   1.339   0.564
10859SOL     OW33475   1.174   4.982   4.239
10859SOL    HW133476   1.209   4.958   4.330
10859SOL    HW233477   1.195   5.078   4.220
10860SOL     OW33478   0.317   3.367   5.087
10860SOL    HW133479   0.262   3.383   5.005
10860SOL    HW233480   0.327   3.268   5.101
10861SOL     OW33481   3.330   3.635   3.340
10861SOL    HW133482   3.297   3.683   3.259
10861SOL    HW233483   3.347   3.539   3.318
10862SOL     OW33484   1.910   0.870   6.063
10862SOL    HW133485   1.815   0.902   6.062
10862SOL    HW233486   1.970   0.944   6.094
10863SOL     OW33487   2.722   0.519   3.997
10863SOL    HW133488   2.801   0.577   4.016
10863SOL    HW233489   2.752   0.434   3.954
10864SOL     OW33490   2.465   6.057   6.960
10864SOL    HW133491   2.490   6.058   0.038
10864SOL    HW233492   2.548   6.054   6.904
10865SOL     OW33493   6.650   1.412   0.828
10865SOL    HW133494   6.570   1.454   0.872
10865SOL    HW233495   6.731   1.430   0.883
10866SOL     OW33496   5.174   4.146   0.485
10866SOL    HW133497   5.191   4.048   0.492
10866SOL    HW233498   5.076   4.163   0.478
10867SOL     OW33499   3.016   4.279   0.957
10867SOL    HW133500   3.079   4.329   1.017
10867SOL    HW233501   3.048   4.184   0.947
10868SOL     OW33502   5.152   1.352   3.891
10868SOL    HW133503   5.112   1.429   3.841
10868SOL    HW233504   5.222   1.309   3.834
10869NA      NA33505   6.481   2.669   5.255
10870NA      NA33506   4.446   4.426   5.272
10871NA      NA33507   1.486   2.961   1.830
10872NA      NA33508   4.869   3.783   5.132
10873NA      NA33509   4.277   2.476   5.357
10874NA      NA33510   3.666   4.896   1.791
10875NA      NA33511   6.583   4.907   6.804
10876NA      NA33512   3.675   3.426   4.420
10877NA      NA33513   4.845   5.836   0.019
10878NA      NA33514   4.119   6.509   5.077
10879NA      NA33515   6.093   5.125   2.159
10880NA      NA33516   2.161   6.860   3.751
10881NA      NA33517   4.167   5.618   2.274
10882NA      NA33518   3.603   4.040   2.058
   7.01894   7.01894   7.01894
