Generated by trjconv : CNT in water t= 350.00000
33518
    1C        C    1   2.844   2.771   4.747
    1C        C    2   2.901   2.723   4.867
    1C        C    3   2.844   2.776   4.983
    1C        C    4   2.849   2.779   4.264
    1C        C    5   2.899   2.726   4.385
    1C        C    6   2.846   2.777   4.506
    1C        C    7   3.017   2.647   4.627
    1C        C    8   2.899   2.724   4.626
    1C        C    9   3.079   2.603   4.746
    1C        C   10   3.015   2.640   4.866
    1C        C   11   3.181   2.489   4.974
    1C        C   12   3.064   2.566   4.975
    1C        C   13   2.848   2.772   3.774
    1C        C   14   2.900   2.724   3.896
    1C        C   15   2.849   2.776   4.017
    1C        C   16   3.015   2.649   4.138
    1C        C   17   2.902   2.733   4.141
    1C        C   18   3.079   2.616   4.260
    1C        C   19   3.015   2.645   4.382
    1C        C   20   3.210   2.563   4.503
    1C        C   21   3.076   2.608   4.504
    1C        C   22   3.281   2.543   4.623
    1C        C   23   3.209   2.545   4.745
    1C        C   24   3.412   2.472   4.862
    1C        C   25   3.270   2.495   4.862
    1C        C   26   3.486   2.484   4.979
    1C        C   27   2.850   2.771   3.285
    1C        C   28   2.903   2.726   3.408
    1C        C   29   2.851   2.773   3.531
    1C        C   30   3.020   2.643   3.652
    1C        C   31   2.905   2.726   3.653
    1C        C   32   3.079   2.607   3.775
    1C        C   33   3.015   2.641   3.896
    1C        C   34   3.212   2.562   4.020
    1C        C   35   3.080   2.613   4.018
    1C        C   36   3.281   2.539   4.141
    1C        C   37   3.210   2.563   4.260
    1C        C   38   3.416   2.509   4.381
    1C        C   39   3.278   2.539   4.382
    1C        C   40   3.491   2.502   4.501
    1C        C   41   3.418   2.507   4.622
    1C        C   42   3.629   2.486   4.745
    1C        C   43   3.487   2.479   4.741
    1C        C   44   3.704   2.491   4.865
    1C        C   45   3.625   2.480   4.980
    1C        C   46   2.839   2.752   2.797
    1C        C   47   2.892   2.708   2.920
    1C        C   48   2.843   2.763   3.041
    1C        C   49   3.013   2.636   3.161
    1C        C   50   2.898   2.719   3.163
    1C        C   51   3.079   2.609   3.283
    1C        C   52   3.021   2.648   3.406
    1C        C   53   3.211   2.556   3.530
    1C        C   54   3.082   2.612   3.529
    1C        C   55   3.279   2.532   3.652
    1C        C   56   3.212   2.558   3.774
    1C        C   57   3.416   2.508   3.895
    1C        C   58   3.278   2.540   3.898
    1C        C   59   3.488   2.500   4.016
    1C        C   60   3.420   2.509   4.139
    1C        C   61   3.631   2.499   4.260
    1C        C   62   3.490   2.500   4.261
    1C        C   63   3.704   2.506   4.381
    1C        C   64   3.632   2.501   4.503
    1C        C   65   3.837   2.548   4.624
    1C        C   66   3.701   2.508   4.626
    1C        C   67   3.906   2.566   4.746
    1C        C   68   3.840   2.530   4.866
    1C        C   69   4.051   2.585   4.978
    1C        C   70   3.920   2.535   4.981
    1C        C   71   2.822   2.734   2.312
    1C        C   72   2.882   2.695   2.434
    1C        C   73   2.829   2.745   2.555
    1C        C   74   3.008   2.625   2.675
    1C        C   75   2.891   2.703   2.675
    1C        C   76   3.074   2.596   2.796
    1C        C   77   3.012   2.634   2.917
    1C        C   78   3.207   2.549   3.038
    1C        C   79   3.077   2.604   3.039
    1C        C   80   3.273   2.530   3.161
    1C        C   81   3.210   2.556   3.285
    1C        C   82   3.416   2.507   3.402
    1C        C   83   3.277   2.532   3.407
    1C        C   84   3.484   2.501   3.525
    1C        C   85   3.417   2.504   3.650
    1C        C   86   3.627   2.510   3.769
    1C        C   87   3.486   2.497   3.773
    1C        C   88   3.698   2.515   3.891
    1C        C   89   3.630   2.505   4.014
    1C        C   90   3.835   2.548   4.135
    1C        C   91   3.699   2.510   4.137
    1C        C   92   3.903   2.576   4.256
    1C        C   93   3.840   2.544   4.379
    1C        C   94   4.027   2.640   4.502
    1C        C   95   3.901   2.576   4.502
    1C        C   96   4.089   2.674   4.624
    1C        C   97   4.033   2.629   4.746
    1C        C   98   4.198   2.764   4.864
    1C        C   99   4.104   2.656   4.866
    1C        C  100   4.215   2.844   4.978
    1C        C  101   2.823   2.731   2.076
    1C        C  102   2.994   2.595   2.193
    1C        C  103   2.876   2.676   2.194
    1C        C  104   3.068   2.580   2.314
    1C        C  105   3.003   2.622   2.433
    1C        C  106   3.204   2.543   2.551
    1C        C  107   3.070   2.589   2.553
    1C        C  108   3.276   2.536   2.673
    1C        C  109   3.207   2.548   2.795
    1C        C  110   3.416   2.509   2.917
    1C        C  111   3.276   2.525   2.916
    1C        C  112   3.488   2.501   3.038
    1C        C  113   3.413   2.510   3.158
    1C        C  114   3.627   2.501   3.279
    1C        C  115   3.486   2.500   3.279
    1C        C  116   3.694   2.514   3.403
    1C        C  117   3.625   2.501   3.526
    1C        C  118   3.834   2.549   3.646
    1C        C  119   3.698   2.512   3.646
    1C        C  120   3.901   2.569   3.769
    1C        C  121   3.836   2.543   3.892
    1C        C  122   4.026   2.643   4.014
    1C        C  123   3.902   2.574   4.013
    1C        C  124   4.087   2.679   4.136
    1C        C  125   4.027   2.643   4.259
    1C        C  126   4.195   2.771   4.380
    1C        C  127   4.089   2.677   4.381
    1C        C  128   4.244   2.824   4.502
    1C        C  129   4.191   2.772   4.622
    1C        C  130   4.327   2.937   4.746
    1C        C  131   4.246   2.820   4.743
    1C        C  132   4.359   3.008   4.864
    1C        C  133   4.288   2.962   4.976
    1C        C  134   3.172   2.470   2.085
    1C        C  135   3.038   2.511   2.086
    1C        C  136   3.261   2.476   2.193
    1C        C  137   3.197   2.521   2.310
    1C        C  138   3.409   2.487   2.427
    1C        C  139   3.270   2.509   2.431
    1C        C  140   3.482   2.489   2.547
    1C        C  141   3.413   2.504   2.670
    1C        C  142   3.625   2.504   2.792
    1C        C  143   3.484   2.506   2.792
    1C        C  144   3.699   2.502   2.913
    1C        C  145   3.629   2.496   3.036
    1C        C  146   3.836   2.540   3.158
    1C        C  147   3.699   2.505   3.158
    1C        C  148   3.902   2.566   3.280
    1C        C  149   3.831   2.549   3.401
    1C        C  150   4.027   2.632   3.524
    1C        C  151   3.899   2.572   3.523
    1C        C  152   4.089   2.666   3.647
    1C        C  153   4.026   2.635   3.769
    1C        C  154   4.194   2.767   3.891
    1C        C  155   4.084   2.678   3.890
    1C        C  156   4.249   2.814   4.012
    1C        C  157   4.199   2.765   4.135
    1C        C  158   4.341   2.923   4.255
    1C        C  159   4.247   2.818   4.258
    1C        C  160   4.375   2.986   4.377
    1C        C  161   4.332   2.934   4.501
    1C        C  162   4.439   3.116   4.615
    1C        C  163   4.371   2.992   4.624
    1C        C  164   4.474   3.184   4.733
    1C        C  165   4.443   3.121   4.856
    1C        C  166   4.524   3.321   4.970
    1C        C  167   4.484   3.188   4.972
    1C        C  168   3.477   2.438   2.076
    1C        C  169   3.401   2.456   2.192
    1C        C  170   3.624   2.458   2.309
    1C        C  171   3.482   2.464   2.308
    1C        C  172   3.697   2.486   2.426
    1C        C  173   3.624   2.493   2.546
    1C        C  174   3.830   2.542   2.668
    1C        C  175   3.693   2.509   2.669
    1C        C  176   3.900   2.559   2.789
    1C        C  177   3.836   2.537   2.913
    1C        C  178   4.027   2.629   3.033
    1C        C  179   3.900   2.568   3.035
    1C        C  180   4.090   2.662   3.155
    1C        C  181   4.030   2.627   3.279
    1C        C  182   4.202   2.749   3.400
    1C        C  183   4.090   2.663   3.401
    1C        C  184   4.245   2.805   3.522
    1C        C  185   4.198   2.756   3.646
    1C        C  186   4.342   2.914   3.767
    1C        C  187   4.247   2.810   3.767
    1C        C  188   4.379   2.977   3.888
    1C        C  189   4.344   2.918   4.012
    1C        C  190   4.444   3.107   4.130
    1C        C  191   4.383   2.980   4.133
    1C        C  192   4.467   3.175   4.252
    1C        C  193   4.441   3.111   4.375
    1C        C  194   4.508   3.318   4.495
    1C        C  195   4.468   3.183   4.494
    1C        C  196   4.524   3.393   4.613
    1C        C  197   4.510   3.322   4.735
    1C        C  198   4.555   3.538   4.854
    1C        C  199   4.542   3.395   4.852
    1C        C  200   4.585   3.623   4.965
    1C        C  201   3.616   2.426   2.074
    1C        C  202   3.832   2.506   2.187
    1C        C  203   3.697   2.459   2.187
    1C        C  204   3.904   2.543   2.304
    1C        C  205   3.833   2.526   2.425
    1C        C  206   4.029   2.613   2.546
    1C        C  207   3.899   2.558   2.546
    1C        C  208   4.090   2.657   2.666
    1C        C  209   4.028   2.621   2.788
    1C        C  210   4.200   2.746   2.910
    1C        C  211   4.087   2.661   2.909
    1C        C  212   4.253   2.795   3.032
    1C        C  213   4.202   2.747   3.154
    1C        C  214   4.335   2.911   3.275
    1C        C  215   4.254   2.795   3.277
    1C        C  216   4.366   2.975   3.397
    1C        C  217   4.328   2.920   3.522
    1C        C  218   4.432   3.102   3.639
    1C        C  219   4.378   2.971   3.643
    1C        C  220   4.463   3.167   3.760
    1C        C  221   4.440   3.104   3.885
    1C        C  222   4.503   3.308   4.004
    1C        C  223   4.467   3.171   4.006
    1C        C  224   4.516   3.378   4.126
    1C        C  225   4.503   3.312   4.250
    1C        C  226   4.523   3.525   4.370
    1C        C  227   4.520   3.384   4.370
    1C        C  228   4.515   3.600   4.490
    1C        C  229   4.527   3.534   4.614
    1C        C  230   4.507   3.749   4.727
    1C        C  231   4.536   3.610   4.733
    1C        C  232   4.496   3.823   4.847
    1C        C  233   4.541   3.756   4.961
    1C        C  234   4.016   2.613   2.064
    1C        C  235   3.898   2.540   2.068
    1C        C  236   4.090   2.644   2.179
    1C        C  237   4.029   2.610   2.302
    1C        C  238   4.208   2.728   2.422
    1C        C  239   4.090   2.648   2.424
    1C        C  240   4.258   2.783   2.542
    1C        C  241   4.201   2.744   2.665
    1C        C  242   4.338   2.905   2.787
    1C        C  243   4.252   2.793   2.787
    1C        C  244   4.384   2.963   2.908
    1C        C  245   4.343   2.905   3.030
    1C        C  246   4.436   3.095   3.149
    1C        C  247   4.374   2.968   3.152
    1C        C  248   4.460   3.164   3.271
    1C        C  249   4.429   3.102   3.394
    1C        C  250   4.498   3.302   3.515
    1C        C  251   4.455   3.168   3.516
    1C        C  252   4.513   3.371   3.638
    1C        C  253   4.498   3.304   3.762
    1C        C  254   4.522   3.519   3.880
    1C        C  255   4.512   3.378   3.882
    1C        C  256   4.522   3.589   4.003
    1C        C  257   4.522   3.520   4.126
    1C        C  258   4.492   3.731   4.242
    1C        C  259   4.522   3.593   4.246
    1C        C  260   4.467   3.803   4.360
    1C        C  261   4.484   3.738   4.484
    1C        C  262   4.427   3.944   4.603
    1C        C  263   4.478   3.812   4.604
    1C        C  264   4.399   4.013   4.723
    1C        C  265   4.437   3.951   4.844
    1C        C  266   4.314   4.129   4.962
    1C        C  267   4.386   4.010   4.961
    1C        C  268   4.271   2.771   2.061
    1C        C  269   4.203   2.729   2.176
    1C        C  270   4.342   2.890   2.299
    1C        C  271   4.255   2.778   2.298
    1C        C  272   4.381   2.953   2.419
    1C        C  273   4.338   2.900   2.543
    1C        C  274   4.445   3.085   2.661
    1C        C  275   4.379   2.960   2.663
    1C        C  276   4.468   3.156   2.781
    1C        C  277   4.444   3.091   2.904
    1C        C  278   4.501   3.294   3.026
    1C        C  279   4.469   3.157   3.027
    1C        C  280   4.509   3.367   3.147
    1C        C  281   4.496   3.300   3.271
    1C        C  282   4.521   3.511   3.391
    1C        C  283   4.511   3.370   3.392
    1C        C  284   4.516   3.583   3.513
    1C        C  285   4.514   3.512   3.635
    1C        C  286   4.490   3.725   3.755
    1C        C  287   4.515   3.585   3.756
    1C        C  288   4.475   3.793   3.878
    1C        C  289   4.494   3.727   4.002
    1C        C  290   4.427   3.935   4.119
    1C        C  291   4.478   3.803   4.121
    1C        C  292   4.395   4.001   4.239
    1C        C  293   4.430   3.940   4.362
    1C        C  294   4.326   4.130   4.481
    1C        C  295   4.399   4.009   4.481
    1C        C  296   4.292   4.197   4.601
    1C        C  297   4.332   4.139   4.724
    1C        C  298   4.196   4.311   4.842
    1C        C  299   4.280   4.196   4.843
    1C        C  300   4.169   4.405   4.947
    1C        C  301   4.355   2.882   2.059
    1C        C  302   4.469   3.066   2.181
    1C        C  303   4.395   2.944   2.179
    1C        C  304   4.478   3.145   2.299
    1C        C  305   4.440   3.082   2.420
    1C        C  306   4.505   3.288   2.537
    1C        C  307   4.470   3.151   2.539
    1C        C  308   4.515   3.362   2.657
    1C        C  309   4.501   3.294   2.779
    1C        C  310   4.520   3.502   2.900
    1C        C  311   4.518   3.361   2.902
    1C        C  312   4.517   3.575   3.021
    1C        C  313   4.514   3.508   3.146
    1C        C  314   4.493   3.719   3.267
    1C        C  315   4.515   3.580   3.268
    1C        C  316   4.477   3.790   3.388
    1C        C  317   4.495   3.723   3.511
    1C        C  318   4.426   3.925   3.630
    1C        C  319   4.477   3.793   3.632
    1C        C  320   4.398   3.990   3.753
    1C        C  321   4.431   3.927   3.875
    1C        C  322   4.319   4.112   3.991
    1C        C  323   4.396   3.994   3.994
    1C        C  324   4.281   4.174   4.113
    1C        C  325   4.323   4.123   4.238
    1C        C  326   4.186   4.287   4.353
    1C        C  327   4.284   4.185   4.358
    1C        C  328   4.138   4.338   4.475
    1C        C  329   4.195   4.299   4.598
    1C        C  330   4.025   4.435   4.716
    1C        C  331   4.139   4.350   4.718
    1C        C  332   3.970   4.494   4.832
    1C        C  333   4.051   4.480   4.946
    1C        C  334   4.551   3.271   2.066
    1C        C  335   4.534   3.132   2.072
    1C        C  336   4.538   3.355   2.177
    1C        C  337   4.515   3.282   2.296
    1C        C  338   4.518   3.499   2.414
    1C        C  339   4.521   3.358   2.415
    1C        C  340   4.516   3.574   2.534
    1C        C  341   4.525   3.503   2.657
    1C        C  342   4.499   3.715   2.778
    1C        C  343   4.516   3.575   2.778
    1C        C  344   4.479   3.784   2.900
    1C        C  345   4.495   3.714   3.022
    1C        C  346   4.427   3.917   3.141
    1C        C  347   4.469   3.782   3.143
    1C        C  348   4.398   3.983   3.263
    1C        C  349   4.434   3.924   3.386
    1C        C  350   4.325   4.108   3.503
    1C        C  351   4.404   3.991   3.507
    1C        C  352   4.279   4.165   3.624
    1C        C  353   4.321   4.108   3.746
    1C        C  354   4.186   4.273   3.868
    1C        C  355   4.276   4.165   3.867
    1C        C  356   4.129   4.323   3.988
    1C        C  357   4.180   4.272   4.109
    1C        C  358   4.013   4.406   4.234
    1C        C  359   4.130   4.327   4.229
    1C        C  360   3.952   4.445   4.355
    1C        C  361   4.019   4.414   4.476
    1C        C  362   3.830   4.519   4.593
    1C        C  363   3.958   4.461   4.595
    1C        C  364   3.762   4.550   4.714
    1C        C  365   3.837   4.541   4.833
    1C        C  366   3.629   4.599   4.952
    1C        C  367   3.766   4.578   4.948
    1C        C  368   4.512   3.569   2.054
    1C        C  369   4.527   3.495   2.173
    1C        C  370   4.500   3.710   2.289
    1C        C  371   4.516   3.570   2.292
    1C        C  372   4.485   3.781   2.410
    1C        C  373   4.499   3.714   2.533
    1C        C  374   4.427   3.913   2.653
    1C        C  375   4.482   3.783   2.655
    1C        C  376   4.401   3.979   2.775
    1C        C  377   4.427   3.916   2.898
    1C        C  378   4.323   4.102   3.012
    1C        C  379   4.398   3.983   3.019
    1C        C  380   4.278   4.157   3.134
    1C        C  381   4.316   4.098   3.256
    1C        C  382   4.176   4.255   3.379
    1C        C  383   4.274   4.154   3.379
    1C        C  384   4.122   4.303   3.500
    1C        C  385   4.178   4.264   3.624
    1C        C  386   4.007   4.386   3.744
    1C        C  387   4.128   4.314   3.746
    1C        C  388   3.944   4.426   3.865
    1C        C  389   4.009   4.399   3.987
    1C        C  390   3.818   4.485   4.110
    1C        C  391   3.950   4.433   4.110
    1C        C  392   3.751   4.514   4.231
    1C        C  393   3.820   4.495   4.352
    1C        C  394   3.616   4.553   4.478
    1C        C  395   3.755   4.527   4.474
    1C        C  396   3.544   4.569   4.598
    1C        C  397   3.623   4.572   4.715
    1C        C  398   3.413   4.551   4.843
    1C        C  399   3.551   4.579   4.837
    1C        C  400   3.341   4.520   4.959
    1C        C  401   4.502   3.708   2.051
    1C        C  402   4.457   3.921   2.168
    1C        C  403   4.490   3.783   2.169
    1C        C  404   4.417   3.983   2.289
    1C        C  405   4.441   3.916   2.411
    1C        C  406   4.332   4.101   2.526
    1C        C  407   4.404   3.980   2.531
    1C        C  408   4.285   4.156   2.648
    1C        C  409   4.323   4.097   2.770
    1C        C  410   4.175   4.255   2.889
    1C        C  411   4.276   4.156   2.890
    1C        C  412   4.124   4.299   3.012
    1C        C  413   4.181   4.260   3.136
    1C        C  414   4.003   4.378   3.255
    1C        C  415   4.124   4.305   3.257
    1C        C  416   3.943   4.411   3.379
    1C        C  417   4.004   4.381   3.503
    1C        C  418   3.812   4.476   3.621
    1C        C  419   3.940   4.417   3.623
    1C        C  420   3.748   4.507   3.743
    1C        C  421   3.816   4.484   3.865
    1C        C  422   3.612   4.533   3.990
    1C        C  423   3.750   4.506   3.988
    1C        C  424   3.541   4.544   4.111
    1C        C  425   3.612   4.542   4.233
    1C        C  426   3.403   4.543   4.361
    1C        C  427   3.544   4.550   4.357
    1C        C  428   3.331   4.547   4.483
    1C        C  429   3.402   4.563   4.604
    1C        C  430   3.194   4.522   4.727
    1C        C  431   3.334   4.543   4.726
    1C        C  432   3.122   4.501   4.848
    1C        C  433   3.203   4.503   4.962
    1C        C  434   4.385   4.126   2.053
    1C        C  435   4.452   4.003   2.055
    1C        C  436   4.305   4.165   2.165
    1C        C  437   4.338   4.101   2.288
    1C        C  438   4.181   4.255   2.404
    1C        C  439   4.282   4.156   2.406
    1C        C  440   4.124   4.299   2.526
    1C        C  441   4.183   4.254   2.646
    1C        C  442   4.003   4.375   2.767
    1C        C  443   4.121   4.298   2.765
    1C        C  444   3.940   4.407   2.889
    1C        C  445   4.004   4.374   3.011
    1C        C  446   3.813   4.468   3.132
    1C        C  447   3.941   4.408   3.132
    1C        C  448   3.748   4.492   3.255
    1C        C  449   3.815   4.471   3.378
    1C        C  450   3.607   4.523   3.498
    1C        C  451   3.746   4.497   3.498
    1C        C  452   3.541   4.539   3.622
    1C        C  453   3.609   4.535   3.746
    1C        C  454   3.398   4.547   3.868
    1C        C  455   3.540   4.543   3.868
    1C        C  456   3.331   4.536   3.991
    1C        C  457   3.400   4.541   4.114
    1C        C  458   3.197   4.499   4.239
    1C        C  459   3.333   4.536   4.239
    1C        C  460   3.129   4.482   4.362
    1C        C  461   3.194   4.514   4.483
    1C        C  462   2.997   4.439   4.604
    1C        C  463   3.126   4.496   4.606
    1C        C  464   2.934   4.403   4.725
    1C        C  465   2.989   4.448   4.848
    1C        C  466   2.797   4.345   4.959
    1C        C  467   2.907   4.430   4.965
    1C        C  468   4.126   4.287   2.041
    1C        C  469   4.186   4.245   2.160
    1C        C  470   4.003   4.363   2.280
    1C        C  471   4.126   4.293   2.280
    1C        C  472   3.937   4.398   2.400
    1C        C  473   4.001   4.368   2.523
    1C        C  474   3.809   4.456   2.646
    1C        C  475   3.942   4.409   2.644
    1C        C  476   3.743   4.486   2.767
    1C        C  477   3.812   4.466   2.889
    1C        C  478   3.606   4.517   3.012
    1C        C  479   3.745   4.494   3.010
    1C        C  480   3.536   4.529   3.134
    1C        C  481   3.609   4.516   3.255
    1C        C  482   3.395   4.531   3.378
    1C        C  483   3.536   4.524   3.376
    1C        C  484   3.327   4.527   3.502
    1C        C  485   3.400   4.541   3.623
    1C        C  486   3.193   4.500   3.745
    1C        C  487   3.330   4.537   3.745
    1C        C  488   3.129   4.476   3.869
    1C        C  489   3.194   4.501   3.991
    1C        C  490   3.003   4.421   4.117
    1C        C  491   3.130   4.484   4.116
    1C        C  492   2.940   4.390   4.239
    1C        C  493   2.999   4.428   4.362
    1C        C  494   2.827   4.306   4.485
    1C        C  495   2.936   4.396   4.484
    1C        C  496   2.775   4.258   4.607
    1C        C  497   2.823   4.314   4.728
    1C        C  498   2.665   4.166   4.849
    1C        C  499   2.755   4.275   4.845
    1C        C  500   2.599   4.116   4.962
    1C        C  501   4.005   4.356   2.044
    1C        C  502   3.811   4.460   2.160
    1C        C  503   3.937   4.396   2.160
    1C        C  504   3.740   4.480   2.280
    1C        C  505   3.806   4.451   2.401
    1C        C  506   3.603   4.507   2.522
    1C        C  507   3.739   4.469   2.524
    1C        C  508   3.534   4.513   2.645
    1C        C  509   3.603   4.512   2.768
    1C        C  510   3.392   4.528   2.890
    1C        C  511   3.534   4.521   2.890
    1C        C  512   3.322   4.526   3.012
    1C        C  513   3.395   4.533   3.133
    1C        C  514   3.188   4.495   3.258
    1C        C  515   3.326   4.528   3.256
    1C        C  516   3.122   4.474   3.381
    1C        C  517   3.189   4.501   3.502
    1C        C  518   2.994   4.418   3.628
    1C        C  519   3.122   4.478   3.625
    1C        C  520   2.937   4.384   3.752
    1C        C  521   3.001   4.417   3.874
    1C        C  522   2.834   4.288   3.998
    1C        C  523   2.942   4.379   3.997
    1C        C  524   2.788   4.239   4.122
    1C        C  525   2.832   4.299   4.243
    1C        C  526   2.694   4.138   4.367
    1C        C  527   2.779   4.250   4.364
    1C        C  528   2.656   4.078   4.489
    1C        C  529   2.689   4.146   4.608
    1C        C  530   2.581   3.965   4.732
    1C        C  531   2.643   4.093   4.731
    1C        C  532   2.541   3.903   4.854
    1C        C  533   2.526   3.996   4.962
    1C        C  534   3.616   4.555   2.044
    1C        C  535   3.749   4.512   2.045
    1C        C  536   3.532   4.543   2.159
    1C        C  537   3.602   4.512   2.279
    1C        C  538   3.390   4.519   2.401
    1C        C  539   3.531   4.522   2.401
    1C        C  540   3.321   4.517   2.524
    1C        C  541   3.393   4.516   2.646
    1C        C  542   3.182   4.495   2.770
    1C        C  543   3.322   4.519   2.768
    1C        C  544   3.117   4.470   2.893
    1C        C  545   3.184   4.493   3.014
    1C        C  546   2.993   4.407   3.140
    1C        C  547   3.119   4.471   3.137
    1C        C  548   2.939   4.365   3.263
    1C        C  549   2.997   4.407   3.385
    1C        C  550   2.827   4.282   3.508
    1C        C  551   2.936   4.373   3.507
    1C        C  552   2.777   4.239   3.633
    1C        C  553   2.830   4.292   3.753
    1C        C  554   2.698   4.127   3.878
    1C        C  555   2.783   4.239   3.875
    1C        C  556   2.663   4.065   4.001
    1C        C  557   2.701   4.128   4.121
    1C        C  558   2.603   3.945   4.248
    1C        C  559   2.660   4.074   4.245
    1C        C  560   2.575   3.880   4.370
    1C        C  561   2.599   3.948   4.492
    1C        C  562   2.538   3.749   4.617
    1C        C  563   2.566   3.887   4.615
    1C        C  564   2.524   3.683   4.741
    1C        C  565   2.527   3.761   4.859
    1C        C  566   2.535   3.546   4.981
    1C        C  567   2.521   3.684   4.976
    1C        C  568   3.320   4.493   2.039
    1C        C  569   3.392   4.520   2.156
    1C        C  570   3.181   4.481   2.282
    1C        C  571   3.320   4.512   2.279
    1C        C  572   3.117   4.456   2.406
    1C        C  573   3.184   4.487   2.526
    1C        C  574   2.989   4.406   2.648
    1C        C  575   3.114   4.471   2.649
    1C        C  576   2.931   4.370   2.772
    1C        C  577   2.989   4.410   2.895
    1C        C  578   2.820   4.283   3.017
    1C        C  579   2.931   4.371   3.018
    1C        C  580   2.775   4.229   3.140
    1C        C  581   2.827   4.279   3.261
    1C        C  582   2.698   4.116   3.387
    1C        C  583   2.778   4.232   3.385
    1C        C  584   2.667   4.058   3.512
    1C        C  585   2.697   4.123   3.634
    1C        C  586   2.597   3.938   3.758
    1C        C  587   2.659   4.065   3.757
    1C        C  588   2.577   3.872   3.881
    1C        C  589   2.605   3.937   4.004
    1C        C  590   2.539   3.739   4.128
    1C        C  591   2.578   3.875   4.128
    1C        C  592   2.527   3.673   4.252
    1C        C  593   2.537   3.744   4.374
    1C        C  594   2.516   3.535   4.498
    1C        C  595   2.522   3.676   4.497
    1C        C  596   2.512   3.466   4.622
    1C        C  597   2.516   3.541   4.742
    1C        C  598   2.537   3.330   4.863
    1C        C  599   2.526   3.470   4.864
    1C        C  600   2.533   3.252   4.980
    1C        C  601   3.191   4.444   2.046
    1C        C  602   2.979   4.399   2.162
    1C        C  603   3.111   4.453   2.161
    1C        C  604   2.925   4.357   2.286
    1C        C  605   2.988   4.399   2.406
    1C        C  606   2.819   4.274   2.531
    1C        C  607   2.927   4.365   2.528
    1C        C  608   2.777   4.219   2.654
    1C        C  609   2.827   4.274   2.774
    1C        C  610   2.691   4.113   2.897
    1C        C  611   2.773   4.228   2.896
    1C        C  612   2.656   4.054   3.020
    1C        C  613   2.691   4.115   3.143
    1C        C  614   2.595   3.928   3.270
    1C        C  615   2.654   4.057   3.266
    1C        C  616   2.568   3.868   3.395
    1C        C  617   2.599   3.934   3.516
    1C        C  618   2.535   3.732   3.643
    1C        C  619   2.571   3.868   3.638
    1C        C  620   2.517   3.664   3.765
    1C        C  621   2.531   3.738   3.885
    1C        C  622   2.510   3.527   4.012
    1C        C  623   2.521   3.668   4.007
    1C        C  624   2.514   3.457   4.135
    1C        C  625   2.514   3.532   4.255
    1C        C  626   2.539   3.323   4.380
    1C        C  627   2.513   3.462   4.378
    1C        C  628   2.565   3.258   4.503
    1C        C  629   2.538   3.328   4.623
    1C        C  630   2.599   3.122   4.746
    1C        C  631   2.553   3.256   4.744
    1C        C  632   2.614   3.050   4.868
    1C        C  633   2.560   3.115   4.984
    1C        C  634   2.787   4.297   2.053
    1C        C  635   2.891   4.391   2.049
    1C        C  636   2.749   4.229   2.169
    1C        C  637   2.807   4.278   2.288
    1C        C  638   2.678   4.113   2.413
    1C        C  639   2.761   4.227   2.411
    1C        C  640   2.639   4.053   2.535
    1C        C  641   2.687   4.110   2.655
    1C        C  642   2.592   3.921   2.781
    1C        C  643   2.651   4.049   2.777
    1C        C  644   2.566   3.860   2.906
    1C        C  645   2.593   3.928   3.027
    1C        C  646   2.535   3.724   3.150
    1C        C  647   2.565   3.862   3.149
    1C        C  648   2.518   3.660   3.274
    1C        C  649   2.532   3.732   3.395
    1C        C  650   2.511   3.523   3.522
    1C        C  651   2.522   3.664   3.519
    1C        C  652   2.512   3.454   3.645
    1C        C  653   2.503   3.523   3.768
    1C        C  654   2.524   3.314   3.893
    1C        C  655   2.504   3.454   3.891
    1C        C  656   2.536   3.244   4.015
    1C        C  657   2.527   3.317   4.136
    1C        C  658   2.590   3.116   4.257
    1C        C  659   2.553   3.252   4.259
    1C        C  660   2.634   3.061   4.380
    1C        C  661   2.602   3.121   4.504
    1C        C  662   2.710   2.939   4.626
    1C        C  663   2.632   3.056   4.625
    1C        C  664   2.751   2.879   4.747
    1C        C  665   2.694   2.931   4.866
    1C        C  666   2.744   2.872   4.983
    1C        C  667   2.687   4.021   2.056
    1C        C  668   2.686   4.103   2.170
    1C        C  669   2.593   3.914   2.294
    1C        C  670   2.649   4.044   2.293
    1C        C  671   2.562   3.850   2.416
    1C        C  672   2.586   3.922   2.535
    1C        C  673   2.524   3.722   2.660
    1C        C  674   2.566   3.856   2.658
    1C        C  675   2.522   3.651   2.783
    1C        C  676   2.537   3.721   2.904
    1C        C  677   2.516   3.513   3.032
    1C        C  678   2.525   3.654   3.028
    1C        C  679   2.515   3.446   3.156
    1C        C  680   2.508   3.519   3.277
    1C        C  681   2.537   3.312   3.402
    1C        C  682   2.508   3.451   3.401
    1C        C  683   2.556   3.245   3.525
    1C        C  684   2.539   3.315   3.646
    1C        C  685   2.603   3.117   3.773
    1C        C  686   2.549   3.248   3.770
    1C        C  687   2.632   3.054   3.896
    1C        C  688   2.595   3.116   4.017
    1C        C  689   2.706   2.934   4.140
    1C        C  690   2.619   3.045   4.138
    1C        C  691   2.749   2.879   4.262
    1C        C  692   2.712   2.943   4.383
    1C        C  693   2.751   2.881   4.503
    1C        C  694   2.632   3.892   2.057
    1C        C  695   2.527   3.707   2.175
    1C        C  696   2.580   3.838   2.175
    1C        C  697   2.510   3.640   2.298
    1C        C  698   2.520   3.715   2.418
    1C        C  699   2.494   3.507   2.544
    1C        C  700   2.503   3.648   2.541
    1C        C  701   2.505   3.436   2.666
    1C        C  702   2.507   3.511   2.785
    1C        C  703   2.532   3.303   2.914
    1C        C  704   2.512   3.443   2.909
    1C        C  705   2.548   3.234   3.036
    1C        C  706   2.535   3.306   3.157
    1C        C  707   2.607   3.110   3.282
    1C        C  708   2.556   3.242   3.281
    1C        C  709   2.633   3.048   3.406
    1C        C  710   2.605   3.112   3.528
    1C        C  711   2.709   2.931   3.652
    1C        C  712   2.634   3.050   3.652
    1C        C  713   2.753   2.876   3.775
    1C        C  714   2.712   2.937   3.896
    1C        C  715   2.757   2.883   4.018
    1C        C  716   2.453   3.501   2.064
    1C        C  717   2.488   3.636   2.060
    1C        C  718   2.471   3.424   2.184
    1C        C  719   2.484   3.500   2.303
    1C        C  720   2.518   3.292   2.422
    1C        C  721   2.491   3.431   2.426
    1C        C  722   2.542   3.227   2.545
    1C        C  723   2.527   3.296   2.668
    1C        C  724   2.588   3.097   2.793
    1C        C  725   2.544   3.231   2.792
    1C        C  726   2.626   3.038   2.916
    1C        C  727   2.595   3.101   3.039
    1C        C  728   2.705   2.920   3.161
    1C        C  729   2.627   3.038   3.162
    1C        C  730   2.750   2.871   3.285
    1C        C  731   2.712   2.931   3.407
    1C        C  732   2.755   2.876   3.530
    1C        C  733   2.491   3.197   2.071
    1C        C  734   2.493   3.283   2.182
    1C        C  735   2.584   3.086   2.307
    1C        C  736   2.529   3.217   2.303
    1C        C  737   2.617   3.024   2.430
    1C        C  738   2.587   3.093   2.549
    1C        C  739   2.696   2.914   2.676
    1C        C  740   2.618   3.031   2.672
    1C        C  741   2.740   2.853   2.795
    1C        C  742   2.697   2.916   2.914
    1C        C  743   2.745   2.864   3.037
    1C        C  744   2.547   3.069   2.072
    1C        C  745   2.682   2.896   2.191
    1C        C  746   2.608   3.016   2.187
    1C        C  747   2.728   2.840   2.312
    1C        C  748   2.692   2.905   2.432
    1C        C  749   2.736   2.851   2.556
    1C        C  750   2.732   2.836   2.074
    1C        C  751   3.664   2.331   1.971
    1C        O  752   3.652   2.209   1.997
    1C        O  753   3.644   2.362   1.836
    1C        C  754   4.616   3.053   1.977
    1C        O  755   4.571   3.051   1.859
    1C        O  756   4.755   3.040   1.983
    1C        C  757   4.463   4.224   1.974
    1C        O  758   4.515   4.322   2.033
    1C        O  759   4.440   4.240   1.836
    1C        C  760   3.595   4.667   1.949
    1C        O  761   3.564   4.786   1.979
    1C        O  762   3.563   4.653   1.814
    1C        C  763   2.880   4.496   1.946
    1C        O  764   2.921   4.471   1.829
    1C        O  765   2.781   4.595   1.954
    1C        C  766   2.336   3.470   1.979
    1C        O  767   2.313   3.490   1.857
    1C        O  768   2.218   3.417   2.033
    1C        C  769   4.711   3.599   5.039
    1C        O  770   4.715   3.559   5.159
    1C        O  771   4.841   3.613   4.988
    1C        C  772   4.274   4.464   5.033
    1C        O  773   4.324   4.409   5.135
    1C        O  774   4.327   4.593   5.019
    1C        C  775   4.139   2.500   5.061
    1C        O  776   4.233   2.432   5.012
    1C        O  777   4.174   2.529   5.194
    1C        C  778   2.905   4.514   5.087
    1C        O  779   2.879   4.637   5.080
    1C        O  780   2.944   4.457   5.208
    1C        C  781   2.483   3.043   5.088
    1C        O  782   2.386   2.974   5.045
    1C        O  783   2.545   2.982   5.196
    1C        C  784   2.398   4.006   5.035
    1C        O  785   2.298   4.075   5.000
    1C        O  786   2.361   3.922   5.141
    1C        C  787   2.949   2.441   1.991
    1C        O  788   2.946   2.487   1.873
    1C        O  789   2.936   2.304   1.977
    1C        C  790   3.178   2.370   5.063
    1C        O  791   3.116   2.264   5.034
    1C        O  792   3.205   2.381   5.200
    1C        H  793   4.279   3.022   5.064
    1C        H  794   4.146   2.824   5.058
    1C        H  795   4.491   3.136   5.066
    1C        H  796   4.550   3.367   5.063
    1C        H  797   4.549   3.808   5.054
    1C        H  798   4.366   3.944   5.043
    1C        H  799   4.251   4.146   5.046
    1C        H  800   4.030   4.548   5.026
    1C        H  801   3.811   4.570   5.045
    1C        H  802   3.584   4.638   5.042
    1C        H  803   3.394   4.481   5.043
    1C        H  804   3.157   4.499   5.059
    1C        H  805   3.870   2.533   5.076
    1C        H  806   3.672   2.448   5.071
    1C        H  807   3.009   2.572   5.066
    1C        H  808   3.441   2.520   5.070
    1C        H  809   2.876   2.745   5.081
    1C        H  810   2.681   2.868   5.069
    1C        H  811   2.546   3.296   5.077
    1C        H  812   2.617   3.515   5.044
    1C        H  813   2.507   3.737   5.068
    1C        H  814   2.603   4.175   5.051
    1C        H  815   2.727   4.351   5.040
    1C        H  816   2.731   2.892   1.983
    1C        H  817   2.839   2.679   1.984
    1C        H  818   3.196   2.405   2.003
    1C        H  819   3.433   2.465   1.982
    1C        H  820   3.866   2.499   1.974
    1C        H  821   4.072   2.610   1.973
    1C        H  822   4.281   2.699   1.983
    1C        H  823   4.360   2.942   1.971
    1C        H  824   4.588   3.312   1.974
    1C        H  825   4.541   3.524   1.962
    1C        H  826   4.535   3.754   1.960
    1C        H  827   3.795   4.503   1.949
    1C        H  828   3.952   4.357   1.951
    1C        H  829   4.190   4.321   1.963
    1C        H  830   4.518   3.982   1.974
    1C        H  831   2.678   3.827   1.985
    1C        H  832   2.739   4.047   1.966
    1C        H  833   2.702   4.309   1.989
    1C        H  834   3.353   4.532   1.945
    1C        H  835   3.157   4.373   1.974
    1C        H  836   2.495   2.996   2.015
    1C        H  837   2.463   3.234   1.975
    1C        H  838   2.508   3.675   1.962
    2V3OU   H29  839   2.806   3.548   3.687
    2V3OU   C27  840   2.794   3.506   3.791
    2V3OU   H27  841   2.737   3.571   3.862
    2V3OU   H28  842   2.746   3.405   3.792
    2V3OU   O11  843   2.922   3.474   3.845
    2V3OU   C15  844   2.932   3.401   3.962
    2V3OU   C13  845   3.060   3.373   4.013
    2V3OU   C14  846   3.085   3.269   4.104
    2V3OU   C16  847   2.984   3.192   4.160
    2V3OU    H6  848   2.997   3.114   4.237
    2V3OU   C12  849   3.218   3.232   4.158
    2V3OU    O2  850   3.238   3.131   4.228
    2V3OU   C10  851   3.330   3.310   4.103
    2V3OU    C8  852   3.459   3.268   4.129
    2V3OU   O10  853   3.487   3.150   4.192
    2V3OU   H26  854   3.402   3.113   4.222
    2V3OU    C6  855   3.567   3.346   4.077
    2V3OU    C5  856   3.541   3.465   4.010
    2V3OU    C4  857   3.704   3.289   4.077
    2V3OU    H4  858   3.724   3.224   4.168
    2V3OU    H5  859   3.718   3.222   3.987
    2V3OU    C2  860   3.816   3.393   4.078
    2V3OU    O6  861   3.806   3.472   4.197
    2V3OU   H21  862   3.767   3.550   4.154
    2V3OU    C3  863   3.783   3.491   3.966
    2V3OU    H2  864   3.856   3.575   3.961
    2V3OU    H3  865   3.784   3.437   3.868
    2V3OU   C25  866   3.951   3.324   4.054
    2V3OU    O7  867   3.989   3.286   3.943
    2V3OU   C26  868   4.030   3.289   4.179
    2V3OU   H22  869   4.069   3.385   4.222
    2V3OU   H23  870   4.120   3.230   4.151
    2V3OU    O8  871   3.961   3.211   4.275
    2V3OU   H24  872   3.919   3.269   4.341
    2V3OU    C1  873   3.650   3.564   3.980
    2V3OU    H1  874   3.630   3.620   3.884
    2V3OU    O3  875   3.669   3.660   4.083
    2V3OU   C19  876   3.625   3.795   4.062
    2V3OU    H9  877   3.521   3.806   4.020
    2V3OU    O4  878   3.715   3.848   3.967
    2V3OU   C20  879   3.843   3.878   4.023
    2V3OU   H10  880   3.904   3.783   4.033
    2V3OU   C24  881   3.614   3.859   4.201
    2V3OU   H16  882   3.542   3.799   4.263
    2V3OU   H17  883   3.570   3.961   4.186
    2V3OU   C23  884   3.754   3.878   4.259
    2V3OU   H15  885   3.798   3.775   4.277
    2V3OU    N1  886   3.738   3.955   4.381
    2V3OU   H19  887   3.810   3.923   4.442
    2V3OU   H20  888   3.651   3.926   4.422
    2V3OU   C21  889   3.848   3.950   4.158
    2V3OU   H11  890   3.949   3.930   4.205
    2V3OU    O5  891   3.835   4.091   4.157
    2V3OU   H18  892   3.790   4.099   4.243
    2V3OU   C22  893   3.915   3.950   3.911
    2V3OU   H12  894   3.869   4.052   3.899
    2V3OU   H13  895   3.904   3.890   3.817
    2V3OU   H14  896   4.022   3.969   3.939
    2V3OU   C11  897   3.163   3.477   4.008
    2V3OU    O1  898   3.137   3.593   3.970
    2V3OU    C9  899   3.302   3.431   4.033
    2V3OU    C7  900   3.407   3.510   3.989
    2V3OU    O9  901   3.390   3.627   3.918
    2V3OU   H25  902   3.295   3.635   3.896
    2V3OU   C17  903   2.831   3.324   4.022
    2V3OU    H7  904   2.730   3.360   3.999
    2V3OU   C18  905   2.856   3.225   4.116
    2V3OU    H8  906   2.791   3.175   4.189
    3SOL     OW  907   3.312   4.694   5.718
    3SOL    HW1  908   3.360   4.725   5.801
    3SOL    HW2  909   3.263   4.772   5.677
    4SOL     OW  910   6.877   7.024   7.005
    4SOL    HW1  911   6.820   7.005   6.925
    4SOL    HW2  912   6.823   0.049   0.045
    5SOL     OW  913   5.113   1.130   3.182
    5SOL    HW1  914   5.126   1.045   3.131
    5SOL    HW2  915   5.061   1.194   3.126
    6SOL     OW  916   5.276   2.177   3.076
    6SOL    HW1  917   5.237   2.122   3.150
    6SOL    HW2  918   5.361   2.219   3.107
    7SOL     OW  919   0.725   3.901   4.643
    7SOL    HW1  920   0.647   3.948   4.684
    7SOL    HW2  921   0.721   3.804   4.667
    8SOL     OW  922   2.721   1.971   5.044
    8SOL    HW1  923   2.778   1.935   4.970
    8SOL    HW2  924   2.740   1.920   5.128
    9SOL     OW  925   6.285   1.433   5.884
    9SOL    HW1  926   6.221   1.358   5.865
    9SOL    HW2  927   6.357   1.433   5.814
   10SOL     OW  928   3.549   5.077   4.177
   10SOL    HW1  929   3.568   5.012   4.103
   10SOL    HW2  930   3.451   5.078   4.196
   11SOL     OW  931   1.506   1.485   6.839
   11SOL    HW1  932   1.441   1.506   6.766
   11SOL    HW2  933   1.599   1.479   6.800
   12SOL     OW  934   2.666   4.654   4.160
   12SOL    HW1  935   2.588   4.594   4.173
   12SOL    HW2  936   2.727   4.647   4.239
   13SOL     OW  937   3.119   6.265   2.936
   13SOL    HW1  938   3.066   6.324   2.997
   13SOL    HW2  939   3.173   6.322   2.873
   14SOL     OW  940   4.138   4.417   6.315
   14SOL    HW1  941   4.097   4.381   6.232
   14SOL    HW2  942   4.202   4.350   6.353
   15SOL     OW  943   0.569   6.439   6.170
   15SOL    HW1  944   0.584   6.399   6.080
   15SOL    HW2  945   0.631   6.399   6.236
   16SOL     OW  946   5.458   2.313   6.567
   16SOL    HW1  947   5.510   2.329   6.483
   16SOL    HW2  948   5.408   2.395   6.591
   17SOL     OW  949   5.601   0.659   6.287
   17SOL    HW1  950   5.646   0.574   6.313
   17SOL    HW2  951   5.531   0.682   6.356
   18SOL     OW  952   3.712   1.296   5.075
   18SOL    HW1  953   3.713   1.379   5.130
   18SOL    HW2  954   3.718   1.216   5.134
   19SOL     OW  955   0.439   1.875   2.620
   19SOL    HW1  956   0.447   1.924   2.707
   19SOL    HW2  957   0.530   1.855   2.584
   20SOL     OW  958   5.526   1.949   5.551
   20SOL    HW1  959   5.508   1.892   5.470
   20SOL    HW2  960   5.445   2.004   5.572
   21SOL     OW  961   3.016   6.990   2.939
   21SOL    HW1  962   2.959   6.953   3.012
   21SOL    HW2  963   3.057   0.050   2.968
   22SOL     OW  964   1.005   6.150   6.023
   22SOL    HW1  965   1.097   6.181   5.998
   22SOL    HW2  966   1.012   6.074   6.087
   23SOL     OW  967   4.151   5.465   2.322
   23SOL    HW1  968   4.137   5.519   2.405
   23SOL    HW2  969   4.188   5.375   2.347
   24SOL     OW  970   3.614   6.955   2.236
   24SOL    HW1  971   3.585   7.026   2.301
   24SOL    HW2  972   3.633   6.996   2.147
   25SOL     OW  973   2.714   6.939   4.513
   25SOL    HW1  974   2.658   6.902   4.588
   25SOL    HW2  975   2.810   6.914   4.528
   26SOL     OW  976   0.816   2.024   6.825
   26SOL    HW1  977   0.869   2.093   6.775
   26SOL    HW2  978   0.762   1.970   6.761
   27SOL     OW  979   1.051   1.031   2.379
   27SOL    HW1  980   1.052   0.986   2.469
   27SOL    HW2  981   1.143   1.063   2.358
   28SOL     OW  982   1.108   0.872   4.358
   28SOL    HW1  983   1.028   0.863   4.417
   28SOL    HW2  984   1.163   0.788   4.363
   29SOL     OW  985   6.055   0.908   1.222
   29SOL    HW1  986   6.138   0.905   1.278
   29SOL    HW2  987   6.046   1.000   1.182
   30SOL     OW  988   3.060   0.356   5.019
   30SOL    HW1  989   2.986   0.421   5.002
   30SOL    HW2  990   3.095   0.369   5.112
   31SOL     OW  991   0.123   2.271   5.219
   31SOL    HW1  992   0.178   2.211   5.160
   31SOL    HW2  993   0.122   2.363   5.180
   32SOL     OW  994   1.340   1.498   2.482
   32SOL    HW1  995   1.344   1.581   2.537
   32SOL    HW2  996   1.426   1.488   2.431
   33SOL     OW  997   0.226   4.111   5.108
   33SOL    HW1  998   0.295   4.074   5.169
   33SOL    HW2  999   0.217   4.052   5.027
   34SOL     OW 1000   2.482   5.530   5.223
   34SOL    HW1 1001   2.402   5.554   5.169
   34SOL    HW2 1002   2.484   5.432   5.238
   35SOL     OW 1003   4.722   1.595   5.458
   35SOL    HW1 1004   4.817   1.598   5.428
   35SOL    HW2 1005   4.662   1.590   5.379
   36SOL     OW 1006   5.352   0.998   4.083
   36SOL    HW1 1007   5.292   1.069   4.046
   36SOL    HW2 1008   5.415   1.040   4.149
   37SOL     OW 1009   1.932   1.408   4.304
   37SOL    HW1 1010   1.911   1.484   4.365
   37SOL    HW2 1011   1.868   1.333   4.320
   38SOL     OW 1012   2.115   4.331   1.419
   38SOL    HW1 1013   2.034   4.357   1.368
   38SOL    HW2 1014   2.089   4.283   1.502
   39SOL     OW 1015   6.652   4.412   6.566
   39SOL    HW1 1016   6.672   4.408   6.664
   39SOL    HW2 1017   6.556   4.387   6.551
   40SOL     OW 1018   3.144   1.144   6.418
   40SOL    HW1 1019   3.095   1.186   6.495
   40SOL    HW2 1020   3.205   1.073   6.453
   41SOL     OW 1021   6.701   4.113   2.456
   41SOL    HW1 1022   6.681   4.101   2.553
   41SOL    HW2 1023   6.620   4.091   2.402
   42SOL     OW 1024   3.178   6.263   3.921
   42SOL    HW1 1025   3.161   6.165   3.933
   42SOL    HW2 1026   3.214   6.301   4.006
   43SOL     OW 1027   3.992   6.951   5.231
   43SOL    HW1 1028   3.977   6.858   5.195
   43SOL    HW2 1029   3.988   7.016   5.155
   44SOL     OW 1030   6.079   3.208   5.117
   44SOL    HW1 1031   5.990   3.224   5.075
   44SOL    HW2 1032   6.151   3.224   5.049
   45SOL     OW 1033   4.353   5.987   1.803
   45SOL    HW1 1034   4.389   5.959   1.892
   45SOL    HW2 1035   4.258   5.956   1.794
   46SOL     OW 1036   0.320   2.841   4.025
   46SOL    HW1 1037   0.258   2.863   4.100
   46SOL    HW2 1038   0.318   2.743   4.007
   47SOL     OW 1039   5.237   4.008   1.546
   47SOL    HW1 1040   5.295   4.007   1.627
   47SOL    HW2 1041   5.175   3.930   1.548
   48SOL     OW 1042   0.317   2.004   6.418
   48SOL    HW1 1043   0.340   2.024   6.322
   48SOL    HW2 1044   0.402   1.993   6.470
   49SOL     OW 1045   5.285   3.030   1.675
   49SOL    HW1 1046   5.314   3.035   1.579
   49SOL    HW2 1047   5.263   2.935   1.698
   50SOL     OW 1048   6.165   1.855   5.992
   50SOL    HW1 1049   6.072   1.890   5.987
   50SOL    HW2 1050   6.228   1.931   6.009
   51SOL     OW 1051   1.983   5.819   2.592
   51SOL    HW1 1052   2.073   5.842   2.627
   51SOL    HW2 1053   1.976   5.719   2.583
   52SOL     OW 1054   5.350   2.673   1.887
   52SOL    HW1 1055   5.290   2.733   1.940
   52SOL    HW2 1056   5.331   2.685   1.789
   53SOL     OW 1057   4.920   0.044   3.606
   53SOL    HW1 1058   4.986   0.033   3.531
   53SOL    HW2 1059   4.847   0.106   3.577
   54SOL     OW 1060   5.323   6.314   0.051
   54SOL    HW1 1061   5.253   6.255   0.092
   54SOL    HW2 1062   5.333   6.291   6.980
   55SOL     OW 1063   2.143   2.109   5.569
   55SOL    HW1 1064   2.150   2.080   5.473
   55SOL    HW2 1065   2.229   2.152   5.596
   56SOL     OW 1066   1.398   1.680   1.396
   56SOL    HW1 1067   1.350   1.595   1.372
   56SOL    HW2 1068   1.421   1.730   1.312
   57SOL     OW 1069   3.862   1.232   6.947
   57SOL    HW1 1070   3.880   1.305   7.013
   57SOL    HW2 1071   3.839   1.271   6.858
   58SOL     OW 1072   0.524   0.041   6.201
   58SOL    HW1 1073   0.483   0.051   6.110
   58SOL    HW2 1074   0.547   6.972   6.217
   59SOL     OW 1075   6.655   3.411   6.348
   59SOL    HW1 1076   6.662   3.508   6.370
   59SOL    HW2 1077   6.571   3.394   6.296
   60SOL     OW 1078   5.428   1.704   3.599
   60SOL    HW1 1079   5.520   1.676   3.573
   60SOL    HW2 1080   5.369   1.623   3.607
   61SOL     OW 1081   0.368   0.632   4.272
   61SOL    HW1 1082   0.284   0.657   4.222
   61SOL    HW2 1083   0.407   0.550   4.231
   62SOL     OW 1084   1.083   1.325   1.319
   62SOL    HW1 1085   0.998   1.299   1.275
   62SOL    HW2 1086   1.069   1.330   1.418
   63SOL     OW 1087   3.968   0.446   4.594
   63SOL    HW1 1088   3.958   0.348   4.575
   63SOL    HW2 1089   3.879   0.491   4.584
   64SOL     OW 1090   0.818   3.510   6.302
   64SOL    HW1 1091   0.843   3.513   6.399
   64SOL    HW2 1092   0.720   3.490   6.294
   65SOL     OW 1093   1.014   6.615   5.754
   65SOL    HW1 1094   0.970   6.689   5.703
   65SOL    HW2 1095   0.963   6.598   5.838
   66SOL     OW 1096   3.359   0.208   2.952
   66SOL    HW1 1097   3.367   0.296   2.998
   66SOL    HW2 1098   3.449   0.179   2.919
   67SOL     OW 1099   0.035   2.338   6.249
   67SOL    HW1 1100   0.058   2.426   6.209
   67SOL    HW2 1101   0.099   2.317   6.323
   68SOL     OW 1102   6.715   1.661   6.014
   68SOL    HW1 1103   6.804   1.617   6.024
   68SOL    HW2 1104   6.647   1.610   6.066
   69SOL     OW 1105   1.797   3.855   6.054
   69SOL    HW1 1106   1.851   3.846   5.970
   69SOL    HW2 1107   1.715   3.798   6.047
   70SOL     OW 1108   5.383   4.454   5.082
   70SOL    HW1 1109   5.310   4.503   5.129
   70SOL    HW2 1110   5.453   4.520   5.052
   71SOL     OW 1111   4.726   1.833   3.426
   71SOL    HW1 1112   4.669   1.814   3.506
   71SOL    HW2 1113   4.676   1.807   3.343
   72SOL     OW 1114   0.403   1.041   2.682
   72SOL    HW1 1115   0.454   1.052   2.597
   72SOL    HW2 1116   0.369   1.131   2.712
   73SOL     OW 1117   3.253   0.272   0.501
   73SOL    HW1 1118   3.313   0.212   0.448
   73SOL    HW2 1119   3.252   0.242   0.596
   74SOL     OW 1120   2.414   1.962   6.525
   74SOL    HW1 1121   2.365   1.947   6.439
   74SOL    HW2 1122   2.461   2.050   6.522
   75SOL     OW 1123   3.729   1.307   1.328
   75SOL    HW1 1124   3.755   1.211   1.337
   75SOL    HW2 1125   3.763   1.359   1.407
   76SOL     OW 1126   2.318   4.038   5.992
   76SOL    HW1 1127   2.310   3.958   6.052
   76SOL    HW2 1128   2.311   4.008   5.897
   77SOL     OW 1129   2.149   5.477   4.119
   77SOL    HW1 1130   2.230   5.420   4.136
   77SOL    HW2 1131   2.178   5.571   4.101
   78SOL     OW 1132   4.487   1.255   1.300
   78SOL    HW1 1133   4.472   1.290   1.393
   78SOL    HW2 1134   4.428   1.305   1.236
   79SOL     OW 1135   2.557   6.216   2.163
   79SOL    HW1 1136   2.607   6.191   2.080
   79SOL    HW2 1137   2.481   6.276   2.140
   80SOL     OW 1138   4.765   1.670   5.032
   80SOL    HW1 1139   4.855   1.629   5.047
   80SOL    HW2 1140   4.697   1.598   5.018
   81SOL     OW 1141   1.654   0.206   0.130
   81SOL    HW1 1142   1.713   0.273   0.174
   81SOL    HW2 1143   1.691   0.182   0.040
   82SOL     OW 1144   0.532   6.113   1.781
   82SOL    HW1 1145   0.608   6.073   1.833
   82SOL    HW2 1146   0.568   6.182   1.717
   83SOL     OW 1147   6.975   1.530   6.054
   83SOL    HW1 1148   6.940   1.489   6.138
   83SOL    HW2 1149   7.010   1.458   5.994
   84SOL     OW 1150   6.210   4.105   3.425
   84SOL    HW1 1151   6.278   4.091   3.497
   84SOL    HW2 1152   6.194   4.019   3.377
   85SOL     OW 1153   2.204   0.514   3.400
   85SOL    HW1 1154   2.269   0.558   3.338
   85SOL    HW2 1155   2.254   0.468   3.474
   86SOL     OW 1156   6.285   0.956   6.638
   86SOL    HW1 1157   6.353   0.962   6.565
   86SOL    HW2 1158   6.226   1.037   6.635
   87SOL     OW 1159   4.575   4.303   0.521
   87SOL    HW1 1160   4.491   4.328   0.472
   87SOL    HW2 1161   4.636   4.382   0.525
   88SOL     OW 1162   2.823   1.976   5.932
   88SOL    HW1 1163   2.793   1.937   6.019
   88SOL    HW2 1164   2.862   1.903   5.875
   89SOL     OW 1165   2.860   3.373   1.371
   89SOL    HW1 1166   2.795   3.303   1.341
   89SOL    HW2 1167   2.867   3.444   1.300
   90SOL     OW 1168   5.167   4.336   2.066
   90SOL    HW1 1169   5.098   4.343   1.993
   90SOL    HW2 1170   5.125   4.295   2.147
   91SOL     OW 1171   6.215   5.787   6.774
   91SOL    HW1 1172   6.251   5.833   6.692
   91SOL    HW2 1173   6.290   5.742   6.822
   92SOL     OW 1174   4.965   3.488   1.244
   92SOL    HW1 1175   4.876   3.525   1.270
   92SOL    HW2 1176   4.958   3.388   1.233
   93SOL     OW 1177   3.051   3.233   0.441
   93SOL    HW1 1178   3.050   3.287   0.525
   93SOL    HW2 1179   3.119   3.160   0.449
   94SOL     OW 1180   2.557   6.478   0.446
   94SOL    HW1 1181   2.470   6.445   0.409
   94SOL    HW2 1182   2.542   6.508   0.541
   95SOL     OW 1183   1.239   0.792   3.733
   95SOL    HW1 1184   1.177   0.870   3.721
   95SOL    HW2 1185   1.273   0.790   3.827
   96SOL     OW 1186   4.622   5.590   6.929
   96SOL    HW1 1187   4.598   5.493   6.921
   96SOL    HW2 1188   4.711   5.599   6.975
   97SOL     OW 1189   2.303   4.430   5.472
   97SOL    HW1 1190   2.344   4.499   5.413
   97SOL    HW2 1191   2.268   4.354   5.416
   98SOL     OW 1192   0.808   2.264   0.969
   98SOL    HW1 1193   0.763   2.330   1.028
   98SOL    HW2 1194   0.763   2.261   0.880
   99SOL     OW 1195   3.893   3.939   3.065
   99SOL    HW1 1196   3.903   3.975   3.157
   99SOL    HW2 1197   3.802   3.960   3.030
  100SOL     OW 1198   6.551   0.110   4.352
  100SOL    HW1 1199   6.560   0.142   4.446
  100SOL    HW2 1200   6.511   0.019   4.351
  101SOL     OW 1201   0.511   5.507   2.158
  101SOL    HW1 1202   0.423   5.463   2.177
  101SOL    HW2 1203   0.573   5.491   2.234
  102SOL     OW 1204   2.925   6.287   2.038
  102SOL    HW1 1205   2.881   6.375   2.058
  102SOL    HW2 1206   2.858   6.223   2.001
  103SOL     OW 1207   1.541   1.246   2.378
  103SOL    HW1 1208   1.613   1.195   2.330
  103SOL    HW2 1209   1.580   1.290   2.458
  104SOL     OW 1210   1.498   5.402   2.515
  104SOL    HW1 1211   1.577   5.365   2.563
  104SOL    HW2 1212   1.451   5.468   2.574
  105SOL     OW 1213   5.007   1.762   6.591
  105SOL    HW1 1214   5.081   1.793   6.651
  105SOL    HW2 1215   5.045   1.740   6.501
  106SOL     OW 1216   4.879   4.881   1.608
  106SOL    HW1 1217   4.909   4.798   1.655
  106SOL    HW2 1218   4.825   4.857   1.528
  107SOL     OW 1219   6.853   0.400   0.002
  107SOL    HW1 1220   6.911   0.450   0.067
  107SOL    HW2 1221   6.795   0.335   0.053
  108SOL     OW 1222   2.958   0.013   5.299
  108SOL    HW1 1223   2.902   0.009   5.216
  108SOL    HW2 1224   2.899   0.006   5.380
  109SOL     OW 1225   3.164   0.642   2.610
  109SOL    HW1 1226   3.100   0.634   2.686
  109SOL    HW2 1227   3.114   0.646   2.524
  110SOL     OW 1228   2.502   5.174   4.796
  110SOL    HW1 1229   2.458   5.213   4.876
  110SOL    HW2 1230   2.557   5.094   4.823
  111SOL     OW 1231   0.402   1.511   2.621
  111SOL    HW1 1232   0.413   1.503   2.522
  111SOL    HW2 1233   0.332   1.580   2.641
  112SOL     OW 1234   4.930   6.844   6.550
  112SOL    HW1 1235   4.877   6.928   6.544
  112SOL    HW2 1236   4.919   6.791   6.466
  113SOL     OW 1237   6.507   5.094   3.124
  113SOL    HW1 1238   6.527   5.122   3.218
  113SOL    HW2 1239   6.558   5.152   3.061
  114SOL     OW 1240   0.737   5.115   2.872
  114SOL    HW1 1241   0.719   5.205   2.834
  114SOL    HW2 1242   0.832   5.089   2.853
  115SOL     OW 1243   5.841   1.135   3.412
  115SOL    HW1 1244   5.793   1.062   3.363
  115SOL    HW2 1245   5.775   1.204   3.442
  116SOL     OW 1246   6.747   6.063   1.281
  116SOL    HW1 1247   6.813   6.010   1.334
  116SOL    HW2 1248   6.665   6.008   1.265
  117SOL     OW 1249   2.057   1.164   7.008
  117SOL    HW1 1250   2.137   1.105   6.997
  117SOL    HW2 1251   2.007   1.170   6.922
  118SOL     OW 1252   1.726   1.537   3.621
  118SOL    HW1 1253   1.776   1.597   3.559
  118SOL    HW2 1254   1.732   1.573   3.714
  119SOL     OW 1255   0.553   6.497   6.923
  119SOL    HW1 1256   0.583   6.479   6.829
  119SOL    HW2 1257   0.493   6.577   6.923
  120SOL     OW 1258   4.965   0.070   4.537
  120SOL    HW1 1259   4.929   7.007   4.562
  120SOL    HW2 1260   4.890   0.131   4.514
  121SOL     OW 1261   1.739   3.773   0.293
  121SOL    HW1 1262   1.716   3.744   0.386
  121SOL    HW2 1263   1.818   3.721   0.260
  122SOL     OW 1264   1.517   3.478   0.289
  122SOL    HW1 1265   1.479   3.386   0.299
  122SOL    HW2 1266   1.592   3.476   0.223
  123SOL     OW 1267   1.293   1.023   0.872
  123SOL    HW1 1268   1.383   0.986   0.893
  123SOL    HW2 1269   1.277   1.019   0.773
  124SOL     OW 1270   3.101   2.094   0.505
  124SOL    HW1 1271   3.031   2.141   0.559
  124SOL    HW2 1272   3.190   2.139   0.520
  125SOL     OW 1273   3.926   2.771   0.314
  125SOL    HW1 1274   3.980   2.747   0.234
  125SOL    HW2 1275   3.830   2.785   0.287
  126SOL     OW 1276   2.984   3.320   3.491
  126SOL    HW1 1277   3.044   3.276   3.424
  126SOL    HW2 1278   2.922   3.383   3.445
  127SOL     OW 1279   6.674   6.154   5.538
  127SOL    HW1 1280   6.691   6.178   5.443
  127SOL    HW2 1281   6.664   6.055   5.547
  128SOL     OW 1282   5.153   3.264   2.610
  128SOL    HW1 1283   5.207   3.217   2.541
  128SOL    HW2 1284   5.213   3.294   2.685
  129SOL     OW 1285   2.487   4.554   0.996
  129SOL    HW1 1286   2.534   4.570   1.083
  129SOL    HW2 1287   2.421   4.628   0.980
  130SOL     OW 1288   6.280   0.823   4.559
  130SOL    HW1 1289   6.230   0.848   4.476
  130SOL    HW2 1290   6.214   0.800   4.631
  131SOL     OW 1291   5.856   0.378   4.456
  131SOL    HW1 1292   5.896   0.288   4.474
  131SOL    HW2 1293   5.913   0.449   4.497
  132SOL     OW 1294   3.867   3.486   1.428
  132SOL    HW1 1295   3.890   3.402   1.379
  132SOL    HW2 1296   3.768   3.497   1.432
  133SOL     OW 1297   5.340   1.010   3.622
  133SOL    HW1 1298   5.261   1.070   3.635
  133SOL    HW2 1299   5.389   1.000   3.709
  134SOL     OW 1300   0.551   0.748   2.373
  134SOL    HW1 1301   0.555   0.657   2.414
  134SOL    HW2 1302   0.640   0.793   2.380
  135SOL     OW 1303   5.037   3.339   4.327
  135SOL    HW1 1304   5.120   3.286   4.345
  135SOL    HW2 1305   4.986   3.351   4.413
  136SOL     OW 1306   2.595   6.023   4.619
  136SOL    HW1 1307   2.537   5.980   4.550
  136SOL    HW2 1308   2.625   6.113   4.586
  137SOL     OW 1309   4.180   1.077   4.203
  137SOL    HW1 1310   4.219   1.109   4.290
  137SOL    HW2 1311   4.089   1.117   4.191
  138SOL     OW 1312   0.945   5.120   3.410
  138SOL    HW1 1313   0.927   5.212   3.376
  138SOL    HW2 1314   0.948   5.055   3.334
  139SOL     OW 1315   2.517   5.647   6.532
  139SOL    HW1 1316   2.540   5.550   6.527
  139SOL    HW2 1317   2.455   5.670   6.457
  140SOL     OW 1318   1.891   6.710   2.738
  140SOL    HW1 1319   1.951   6.661   2.802
  140SOL    HW2 1320   1.801   6.668   2.737
  141SOL     OW 1321   6.761   3.606   6.710
  141SOL    HW1 1322   6.662   3.595   6.719
  141SOL    HW2 1323   6.781   3.689   6.658
  142SOL     OW 1324   1.712   3.635   1.369
  142SOL    HW1 1325   1.783   3.658   1.435
  142SOL    HW2 1326   1.645   3.709   1.364
  143SOL     OW 1327   5.712   6.149   1.182
  143SOL    HW1 1328   5.730   6.130   1.279
  143SOL    HW2 1329   5.732   6.067   1.128
  144SOL     OW 1330   2.908   4.807   3.728
  144SOL    HW1 1331   2.853   4.739   3.776
  144SOL    HW2 1332   2.964   4.858   3.794
  145SOL     OW 1333   0.779   5.035   2.572
  145SOL    HW1 1334   0.778   4.936   2.581
  145SOL    HW2 1335   0.855   5.072   2.625
  146SOL     OW 1336   5.549   0.883   5.150
  146SOL    HW1 1337   5.619   0.945   5.115
  146SOL    HW2 1338   5.554   0.880   5.250
  147SOL     OW 1339   5.045   1.240   4.997
  147SOL    HW1 1340   5.036   1.300   5.076
  147SOL    HW2 1341   5.051   1.295   4.913
  148SOL     OW 1342   1.362   4.827   1.535
  148SOL    HW1 1343   1.360   4.859   1.440
  148SOL    HW2 1344   1.277   4.777   1.555
  149SOL     OW 1345   2.936   2.399   5.384
  149SOL    HW1 1346   2.996   2.388   5.305
  149SOL    HW2 1347   2.870   2.472   5.366
  150SOL     OW 1348   4.498   1.023   5.723
  150SOL    HW1 1349   4.431   0.988   5.657
  150SOL    HW2 1350   4.581   1.051   5.675
  151SOL     OW 1351   4.387   0.967   1.416
  151SOL    HW1 1352   4.357   0.881   1.374
  151SOL    HW2 1353   4.360   1.043   1.357
  152SOL     OW 1354   6.846   1.235   6.900
  152SOL    HW1 1355   6.903   1.222   6.819
  152SOL    HW2 1356   6.904   1.256   6.979
  153SOL     OW 1357   3.083   0.401   3.627
  153SOL    HW1 1358   3.003   0.369   3.677
  153SOL    HW2 1359   3.156   0.422   3.692
  154SOL     OW 1360   6.747   2.676   0.644
  154SOL    HW1 1361   6.648   2.667   0.640
  154SOL    HW2 1362   6.785   2.602   0.700
  155SOL     OW 1363   0.457   0.125   1.653
  155SOL    HW1 1364   0.521   0.078   1.713
  155SOL    HW2 1365   0.363   0.104   1.682
  156SOL     OW 1366   6.157   1.508   0.423
  156SOL    HW1 1367   6.060   1.531   0.434
  156SOL    HW2 1368   6.172   1.414   0.452
  157SOL     OW 1369   6.065   2.810   0.216
  157SOL    HW1 1370   6.112   2.777   0.298
  157SOL    HW2 1371   5.999   2.880   0.242
  158SOL     OW 1372   1.593   2.325   1.973
  158SOL    HW1 1373   1.682   2.288   1.949
  158SOL    HW2 1374   1.605   2.413   2.019
  159SOL     OW 1375   4.621   4.697   1.071
  159SOL    HW1 1376   4.574   4.678   1.158
  159SOL    HW2 1377   4.555   4.735   1.006
  160SOL     OW 1378   6.542   0.439   1.111
  160SOL    HW1 1379   6.577   0.473   1.025
  160SOL    HW2 1380   6.526   0.515   1.174
  161SOL     OW 1381   1.071   6.449   1.091
  161SOL    HW1 1382   0.992   6.437   1.152
  161SOL    HW2 1383   1.139   6.507   1.136
  162SOL     OW 1384   2.926   6.459   0.534
  162SOL    HW1 1385   2.860   6.524   0.569
  162SOL    HW2 1386   2.879   6.386   0.484
  163SOL     OW 1387   6.989   5.184   3.105
  163SOL    HW1 1388   6.987   5.103   3.163
  163SOL    HW2 1389   0.021   5.253   3.146
  164SOL     OW 1390   1.042   1.906   2.508
  164SOL    HW1 1391   1.070   2.002   2.505
  164SOL    HW2 1392   1.038   1.870   2.415
  165SOL     OW 1393   6.235   5.458   2.017
  165SOL    HW1 1394   6.189   5.392   2.076
  165SOL    HW2 1395   6.227   5.428   1.922
  166SOL     OW 1396   6.491   3.949   1.562
  166SOL    HW1 1397   6.576   3.922   1.607
  166SOL    HW2 1398   6.444   3.868   1.528
  167SOL     OW 1399   5.412   1.599   6.678
  167SOL    HW1 1400   5.402   1.699   6.681
  167SOL    HW2 1401   5.336   1.557   6.727
  168SOL     OW 1402   4.099   2.638   1.497
  168SOL    HW1 1403   4.016   2.666   1.448
  168SOL    HW2 1404   4.110   2.695   1.579
  169SOL     OW 1405   6.393   2.658   0.193
  169SOL    HW1 1406   6.295   2.651   0.171
  169SOL    HW2 1407   6.404   2.676   0.290
  170SOL     OW 1408   0.349   5.784   3.624
  170SOL    HW1 1409   0.319   5.863   3.678
  170SOL    HW2 1410   0.417   5.813   3.557
  171SOL     OW 1411   1.601   3.654   6.372
  171SOL    HW1 1412   1.592   3.596   6.291
  171SOL    HW2 1413   1.684   3.630   6.422
  172SOL     OW 1414   5.867   2.809   2.587
  172SOL    HW1 1415   5.934   2.746   2.624
  172SOL    HW2 1416   5.782   2.760   2.566
  173SOL     OW 1417   5.942   1.015   4.318
  173SOL    HW1 1418   5.864   1.037   4.260
  173SOL    HW2 1419   5.968   0.919   4.305
  174SOL     OW 1420   5.300   5.119   4.921
  174SOL    HW1 1421   5.362   5.040   4.921
  174SOL    HW2 1422   5.329   5.183   4.992
  175SOL     OW 1423   2.834   0.471   0.928
  175SOL    HW1 1424   2.911   0.527   0.960
  175SOL    HW2 1425   2.756   0.485   0.988
  176SOL     OW 1426   5.020   4.772   3.282
  176SOL    HW1 1427   5.070   4.844   3.330
  176SOL    HW2 1428   5.072   4.687   3.284
  177SOL     OW 1429   5.258   2.219   5.318
  177SOL    HW1 1430   5.322   2.261   5.382
  177SOL    HW2 1431   5.210   2.144   5.364
  178SOL     OW 1432   2.733   5.067   4.418
  178SOL    HW1 1433   2.781   4.984   4.393
  178SOL    HW2 1434   2.770   5.103   4.504
  179SOL     OW 1435   3.979   6.337   0.397
  179SOL    HW1 1436   3.912   6.330   0.323
  179SOL    HW2 1437   3.937   6.384   0.475
  180SOL     OW 1438   2.780   6.482   0.231
  180SOL    HW1 1439   2.718   6.508   0.305
  180SOL    HW2 1440   2.726   6.452   0.152
  181SOL     OW 1441   3.002   2.277   5.615
  181SOL    HW1 1442   3.034   2.196   5.565
  181SOL    HW2 1443   2.965   2.344   5.551
  182SOL     OW 1444   4.758   3.371   6.910
  182SOL    HW1 1445   4.786   3.356   7.005
  182SOL    HW2 1446   4.659   3.363   6.903
  183SOL     OW 1447   4.098   2.125   3.943
  183SOL    HW1 1448   4.126   2.190   4.013
  183SOL    HW2 1449   4.066   2.175   3.863
  184SOL     OW 1450   0.822   6.607   3.336
  184SOL    HW1 1451   0.792   6.588   3.242
  184SOL    HW2 1452   0.742   6.620   3.394
  185SOL     OW 1453   0.958   1.757   3.887
  185SOL    HW1 1454   1.023   1.690   3.922
  185SOL    HW2 1455   0.967   1.843   3.937
  186SOL     OW 1456   5.737   6.209   3.975
  186SOL    HW1 1457   5.638   6.196   3.979
  186SOL    HW2 1458   5.766   6.208   3.879
  187SOL     OW 1459   4.339   5.404   2.667
  187SOL    HW1 1460   4.332   5.314   2.623
  187SOL    HW2 1461   4.385   5.467   2.605
  188SOL     OW 1462   1.078   2.068   3.089
  188SOL    HW1 1463   1.160   2.107   3.131
  188SOL    HW2 1464   1.008   2.054   3.159
  189SOL     OW 1465   6.964   4.560   6.897
  189SOL    HW1 1466   6.960   4.638   6.960
  189SOL    HW2 1467   6.903   4.576   6.820
  190SOL     OW 1468   6.135   4.806   6.968
  190SOL    HW1 1469   6.200   4.738   6.932
  190SOL    HW2 1470   6.046   4.792   6.924
  191SOL     OW 1471   6.495   1.450   5.719
  191SOL    HW1 1472   6.549   1.408   5.646
  191SOL    HW2 1473   6.521   1.546   5.729
  192SOL     OW 1474   0.671   4.695   1.537
  192SOL    HW1 1475   0.621   4.778   1.560
  192SOL    HW2 1476   0.692   4.694   1.440
  193SOL     OW 1477   4.302   4.908   5.390
  193SOL    HW1 1478   4.295   4.985   5.326
  193SOL    HW2 1479   4.272   4.824   5.344
  194SOL     OW 1480   4.093   6.820   1.578
  194SOL    HW1 1481   4.041   6.823   1.663
  194SOL    HW2 1482   4.042   6.868   1.507
  195SOL     OW 1483   2.901   0.267   3.804
  195SOL    HW1 1484   2.902   0.294   3.900
  195SOL    HW2 1485   2.806   0.249   3.776
  196SOL     OW 1486   3.154   0.346   6.661
  196SOL    HW1 1487   3.227   0.333   6.594
  196SOL    HW2 1488   3.167   0.281   6.736
  197SOL     OW 1489   2.963   6.051   6.699
  197SOL    HW1 1490   2.957   6.044   6.599
  197SOL    HW2 1491   2.923   5.970   6.741
  198SOL     OW 1492   4.175   6.204   0.983
  198SOL    HW1 1493   4.099   6.247   0.935
  198SOL    HW2 1494   4.149   6.110   1.008
  199SOL     OW 1495   6.617   1.097   2.429
  199SOL    HW1 1496   6.521   1.077   2.447
  199SOL    HW2 1497   6.635   1.094   2.331
  200SOL     OW 1498   1.218   3.558   2.109
  200SOL    HW1 1499   1.175   3.470   2.092
  200SOL    HW2 1500   1.245   3.599   2.022
  201SOL     OW 1501   3.077   6.382   6.151
  201SOL    HW1 1502   2.987   6.342   6.132
  201SOL    HW2 1503   3.122   6.330   6.223
  202SOL     OW 1504   5.078   0.015   4.878
  202SOL    HW1 1505   5.075   6.981   4.799
  202SOL    HW2 1506   5.068   0.110   4.848
  203SOL     OW 1507   4.458   2.620   5.603
  203SOL    HW1 1508   4.513   2.703   5.607
  203SOL    HW2 1509   4.499   2.550   5.662
  204SOL     OW 1510   1.024   6.977   6.960
  204SOL    HW1 1511   1.004   0.048   6.952
  204SOL    HW2 1512   1.055   6.942   6.872
  205SOL     OW 1513   0.990   1.722   1.622
  205SOL    HW1 1514   0.918   1.684   1.564
  205SOL    HW2 1515   1.014   1.656   1.693
  206SOL     OW 1516   0.270   4.871   2.205
  206SOL    HW1 1517   0.215   4.894   2.285
  206SOL    HW2 1518   0.321   4.951   2.175
  207SOL     OW 1519   4.201   0.745   5.397
  207SOL    HW1 1520   4.202   0.646   5.410
  207SOL    HW2 1521   4.124   0.785   5.446
  208SOL     OW 1522   5.593   4.026   5.744
  208SOL    HW1 1523   5.660   4.092   5.777
  208SOL    HW2 1524   5.519   4.074   5.696
  209SOL     OW 1525   0.558   5.894   5.599
  209SOL    HW1 1526   0.583   5.841   5.680
  209SOL    HW2 1527   0.637   5.945   5.566
  210SOL     OW 1528   4.179   2.196   2.244
  210SOL    HW1 1529   4.183   2.134   2.323
  210SOL    HW2 1530   4.162   2.143   2.161
  211SOL     OW 1531   1.093   6.950   3.571
  211SOL    HW1 1532   1.182   6.918   3.604
  211SOL    HW2 1533   1.043   6.994   3.645
  212SOL     OW 1534   2.227   4.892   2.097
  212SOL    HW1 1535   2.206   4.941   2.012
  212SOL    HW2 1536   2.157   4.914   2.165
  213SOL     OW 1537   4.692   0.980   6.744
  213SOL    HW1 1538   4.668   0.893   6.788
  213SOL    HW2 1539   4.740   0.962   6.658
  214SOL     OW 1540   2.242   5.856   2.656
  214SOL    HW1 1541   2.320   5.876   2.715
  214SOL    HW2 1542   2.266   5.877   2.562
  215SOL     OW 1543   3.578   4.172   2.132
  215SOL    HW1 1544   3.574   4.269   2.156
  215SOL    HW2 1545   3.488   4.131   2.148
  216SOL     OW 1546   1.635   0.462   4.717
  216SOL    HW1 1547   1.684   0.408   4.785
  216SOL    HW2 1548   1.692   0.475   4.637
  217SOL     OW 1549   1.721   2.871   4.530
  217SOL    HW1 1550   1.771   2.948   4.490
  217SOL    HW2 1551   1.776   2.788   4.524
  218SOL     OW 1552   1.238   2.867   5.029
  218SOL    HW1 1553   1.301   2.932   5.072
  218SOL    HW2 1554   1.290   2.798   4.979
  219SOL     OW 1555   3.849   5.007   6.230
  219SOL    HW1 1556   3.914   5.072   6.190
  219SOL    HW2 1557   3.759   5.051   6.238
  220SOL     OW 1558   3.273   5.176   0.271
  220SOL    HW1 1559   3.303   5.084   0.296
  220SOL    HW2 1560   3.242   5.176   0.176
  221SOL     OW 1561   5.390   3.902   2.871
  221SOL    HW1 1562   5.354   3.983   2.826
  221SOL    HW2 1563   5.455   3.856   2.810
  222SOL     OW 1564   1.725   4.679   5.229
  222SOL    HW1 1565   1.671   4.674   5.145
  222SOL    HW2 1566   1.672   4.725   5.301
  223SOL     OW 1567   0.724   3.303   0.706
  223SOL    HW1 1568   0.746   3.206   0.723
  223SOL    HW2 1569   0.627   3.318   0.721
  224SOL     OW 1570   2.438   2.456   3.468
  224SOL    HW1 1571   2.381   2.462   3.550
  224SOL    HW2 1572   2.432   2.541   3.416
  225SOL     OW 1573   5.432   1.041   6.427
  225SOL    HW1 1574   5.514   1.067   6.480
  225SOL    HW2 1575   5.355   1.097   6.457
  226SOL     OW 1576   0.833   6.606   6.742
  226SOL    HW1 1577   0.752   6.548   6.735
  226SOL    HW2 1578   0.910   6.561   6.699
  227SOL     OW 1579   1.063   4.665   3.186
  227SOL    HW1 1580   0.998   4.596   3.217
  227SOL    HW2 1581   1.089   4.646   3.091
  228SOL     OW 1582   3.095   0.808   4.107
  228SOL    HW1 1583   3.029   0.840   4.038
  228SOL    HW2 1584   3.118   0.712   4.088
  229SOL     OW 1585   6.666   5.401   1.126
  229SOL    HW1 1586   6.741   5.358   1.177
  229SOL    HW2 1587   6.698   5.425   1.035
  230SOL     OW 1588   2.425   4.887   3.416
  230SOL    HW1 1589   2.337   4.845   3.440
  230SOL    HW2 1590   2.431   4.977   3.460
  231SOL     OW 1591   5.919   2.698   6.177
  231SOL    HW1 1592   5.948   2.637   6.251
  231SOL    HW2 1593   5.881   2.643   6.102
  232SOL     OW 1594   0.663   4.190   6.084
  232SOL    HW1 1595   0.663   4.230   6.176
  232SOL    HW2 1596   0.740   4.128   6.075
  233SOL     OW 1597   2.241   1.163   4.744
  233SOL    HW1 1598   2.246   1.102   4.823
  233SOL    HW2 1599   2.172   1.233   4.761
  234SOL     OW 1600   2.860   5.334   5.687
  234SOL    HW1 1601   2.833   5.248   5.645
  234SOL    HW2 1602   2.814   5.410   5.641
  235SOL     OW 1603   3.992   3.159   2.467
  235SOL    HW1 1604   3.906   3.189   2.509
  235SOL    HW2 1605   3.972   3.113   2.381
  236SOL     OW 1606   6.182   3.131   6.354
  236SOL    HW1 1607   6.147   3.038   6.366
  236SOL    HW2 1608   6.107   3.196   6.365
  237SOL     OW 1609   0.858   6.460   0.762
  237SOL    HW1 1610   0.929   6.494   0.701
  237SOL    HW2 1611   0.828   6.533   0.823
  238SOL     OW 1612   6.563   3.031   0.905
  238SOL    HW1 1613   6.655   2.992   0.894
  238SOL    HW2 1614   6.560   3.120   0.859
  239SOL     OW 1615   6.427   4.854   0.240
  239SOL    HW1 1616   6.345   4.798   0.225
  239SOL    HW2 1617   6.492   4.803   0.296
  240SOL     OW 1618   0.600   3.444   5.947
  240SOL    HW1 1619   0.627   3.350   5.930
  240SOL    HW2 1620   0.597   3.494   5.860
  241SOL     OW 1621   1.083   0.289   3.594
  241SOL    HW1 1622   1.127   0.378   3.608
  241SOL    HW2 1623   1.126   0.221   3.653
  242SOL     OW 1624   0.842   2.482   5.949
  242SOL    HW1 1625   0.903   2.559   5.930
  242SOL    HW2 1626   0.830   2.428   5.865
  243SOL     OW 1627   4.761   0.524   5.896
  243SOL    HW1 1628   4.686   0.585   5.872
  243SOL    HW2 1629   4.788   0.471   5.815
  244SOL     OW 1630   4.829   2.982   4.319
  244SOL    HW1 1631   4.924   2.975   4.349
  244SOL    HW2 1632   4.821   3.049   4.246
  245SOL     OW 1633   6.877   2.265   4.186
  245SOL    HW1 1634   6.911   2.175   4.163
  245SOL    HW2 1635   6.911   2.292   4.276
  246SOL     OW 1636   5.181   3.914   3.530
  246SOL    HW1 1637   5.175   3.848   3.605
  246SOL    HW2 1638   5.144   3.874   3.447
  247SOL     OW 1639   2.654   1.432   3.182
  247SOL    HW1 1640   2.712   1.472   3.112
  247SOL    HW2 1641   2.683   1.465   3.272
  248SOL     OW 1642   4.787   1.880   4.532
  248SOL    HW1 1643   4.777   1.957   4.468
  248SOL    HW2 1644   4.758   1.796   4.487
  249SOL     OW 1645   3.195   6.764   5.091
  249SOL    HW1 1646   3.096   6.756   5.076
  249SOL    HW2 1647   3.213   6.842   5.152
  250SOL     OW 1648   5.152   1.381   5.986
  250SOL    HW1 1649   5.136   1.283   5.987
  250SOL    HW2 1650   5.249   1.399   6.007
  251SOL     OW 1651   4.631   3.520   6.058
  251SOL    HW1 1652   4.708   3.515   5.994
  251SOL    HW2 1653   4.663   3.499   6.150
  252SOL     OW 1654   0.100   1.289   5.712
  252SOL    HW1 1655   0.005   1.306   5.686
  252SOL    HW2 1656   0.143   1.229   5.644
  253SOL     OW 1657   2.584   4.212   0.598
  253SOL    HW1 1658   2.501   4.204   0.652
  253SOL    HW2 1659   2.565   4.262   0.514
  254SOL     OW 1660   6.194   2.545   4.183
  254SOL    HW1 1661   6.251   2.465   4.166
  254SOL    HW2 1662   6.250   2.627   4.184
  255SOL     OW 1663   3.029   1.795   4.102
  255SOL    HW1 1664   3.050   1.867   4.168
  255SOL    HW2 1665   2.999   1.713   4.150
  256SOL     OW 1666   7.005   5.035   0.201
  256SOL    HW1 1667   6.947   5.020   0.282
  256SOL    HW2 1668   0.048   4.963   0.197
  257SOL     OW 1669   3.392   5.716   5.362
  257SOL    HW1 1670   3.300   5.720   5.399
  257SOL    HW2 1671   3.400   5.638   5.300
  258SOL     OW 1672   5.170   3.737   4.813
  258SOL    HW1 1673   5.227   3.773   4.887
  258SOL    HW2 1674   5.204   3.647   4.785
  259SOL     OW 1675   1.306   3.148   2.966
  259SOL    HW1 1676   1.248   3.178   2.891
  259SOL    HW2 1677   1.267   3.067   3.009
  260SOL     OW 1678   4.953   0.116   0.344
  260SOL    HW1 1679   4.946   0.211   0.373
  260SOL    HW2 1680   4.871   0.067   0.372
  261SOL     OW 1681   0.805   3.533   1.126
  261SOL    HW1 1682   0.817   3.550   1.029
  261SOL    HW2 1683   0.747   3.604   1.166
  262SOL     OW 1684   0.729   4.341   2.405
  262SOL    HW1 1685   0.702   4.353   2.500
  262SOL    HW2 1686   0.652   4.364   2.345
  263SOL     OW 1687   6.715   1.634   4.526
  263SOL    HW1 1688   6.692   1.595   4.615
  263SOL    HW2 1689   6.659   1.715   4.510
  264SOL     OW 1690   0.175   3.541   5.807
  264SOL    HW1 1691   0.185   3.598   5.726
  264SOL    HW2 1692   0.238   3.572   5.879
  265SOL     OW 1693   5.178   4.151   3.392
  265SOL    HW1 1694   5.265   4.196   3.372
  265SOL    HW2 1695   5.195   4.065   3.441
  266SOL     OW 1696   3.308   2.175   0.132
  266SOL    HW1 1697   3.249   2.095   0.143
  266SOL    HW2 1698   3.332   2.184   0.035
  267SOL     OW 1699   1.150   2.796   6.779
  267SOL    HW1 1700   1.089   2.751   6.845
  267SOL    HW2 1701   1.149   2.894   6.795
  268SOL     OW 1702   4.980   4.885   4.755
  268SOL    HW1 1703   4.883   4.903   4.775
  268SOL    HW2 1704   5.035   4.908   4.835
  269SOL     OW 1705   1.759   1.753   6.790
  269SOL    HW1 1706   1.702   1.832   6.772
  269SOL    HW2 1707   1.736   1.714   6.879
  270SOL     OW 1708   4.814   0.859   2.242
  270SOL    HW1 1709   4.890   0.797   2.225
  270SOL    HW2 1710   4.837   0.951   2.209
  271SOL     OW 1711   1.954   1.639   0.919
  271SOL    HW1 1712   1.882   1.700   0.885
  271SOL    HW2 1713   2.014   1.614   0.843
  272SOL     OW 1714   3.898   5.712   3.916
  272SOL    HW1 1715   3.936   5.793   3.960
  272SOL    HW2 1716   3.931   5.630   3.962
  273SOL     OW 1717   1.475   5.699   5.246
  273SOL    HW1 1718   1.527   5.738   5.322
  273SOL    HW2 1719   1.531   5.633   5.197
  274SOL     OW 1720   4.927   3.102   3.608
  274SOL    HW1 1721   4.974   3.172   3.554
  274SOL    HW2 1722   4.875   3.042   3.547
  275SOL     OW 1723   0.644   5.403   6.189
  275SOL    HW1 1724   0.674   5.333   6.255
  275SOL    HW2 1725   0.556   5.377   6.150
  276SOL     OW 1726   6.522   5.572   3.870
  276SOL    HW1 1727   6.508   5.636   3.946
  276SOL    HW2 1728   6.466   5.490   3.885
  277SOL     OW 1729   2.912   0.869   6.229
  277SOL    HW1 1730   2.885   0.774   6.246
  277SOL    HW2 1731   2.961   0.904   6.308
  278SOL     OW 1732   5.208   3.828   2.593
  278SOL    HW1 1733   5.138   3.796   2.656
  278SOL    HW2 1734   5.259   3.903   2.635
  279SOL     OW 1735   6.698   3.094   3.929
  279SOL    HW1 1736   6.758   3.068   3.853
  279SOL    HW2 1737   6.739   3.170   3.979
  280SOL     OW 1738   4.703   6.621   4.173
  280SOL    HW1 1739   4.743   6.712   4.183
  280SOL    HW2 1740   4.768   6.562   4.124
  281SOL     OW 1741   3.498   5.128   3.734
  281SOL    HW1 1742   3.593   5.156   3.740
  281SOL    HW2 1743   3.491   5.029   3.747
  282SOL     OW 1744   3.933   1.794   5.845
  282SOL    HW1 1745   4.004   1.858   5.816
  282SOL    HW2 1746   3.915   1.806   5.943
  283SOL     OW 1747   6.128   0.336   5.074
  283SOL    HW1 1748   6.189   0.294   5.006
  283SOL    HW2 1749   6.071   0.404   5.029
  284SOL     OW 1750   0.455   4.638   4.194
  284SOL    HW1 1751   0.422   4.544   4.198
  284SOL    HW2 1752   0.390   4.698   4.241
  285SOL     OW 1753   5.299   6.320   0.350
  285SOL    HW1 1754   5.395   6.323   0.321
  285SOL    HW2 1755   5.256   6.408   0.331
  286SOL     OW 1756   3.853   5.095   5.360
  286SOL    HW1 1757   3.906   5.050   5.432
  286SOL    HW2 1758   3.802   5.026   5.308
  287SOL     OW 1759   1.548   5.632   6.048
  287SOL    HW1 1760   1.488   5.581   5.986
  287SOL    HW2 1761   1.643   5.622   6.019
  288SOL     OW 1762   3.850   0.640   1.160
  288SOL    HW1 1763   3.759   0.682   1.152
  288SOL    HW2 1764   3.887   0.622   1.069
  289SOL     OW 1765   1.190   5.392   5.861
  289SOL    HW1 1766   1.203   5.365   5.766
  289SOL    HW2 1767   1.163   5.312   5.915
  290SOL     OW 1768   4.230   0.417   2.853
  290SOL    HW1 1769   4.155   0.481   2.837
  290SOL    HW2 1770   4.213   0.367   2.938
  291SOL     OW 1771   4.350   1.325   3.591
  291SOL    HW1 1772   4.367   1.233   3.556
  291SOL    HW2 1773   4.404   1.340   3.674
  292SOL     OW 1774   3.785   0.310   3.496
  292SOL    HW1 1775   3.862   0.372   3.513
  292SOL    HW2 1776   3.701   0.362   3.486
  293SOL     OW 1777   4.299   6.135   2.056
  293SOL    HW1 1778   4.397   6.118   2.066
  293SOL    HW2 1779   4.270   6.205   2.121
  294SOL     OW 1780   5.907   5.955   5.984
  294SOL    HW1 1781   5.994   5.959   5.936
  294SOL    HW2 1782   5.868   5.863   5.976
  295SOL     OW 1783   1.561   2.892   5.624
  295SOL    HW1 1784   1.464   2.892   5.601
  295SOL    HW2 1785   1.597   2.798   5.618
  296SOL     OW 1786   6.302   1.969   0.878
  296SOL    HW1 1787   6.298   2.063   0.912
  296SOL    HW2 1788   6.394   1.948   0.847
  297SOL     OW 1789   4.778   5.142   3.310
  297SOL    HW1 1790   4.762   5.240   3.300
  297SOL    HW2 1791   4.819   5.106   3.226
  298SOL     OW 1792   3.968   0.958   0.606
  298SOL    HW1 1793   3.928   0.976   0.695
  298SOL    HW2 1794   4.011   1.041   0.570
  299SOL     OW 1795   3.447   1.728   0.377
  299SOL    HW1 1796   3.369   1.676   0.411
  299SOL    HW2 1797   3.502   1.760   0.454
  300SOL     OW 1798   3.402   0.958   2.698
  300SOL    HW1 1799   3.449   1.025   2.640
  300SOL    HW2 1800   3.441   0.867   2.683
  301SOL     OW 1801   4.417   0.423   1.682
  301SOL    HW1 1802   4.340   0.363   1.662
  301SOL    HW2 1803   4.390   0.518   1.668
  302SOL     OW 1804   0.651   0.242   2.044
  302SOL    HW1 1805   0.611   0.322   2.089
  302SOL    HW2 1806   0.736   0.268   1.999
  303SOL     OW 1807   5.840   5.978   1.748
  303SOL    HW1 1808   5.811   6.058   1.800
  303SOL    HW2 1809   5.802   5.895   1.790
  304SOL     OW 1810   2.020   6.379   5.939
  304SOL    HW1 1811   1.929   6.339   5.950
  304SOL    HW2 1812   2.051   6.415   6.027
  305SOL     OW 1813   1.564   3.014   0.690
  305SOL    HW1 1814   1.532   2.972   0.775
  305SOL    HW2 1815   1.510   3.096   0.672
  306SOL     OW 1816   0.330   0.917   2.278
  306SOL    HW1 1817   0.405   0.861   2.311
  306SOL    HW2 1818   0.345   0.939   2.181
  307SOL     OW 1819   3.263   3.833   0.532
  307SOL    HW1 1820   3.238   3.910   0.592
  307SOL    HW2 1821   3.192   3.763   0.537
  308SOL     OW 1822   5.888   2.639   4.584
  308SOL    HW1 1823   5.860   2.592   4.500
  308SOL    HW2 1824   5.939   2.576   4.642
  309SOL     OW 1825   1.430   6.262   0.008
  309SOL    HW1 1826   1.421   6.266   6.935
  309SOL    HW2 1827   1.473   6.346   0.040
  310SOL     OW 1828   5.936   6.207   4.160
  310SOL    HW1 1829   5.854   6.219   4.104
  310SOL    HW2 1830   5.981   6.121   4.135
  311SOL     OW 1831   2.571   4.582   2.391
  311SOL    HW1 1832   2.637   4.605   2.462
  311SOL    HW2 1833   2.528   4.666   2.357
  312SOL     OW 1834   4.398   2.434   3.983
  312SOL    HW1 1835   4.381   2.428   3.884
  312SOL    HW2 1836   4.454   2.514   4.002
  313SOL     OW 1837   3.027   3.708   2.715
  313SOL    HW1 1838   3.090   3.762   2.659
  313SOL    HW2 1839   3.070   3.621   2.738
  314SOL     OW 1840   2.231   5.189   5.350
  314SOL    HW1 1841   2.143   5.181   5.303
  314SOL    HW2 1842   2.251   5.103   5.398
  315SOL     OW 1843   0.385   1.844   3.701
  315SOL    HW1 1844   0.407   1.758   3.746
  315SOL    HW2 1845   0.362   1.913   3.770
  316SOL     OW 1846   3.833   1.567   4.319
  316SOL    HW1 1847   3.742   1.591   4.286
  316SOL    HW2 1848   3.901   1.593   4.250
  317SOL     OW 1849   1.477   1.148   1.807
  317SOL    HW1 1850   1.566   1.185   1.830
  317SOL    HW2 1851   1.408   1.180   1.872
  318SOL     OW 1852   6.223   0.503   6.338
  318SOL    HW1 1853   6.174   0.579   6.381
  318SOL    HW2 1854   6.285   0.462   6.406
  319SOL     OW 1855   0.038   2.080   3.517
  319SOL    HW1 1856   0.027   1.994   3.566
  319SOL    HW2 1857   6.987   2.140   3.538
  320SOL     OW 1858   6.356   2.904   6.818
  320SOL    HW1 1859   6.324   2.907   6.913
  320SOL    HW2 1860   6.325   2.986   6.770
  321SOL     OW 1861   3.836   2.344   0.588
  321SOL    HW1 1862   3.780   2.354   0.506
  321SOL    HW2 1863   3.917   2.290   0.567
  322SOL     OW 1864   3.846   3.055   4.568
  322SOL    HW1 1865   3.811   3.141   4.531
  322SOL    HW2 1866   3.917   3.019   4.508
  323SOL     OW 1867   1.053   2.359   4.325
  323SOL    HW1 1868   1.000   2.440   4.351
  323SOL    HW2 1869   1.126   2.344   4.392
  324SOL     OW 1870   1.982   6.591   3.413
  324SOL    HW1 1871   1.888   6.611   3.441
  324SOL    HW2 1872   1.982   6.557   3.319
  325SOL     OW 1873   1.382   3.826   2.356
  325SOL    HW1 1874   1.314   3.900   2.355
  325SOL    HW2 1875   1.438   3.833   2.438
  326SOL     OW 1876   1.305   4.433   5.536
  326SOL    HW1 1877   1.232   4.472   5.479
  326SOL    HW2 1878   1.383   4.410   5.478
  327SOL     OW 1879   2.708   4.748   2.619
  327SOL    HW1 1880   2.733   4.816   2.550
  327SOL    HW2 1881   2.627   4.780   2.669
  328SOL     OW 1882   2.138   4.647   1.219
  328SOL    HW1 1883   2.183   4.558   1.232
  328SOL    HW2 1884   2.192   4.719   1.263
  329SOL     OW 1885   3.058   4.095   5.955
  329SOL    HW1 1886   3.115   4.084   5.873
  329SOL    HW2 1887   3.116   4.119   6.033
  330SOL     OW 1888   3.704   6.262   0.281
  330SOL    HW1 1889   3.686   6.308   0.368
  330SOL    HW2 1890   3.669   6.169   0.285
  331SOL     OW 1891   5.508   5.084   1.060
  331SOL    HW1 1892   5.567   5.029   1.119
  331SOL    HW2 1893   5.566   5.138   0.998
  332SOL     OW 1894   5.595   1.944   3.784
  332SOL    HW1 1895   5.562   1.950   3.878
  332SOL    HW2 1896   5.672   1.880   3.779
  333SOL     OW 1897   4.300   0.782   5.122
  333SOL    HW1 1898   4.284   0.754   5.216
  333SOL    HW2 1899   4.349   0.869   5.121
  334SOL     OW 1900   3.831   2.701   0.969
  334SOL    HW1 1901   3.840   2.602   0.979
  334SOL    HW2 1902   3.903   2.735   0.908
  335SOL     OW 1903   4.660   0.394   6.657
  335SOL    HW1 1904   4.677   0.390   6.756
  335SOL    HW2 1905   4.705   0.474   6.619
  336SOL     OW 1906   2.852   1.552   3.065
  336SOL    HW1 1907   2.894   1.522   3.150
  336SOL    HW2 1908   2.856   1.652   3.058
  337SOL     OW 1909   1.030   2.706   5.913
  337SOL    HW1 1910   1.127   2.721   5.933
  337SOL    HW2 1911   1.010   2.736   5.820
  338SOL     OW 1912   3.586   3.414   1.372
  338SOL    HW1 1913   3.497   3.372   1.385
  338SOL    HW2 1914   3.648   3.348   1.329
  339SOL     OW 1915   4.124   5.331   4.368
  339SOL    HW1 1916   4.109   5.430   4.372
  339SOL    HW2 1917   4.118   5.300   4.273
  340SOL     OW 1918   5.063   3.454   4.934
  340SOL    HW1 1919   5.078   3.414   5.024
  340SOL    HW2 1920   4.997   3.529   4.941
  341SOL     OW 1921   5.750   6.515   4.052
  341SOL    HW1 1922   5.822   6.524   3.984
  341SOL    HW2 1923   5.671   6.468   4.011
  342SOL     OW 1924   4.509   3.025   0.530
  342SOL    HW1 1925   4.589   3.069   0.570
  342SOL    HW2 1926   4.430   3.086   0.537
  343SOL     OW 1927   0.133   6.613   2.411
  343SOL    HW1 1928   0.141   6.598   2.509
  343SOL    HW2 1929   0.077   6.695   2.395
  344SOL     OW 1930   1.130   2.276   1.837
  344SOL    HW1 1931   1.230   2.276   1.835
  344SOL    HW2 1932   1.098   2.207   1.901
  345SOL     OW 1933   6.265   1.879   4.390
  345SOL    HW1 1934   6.307   1.968   4.371
  345SOL    HW2 1935   6.283   1.853   4.485
  346SOL     OW 1936   1.372   0.108   2.465
  346SOL    HW1 1937   1.423   0.082   2.547
  346SOL    HW2 1938   1.303   0.038   2.445
  347SOL     OW 1939   3.134   5.703   6.970
  347SOL    HW1 1940   3.224   5.688   7.011
  347SOL    HW2 1941   3.142   5.767   6.894
  348SOL     OW 1942   4.986   5.006   3.119
  348SOL    HW1 1943   5.002   4.921   3.170
  348SOL    HW2 1944   5.023   4.997   3.027
  349SOL     OW 1945   6.682   4.489   2.370
  349SOL    HW1 1946   6.745   4.522   2.300
  349SOL    HW2 1947   6.588   4.507   2.341
  350SOL     OW 1948   2.680   3.176   0.808
  350SOL    HW1 1949   2.610   3.121   0.854
  350SOL    HW2 1950   2.642   3.216   0.725
  351SOL     OW 1951   2.786   3.193   0.371
  351SOL    HW1 1952   2.872   3.207   0.420
  351SOL    HW2 1953   2.709   3.210   0.433
  352SOL     OW 1954   3.762   6.577   3.598
  352SOL    HW1 1955   3.716   6.498   3.558
  352SOL    HW2 1956   3.770   6.649   3.528
  353SOL     OW 1957   2.966   0.426   6.464
  353SOL    HW1 1958   3.019   0.406   6.547
  353SOL    HW2 1959   2.869   0.412   6.483
  354SOL     OW 1960   4.644   2.347   1.474
  354SOL    HW1 1961   4.713   2.414   1.501
  354SOL    HW2 1962   4.640   2.274   1.541
  355SOL     OW 1963   1.964   3.899   2.467
  355SOL    HW1 1964   1.867   3.905   2.442
  355SOL    HW2 1965   2.000   3.810   2.437
  356SOL     OW 1966   2.485   1.062   4.995
  356SOL    HW1 1967   2.501   1.070   4.897
  356SOL    HW2 1968   2.533   1.136   5.043
  357SOL     OW 1969   6.821   5.871   4.326
  357SOL    HW1 1970   6.763   5.909   4.254
  357SOL    HW2 1971   6.780   5.787   4.361
  358SOL     OW 1972   4.445   6.789   0.621
  358SOL    HW1 1973   4.423   6.878   0.581
  358SOL    HW2 1974   4.442   6.719   0.550
  359SOL     OW 1975   2.975   0.992   1.918
  359SOL    HW1 1976   2.989   1.032   1.827
  359SOL    HW2 1977   3.012   0.899   1.919
  360SOL     OW 1978   1.578   4.070   4.627
  360SOL    HW1 1979   1.648   4.026   4.683
  360SOL    HW2 1980   1.575   4.027   4.536
  361SOL     OW 1981   6.597   5.645   2.612
  361SOL    HW1 1982   6.660   5.708   2.568
  361SOL    HW2 1983   6.620   5.551   2.585
  362SOL     OW 1984   3.708   2.967   1.408
  362SOL    HW1 1985   3.742   2.883   1.366
  362SOL    HW2 1986   3.616   2.986   1.375
  363SOL     OW 1987   5.300   4.791   3.111
  363SOL    HW1 1988   5.201   4.773   3.105
  363SOL    HW2 1989   5.336   4.754   3.196
  364SOL     OW 1990   6.836   5.094   7.011
  364SOL    HW1 1991   6.767   5.022   7.003
  364SOL    HW2 1992   6.886   5.083   0.071
  365SOL     OW 1993   3.999   0.561   0.898
  365SOL    HW1 1994   4.056   0.495   0.947
  365SOL    HW2 1995   4.057   0.626   0.849
  366SOL     OW 1996   5.621   2.271   6.794
  366SOL    HW1 1997   5.644   2.348   6.854
  366SOL    HW2 1998   5.555   2.302   6.725
  367SOL     OW 1999   6.025   2.399   6.631
  367SOL    HW1 2000   5.947   2.337   6.627
  367SOL    HW2 2001   6.061   2.414   6.539
  368SOL     OW 2002   6.875   2.676   5.219
  368SOL    HW1 2003   6.867   2.749   5.287
  368SOL    HW2 2004   6.784   2.652   5.185
  369SOL     OW 2005   5.669   4.489   3.156
  369SOL    HW1 2006   5.688   4.551   3.079
  369SOL    HW2 2007   5.752   4.478   3.210
  370SOL     OW 2008   0.818   2.405   4.083
  370SOL    HW1 2009   0.801   2.431   3.988
  370SOL    HW2 2010   0.743   2.440   4.140
  371SOL     OW 2011   1.700   4.191   0.009
  371SOL    HW1 2012   1.628   4.129   7.007
  371SOL    HW2 2013   1.739   4.159   0.096
  372SOL     OW 2014   1.858   6.895   5.398
  372SOL    HW1 2015   1.873   6.926   5.492
  372SOL    HW2 2016   1.841   6.974   5.339
  373SOL     OW 2017   5.466   6.214   5.423
  373SOL    HW1 2018   5.506   6.193   5.512
  373SOL    HW2 2019   5.513   6.293   5.383
  374SOL     OW 2020   2.567   2.456   3.125
  374SOL    HW1 2021   2.614   2.448   3.037
  374SOL    HW2 2022   2.610   2.396   3.192
  375SOL     OW 2023   1.186   4.270   4.248
  375SOL    HW1 2024   1.147   4.284   4.339
  375SOL    HW2 2025   1.176   4.173   4.223
  376SOL     OW 2026   1.600   1.614   5.212
  376SOL    HW1 2027   1.622   1.647   5.120
  376SOL    HW2 2028   1.583   1.692   5.272
  377SOL     OW 2029   1.839   2.326   6.816
  377SOL    HW1 2030   1.890   2.403   6.776
  377SOL    HW2 2031   1.863   2.316   6.912
  378SOL     OW 2032   3.931   1.691   0.613
  378SOL    HW1 2033   4.021   1.721   0.581
  378SOL    HW2 2034   3.874   1.665   0.535
  379SOL     OW 2035   5.288   2.423   6.933
  379SOL    HW1 2036   5.208   2.471   6.967
  379SOL    HW2 2037   5.359   2.422   7.004
  380SOL     OW 2038   3.262   1.210   1.256
  380SOL    HW1 2039   3.291   1.115   1.264
  380SOL    HW2 2040   3.340   1.268   1.235
  381SOL     OW 2041   1.825   3.760   3.666
  381SOL    HW1 2042   1.727   3.751   3.684
  381SOL    HW2 2043   1.839   3.773   3.568
  382SOL     OW 2044   5.935   0.832   6.815
  382SOL    HW1 2045   5.962   0.736   6.828
  382SOL    HW2 2046   5.995   0.891   6.868
  383SOL     OW 2047   3.879   3.483   0.168
  383SOL    HW1 2048   3.922   3.536   0.241
  383SOL    HW2 2049   3.835   3.545   0.103
  384SOL     OW 2050   0.019   5.080   5.124
  384SOL    HW1 2051   6.988   4.999   5.115
  384SOL    HW2 2052   0.095   5.073   5.059
  385SOL     OW 2053   3.378   5.992   5.590
  385SOL    HW1 2054   3.307   6.047   5.636
  385SOL    HW2 2055   3.437   6.053   5.537
  386SOL     OW 2056   3.099   6.936   4.221
  386SOL    HW1 2057   3.105   7.006   4.150
  386SOL    HW2 2058   3.074   6.978   4.308
  387SOL     OW 2059   0.697   5.527   2.373
  387SOL    HW1 2060   0.786   5.572   2.388
  387SOL    HW2 2061   0.697   5.438   2.418
  388SOL     OW 2062   2.041   2.307   6.453
  388SOL    HW1 2063   1.958   2.352   6.420
  388SOL    HW2 2064   2.058   2.224   6.400
  389SOL     OW 2065   3.312   3.777   2.619
  389SOL    HW1 2066   3.285   3.698   2.564
  389SOL    HW2 2067   3.411   3.782   2.626
  390SOL     OW 2068   3.147   1.102   3.630
  390SOL    HW1 2069   3.127   1.047   3.550
  390SOL    HW2 2070   3.245   1.120   3.635
  391SOL     OW 2071   2.558   2.396   5.704
  391SOL    HW1 2072   2.514   2.327   5.647
  391SOL    HW2 2073   2.658   2.384   5.700
  392SOL     OW 2074   1.417   4.419   0.711
  392SOL    HW1 2075   1.467   4.348   0.760
  392SOL    HW2 2076   1.482   4.478   0.663
  393SOL     OW 2077   0.428   4.745   6.947
  393SOL    HW1 2078   0.345   4.690   6.936
  393SOL    HW2 2079   0.416   4.807   7.024
  394SOL     OW 2080   7.022   0.794   6.441
  394SOL    HW1 2081   0.079   0.752   6.407
  394SOL    HW2 2082   7.018   0.785   6.541
  395SOL     OW 2083   4.856   3.742   3.470
  395SOL    HW1 2084   4.877   3.727   3.567
  395SOL    HW2 2085   4.815   3.833   3.458
  396SOL     OW 2086   3.706   3.986   1.960
  396SOL    HW1 2087   3.683   4.016   2.053
  396SOL    HW2 2088   3.692   4.062   1.896
  397SOL     OW 2089   4.353   2.144   5.459
  397SOL    HW1 2090   4.296   2.135   5.541
  397SOL    HW2 2091   4.296   2.139   5.377
  398SOL     OW 2092   0.747   6.079   2.360
  398SOL    HW1 2093   0.652   6.049   2.370
  398SOL    HW2 2094   0.791   6.081   2.449
  399SOL     OW 2095   5.376   6.029   2.634
  399SOL    HW1 2096   5.321   5.991   2.709
  399SOL    HW2 2097   5.443   6.092   2.672
  400SOL     OW 2098   6.227   6.294   5.664
  400SOL    HW1 2099   6.286   6.215   5.648
  400SOL    HW2 2100   6.277   6.377   5.641
  401SOL     OW 2101   5.075   0.596   5.457
  401SOL    HW1 2102   5.006   0.599   5.529
  401SOL    HW2 2103   5.163   0.628   5.493
  402SOL     OW 2104   5.649   0.559   3.211
  402SOL    HW1 2105   5.606   0.469   3.217
  402SOL    HW2 2106   5.718   0.567   3.283
  403SOL     OW 2107   4.383   1.883   4.750
  403SOL    HW1 2108   4.373   1.860   4.847
  403SOL    HW2 2109   4.324   1.824   4.695
  404SOL     OW 2110   1.342   6.415   3.869
  404SOL    HW1 2111   1.373   6.451   3.958
  404SOL    HW2 2112   1.332   6.490   3.804
  405SOL     OW 2113   1.761   3.888   2.046
  405SOL    HW1 2114   1.721   3.969   2.090
  405SOL    HW2 2115   1.732   3.806   2.095
  406SOL     OW 2116   0.917   4.064   4.261
  406SOL    HW1 2117   0.884   4.062   4.166
  406SOL    HW2 2118   0.893   3.978   4.306
  407SOL     OW 2119   2.332   0.649   3.182
  407SOL    HW1 2120   2.293   0.708   3.111
  407SOL    HW2 2121   2.432   0.652   3.176
  408SOL     OW 2122   0.776   2.438   3.135
  408SOL    HW1 2123   0.824   2.381   3.068
  408SOL    HW2 2124   0.701   2.385   3.176
  409SOL     OW 2125   6.273   2.722   1.016
  409SOL    HW1 2126   6.232   2.630   1.013
  409SOL    HW2 2127   6.204   2.790   0.991
  410SOL     OW 2128   1.437   0.364   0.600
  410SOL    HW1 2129   1.457   0.458   0.627
  410SOL    HW2 2130   1.399   0.314   0.678
  411SOL     OW 2131   5.672   6.893   6.958
  411SOL    HW1 2132   5.625   6.858   6.877
  411SOL    HW2 2133   5.769   6.906   6.938
  412SOL     OW 2134   5.625   6.567   3.709
  412SOL    HW1 2135   5.558   6.527   3.772
  412SOL    HW2 2136   5.582   6.584   3.620
  413SOL     OW 2137   5.474   5.428   2.144
  413SOL    HW1 2138   5.407   5.419   2.217
  413SOL    HW2 2139   5.531   5.508   2.161
  414SOL     OW 2140   4.068   5.291   3.600
  414SOL    HW1 2141   4.129   5.215   3.621
  414SOL    HW2 2142   3.984   5.257   3.559
  415SOL     OW 2143   1.116   5.800   6.516
  415SOL    HW1 2144   1.147   5.733   6.448
  415SOL    HW2 2145   1.025   5.774   6.548
  416SOL     OW 2146   4.870   5.902   4.088
  416SOL    HW1 2147   4.854   5.804   4.102
  416SOL    HW2 2148   4.938   5.934   4.153
  417SOL     OW 2149   2.767   4.996   0.439
  417SOL    HW1 2150   2.714   4.928   0.387
  417SOL    HW2 2151   2.851   4.954   0.473
  418SOL     OW 2152   4.124   5.990   1.325
  418SOL    HW1 2153   4.117   5.916   1.392
  418SOL    HW2 2154   4.173   5.957   1.245
  419SOL     OW 2155   1.464   6.980   1.112
  419SOL    HW1 2156   1.433   0.047   1.094
  419SOL    HW2 2157   1.387   6.917   1.104
  420SOL     OW 2158   5.930   1.894   6.711
  420SOL    HW1 2159   5.855   1.829   6.710
  420SOL    HW2 2160   6.010   1.854   6.666
  421SOL     OW 2161   0.024   4.587   6.546
  421SOL    HW1 2162   0.069   4.675   6.533
  421SOL    HW2 2163   6.958   4.590   6.510
  422SOL     OW 2164   5.594   4.475   0.191
  422SOL    HW1 2165   5.636   4.552   0.143
  422SOL    HW2 2166   5.559   4.506   0.279
  423SOL     OW 2167   0.565   2.398   0.193
  423SOL    HW1 2168   0.639   2.464   0.176
  423SOL    HW2 2169   0.604   2.311   0.222
  424SOL     OW 2170   2.270   3.695   0.741
  424SOL    HW1 2171   2.259   3.648   0.828
  424SOL    HW2 2172   2.202   3.661   0.675
  425SOL     OW 2173   5.488   1.151   2.458
  425SOL    HW1 2174   5.560   1.084   2.475
  425SOL    HW2 2175   5.465   1.197   2.544
  426SOL     OW 2176   4.650   2.299   4.084
  426SOL    HW1 2177   4.652   2.279   3.986
  426SOL    HW2 2178   4.580   2.243   4.128
  427SOL     OW 2179   5.127   5.623   2.946
  427SOL    HW1 2180   5.112   5.525   2.939
  427SOL    HW2 2181   5.047   5.672   2.912
  428SOL     OW 2182   4.188   0.127   4.448
  428SOL    HW1 2183   4.173   0.106   4.351
  428SOL    HW2 2184   4.277   0.172   4.459
  429SOL     OW 2185   1.990   3.446   0.805
  429SOL    HW1 2186   2.089   3.452   0.818
  429SOL    HW2 2187   1.950   3.537   0.815
  430SOL     OW 2188   6.632   6.817   5.005
  430SOL    HW1 2189   6.537   6.848   5.012
  430SOL    HW2 2190   6.636   6.718   5.018
  431SOL     OW 2191   3.548   7.002   0.309
  431SOL    HW1 2192   3.500   0.056   0.274
  431SOL    HW2 2193   3.482   6.929   0.325
  432SOL     OW 2194   6.873   1.954   1.354
  432SOL    HW1 2195   6.914   2.018   1.418
  432SOL    HW2 2196   6.783   1.926   1.387
  433SOL     OW 2197   2.949   6.294   4.634
  433SOL    HW1 2198   3.017   6.221   4.645
  433SOL    HW2 2199   2.996   6.383   4.633
  434SOL     OW 2200   3.313   6.012   1.837
  434SOL    HW1 2201   3.387   5.975   1.894
  434SOL    HW2 2202   3.225   5.988   1.877
  435SOL     OW 2203   5.080   2.578   5.950
  435SOL    HW1 2204   5.068   2.520   5.870
  435SOL    HW2 2205   5.081   2.674   5.921
  436SOL     OW 2206   3.261   6.280   1.110
  436SOL    HW1 2207   3.357   6.302   1.094
  436SOL    HW2 2208   3.210   6.364   1.125
  437SOL     OW 2209   1.107   0.626   6.765
  437SOL    HW1 2210   1.031   0.630   6.829
  437SOL    HW2 2211   1.128   0.531   6.743
  438SOL     OW 2212   2.163   3.946   2.182
  438SOL    HW1 2213   2.124   3.868   2.131
  438SOL    HW2 2214   2.217   4.003   2.120
  439SOL     OW 2215   6.032   4.205   3.795
  439SOL    HW1 2216   6.114   4.256   3.771
  439SOL    HW2 2217   5.970   4.201   3.716
  440SOL     OW 2218   1.771   1.463   4.989
  440SOL    HW1 2219   1.813   1.542   5.033
  440SOL    HW2 2220   1.818   1.380   5.017
  441SOL     OW 2221   1.101   2.779   3.642
  441SOL    HW1 2222   1.140   2.798   3.732
  441SOL    HW2 2223   1.089   2.866   3.593
  442SOL     OW 2224   3.045   4.821   6.318
  442SOL    HW1 2225   3.042   4.882   6.240
  442SOL    HW2 2226   3.041   4.726   6.287
  443SOL     OW 2227   6.244   4.615   4.658
  443SOL    HW1 2228   6.174   4.545   4.670
  443SOL    HW2 2229   6.321   4.577   4.607
  444SOL     OW 2230   5.071   1.620   6.055
  444SOL    HW1 2231   4.975   1.618   6.080
  444SOL    HW2 2232   5.103   1.527   6.036
  445SOL     OW 2233   0.307   5.253   2.878
  445SOL    HW1 2234   0.323   5.226   2.973
  445SOL    HW2 2235   0.383   5.221   2.821
  446SOL     OW 2236   4.169   4.721   3.275
  446SOL    HW1 2237   4.219   4.807   3.286
  446SOL    HW2 2238   4.071   4.740   3.265
  447SOL     OW 2239   0.278   2.917   6.253
  447SOL    HW1 2240   0.228   2.862   6.186
  447SOL    HW2 2241   0.240   2.902   6.344
  448SOL     OW 2242   2.528   0.707   3.970
  448SOL    HW1 2243   2.549   0.765   4.049
  448SOL    HW2 2244   2.603   0.711   3.905
  449SOL     OW 2245   4.261   1.328   4.006
  449SOL    HW1 2246   4.311   1.389   4.069
  449SOL    HW2 2247   4.242   1.242   4.052
  450SOL     OW 2248   1.349   5.811   3.474
  450SOL    HW1 2249   1.425   5.746   3.465
  450SOL    HW2 2250   1.308   5.801   3.565
  451SOL     OW 2251   2.176   1.608   3.490
  451SOL    HW1 2252   2.168   1.508   3.496
  451SOL    HW2 2253   2.231   1.632   3.411
  452SOL     OW 2254   6.147   5.808   1.108
  452SOL    HW1 2255   6.213   5.842   1.041
  452SOL    HW2 2256   6.111   5.884   1.162
  453SOL     OW 2257   3.828   0.979   5.408
  453SOL    HW1 2258   3.845   0.887   5.372
  453SOL    HW2 2259   3.850   0.981   5.506
  454SOL     OW 2260   0.216   4.622   6.796
  454SOL    HW1 2261   0.240   4.597   6.702
  454SOL    HW2 2262   0.116   4.622   6.806
  455SOL     OW 2263   6.301   2.756   3.109
  455SOL    HW1 2264   6.359   2.730   3.186
  455SOL    HW2 2265   6.354   2.752   3.024
  456SOL     OW 2266   6.033   6.422   3.944
  456SOL    HW1 2267   6.031   6.389   4.038
  456SOL    HW2 2268   6.028   6.344   3.881
  457SOL     OW 2269   2.150   3.351   4.006
  457SOL    HW1 2270   2.060   3.308   4.014
  457SOL    HW2 2271   2.146   3.443   4.044
  458SOL     OW 2272   4.437   5.415   3.437
  458SOL    HW1 2273   4.355   5.454   3.478
  458SOL    HW2 2274   4.412   5.360   3.357
  459SOL     OW 2275   1.889   0.095   5.238
  459SOL    HW1 2276   1.977   0.128   5.203
  459SOL    HW2 2277   1.816   0.118   5.173
  460SOL     OW 2278   1.745   0.430   3.556
  460SOL    HW1 2279   1.673   0.468   3.613
  460SOL    HW2 2280   1.748   0.331   3.566
  461SOL     OW 2281   6.491   0.104   5.855
  461SOL    HW1 2282   6.556   0.038   5.893
  461SOL    HW2 2283   6.419   0.121   5.921
  462SOL     OW 2284   3.441   3.089   6.253
  462SOL    HW1 2285   3.487   3.058   6.337
  462SOL    HW2 2286   3.358   3.138   6.277
  463SOL     OW 2287   6.618   5.706   2.901
  463SOL    HW1 2288   6.621   5.656   2.815
  463SOL    HW2 2289   6.523   5.726   2.925
  464SOL     OW 2290   2.149   2.060   5.300
  464SOL    HW1 2291   2.207   2.111   5.236
  464SOL    HW2 2292   2.193   1.974   5.324
  465SOL     OW 2293   0.254   2.510   5.552
  465SOL    HW1 2294   0.189   2.496   5.477
  465SOL    HW2 2295   0.348   2.508   5.515
  466SOL     OW 2296   0.580   5.574   2.768
  466SOL    HW1 2297   0.483   5.573   2.745
  466SOL    HW2 2298   0.591   5.586   2.867
  467SOL     OW 2299   1.331   1.663   0.583
  467SOL    HW1 2300   1.337   1.726   0.506
  467SOL    HW2 2301   1.299   1.573   0.551
  468SOL     OW 2302   3.617   0.265   6.505
  468SOL    HW1 2303   3.654   0.244   6.596
  468SOL    HW2 2304   3.632   0.188   6.444
  469SOL     OW 2305   2.979   3.641   6.622
  469SOL    HW1 2306   2.958   3.562   6.678
  469SOL    HW2 2307   3.070   3.630   6.580
  470SOL     OW 2308   3.950   6.904   2.029
  470SOL    HW1 2309   3.869   6.959   2.047
  470SOL    HW2 2310   4.031   6.963   2.027
  471SOL     OW 2311   2.306   2.319   3.875
  471SOL    HW1 2312   2.217   2.294   3.912
  471SOL    HW2 2313   2.329   2.258   3.799
  472SOL     OW 2314   5.777   3.153   6.739
  472SOL    HW1 2315   5.822   3.240   6.761
  472SOL    HW2 2316   5.827   3.108   6.665
  473SOL     OW 2317   1.061   2.961   3.006
  473SOL    HW1 2318   1.070   2.918   3.095
  473SOL    HW2 2319   0.990   3.030   3.009
  474SOL     OW 2320   5.264   5.812   4.297
  474SOL    HW1 2321   5.316   5.856   4.370
  474SOL    HW2 2322   5.271   5.712   4.306
  475SOL     OW 2323   6.126   0.886   6.178
  475SOL    HW1 2324   6.115   0.805   6.120
  475SOL    HW2 2325   6.072   0.874   6.261
  476SOL     OW 2326   6.699   3.703   3.250
  476SOL    HW1 2327   6.683   3.607   3.271
  476SOL    HW2 2328   6.768   3.711   3.178
  477SOL     OW 2329   1.824   5.213   3.926
  477SOL    HW1 2330   1.831   5.199   4.024
  477SOL    HW2 2331   1.736   5.254   3.904
  478SOL     OW 2332   3.038   6.651   1.737
  478SOL    HW1 2333   2.954   6.621   1.691
  478SOL    HW2 2334   3.025   6.645   1.836
  479SOL     OW 2335   4.241   1.883   5.983
  479SOL    HW1 2336   4.229   1.874   5.884
  479SOL    HW2 2337   4.169   1.940   6.021
  480SOL     OW 2338   2.011   1.170   6.747
  480SOL    HW1 2339   1.929   1.226   6.742
  480SOL    HW2 2340   1.986   1.073   6.754
  481SOL     OW 2341   1.911   0.061   0.168
  481SOL    HW1 2342   1.880   0.093   0.079
  481SOL    HW2 2343   1.867   0.114   0.241
  482SOL     OW 2344   4.411   4.703   2.401
  482SOL    HW1 2345   4.510   4.691   2.387
  482SOL    HW2 2346   4.363   4.685   2.315
  483SOL     OW 2347   6.433   1.597   1.721
  483SOL    HW1 2348   6.473   1.524   1.777
  483SOL    HW2 2349   6.473   1.685   1.748
  484SOL     OW 2350   1.509   3.621   4.975
  484SOL    HW1 2351   1.576   3.564   4.927
  484SOL    HW2 2352   1.496   3.706   4.925
  485SOL     OW 2353   3.535   5.109   2.475
  485SOL    HW1 2354   3.481   5.155   2.404
  485SOL    HW2 2355   3.488   5.026   2.504
  486SOL     OW 2356   6.661   1.206   0.275
  486SOL    HW1 2357   6.569   1.170   0.259
  486SOL    HW2 2358   6.666   1.300   0.243
  487SOL     OW 2359   1.180   0.772   0.997
  487SOL    HW1 2360   1.199   0.863   0.960
  487SOL    HW2 2361   1.088   0.744   0.971
  488SOL     OW 2362   1.066   1.447   2.161
  488SOL    HW1 2363   1.037   1.434   2.066
  488SOL    HW2 2364   1.153   1.496   2.163
  489SOL     OW 2365   3.795   5.735   6.251
  489SOL    HW1 2366   3.790   5.669   6.326
  489SOL    HW2 2367   3.737   5.814   6.273
  490SOL     OW 2368   6.354   5.638   3.004
  490SOL    HW1 2369   6.274   5.597   2.959
  490SOL    HW2 2370   6.376   5.586   3.086
  491SOL     OW 2371   0.400   2.982   2.821
  491SOL    HW1 2372   0.494   2.967   2.789
  491SOL    HW2 2373   0.336   2.954   2.750
  492SOL     OW 2374   1.882   0.528   5.142
  492SOL    HW1 2375   1.801   0.582   5.162
  492SOL    HW2 2376   1.926   0.500   5.227
  493SOL     OW 2377   5.068   5.616   5.515
  493SOL    HW1 2378   5.075   5.545   5.584
  493SOL    HW2 2379   4.997   5.681   5.540
  494SOL     OW 2380   0.267   6.986   6.657
  494SOL    HW1 2381   0.361   6.953   6.652
  494SOL    HW2 2382   0.240   6.994   6.753
  495SOL     OW 2383   5.023   5.911   3.175
  495SOL    HW1 2384   4.946   5.895   3.237
  495SOL    HW2 2385   5.101   5.854   3.202
  496SOL     OW 2386   5.409   4.201   1.997
  496SOL    HW1 2387   5.320   4.245   1.992
  496SOL    HW2 2388   5.418   4.134   1.923
  497SOL     OW 2389   3.337   1.230   4.493
  497SOL    HW1 2390   3.330   1.251   4.590
  497SOL    HW2 2391   3.287   1.145   4.474
  498SOL     OW 2392   2.098   3.367   1.121
  498SOL    HW1 2393   2.017   3.414   1.155
  498SOL    HW2 2394   2.082   3.268   1.124
  499SOL     OW 2395   2.176   6.773   4.798
  499SOL    HW1 2396   2.080   6.774   4.769
  499SOL    HW2 2397   2.208   6.679   4.806
  500SOL     OW 2398   0.839   3.044   4.514
  500SOL    HW1 2399   0.827   3.039   4.613
  500SOL    HW2 2400   0.831   3.140   4.484
  501SOL     OW 2401   3.123   5.441   1.056
  501SOL    HW1 2402   3.173   5.509   1.109
  501SOL    HW2 2403   3.127   5.466   0.959
  502SOL     OW 2404   0.596   4.000   0.443
  502SOL    HW1 2405   0.602   3.972   0.347
  502SOL    HW2 2406   0.681   4.044   0.471
  503SOL     OW 2407   6.908   5.341   6.909
  503SOL    HW1 2408   6.901   5.250   6.949
  503SOL    HW2 2409   6.864   5.407   6.969
  504SOL     OW 2410   1.041   5.425   2.607
  504SOL    HW1 2411   1.083   5.401   2.694
  504SOL    HW2 2412   0.967   5.490   2.622
  505SOL     OW 2413   3.110   6.148   5.154
  505SOL    HW1 2414   3.012   6.133   5.169
  505SOL    HW2 2415   3.158   6.061   5.154
  506SOL     OW 2416   2.546   4.929   4.559
  506SOL    HW1 2417   2.613   4.983   4.509
  506SOL    HW2 2418   2.455   4.966   4.543
  507SOL     OW 2419   3.352   6.517   3.007
  507SOL    HW1 2420   3.293   6.577   2.954
  507SOL    HW2 2421   3.317   6.508   3.100
  508SOL     OW 2422   0.121   4.011   2.484
  508SOL    HW1 2423   0.088   3.964   2.566
  508SOL    HW2 2424   0.150   4.104   2.509
  509SOL     OW 2425   3.428   1.481   1.569
  509SOL    HW1 2426   3.339   1.489   1.524
  509SOL    HW2 2427   3.429   1.399   1.626
  510SOL     OW 2428   6.130   4.783   0.487
  510SOL    HW1 2429   6.108   4.880   0.476
  510SOL    HW2 2430   6.226   4.772   0.510
  511SOL     OW 2431   0.777   1.616   5.392
  511SOL    HW1 2432   0.821   1.689   5.339
  511SOL    HW2 2433   0.846   1.569   5.447
  512SOL     OW 2434   6.848   2.843   0.097
  512SOL    HW1 2435   6.858   2.744   0.098
  512SOL    HW2 2436   6.784   2.871   0.168
  513SOL     OW 2437   6.236   6.906   3.796
  513SOL    HW1 2438   6.313   6.905   3.860
  513SOL    HW2 2439   6.262   6.860   3.711
  514SOL     OW 2440   6.383   2.335   4.155
  514SOL    HW1 2441   6.322   2.257   4.139
  514SOL    HW2 2442   6.466   2.323   4.100
  515SOL     OW 2443   1.022   0.805   6.299
  515SOL    HW1 2444   0.942   0.745   6.295
  515SOL    HW2 2445   1.042   0.828   6.394
  516SOL     OW 2446   2.522   4.557   1.944
  516SOL    HW1 2447   2.490   4.522   2.032
  516SOL    HW2 2448   2.620   4.576   1.949
  517SOL     OW 2449   4.292   5.867   2.071
  517SOL    HW1 2450   4.243   5.815   2.141
  517SOL    HW2 2451   4.248   5.956   2.058
  518SOL     OW 2452   2.681   2.311   3.347
  518SOL    HW1 2453   2.769   2.279   3.382
  518SOL    HW2 2454   2.647   2.386   3.404
  519SOL     OW 2455   0.579   0.186   4.802
  519SOL    HW1 2456   0.640   0.236   4.741
  519SOL    HW2 2457   0.493   0.166   4.754
  520SOL     OW 2458   6.578   4.090   1.056
  520SOL    HW1 2459   6.660   4.143   1.076
  520SOL    HW2 2460   6.562   4.090   0.957
  521SOL     OW 2461   6.524   4.511   4.841
  521SOL    HW1 2462   6.621   4.504   4.816
  521SOL    HW2 2463   6.499   4.607   4.853
  522SOL     OW 2464   3.612   3.256   4.515
  522SOL    HW1 2465   3.548   3.300   4.578
  522SOL    HW2 2466   3.569   3.174   4.477
  523SOL     OW 2467   0.407   5.060   1.786
  523SOL    HW1 2468   0.330   5.099   1.836
  523SOL    HW2 2469   0.493   5.084   1.832
  524SOL     OW 2470   0.296   1.013   1.661
  524SOL    HW1 2471   0.285   0.949   1.738
  524SOL    HW2 2472   0.268   1.104   1.689
  525SOL     OW 2473   2.647   3.469   5.626
  525SOL    HW1 2474   2.646   3.370   5.630
  525SOL    HW2 2475   2.576   3.506   5.686
  526SOL     OW 2476   4.243   6.728   4.156
  526SOL    HW1 2477   4.307   6.798   4.184
  526SOL    HW2 2478   4.286   6.638   4.163
  527SOL     OW 2479   6.536   2.784   0.004
  527SOL    HW1 2480   6.473   2.827   6.967
  527SOL    HW2 2481   6.484   2.752   0.084
  528SOL     OW 2482   0.791   1.762   3.253
  528SOL    HW1 2483   0.882   1.738   3.219
  528SOL    HW2 2484   0.762   1.849   3.213
  529SOL     OW 2485   2.272   0.114   3.955
  529SOL    HW1 2486   2.276   0.156   4.046
  529SOL    HW2 2487   2.222   0.027   3.961
  530SOL     OW 2488   3.220   3.240   4.679
  530SOL    HW1 2489   3.312   3.277   4.685
  530SOL    HW2 2490   3.163   3.281   4.751
  531SOL     OW 2491   0.514   1.312   3.450
  531SOL    HW1 2492   0.540   1.403   3.417
  531SOL    HW2 2493   0.432   1.319   3.506
  532SOL     OW 2494   0.826   2.781   6.674
  532SOL    HW1 2495   0.890   2.836   6.619
  532SOL    HW2 2496   0.766   2.729   6.613
  533SOL     OW 2497   4.470   6.704   3.883
  533SOL    HW1 2498   4.487   6.650   3.965
  533SOL    HW2 2499   4.414   6.650   3.819
  534SOL     OW 2500   5.369   6.564   2.398
  534SOL    HW1 2501   5.361   6.654   2.439
  534SOL    HW2 2502   5.282   6.540   2.353
  535SOL     OW 2503   0.963   3.416   4.206
  535SOL    HW1 2504   0.935   3.511   4.223
  535SOL    HW2 2505   1.005   3.410   4.116
  536SOL     OW 2506   6.703   5.336   1.522
  536SOL    HW1 2507   6.611   5.348   1.486
  536SOL    HW2 2508   6.708   5.250   1.573
  537SOL     OW 2509   2.688   6.264   4.509
  537SOL    HW1 2510   2.663   6.269   4.412
  537SOL    HW2 2511   2.779   6.303   4.522
  538SOL     OW 2512   1.414   4.134   2.999
  538SOL    HW1 2513   1.482   4.200   3.030
  538SOL    HW2 2514   1.383   4.079   3.076
  539SOL     OW 2515   1.419   6.456   0.994
  539SOL    HW1 2516   1.470   6.371   1.004
  539SOL    HW2 2517   1.334   6.439   0.944
  540SOL     OW 2518   1.076   0.358   3.244
  540SOL    HW1 2519   1.165   0.334   3.206
  540SOL    HW2 2520   1.080   0.352   3.344
  541SOL     OW 2521   4.393   6.090   4.081
  541SOL    HW1 2522   4.297   6.106   4.104
  541SOL    HW2 2523   4.450   6.115   4.159
  542SOL     OW 2524   6.680   0.057   6.473
  542SOL    HW1 2525   6.678   0.123   6.399
  542SOL    HW2 2526   6.774   0.039   6.499
  543SOL     OW 2527   1.550   3.942   5.749
  543SOL    HW1 2528   1.647   3.934   5.727
  543SOL    HW2 2529   1.533   3.909   5.842
  544SOL     OW 2530   2.841   3.581   0.400
  544SOL    HW1 2531   2.916   3.526   0.436
  544SOL    HW2 2532   2.822   3.554   0.305
  545SOL     OW 2533   2.822   1.132   2.783
  545SOL    HW1 2534   2.887   1.194   2.827
  545SOL    HW2 2535   2.743   1.118   2.842
  546SOL     OW 2536   1.868   3.062   0.443
  546SOL    HW1 2537   1.847   3.128   0.370
  546SOL    HW2 2538   1.810   2.982   0.433
  547SOL     OW 2539   3.440   1.141   6.922
  547SOL    HW1 2540   3.359   1.083   6.936
  547SOL    HW2 2541   3.478   1.168   7.010
  548SOL     OW 2542   3.688   2.879   2.719
  548SOL    HW1 2543   3.732   2.808   2.663
  548SOL    HW2 2544   3.753   2.913   2.787
  549SOL     OW 2545   4.684   3.200   1.051
  549SOL    HW1 2546   4.658   3.213   1.146
  549SOL    HW2 2547   4.698   3.289   1.007
  550SOL     OW 2548   6.610   4.921   3.700
  550SOL    HW1 2549   6.595   4.841   3.757
  550SOL    HW2 2550   6.586   4.900   3.605
  551SOL     OW 2551   0.940   0.473   2.220
  551SOL    HW1 2552   0.872   0.521   2.165
  551SOL    HW2 2553   1.029   0.477   2.175
  552SOL     OW 2554   4.890   4.360   0.269
  552SOL    HW1 2555   4.894   4.440   0.329
  552SOL    HW2 2556   4.860   4.280   0.322
  553SOL     OW 2557   1.613   6.321   2.309
  553SOL    HW1 2558   1.660   6.381   2.373
  553SOL    HW2 2559   1.585   6.373   2.228
  554SOL     OW 2560   5.451   6.942   5.959
  554SOL    HW1 2561   5.436   6.853   6.002
  554SOL    HW2 2562   5.369   6.998   5.972
  555SOL     OW 2563   1.621   4.996   3.194
  555SOL    HW1 2564   1.673   4.953   3.120
  555SOL    HW2 2565   1.647   4.953   3.281
  556SOL     OW 2566   5.223   2.308   3.840
  556SOL    HW1 2567   5.265   2.394   3.872
  556SOL    HW2 2568   5.170   2.326   3.757
  557SOL     OW 2569   0.877   4.192   0.373
  557SOL    HW1 2570   0.795   4.221   0.324
  557SOL    HW2 2571   0.952   4.256   0.352
  558SOL     OW 2572   2.923   3.389   4.588
  558SOL    HW1 2573   2.875   3.315   4.539
  558SOL    HW2 2574   2.931   3.364   4.684
  559SOL     OW 2575   6.820   5.543   0.033
  559SOL    HW1 2576   6.873   5.621   0.066
  559SOL    HW2 2577   6.765   5.506   0.108
  560SOL     OW 2578   4.655   4.138   6.956
  560SOL    HW1 2579   4.738   4.089   6.930
  560SOL    HW2 2580   4.673   4.194   0.010
  561SOL     OW 2581   6.203   1.564   0.170
  561SOL    HW1 2582   6.197   1.548   0.268
  561SOL    HW2 2583   6.299   1.576   0.144
  562SOL     OW 2584   5.684   0.539   5.780
  562SOL    HW1 2585   5.616   0.559   5.850
  562SOL    HW2 2586   5.643   0.485   5.707
  563SOL     OW 2587   2.051   0.587   3.126
  563SOL    HW1 2588   2.146   0.599   3.152
  563SOL    HW2 2589   2.012   0.508   3.174
  564SOL     OW 2590   2.319   2.179   0.037
  564SOL    HW1 2591   2.305   2.154   6.968
  564SOL    HW2 2592   2.404   2.138   0.070
  565SOL     OW 2593   3.573   2.555   6.023
  565SOL    HW1 2594   3.646   2.613   5.987
  565SOL    HW2 2595   3.607   2.501   6.100
  566SOL     OW 2596   6.217   5.164   4.584
  566SOL    HW1 2597   6.175   5.080   4.618
  566SOL    HW2 2598   6.203   5.172   4.486
  567SOL     OW 2599   3.903   3.855   2.627
  567SOL    HW1 2600   3.879   3.874   2.532
  567SOL    HW2 2601   3.893   3.939   2.681
  568SOL     OW 2602   4.055   2.122   0.174
  568SOL    HW1 2603   3.968   2.082   0.201
  568SOL    HW2 2604   4.047   2.222   0.170
  569SOL     OW 2605   0.993   4.098   6.461
  569SOL    HW1 2606   0.925   4.147   6.515
  569SOL    HW2 2607   0.950   4.021   6.413
  570SOL     OW 2608   2.650   6.290   7.017
  570SOL    HW1 2609   2.722   6.223   6.998
  570SOL    HW2 2610   2.644   6.355   6.941
  571SOL     OW 2611   3.049   0.636   2.362
  571SOL    HW1 2612   2.949   0.629   2.365
  571SOL    HW2 2613   3.087   0.554   2.321
  572SOL     OW 2614   2.786   4.785   5.643
  572SOL    HW1 2615   2.802   4.706   5.702
  572SOL    HW2 2616   2.825   4.768   5.552
  573SOL     OW 2617   5.519   1.005   5.953
  573SOL    HW1 2618   5.508   1.029   5.857
  573SOL    HW2 2619   5.455   0.932   5.976
  574SOL     OW 2620   3.292   2.192   4.310
  574SOL    HW1 2621   3.241   2.231   4.387
  574SOL    HW2 2622   3.235   2.192   4.228
  575SOL     OW 2623   6.041   3.204   0.174
  575SOL    HW1 2624   6.130   3.207   0.220
  575SOL    HW2 2625   6.033   3.283   0.113
  576SOL     OW 2626   0.833   2.350   2.781
  576SOL    HW1 2627   0.843   2.449   2.769
  576SOL    HW2 2628   0.919   2.312   2.813
  577SOL     OW 2629   2.127   1.520   2.734
  577SOL    HW1 2630   2.143   1.430   2.775
  577SOL    HW2 2631   2.181   1.589   2.783
  578SOL     OW 2632   6.208   4.987   3.460
  578SOL    HW1 2633   6.140   5.048   3.420
  578SOL    HW2 2634   6.294   5.037   3.472
  579SOL     OW 2635   1.795   3.298   1.821
  579SOL    HW1 2636   1.833   3.209   1.795
  579SOL    HW2 2637   1.807   3.363   1.745
  580SOL     OW 2638   6.633   4.452   6.866
  580SOL    HW1 2639   6.671   4.387   6.932
  580SOL    HW2 2640   6.638   4.544   6.903
  581SOL     OW 2641   2.883   3.497   2.592
  581SOL    HW1 2642   2.898   3.595   2.599
  581SOL    HW2 2643   2.855   3.461   2.682
  582SOL     OW 2644   5.666   5.655   2.661
  582SOL    HW1 2645   5.589   5.608   2.705
  582SOL    HW2 2646   5.725   5.588   2.616
  583SOL     OW 2647   2.838   5.373   6.131
  583SOL    HW1 2648   2.880   5.443   6.073
  583SOL    HW2 2649   2.793   5.305   6.073
  584SOL     OW 2650   1.924   3.797   6.880
  584SOL    HW1 2651   1.941   3.862   6.806
  584SOL    HW2 2652   1.827   3.773   6.882
  585SOL     OW 2653   5.544   2.973   6.451
  585SOL    HW1 2654   5.523   3.029   6.531
  585SOL    HW2 2655   5.540   2.876   6.476
  586SOL     OW 2656   3.772   1.447   6.459
  586SOL    HW1 2657   3.781   1.414   6.553
  586SOL    HW2 2658   3.812   1.538   6.452
  587SOL     OW 2659   2.778   1.791   4.840
  587SOL    HW1 2660   2.764   1.692   4.834
  587SOL    HW2 2661   2.875   1.811   4.844
  588SOL     OW 2662   2.335   4.490   0.697
  588SOL    HW1 2663   2.424   4.445   0.706
  588SOL    HW2 2664   2.262   4.423   0.710
  589SOL     OW 2665   3.338   5.382   1.340
  589SOL    HW1 2666   3.378   5.293   1.317
  589SOL    HW2 2667   3.401   5.454   1.310
  590SOL     OW 2668   5.466   2.963   2.232
  590SOL    HW1 2669   5.498   2.868   2.225
  590SOL    HW2 2670   5.419   2.988   2.148
  591SOL     OW 2671   3.926   6.031   3.786
  591SOL    HW1 2672   3.993   6.088   3.739
  591SOL    HW2 2673   3.937   5.936   3.756
  592SOL     OW 2674   3.293   0.586   1.435
  592SOL    HW1 2675   3.366   0.603   1.502
  592SOL    HW2 2676   3.230   0.663   1.434
  593SOL     OW 2677   4.738   2.302   3.801
  593SOL    HW1 2678   4.812   2.284   3.736
  593SOL    HW2 2679   4.699   2.393   3.782
  594SOL     OW 2680   5.197   2.164   6.133
  594SOL    HW1 2681   5.258   2.104   6.184
  594SOL    HW2 2682   5.251   2.231   6.082
  595SOL     OW 2683   5.681   0.397   3.735
  595SOL    HW1 2684   5.584   0.389   3.756
  595SOL    HW2 2685   5.718   0.478   3.779
  596SOL     OW 2686   1.526   4.259   2.544
  596SOL    HW1 2687   1.522   4.227   2.449
  596SOL    HW2 2688   1.444   4.229   2.593
  597SOL     OW 2689   3.604   0.018   6.384
  597SOL    HW1 2690   3.587   7.019   6.289
  597SOL    HW2 2691   3.672   6.984   6.423
  598SOL     OW 2692   3.248   4.386   6.619
  598SOL    HW1 2693   3.212   4.356   6.707
  598SOL    HW2 2694   3.288   4.477   6.628
  599SOL     OW 2695   2.094   6.579   2.532
  599SOL    HW1 2696   2.064   6.629   2.614
  599SOL    HW2 2697   2.024   6.586   2.461
  600SOL     OW 2698   0.917   0.687   0.962
  600SOL    HW1 2699   0.876   0.754   1.023
  600SOL    HW2 2700   0.870   0.689   0.874
  601SOL     OW 2701   3.165   6.488   3.611
  601SOL    HW1 2702   3.157   6.421   3.537
  601SOL    HW2 2703   3.255   6.481   3.654
  602SOL     OW 2704   2.384   3.173   6.648
  602SOL    HW1 2705   2.314   3.239   6.623
  602SOL    HW2 2706   2.354   3.081   6.623
  603SOL     OW 2707   4.077   1.734   3.247
  603SOL    HW1 2708   4.126   1.649   3.231
  603SOL    HW2 2709   3.986   1.729   3.207
  604SOL     OW 2710   0.988   3.970   1.335
  604SOL    HW1 2711   0.968   3.951   1.239
  604SOL    HW2 2712   0.911   3.942   1.392
  605SOL     OW 2713   5.982   5.642   2.506
  605SOL    HW1 2714   6.069   5.639   2.554
  605SOL    HW2 2715   5.910   5.601   2.562
  606SOL     OW 2716   5.055   0.792   6.400
  606SOL    HW1 2717   4.986   0.852   6.359
  606SOL    HW2 2718   5.063   0.708   6.347
  607SOL     OW 2719   5.343   0.635   5.476
  607SOL    HW1 2720   5.386   0.724   5.462
  607SOL    HW2 2721   5.407   0.574   5.523
  608SOL     OW 2722   3.908   6.109   7.005
  608SOL    HW1 2723   3.985   6.128   6.945
  608SOL    HW2 2724   3.913   6.015   0.011
  609SOL     OW 2725   3.957   3.067   3.766
  609SOL    HW1 2726   3.950   3.138   3.836
  609SOL    HW2 2727   3.883   3.000   3.779
  610SOL     OW 2728   5.131   2.391   2.633
  610SOL    HW1 2729   5.072   2.463   2.598
  610SOL    HW2 2730   5.190   2.358   2.559
  611SOL     OW 2731   1.542   0.731   6.664
  611SOL    HW1 2732   1.606   0.734   6.587
  611SOL    HW2 2733   1.493   0.644   6.662
  612SOL     OW 2734   4.067   6.604   6.740
  612SOL    HW1 2735   4.141   6.585   6.804
  612SOL    HW2 2736   4.105   6.641   6.655
  613SOL     OW 2737   4.114   6.802   5.863
  613SOL    HW1 2738   4.163   6.752   5.935
  613SOL    HW2 2739   4.018   6.775   5.864
  614SOL     OW 2740   5.926   3.549   1.052
  614SOL    HW1 2741   5.870   3.466   1.053
  614SOL    HW2 2742   5.895   3.612   1.123
  615SOL     OW 2743   0.415   1.922   1.329
  615SOL    HW1 2744   0.456   1.997   1.278
  615SOL    HW2 2745   0.408   1.841   1.270
  616SOL     OW 2746   6.817   2.045   3.229
  616SOL    HW1 2747   6.805   2.044   3.328
  616SOL    HW2 2748   6.815   1.951   3.195
  617SOL     OW 2749   0.109   3.670   6.960
  617SOL    HW1 2750   0.067   3.650   6.872
  617SOL    HW2 2751   0.113   3.587   7.016
  618SOL     OW 2752   7.022   3.464   0.086
  618SOL    HW1 2753   6.947   3.508   0.037
  618SOL    HW2 2754   0.007   3.371   0.051
  619SOL     OW 2755   5.056   0.153   6.700
  619SOL    HW1 2756   5.003   0.142   6.785
  619SOL    HW2 2757   5.000   0.202   6.633
  620SOL     OW 2758   5.352   2.412   1.549
  620SOL    HW1 2759   5.419   2.395   1.477
  620SOL    HW2 2760   5.350   2.334   1.612
  621SOL     OW 2761   2.125   0.150   5.664
  621SOL    HW1 2762   2.191   0.078   5.686
  621SOL    HW2 2763   2.097   0.195   5.748
  622SOL     OW 2764   0.867   1.850   5.000
  622SOL    HW1 2765   0.889   1.753   5.009
  622SOL    HW2 2766   0.814   1.880   5.079
  623SOL     OW 2767   0.946   6.153   5.739
  623SOL    HW1 2768   1.021   6.105   5.694
  623SOL    HW2 2769   0.960   6.153   5.838
  624SOL     OW 2770   6.627   0.848   0.364
  624SOL    HW1 2771   6.560   0.860   0.291
  624SOL    HW2 2772   6.709   0.901   0.343
  625SOL     OW 2773   1.792   2.120   1.006
  625SOL    HW1 2774   1.789   2.186   1.082
  625SOL    HW2 2775   1.724   2.146   0.937
  626SOL     OW 2776   0.226   5.875   3.091
  626SOL    HW1 2777   0.199   5.971   3.090
  626SOL    HW2 2778   0.302   5.862   3.155
  627SOL     OW 2779   6.078   6.315   0.936
  627SOL    HW1 2780   6.066   6.299   1.034
  627SOL    HW2 2781   6.175   6.325   0.915
  628SOL     OW 2782   5.285   5.023   5.591
  628SOL    HW1 2783   5.337   5.095   5.544
  628SOL    HW2 2784   5.277   4.944   5.531
  629SOL     OW 2785   0.608   0.436   6.344
  629SOL    HW1 2786   0.521   0.477   6.371
  629SOL    HW2 2787   0.604   0.337   6.355
  630SOL     OW 2788   0.222   2.033   0.805
  630SOL    HW1 2789   0.237   1.963   0.735
  630SOL    HW2 2790   0.217   1.990   0.895
  631SOL     OW 2791   4.049   0.837   4.811
  631SOL    HW1 2792   4.132   0.862   4.760
  631SOL    HW2 2793   3.982   0.797   4.748
  632SOL     OW 2794   5.051   2.190   1.255
  632SOL    HW1 2795   5.141   2.187   1.210
  632SOL    HW2 2796   5.064   2.201   1.353
  633SOL     OW 2797   3.074   4.274   6.806
  633SOL    HW1 2798   3.002   4.283   6.737
  633SOL    HW2 2799   3.114   4.182   6.801
  634SOL     OW 2800   3.117   4.027   2.868
  634SOL    HW1 2801   3.147   4.053   2.776
  634SOL    HW2 2802   3.180   4.065   2.936
  635SOL     OW 2803   4.859   6.214   0.775
  635SOL    HW1 2804   4.786   6.271   0.811
  635SOL    HW2 2805   4.871   6.233   0.677
  636SOL     OW 2806   2.758   6.744   6.039
  636SOL    HW1 2807   2.725   6.666   5.985
  636SOL    HW2 2808   2.706   6.826   6.013
  637SOL     OW 2809   0.109   2.766   3.057
  637SOL    HW1 2810   0.095   2.848   3.001
  637SOL    HW2 2811   0.031   2.755   3.120
  638SOL     OW 2812   6.232   3.562   3.825
  638SOL    HW1 2813   6.262   3.548   3.920
  638SOL    HW2 2814   6.133   3.549   3.819
  639SOL     OW 2815   4.910   3.494   2.893
  639SOL    HW1 2816   4.990   3.459   2.942
  639SOL    HW2 2817   4.881   3.429   2.824
  640SOL     OW 2818   0.200   5.149   3.915
  640SOL    HW1 2819   0.249   5.234   3.892
  640SOL    HW2 2820   0.132   5.169   3.985
  641SOL     OW 2821   0.643   4.831   5.035
  641SOL    HW1 2822   0.570   4.812   5.100
  641SOL    HW2 2823   0.691   4.915   5.063
  642SOL     OW 2824   0.520   3.013   3.964
  642SOL    HW1 2825   0.457   2.936   3.975
  642SOL    HW2 2826   0.565   3.006   3.875
  643SOL     OW 2827   6.169   0.176   6.437
  643SOL    HW1 2828   6.198   0.105   6.373
  643SOL    HW2 2829   6.145   0.258   6.386
  644SOL     OW 2830   1.332   6.961   4.190
  644SOL    HW1 2831   1.380   0.014   4.227
  644SOL    HW2 2832   1.366   6.878   4.233
  645SOL     OW 2833   3.901   6.681   4.755
  645SOL    HW1 2834   3.847   6.721   4.829
  645SOL    HW2 2835   3.848   6.609   4.710
  646SOL     OW 2836   3.462   1.025   4.863
  646SOL    HW1 2837   3.386   1.005   4.801
  646SOL    HW2 2838   3.510   1.107   4.831
  647SOL     OW 2839   5.023   2.278   5.209
  647SOL    HW1 2840   5.122   2.274   5.224
  647SOL    HW2 2841   4.996   2.205   5.146
  648SOL     OW 2842   0.256   4.425   4.380
  648SOL    HW1 2843   0.252   4.510   4.432
  648SOL    HW2 2844   0.293   4.352   4.438
  649SOL     OW 2845   2.713   3.806   0.801
  649SOL    HW1 2846   2.740   3.900   0.817
  649SOL    HW2 2847   2.644   3.802   0.729
  650SOL     OW 2848   6.839   4.238   1.040
  650SOL    HW1 2849   6.824   4.304   1.114
  650SOL    HW2 2850   6.895   4.281   0.968
  651SOL     OW 2851   1.441   0.213   5.845
  651SOL    HW1 2852   1.471   0.145   5.778
  651SOL    HW2 2853   1.388   0.169   5.917
  652SOL     OW 2854   4.616   0.013   3.056
  652SOL    HW1 2855   4.602   6.950   3.014
  652SOL    HW2 2856   4.598   0.007   3.154
  653SOL     OW 2857   0.945   5.825   7.009
  653SOL    HW1 2858   1.011   5.831   0.056
  653SOL    HW2 2859   0.876   5.897   7.020
  654SOL     OW 2860   1.153   6.288   6.875
  654SOL    HW1 2861   1.186   6.213   6.932
  654SOL    HW2 2862   1.053   6.288   6.875
  655SOL     OW 2863   0.180   5.564   1.446
  655SOL    HW1 2864   0.084   5.538   1.448
  655SOL    HW2 2865   0.225   5.519   1.369
  656SOL     OW 2866   2.639   6.214   0.487
  656SOL    HW1 2867   2.636   6.314   0.477
  656SOL    HW2 2868   2.733   6.186   0.508
  657SOL     OW 2869   3.384   3.658   0.859
  657SOL    HW1 2870   3.387   3.573   0.806
  657SOL    HW2 2871   3.314   3.651   0.930
  658SOL     OW 2872   1.125   3.643   5.945
  658SOL    HW1 2873   1.121   3.686   6.035
  658SOL    HW2 2874   1.164   3.706   5.878
  659SOL     OW 2875   2.784   5.876   4.322
  659SOL    HW1 2876   2.844   5.943   4.366
  659SOL    HW2 2877   2.712   5.924   4.273
  660SOL     OW 2878   5.079   3.682   2.790
  660SOL    HW1 2879   5.007   3.616   2.814
  660SOL    HW2 2880   5.052   3.773   2.822
  661SOL     OW 2881   4.913   3.947   4.303
  661SOL    HW1 2882   4.943   3.960   4.208
  661SOL    HW2 2883   4.930   3.853   4.331
  662SOL     OW 2884   4.133   0.479   5.673
  662SOL    HW1 2885   4.034   0.465   5.679
  662SOL    HW2 2886   4.162   0.545   5.742
  663SOL     OW 2887   1.380   3.705   0.223
  663SOL    HW1 2888   1.403   3.802   0.235
  663SOL    HW2 2889   1.446   3.649   0.272
  664SOL     OW 2890   1.050   5.446   6.391
  664SOL    HW1 2891   1.072   5.350   6.374
  664SOL    HW2 2892   1.072   5.500   6.311
  665SOL     OW 2893   4.683   5.526   1.343
  665SOL    HW1 2894   4.781   5.530   1.324
  665SOL    HW2 2895   4.646   5.439   1.310
  666SOL     OW 2896   4.268   2.447   1.841
  666SOL    HW1 2897   4.335   2.496   1.785
  666SOL    HW2 2898   4.178   2.453   1.798
  667SOL     OW 2899   6.599   3.912   3.740
  667SOL    HW1 2900   6.669   3.911   3.668
  667SOL    HW2 2901   6.508   3.916   3.699
  668SOL     OW 2902   5.025   5.726   0.146
  668SOL    HW1 2903   5.059   5.669   0.071
  668SOL    HW2 2904   4.933   5.697   0.170
  669SOL     OW 2905   3.097   5.925   2.717
  669SOL    HW1 2906   3.023   5.977   2.759
  669SOL    HW2 2907   3.110   5.956   2.623
  670SOL     OW 2908   2.841   2.901   1.543
  670SOL    HW1 2909   2.926   2.875   1.588
  670SOL    HW2 2910   2.772   2.924   1.611
  671SOL     OW 2911   2.213   6.147   6.503
  671SOL    HW1 2912   2.268   6.063   6.507
  671SOL    HW2 2913   2.269   6.225   6.531
  672SOL     OW 2914   0.852   4.739   1.998
  672SOL    HW1 2915   0.882   4.793   2.076
  672SOL    HW2 2916   0.756   4.712   2.010
  673SOL     OW 2917   6.102   0.233   1.306
  673SOL    HW1 2918   6.183   0.221   1.248
  673SOL    HW2 2919   6.041   0.155   1.294
  674SOL     OW 2920   6.311   3.703   4.675
  674SOL    HW1 2921   6.384   3.681   4.740
  674SOL    HW2 2922   6.247   3.627   4.670
  675SOL     OW 2923   7.013   1.191   4.832
  675SOL    HW1 2924   0.075   1.232   4.851
  675SOL    HW2 2925   6.970   1.163   4.917
  676SOL     OW 2926   3.663   5.474   2.797
  676SOL    HW1 2927   3.718   5.529   2.733
  676SOL    HW2 2928   3.662   5.379   2.766
  677SOL     OW 2929   5.939   1.580   6.529
  677SOL    HW1 2930   6.013   1.616   6.585
  677SOL    HW2 2931   5.900   1.500   6.574
  678SOL     OW 2932   1.238   1.501   5.338
  678SOL    HW1 2933   1.308   1.483   5.408
  678SOL    HW2 2934   1.239   1.598   5.314
  679SOL     OW 2935   4.933   0.913   4.136
  679SOL    HW1 2936   4.979   0.923   4.048
  679SOL    HW2 2937   4.840   0.880   4.122
  680SOL     OW 2938   5.357   5.835   5.952
  680SOL    HW1 2939   5.300   5.828   5.870
  680SOL    HW2 2940   5.301   5.819   6.033
  681SOL     OW 2941   5.505   0.017   1.292
  681SOL    HW1 2942   5.456   0.044   1.375
  681SOL    HW2 2943   5.587   0.074   1.282
  682SOL     OW 2944   1.452   6.970   6.748
  682SOL    HW1 2945   1.494   6.887   6.786
  682SOL    HW2 2946   1.503   6.999   6.667
  683SOL     OW 2947   3.784   1.362   6.709
  683SOL    HW1 2948   3.686   1.350   6.721
  683SOL    HW2 2949   3.811   1.454   6.737
  684SOL     OW 2950   5.893   1.348   6.651
  684SOL    HW1 2951   5.804   1.388   6.672
  684SOL    HW2 2952   5.880   1.266   6.595
  685SOL     OW 2953   5.111   0.297   5.236
  685SOL    HW1 2954   5.029   0.309   5.180
  685SOL    HW2 2955   5.110   0.205   5.277
  686SOL     OW 2956   6.206   3.152   3.674
  686SOL    HW1 2957   6.128   3.103   3.714
  686SOL    HW2 2958   6.279   3.159   3.742
  687SOL     OW 2959   6.845   2.256   4.949
  687SOL    HW1 2960   6.883   2.213   5.031
  687SOL    HW2 2961   6.826   2.185   4.881
  688SOL     OW 2962   1.737   3.194   0.253
  688SOL    HW1 2963   1.642   3.184   0.283
  688SOL    HW2 2964   1.744   3.275   0.194
  689SOL     OW 2965   0.499   4.501   5.711
  689SOL    HW1 2966   0.500   4.435   5.636
  689SOL    HW2 2967   0.481   4.592   5.675
  690SOL     OW 2968   0.747   3.600   3.779
  690SOL    HW1 2969   0.732   3.502   3.788
  690SOL    HW2 2970   0.841   3.617   3.751
  691SOL     OW 2971   2.572   1.524   6.559
  691SOL    HW1 2972   2.636   1.533   6.635
  691SOL    HW2 2973   2.483   1.561   6.586
  692SOL     OW 2974   3.882   6.193   3.411
  692SOL    HW1 2975   3.816   6.249   3.361
  692SOL    HW2 2976   3.972   6.234   3.407
  693SOL     OW 2977   6.424   1.849   2.841
  693SOL    HW1 2978   6.383   1.922   2.895
  693SOL    HW2 2979   6.353   1.804   2.786
  694SOL     OW 2980   3.435   6.600   2.368
  694SOL    HW1 2981   3.439   6.513   2.320
  694SOL    HW2 2982   3.528   6.632   2.386
  695SOL     OW 2983   4.506   4.720   6.187
  695SOL    HW1 2984   4.425   4.760   6.230
  695SOL    HW2 2985   4.500   4.731   6.088
  696SOL     OW 2986   2.922   5.175   1.995
  696SOL    HW1 2987   2.839   5.223   1.970
  696SOL    HW2 2988   2.990   5.241   2.029
  697SOL     OW 2989   1.406   2.674   4.401
  697SOL    HW1 2990   1.418   2.768   4.433
  697SOL    HW2 2991   1.337   2.672   4.328
  698SOL     OW 2992   5.517   6.768   6.751
  698SOL    HW1 2993   5.501   6.769   6.652
  698SOL    HW2 2994   5.556   6.680   6.778
  699SOL     OW 2995   0.995   3.715   6.911
  699SOL    HW1 2996   0.984   3.616   6.897
  699SOL    HW2 2997   1.056   3.731   6.988
  700SOL     OW 2998   2.833   1.359   4.284
  700SOL    HW1 2999   2.855   1.263   4.302
  700SOL    HW2 3000   2.809   1.370   4.187
  701SOL     OW 3001   0.133   4.403   5.493
  701SOL    HW1 3002   0.092   4.485   5.533
  701SOL    HW2 3003   0.100   4.322   5.541
  702SOL     OW 3004   6.027   6.026   6.370
  702SOL    HW1 3005   5.928   6.013   6.365
  702SOL    HW2 3006   6.047   6.119   6.400
  703SOL     OW 3007   3.997   4.230   6.683
  703SOL    HW1 3008   3.931   4.302   6.660
  703SOL    HW2 3009   3.949   4.154   6.726
  704SOL     OW 3010   1.933   1.527   6.145
  704SOL    HW1 3011   1.914   1.442   6.195
  704SOL    HW2 3012   2.029   1.528   6.117
  705SOL     OW 3013   5.310   0.128   3.681
  705SOL    HW1 3014   5.231   0.118   3.621
  705SOL    HW2 3015   5.368   0.047   3.673
  706SOL     OW 3016   4.401   2.386   3.436
  706SOL    HW1 3017   4.474   2.320   3.420
  706SOL    HW2 3018   4.352   2.361   3.519
  707SOL     OW 3019   4.516   0.257   2.145
  707SOL    HW1 3020   4.539   0.159   2.140
  707SOL    HW2 3021   4.466   0.284   2.063
  708SOL     OW 3022   3.906   0.588   1.570
  708SOL    HW1 3023   3.827   0.612   1.515
  708SOL    HW2 3024   3.889   0.501   1.617
  709SOL     OW 3025   1.272   5.347   0.132
  709SOL    HW1 3026   1.273   5.282   0.056
  709SOL    HW2 3027   1.187   5.337   0.184
  710SOL     OW 3028   3.551   3.420   2.433
  710SOL    HW1 3029   3.563   3.323   2.413
  710SOL    HW2 3030   3.641   3.464   2.442
  711SOL     OW 3031   0.122   1.949   5.856
  711SOL    HW1 3032   0.119   1.894   5.940
  711SOL    HW2 3033   0.161   1.894   5.782
  712SOL     OW 3034   3.053   3.675   0.580
  712SOL    HW1 3035   3.041   3.586   0.623
  712SOL    HW2 3036   2.965   3.706   0.543
  713SOL     OW 3037   3.490   3.181   0.080
  713SOL    HW1 3038   3.509   3.100   0.134
  713SOL    HW2 3039   3.408   3.165   0.024
  714SOL     OW 3040   6.642   4.900   5.028
  714SOL    HW1 3041   6.564   4.867   4.975
  714SOL    HW2 3042   6.691   4.970   4.975
  715SOL     OW 3043   5.307   6.563   0.804
  715SOL    HW1 3044   5.296   6.508   0.721
  715SOL    HW2 3045   5.404   6.566   0.829
  716SOL     OW 3046   1.166   6.401   0.819
  716SOL    HW1 3047   1.120   6.404   0.908
  716SOL    HW2 3048   1.103   6.432   0.748
  717SOL     OW 3049   6.179   5.332   6.536
  717SOL    HW1 3050   6.167   5.367   6.629
  717SOL    HW2 3051   6.275   5.307   6.523
  718SOL     OW 3052   4.514   1.904   5.498
  718SOL    HW1 3053   4.485   1.847   5.575
  718SOL    HW2 3054   4.451   1.982   5.490
  719SOL     OW 3055   6.739   2.673   0.945
  719SOL    HW1 3056   6.707   2.711   1.032
  719SOL    HW2 3057   6.660   2.650   0.888
  720SOL     OW 3058   3.341   1.000   6.129
  720SOL    HW1 3059   3.369   0.970   6.220
  720SOL    HW2 3060   3.254   0.957   6.105
  721SOL     OW 3061   2.275   0.283   4.180
  721SOL    HW1 3062   2.181   0.317   4.185
  721SOL    HW2 3063   2.334   0.337   4.240
  722SOL     OW 3064   2.278   7.019   4.988
  722SOL    HW1 3065   2.227   0.079   4.992
  722SOL    HW2 3066   2.248   6.967   4.908
  723SOL     OW 3067   1.863   3.662   2.802
  723SOL    HW1 3068   1.817   3.659   2.891
  723SOL    HW2 3069   1.838   3.582   2.749
  724SOL     OW 3070   1.211   2.289   4.548
  724SOL    HW1 3071   1.234   2.216   4.612
  724SOL    HW2 3072   1.241   2.377   4.585
  725SOL     OW 3073   3.402   5.578   0.741
  725SOL    HW1 3074   3.359   5.499   0.699
  725SOL    HW2 3075   3.497   5.585   0.711
  726SOL     OW 3076   4.017   4.845   0.724
  726SOL    HW1 3077   3.990   4.750   0.741
  726SOL    HW2 3078   4.070   4.849   0.639
  727SOL     OW 3079   4.979   5.655   6.040
  727SOL    HW1 3080   5.035   5.572   6.041
  727SOL    HW2 3081   4.892   5.636   5.995
  728SOL     OW 3082   6.844   3.197   4.710
  728SOL    HW1 3083   6.864   3.111   4.664
  728SOL    HW2 3084   6.922   3.259   4.699
  729SOL     OW 3085   2.029   1.833   0.058
  729SOL    HW1 3086   1.942   1.794   0.088
  729SOL    HW2 3087   2.023   1.858   6.988
  730SOL     OW 3088   5.281   0.985   3.349
  730SOL    HW1 3089   5.226   1.049   3.295
  730SOL    HW2 3090   5.292   1.019   3.442
  731SOL     OW 3091   5.664   4.381   5.778
  731SOL    HW1 3092   5.677   4.420   5.870
  731SOL    HW2 3093   5.749   4.387   5.727
  732SOL     OW 3094   0.836   3.042   1.198
  732SOL    HW1 3095   0.893   3.055   1.279
  732SOL    HW2 3096   0.794   2.951   1.200
  733SOL     OW 3097   5.490   5.185   5.468
  733SOL    HW1 3098   5.480   5.279   5.435
  733SOL    HW2 3099   5.549   5.184   5.549
  734SOL     OW 3100   6.796   4.397   2.959
  734SOL    HW1 3101   6.888   4.436   2.956
  734SOL    HW2 3102   6.748   4.418   2.874
  735SOL     OW 3103   4.249   3.135   0.477
  735SOL    HW1 3104   4.244   3.233   0.461
  735SOL    HW2 3105   4.290   3.090   0.398
  736SOL     OW 3106   0.089   0.115   2.810
  736SOL    HW1 3107   0.175   0.068   2.830
  736SOL    HW2 3108   0.073   0.184   2.881
  737SOL     OW 3109   4.099   2.086   6.466
  737SOL    HW1 3110   4.036   2.113   6.392
  737SOL    HW2 3111   4.146   2.167   6.501
  738SOL     OW 3112   2.309   4.205   2.298
  738SOL    HW1 3113   2.317   4.179   2.202
  738SOL    HW2 3114   2.339   4.300   2.309
  739SOL     OW 3115   3.649   0.292   4.529
  739SOL    HW1 3116   3.744   0.261   4.537
  739SOL    HW2 3117   3.638   0.346   4.446
  740SOL     OW 3118   4.205   0.015   0.232
  740SOL    HW1 3119   4.225   6.944   0.239
  740SOL    HW2 3120   4.108   0.030   0.247
  741SOL     OW 3121   2.387   6.066   2.952
  741SOL    HW1 3122   2.413   5.985   2.901
  741SOL    HW2 3123   2.288   6.078   2.948
  742SOL     OW 3124   1.602   6.639   1.469
  742SOL    HW1 3125   1.558   6.726   1.489
  742SOL    HW2 3126   1.596   6.620   1.370
  743SOL     OW 3127   0.990   4.691   5.040
  743SOL    HW1 3128   0.935   4.644   5.109
  743SOL    HW2 3129   0.986   4.790   5.056
  744SOL     OW 3130   5.452   6.835   6.504
  744SOL    HW1 3131   5.371   6.822   6.447
  744SOL    HW2 3132   5.527   6.872   6.448
  745SOL     OW 3133   1.009   5.209   4.048
  745SOL    HW1 3134   0.994   5.298   4.090
  745SOL    HW2 3135   1.088   5.214   3.987
  746SOL     OW 3136   0.905   5.435   6.100
  746SOL    HW1 3137   0.809   5.413   6.117
  746SOL    HW2 3138   0.954   5.352   6.075
  747SOL     OW 3139   4.450   6.243   4.644
  747SOL    HW1 3140   4.497   6.159   4.619
  747SOL    HW2 3141   4.427   6.241   4.742
  748SOL     OW 3142   3.110   4.967   2.391
  748SOL    HW1 3143   3.122   4.897   2.321
  748SOL    HW2 3144   3.013   4.983   2.406
  749SOL     OW 3145   6.477   4.267   5.120
  749SOL    HW1 3146   6.475   4.262   5.021
  749SOL    HW2 3147   6.404   4.210   5.158
  750SOL     OW 3148   2.017   2.542   1.201
  750SOL    HW1 3149   2.015   2.586   1.291
  750SOL    HW2 3150   2.028   2.613   1.130
  751SOL     OW 3151   3.962   2.802   5.724
  751SOL    HW1 3152   3.892   2.813   5.795
  751SOL    HW2 3153   3.992   2.707   5.721
  752SOL     OW 3154   3.878   1.859   2.238
  752SOL    HW1 3155   3.925   1.839   2.324
  752SOL    HW2 3156   3.926   1.933   2.191
  753SOL     OW 3157   1.663   3.105   4.105
  753SOL    HW1 3158   1.745   3.050   4.089
  753SOL    HW2 3159   1.582   3.047   4.098
  754SOL     OW 3160   5.348   2.526   6.328
  754SOL    HW1 3161   5.312   2.610   6.288
  754SOL    HW2 3162   5.395   2.473   6.257
  755SOL     OW 3163   1.501   5.237   6.074
  755SOL    HW1 3164   1.584   5.254   6.019
  755SOL    HW2 3165   1.426   5.291   6.037
  756SOL     OW 3166   3.470   0.656   1.621
  756SOL    HW1 3167   3.429   0.580   1.671
  756SOL    HW2 3168   3.460   0.740   1.673
  757SOL     OW 3169   0.643   6.544   3.132
  757SOL    HW1 3170   0.628   6.459   3.183
  757SOL    HW2 3171   0.604   6.621   3.182
  758SOL     OW 3172   3.769   0.079   2.026
  758SOL    HW1 3173   3.681   0.107   1.988
  758SOL    HW2 3174   3.812   0.157   2.071
  759SOL     OW 3175   0.492   1.073   0.621
  759SOL    HW1 3176   0.488   0.991   0.564
  759SOL    HW2 3177   0.399   1.106   0.639
  760SOL     OW 3178   4.812   0.133   5.709
  760SOL    HW1 3179   4.873   0.142   5.630
  760SOL    HW2 3180   4.826   0.044   5.752
  761SOL     OW 3181   5.415   3.582   5.368
  761SOL    HW1 3182   5.512   3.559   5.374
  761SOL    HW2 3183   5.364   3.503   5.334
  762SOL     OW 3184   1.724   0.140   5.006
  762SOL    HW1 3185   1.660   0.102   4.939
  762SOL    HW2 3186   1.770   0.219   4.966
  763SOL     OW 3187   4.521   4.618   6.827
  763SOL    HW1 3188   4.618   4.606   6.805
  763SOL    HW2 3189   4.481   4.529   6.851
  764SOL     OW 3190   4.263   0.835   4.110
  764SOL    HW1 3191   4.219   0.920   4.138
  764SOL    HW2 3192   4.354   0.830   4.150
  765SOL     OW 3193   1.389   5.771   1.282
  765SOL    HW1 3194   1.349   5.727   1.201
  765SOL    HW2 3195   1.335   5.749   1.363
  766SOL     OW 3196   1.391   3.103   7.010
  766SOL    HW1 3197   1.292   3.122   7.006
  766SOL    HW2 3198   1.406   3.005   7.000
  767SOL     OW 3199   5.913   5.645   2.249
  767SOL    HW1 3200   5.952   5.678   2.336
  767SOL    HW2 3201   5.970   5.571   2.214
  768SOL     OW 3202   1.769   6.440   1.781
  768SOL    HW1 3203   1.712   6.399   1.710
  768SOL    HW2 3204   1.811   6.368   1.835
  769SOL     OW 3205   3.388   0.592   4.531
  769SOL    HW1 3206   3.436   0.531   4.594
  769SOL    HW2 3207   3.413   0.687   4.551
  770SOL     OW 3208   2.167   3.943   3.489
  770SOL    HW1 3209   2.178   3.861   3.432
  770SOL    HW2 3210   2.164   4.024   3.430
  771SOL     OW 3211   2.339   5.375   2.286
  771SOL    HW1 3212   2.282   5.408   2.211
  771SOL    HW2 3213   2.377   5.286   2.263
  772SOL     OW 3214   6.549   5.410   0.657
  772SOL    HW1 3215   6.457   5.371   0.666
  772SOL    HW2 3216   6.590   5.418   0.748
  773SOL     OW 3217   0.290   3.569   4.095
  773SOL    HW1 3218   0.311   3.630   4.172
  773SOL    HW2 3219   0.204   3.597   4.053
  774SOL     OW 3220   1.609   1.737   1.727
  774SOL    HW1 3221   1.578   1.814   1.671
  774SOL    HW2 3222   1.640   1.771   1.816
  775SOL     OW 3223   0.577   2.265   2.706
  775SOL    HW1 3224   0.665   2.309   2.722
  775SOL    HW2 3225   0.571   2.181   2.759
  776SOL     OW 3226   0.324   0.368   5.399
  776SOL    HW1 3227   0.408   0.402   5.441
  776SOL    HW2 3228   0.329   0.269   5.391
  777SOL     OW 3229   3.079   5.332   1.387
  777SOL    HW1 3230   3.058   5.238   1.361
  777SOL    HW2 3231   3.176   5.350   1.372
  778SOL     OW 3232   3.445   1.575   2.776
  778SOL    HW1 3233   3.516   1.623   2.828
  778SOL    HW2 3234   3.406   1.502   2.832
  779SOL     OW 3235   0.324   2.224   3.150
  779SOL    HW1 3236   0.242   2.189   3.196
  779SOL    HW2 3237   0.297   2.280   3.072
  780SOL     OW 3238   6.024   3.968   3.947
  780SOL    HW1 3239   6.038   4.054   3.897
  780SOL    HW2 3240   6.009   3.989   4.044
  781SOL     OW 3241   5.585   1.170   6.879
  781SOL    HW1 3242   5.550   1.094   6.934
  781SOL    HW2 3243   5.671   1.203   6.918
  782SOL     OW 3244   1.597   3.918   0.076
  782SOL    HW1 3245   1.615   3.847   0.008
  782SOL    HW2 3246   1.626   3.886   0.166
  783SOL     OW 3247   4.223   5.069   1.426
  783SOL    HW1 3248   4.260   4.976   1.424
  783SOL    HW2 3249   4.168   5.085   1.344
  784SOL     OW 3250   5.035   6.475   0.097
  784SOL    HW1 3251   5.110   6.513   0.043
  784SOL    HW2 3252   5.051   6.378   0.112
  785SOL     OW 3253   0.030   2.990   2.855
  785SOL    HW1 3254   0.044   2.981   2.756
  785SOL    HW2 3255   6.974   3.044   2.872
  786SOL     OW 3256   1.271   0.557   0.831
  786SOL    HW1 3257   1.243   0.609   0.912
  786SOL    HW2 3258   1.369   0.538   0.836
  787SOL     OW 3259   2.567   0.791   6.689
  787SOL    HW1 3260   2.613   0.812   6.602
  787SOL    HW2 3261   2.595   0.700   6.720
  788SOL     OW 3262   3.196   2.324   5.774
  788SOL    HW1 3263   3.248   2.409   5.770
  788SOL    HW2 3264   3.140   2.316   5.691
  789SOL     OW 3265   5.117   3.648   1.074
  789SOL    HW1 3266   5.196   3.598   1.039
  789SOL    HW2 3267   5.071   3.593   1.144
  790SOL     OW 3268   2.421   0.778   4.412
  790SOL    HW1 3269   2.431   0.861   4.357
  790SOL    HW2 3270   2.504   0.764   4.467
  791SOL     OW 3271   3.657   5.995   3.462
  791SOL    HW1 3272   3.620   6.013   3.371
  791SOL    HW2 3273   3.723   6.066   3.486
  792SOL     OW 3274   0.555   0.699   1.181
  792SOL    HW1 3275   0.601   0.787   1.192
  792SOL    HW2 3276   0.616   0.626   1.211
  793SOL     OW 3277   5.202   5.909   2.834
  793SOL    HW1 3278   5.142   5.970   2.885
  793SOL    HW2 3279   5.168   5.815   2.840
  794SOL     OW 3280   3.123   3.839   5.212
  794SOL    HW1 3281   3.158   3.931   5.199
  794SOL    HW2 3282   3.027   3.834   5.183
  795SOL     OW 3283   3.857   6.759   5.043
  795SOL    HW1 3284   3.900   6.669   5.042
  795SOL    HW2 3285   3.780   6.759   5.106
  796SOL     OW 3286   1.137   1.790   6.323
  796SOL    HW1 3287   1.044   1.822   6.340
  796SOL    HW2 3288   1.202   1.856   6.358
  797SOL     OW 3289   5.076   2.945   2.000
  797SOL    HW1 3290   5.019   2.957   2.081
  797SOL    HW2 3291   5.019   2.953   1.918
  798SOL     OW 3292   5.101   6.825   1.702
  798SOL    HW1 3293   5.123   6.888   1.628
  798SOL    HW2 3294   5.115   6.871   1.790
  799SOL     OW 3295   6.507   1.103   5.379
  799SOL    HW1 3296   6.598   1.144   5.379
  799SOL    HW2 3297   6.462   1.119   5.467
  800SOL     OW 3298   5.294   1.565   2.868
  800SOL    HW1 3299   5.249   1.488   2.822
  800SOL    HW2 3300   5.227   1.614   2.924
  801SOL     OW 3301   2.088   3.453   4.377
  801SOL    HW1 3302   2.039   3.514   4.440
  801SOL    HW2 3303   2.124   3.507   4.301
  802SOL     OW 3304   4.544   0.539   0.776
  802SOL    HW1 3305   4.544   0.444   0.744
  802SOL    HW2 3306   4.637   0.575   0.776
  803SOL     OW 3307   0.298   6.042   4.921
  803SOL    HW1 3308   0.329   6.115   4.981
  803SOL    HW2 3309   0.338   5.955   4.951
  804SOL     OW 3310   5.841   5.975   0.034
  804SOL    HW1 3311   5.755   6.025   0.032
  804SOL    HW2 3312   5.865   5.944   6.968
  805SOL     OW 3313   3.696   1.377   5.457
  805SOL    HW1 3314   3.738   1.373   5.548
  805SOL    HW2 3315   3.598   1.391   5.466
  806SOL     OW 3316   5.173   1.216   4.064
  806SOL    HW1 3317   5.083   1.195   4.025
  806SOL    HW2 3318   5.164   1.232   4.163
  807SOL     OW 3319   0.762   2.118   4.851
  807SOL    HW1 3320   0.716   2.087   4.768
  807SOL    HW2 3321   0.822   2.045   4.885
  808SOL     OW 3322   4.708   3.438   6.309
  808SOL    HW1 3323   4.771   3.368   6.275
  808SOL    HW2 3324   4.672   3.411   6.398
  809SOL     OW 3325   0.482   4.523   1.635
  809SOL    HW1 3326   0.560   4.575   1.599
  809SOL    HW2 3327   0.501   4.426   1.627
  810SOL     OW 3328   3.547   2.908   0.793
  810SOL    HW1 3329   3.548   2.818   0.836
  810SOL    HW2 3330   3.621   2.964   0.832
  811SOL     OW 3331   3.651   5.706   4.390
  811SOL    HW1 3332   3.567   5.759   4.377
  811SOL    HW2 3333   3.717   5.729   4.318
  812SOL     OW 3334   0.470   1.858   1.602
  812SOL    HW1 3335   0.435   1.908   1.523
  812SOL    HW2 3336   0.402   1.789   1.630
  813SOL     OW 3337   3.552   5.643   4.816
  813SOL    HW1 3338   3.476   5.604   4.765
  813SOL    HW2 3339   3.633   5.650   4.757
  814SOL     OW 3340   5.857   6.380   2.543
  814SOL    HW1 3341   5.841   6.282   2.557
  814SOL    HW2 3342   5.807   6.432   2.612
  815SOL     OW 3343   0.527   3.745   3.079
  815SOL    HW1 3344   0.565   3.826   3.124
  815SOL    HW2 3345   0.453   3.708   3.135
  816SOL     OW 3346   6.599   6.608   0.282
  816SOL    HW1 3347   6.524   6.673   0.266
  816SOL    HW2 3348   6.645   6.631   0.368
  817SOL     OW 3349   2.052   3.547   1.482
  817SOL    HW1 3350   2.063   3.643   1.456
  817SOL    HW2 3351   2.019   3.542   1.576
  818SOL     OW 3352   6.690   2.671   1.642
  818SOL    HW1 3353   6.640   2.688   1.557
  818SOL    HW2 3354   6.780   2.634   1.621
  819SOL     OW 3355   5.567   2.958   3.396
  819SOL    HW1 3356   5.498   2.889   3.416
  819SOL    HW2 3357   5.533   3.019   3.324
  820SOL     OW 3358   2.581   2.817   5.587
  820SOL    HW1 3359   2.617   2.833   5.679
  820SOL    HW2 3360   2.647   2.765   5.533
  821SOL     OW 3361   1.835   4.144   0.247
  821SOL    HW1 3362   1.890   4.227   0.245
  821SOL    HW2 3363   1.830   4.109   0.341
  822SOL     OW 3364   1.564   4.379   4.462
  822SOL    HW1 3365   1.623   4.435   4.521
  822SOL    HW2 3366   1.621   4.329   4.396
  823SOL     OW 3367   4.524   4.129   6.223
  823SOL    HW1 3368   4.602   4.089   6.270
  823SOL    HW2 3369   4.523   4.098   6.128
  824SOL     OW 3370   5.118   0.813   5.300
  824SOL    HW1 3371   5.177   0.770   5.231
  824SOL    HW2 3372   5.091   0.744   5.368
  825SOL     OW 3373   1.304   3.958   0.981
  825SOL    HW1 3374   1.395   3.977   1.016
  825SOL    HW2 3375   1.258   4.043   0.957
  826SOL     OW 3376   5.226   3.388   6.253
  826SOL    HW1 3377   5.318   3.427   6.257
  826SOL    HW2 3378   5.211   3.347   6.163
  827SOL     OW 3379   3.233   5.380   6.347
  827SOL    HW1 3380   3.140   5.347   6.329
  827SOL    HW2 3381   3.297   5.303   6.344
  828SOL     OW 3382   5.189   6.225   5.974
  828SOL    HW1 3383   5.214   6.286   6.048
  828SOL    HW2 3384   5.180   6.277   5.889
  829SOL     OW 3385   3.169   3.452   3.671
  829SOL    HW1 3386   3.217   3.403   3.743
  829SOL    HW2 3387   3.073   3.465   3.696
  830SOL     OW 3388   4.796   4.659   6.816
  830SOL    HW1 3389   4.875   4.605   6.790
  830SOL    HW2 3390   4.819   4.757   6.810
  831SOL     OW 3391   5.703   1.126   6.149
  831SOL    HW1 3392   5.621   1.118   6.093
  831SOL    HW2 3393   5.740   1.035   6.168
  832SOL     OW 3394   2.631   0.799   1.062
  832SOL    HW1 3395   2.612   0.788   1.159
  832SOL    HW2 3396   2.572   0.737   1.009
  833SOL     OW 3397   0.036   4.316   6.463
  833SOL    HW1 3398   7.013   4.309   6.377
  833SOL    HW2 3399   0.025   4.408   6.501
  834SOL     OW 3400   2.819   3.538   1.163
  834SOL    HW1 3401   2.735   3.591   1.161
  834SOL    HW2 3402   2.830   3.488   1.077
  835SOL     OW 3403   3.072   0.507   4.551
  835SOL    HW1 3404   3.077   0.408   4.546
  835SOL    HW2 3405   3.106   0.537   4.640
  836SOL     OW 3406   3.416   6.030   6.504
  836SOL    HW1 3407   3.335   5.977   6.478
  836SOL    HW2 3408   3.387   6.120   6.536
  837SOL     OW 3409   5.605   6.115   0.043
  837SOL    HW1 3410   5.521   6.064   0.023
  837SOL    HW2 3411   5.592   6.172   0.124
  838SOL     OW 3412   1.911   7.023   4.321
  838SOL    HW1 3413   1.988   6.964   4.294
  838SOL    HW2 3414   1.837   7.015   4.254
  839SOL     OW 3415   2.524   2.343   2.220
  839SOL    HW1 3416   2.566   2.293   2.144
  839SOL    HW2 3417   2.591   2.354   2.293
  840SOL     OW 3418   5.927   6.908   6.856
  840SOL    HW1 3419   5.901   7.002   6.830
  840SOL    HW2 3420   6.023   6.907   6.884
  841SOL     OW 3421   4.594   5.126   0.632
  841SOL    HW1 3422   4.683   5.154   0.595
  841SOL    HW2 3423   4.535   5.096   0.557
  842SOL     OW 3424   4.251   5.680   4.639
  842SOL    HW1 3425   4.252   5.744   4.716
  842SOL    HW2 3426   4.336   5.690   4.586
  843SOL     OW 3427   2.471   1.801   0.269
  843SOL    HW1 3428   2.431   1.877   0.321
  843SOL    HW2 3429   2.418   1.785   0.186
  844SOL     OW 3430   5.704   0.196   1.207
  844SOL    HW1 3431   5.704   0.296   1.209
  844SOL    HW2 3432   5.661   0.165   1.122
  845SOL     OW 3433   5.720   3.513   5.428
  845SOL    HW1 3434   5.786   3.586   5.411
  845SOL    HW2 3435   5.736   3.438   5.364
  846SOL     OW 3436   3.104   1.239   0.316
  846SOL    HW1 3437   3.088   1.150   0.360
  846SOL    HW2 3438   3.016   1.285   0.303
  847SOL     OW 3439   0.766   3.617   0.374
  847SOL    HW1 3440   0.702   3.677   0.326
  847SOL    HW2 3441   0.805   3.666   0.452
  848SOL     OW 3442   6.146   0.680   6.569
  848SOL    HW1 3443   6.189   0.755   6.620
  848SOL    HW2 3444   6.082   0.633   6.629
  849SOL     OW 3445   0.860   4.618   6.029
  849SOL    HW1 3446   0.915   4.551   5.979
  849SOL    HW2 3447   0.786   4.650   5.970
  850SOL     OW 3448   5.746   1.091   4.118
  850SOL    HW1 3449   5.804   1.087   4.037
  850SOL    HW2 3450   5.684   1.169   4.111
  851SOL     OW 3451   0.295   0.687   1.554
  851SOL    HW1 3452   0.254   0.776   1.531
  851SOL    HW2 3453   0.259   0.618   1.492
  852SOL     OW 3454   1.423   2.075   0.243
  852SOL    HW1 3455   1.492   2.059   0.173
  852SOL    HW2 3456   1.333   2.079   0.200
  853SOL     OW 3457   1.911   4.643   2.579
  853SOL    HW1 3458   1.900   4.568   2.644
  853SOL    HW2 3459   2.008   4.659   2.562
  854SOL     OW 3460   4.753   5.795   1.958
  854SOL    HW1 3461   4.831   5.750   2.002
  854SOL    HW2 3462   4.683   5.815   2.027
  855SOL     OW 3463   6.880   0.241   1.007
  855SOL    HW1 3464   6.914   0.309   1.073
  855SOL    HW2 3465   6.958   0.192   0.968
  856SOL     OW 3466   1.284   1.829   5.008
  856SOL    HW1 3467   1.210   1.895   5.017
  856SOL    HW2 3468   1.372   1.878   5.007
  857SOL     OW 3469   5.945   4.205   2.357
  857SOL    HW1 3470   5.855   4.244   2.339
  857SOL    HW2 3471   5.979   4.161   2.274
  858SOL     OW 3472   2.647   4.234   1.326
  858SOL    HW1 3473   2.576   4.279   1.380
  858SOL    HW2 3474   2.682   4.297   1.256
  859SOL     OW 3475   4.848   5.754   6.731
  859SOL    HW1 3476   4.913   5.742   6.655
  859SOL    HW2 3477   4.772   5.811   6.701
  860SOL     OW 3478   3.941   4.316   0.586
  860SOL    HW1 3479   4.040   4.307   0.602
  860SOL    HW2 3480   3.902   4.379   0.652
  861SOL     OW 3481   2.426   0.373   4.457
  861SOL    HW1 3482   2.422   0.445   4.388
  861SOL    HW2 3483   2.385   0.290   4.421
  862SOL     OW 3484   0.053   4.316   6.004
  862SOL    HW1 3485   7.005   4.296   5.941
  862SOL    HW2 3486   0.116   4.381   5.961
  863SOL     OW 3487   0.683   0.655   0.336
  863SOL    HW1 3488   0.725   0.566   0.354
  863SOL    HW2 3489   0.657   0.660   0.239
  864SOL     OW 3490   5.152   4.520   4.024
  864SOL    HW1 3491   5.228   4.475   4.071
  864SOL    HW2 3492   5.118   4.460   3.952
  865SOL     OW 3493   2.373   6.547   5.431
  865SOL    HW1 3494   2.343   6.636   5.396
  865SOL    HW2 3495   2.295   6.485   5.437
  866SOL     OW 3496   1.730   2.729   1.914
  866SOL    HW1 3497   1.690   2.711   2.004
  866SOL    HW2 3498   1.815   2.781   1.925
  867SOL     OW 3499   4.060   2.862   0.848
  867SOL    HW1 3500   4.029   2.923   0.922
  867SOL    HW2 3501   4.031   2.901   0.760
  868SOL     OW 3502   5.794   6.873   1.478
  868SOL    HW1 3503   5.814   6.842   1.385
  868SOL    HW2 3504   5.713   6.825   1.512
  869SOL     OW 3505   6.557   5.188   3.399
  869SOL    HW1 3506   6.461   5.204   3.424
  869SOL    HW2 3507   6.603   5.276   3.386
  870SOL     OW 3508   5.591   3.609   0.381
  870SOL    HW1 3509   5.524   3.586   0.311
  870SOL    HW2 3510   5.626   3.525   0.422
  871SOL     OW 3511   5.354   3.598   2.703
  871SOL    HW1 3512   5.269   3.647   2.724
  871SOL    HW2 3513   5.367   3.594   2.604
  872SOL     OW 3514   5.858   4.102   4.259
  872SOL    HW1 3515   5.816   4.049   4.187
  872SOL    HW2 3516   5.850   4.200   4.238
  873SOL     OW 3517   5.854   0.002   3.539
  873SOL    HW1 3518   5.765   6.985   3.525
  873SOL    HW2 3519   5.883   0.047   3.454
  874SOL     OW 3520   1.168   4.951   4.858
  874SOL    HW1 3521   1.215   5.036   4.832
  874SOL    HW2 3522   1.171   4.886   4.782
  875SOL     OW 3523   4.350   2.982   0.274
  875SOL    HW1 3524   4.335   2.883   0.271
  875SOL    HW2 3525   4.447   3.001   0.289
  876SOL     OW 3526   0.528   5.951   3.487
  876SOL    HW1 3527   0.527   6.048   3.512
  876SOL    HW2 3528   0.612   5.908   3.520
  877SOL     OW 3529   3.372   4.707   0.957
  877SOL    HW1 3530   3.398   4.803   0.946
  877SOL    HW2 3531   3.288   4.689   0.905
  878SOL     OW 3532   4.523   6.276   5.512
  878SOL    HW1 3533   4.520   6.255   5.610
  878SOL    HW2 3534   4.547   6.372   5.500
  879SOL     OW 3535   3.161   2.099   1.942
  879SOL    HW1 3536   3.158   2.003   1.912
  879SOL    HW2 3537   3.074   2.143   1.921
  880SOL     OW 3538   2.981   4.572   6.906
  880SOL    HW1 3539   2.950   4.577   7.001
  880SOL    HW2 3540   2.959   4.658   6.859
  881SOL     OW 3541   4.476   4.822   5.157
  881SOL    HW1 3542   4.555   4.842   5.214
  881SOL    HW2 3543   4.474   4.884   5.079
  882SOL     OW 3544   1.147   1.594   4.023
  882SOL    HW1 3545   1.223   1.556   3.970
  882SOL    HW2 3546   1.137   1.542   4.108
  883SOL     OW 3547   4.776   5.260   5.747
  883SOL    HW1 3548   4.870   5.232   5.725
  883SOL    HW2 3549   4.777   5.322   5.826
  884SOL     OW 3550   0.119   3.154   1.198
  884SOL    HW1 3551   0.028   3.174   1.236
  884SOL    HW2 3552   0.142   3.222   1.129
  885SOL     OW 3553   5.049   6.063   6.895
  885SOL    HW1 3554   5.062   6.161   6.877
  885SOL    HW2 3555   5.044   6.014   6.808
  886SOL     OW 3556   3.485   0.342   0.798
  886SOL    HW1 3557   3.525   0.373   0.712
  886SOL    HW2 3558   3.507   0.245   0.812
  887SOL     OW 3559   4.555   6.863   4.624
  887SOL    HW1 3560   4.602   6.892   4.541
  887SOL    HW2 3561   4.488   6.933   4.650
  888SOL     OW 3562   5.869   6.466   3.293
  888SOL    HW1 3563   5.966   6.489   3.305
  888SOL    HW2 3564   5.817   6.550   3.279
  889SOL     OW 3565   1.421   6.479   5.532
  889SOL    HW1 3566   1.415   6.379   5.528
  889SOL    HW2 3567   1.494   6.510   5.471
  890SOL     OW 3568   3.264   5.126   2.068
  890SOL    HW1 3569   3.213   5.081   1.995
  890SOL    HW2 3570   3.362   5.107   2.058
  891SOL     OW 3571   5.632   3.925   1.721
  891SOL    HW1 3572   5.650   3.843   1.775
  891SOL    HW2 3573   5.711   3.946   1.664
  892SOL     OW 3574   4.379   3.800   0.716
  892SOL    HW1 3575   4.431   3.772   0.797
  892SOL    HW2 3576   4.412   3.887   0.682
  893SOL     OW 3577   2.238   0.971   2.190
  893SOL    HW1 3578   2.250   1.044   2.258
  893SOL    HW2 3579   2.191   1.008   2.110
  894SOL     OW 3580   1.830   3.070   4.361
  894SOL    HW1 3581   1.815   3.048   4.265
  894SOL    HW2 3582   1.924   3.100   4.375
  895SOL     OW 3583   2.154   6.156   4.880
  895SOL    HW1 3584   2.127   6.060   4.881
  895SOL    HW2 3585   2.079   6.212   4.915
  896SOL     OW 3586   5.222   6.945   2.653
  896SOL    HW1 3587   5.242   6.944   2.751
  896SOL    HW2 3588   5.151   7.012   2.634
  897SOL     OW 3589   5.546   0.279   0.113
  897SOL    HW1 3590   5.482   0.337   0.164
  897SOL    HW2 3591   5.596   0.220   0.177
  898SOL     OW 3592   3.985   5.548   2.949
  898SOL    HW1 3593   3.918   5.512   3.014
  898SOL    HW2 3594   3.970   5.646   2.937
  899SOL     OW 3595   0.298   4.987   0.466
  899SOL    HW1 3596   0.293   5.056   0.394
  899SOL    HW2 3597   0.208   4.946   0.480
  900SOL     OW 3598   5.197   6.577   1.555
  900SOL    HW1 3599   5.192   6.644   1.629
  900SOL    HW2 3600   5.280   6.523   1.565
  901SOL     OW 3601   0.672   1.285   5.112
  901SOL    HW1 3602   0.761   1.274   5.156
  901SOL    HW2 3603   0.685   1.295   5.013
  902SOL     OW 3604   0.108   1.822   6.354
  902SOL    HW1 3605   0.073   1.815   6.448
  902SOL    HW2 3606   0.193   1.874   6.354
  903SOL     OW 3607   6.748   3.849   6.591
  903SOL    HW1 3608   6.675   3.917   6.595
  903SOL    HW2 3609   6.833   3.890   6.626
  904SOL     OW 3610   1.316   1.778   4.130
  904SOL    HW1 3611   1.296   1.827   4.215
  904SOL    HW2 3612   1.235   1.726   4.101
  905SOL     OW 3613   4.570   3.157   5.957
  905SOL    HW1 3614   4.574   3.148   6.056
  905SOL    HW2 3615   4.567   3.067   5.915
  906SOL     OW 3616   0.085   3.723   6.445
  906SOL    HW1 3617   0.038   3.661   6.382
  906SOL    HW2 3618   0.084   3.683   6.537
  907SOL     OW 3619   5.866   2.923   3.570
  907SOL    HW1 3620   5.807   2.845   3.590
  907SOL    HW2 3621   5.829   3.006   3.613
  908SOL     OW 3622   1.915   6.930   3.440
  908SOL    HW1 3623   1.860   6.890   3.366
  908SOL    HW2 3624   2.011   6.905   3.426
  909SOL     OW 3625   1.731   6.803   0.643
  909SOL    HW1 3626   1.727   6.877   0.576
  909SOL    HW2 3627   1.753   6.717   0.597
  910SOL     OW 3628   2.777   0.319   0.524
  910SOL    HW1 3629   2.877   0.319   0.516
  910SOL    HW2 3630   2.741   0.233   0.488
  911SOL     OW 3631   6.528   5.949   1.088
  911SOL    HW1 3632   6.543   5.886   1.164
  911SOL    HW2 3633   6.493   6.036   1.124
  912SOL     OW 3634   6.464   1.085   4.816
  912SOL    HW1 3635   6.539   1.044   4.763
  912SOL    HW2 3636   6.381   1.088   4.760
  913SOL     OW 3637   2.737   0.637   3.473
  913SOL    HW1 3638   2.794   0.576   3.418
  913SOL    HW2 3639   2.794   0.688   3.536
  914SOL     OW 3640   3.130   5.481   5.586
  914SOL    HW1 3641   3.044   5.439   5.615
  914SOL    HW2 3642   3.195   5.480   5.663
  915SOL     OW 3643   1.326   3.240   0.604
  915SOL    HW1 3644   1.257   3.265   0.536
  915SOL    HW2 3645   1.280   3.202   0.684
  916SOL     OW 3646   1.121   2.276   2.821
  916SOL    HW1 3647   1.107   2.189   2.869
  916SOL    HW2 3648   1.204   2.319   2.857
  917SOL     OW 3649   4.982   0.595   1.792
  917SOL    HW1 3650   5.010   0.532   1.719
  917SOL    HW2 3651   4.883   0.606   1.792
  918SOL     OW 3652   2.516   5.964   7.026
  918SOL    HW1 3653   2.528   6.021   0.081
  918SOL    HW2 3654   2.493   6.022   6.948
  919SOL     OW 3655   0.244   4.979   2.762
  919SOL    HW1 3656   0.160   5.029   2.780
  919SOL    HW2 3657   0.320   5.043   2.756
  920SOL     OW 3658   1.538   0.000   3.119
  920SOL    HW1 3659   1.538   0.100   3.121
  920SOL    HW2 3660   1.618   6.995   3.069
  921SOL     OW 3661   5.425   4.512   4.395
  921SOL    HW1 3662   5.349   4.468   4.444
  921SOL    HW2 3663   5.512   4.479   4.432
  922SOL     OW 3664   3.156   2.908   6.899
  922SOL    HW1 3665   3.119   2.824   6.859
  922SOL    HW2 3666   3.256   2.906   6.896
  923SOL     OW 3667   3.121   5.083   0.012
  923SOL    HW1 3668   3.058   5.093   0.088
  923SOL    HW2 3669   3.153   4.988   0.007
  924SOL     OW 3670   6.223   3.208   2.115
  924SOL    HW1 3671   6.125   3.184   2.111
  924SOL    HW2 3672   6.270   3.164   2.038
  925SOL     OW 3673   6.407   1.957   5.431
  925SOL    HW1 3674   6.400   2.052   5.461
  925SOL    HW2 3675   6.484   1.947   5.368
  926SOL     OW 3676   6.080   1.325   0.135
  926SOL    HW1 3677   6.137   1.302   0.056
  926SOL    HW2 3678   6.115   1.408   0.179
  927SOL     OW 3679   5.210   4.172   4.093
  927SOL    HW1 3680   5.265   4.223   4.026
  927SOL    HW2 3681   5.263   4.161   4.177
  928SOL     OW 3682   2.054   0.474   0.870
  928SOL    HW1 3683   2.009   0.541   0.928
  928SOL    HW2 3684   2.101   0.406   0.927
  929SOL     OW 3685   0.206   1.892   1.035
  929SOL    HW1 3686   0.115   1.894   1.075
  929SOL    HW2 3687   0.257   1.815   1.072
  930SOL     OW 3688   5.990   5.760   4.884
  930SOL    HW1 3689   6.026   5.853   4.875
  930SOL    HW2 3690   5.990   5.716   4.794
  931SOL     OW 3691   6.614   3.619   3.547
  931SOL    HW1 3692   6.564   3.565   3.614
  931SOL    HW2 3693   6.555   3.693   3.513
  932SOL     OW 3694   1.871   6.680   1.572
  932SOL    HW1 3695   1.899   6.727   1.655
  932SOL    HW2 3696   1.774   6.657   1.578
  933SOL     OW 3697   0.394   5.346   2.574
  933SOL    HW1 3698   0.405   5.379   2.480
  933SOL    HW2 3699   0.314   5.391   2.615
  934SOL     OW 3700   2.080   0.723   4.397
  934SOL    HW1 3701   2.106   0.631   4.428
  934SOL    HW2 3702   1.986   0.722   4.366
  935SOL     OW 3703   5.088   4.012   5.165
  935SOL    HW1 3704   5.076   4.042   5.070
  935SOL    HW2 3705   5.070   3.914   5.172
  936SOL     OW 3706   0.937   0.584   6.096
  936SOL    HW1 3707   0.946   0.668   6.043
  936SOL    HW2 3708   0.880   0.601   6.177
  937SOL     OW 3709   4.880   1.834   5.230
  937SOL    HW1 3710   4.920   1.764   5.289
  937SOL    HW2 3711   4.834   1.790   5.153
  938SOL     OW 3712   0.214   5.309   6.418
  938SOL    HW1 3713   0.242   5.275   6.508
  938SOL    HW2 3714   0.259   5.255   6.347
  939SOL     OW 3715   5.040   1.400   5.310
  939SOL    HW1 3716   4.950   1.360   5.294
  939SOL    HW2 3717   5.099   1.334   5.356
  940SOL     OW 3718   0.192   3.324   2.842
  940SOL    HW1 3719   0.143   3.310   2.756
  940SOL    HW2 3720   0.290   3.329   2.824
  941SOL     OW 3721   6.376   0.573   4.173
  941SOL    HW1 3722   6.390   0.484   4.216
  941SOL    HW2 3723   6.297   0.569   4.112
  942SOL     OW 3724   5.342   0.764   4.198
  942SOL    HW1 3725   5.341   0.699   4.123
  942SOL    HW2 3726   5.357   0.857   4.163
  943SOL     OW 3727   1.068   3.035   3.520
  943SOL    HW1 3728   1.161   3.027   3.486
  943SOL    HW2 3729   1.011   3.081   3.451
  944SOL     OW 3730   5.965   3.353   6.333
  944SOL    HW1 3731   5.887   3.292   6.338
  944SOL    HW2 3732   5.983   3.377   6.237
  945SOL     OW 3733   6.603   4.209   5.942
  945SOL    HW1 3734   6.520   4.265   5.945
  945SOL    HW2 3735   6.598   4.137   6.011
  946SOL     OW 3736   4.740   2.948   6.145
  946SOL    HW1 3737   4.771   2.886   6.217
  946SOL    HW2 3738   4.655   2.993   6.174
  947SOL     OW 3739   3.153   3.013   4.829
  947SOL    HW1 3740   3.124   3.081   4.762
  947SOL    HW2 3741   3.242   2.976   4.803
  948SOL     OW 3742   4.419   0.787   0.813
  948SOL    HW1 3743   4.414   0.791   0.913
  948SOL    HW2 3744   4.453   0.697   0.785
  949SOL     OW 3745   0.299   6.387   6.428
  949SOL    HW1 3746   0.343   6.341   6.351
  949SOL    HW2 3747   0.208   6.418   6.400
  950SOL     OW 3748   4.386   5.207   2.240
  950SOL    HW1 3749   4.357   5.221   2.145
  950SOL    HW2 3750   4.485   5.216   2.246
  951SOL     OW 3751   1.936   0.681   2.113
  951SOL    HW1 3752   2.022   0.635   2.093
  951SOL    HW2 3753   1.924   0.757   2.049
  952SOL     OW 3754   5.548   1.632   2.154
  952SOL    HW1 3755   5.478   1.612   2.223
  952SOL    HW2 3756   5.619   1.563   2.156
  953SOL     OW 3757   5.263   5.613   5.346
  953SOL    HW1 3758   5.200   5.629   5.423
  953SOL    HW2 3759   5.282   5.700   5.300
  954SOL     OW 3760   5.396   6.390   0.604
  954SOL    HW1 3761   5.489   6.360   0.626
  954SOL    HW2 3762   5.362   6.340   0.524
  955SOL     OW 3763   0.046   4.852   3.035
  955SOL    HW1 3764   0.146   4.849   3.032
  955SOL    HW2 3765   0.016   4.901   3.116
  956SOL     OW 3766   0.771   1.969   2.305
  956SOL    HW1 3767   0.724   1.942   2.221
  956SOL    HW2 3768   0.752   1.902   2.377
  957SOL     OW 3769   1.316   4.706   4.425
  957SOL    HW1 3770   1.310   4.650   4.342
  957SOL    HW2 3771   1.243   4.678   4.489
  958SOL     OW 3772   4.668   2.320   1.844
  958SOL    HW1 3773   4.622   2.386   1.785
  958SOL    HW2 3774   4.703   2.245   1.789
  959SOL     OW 3775   2.598   4.913   3.095
  959SOL    HW1 3776   2.632   4.926   3.188
  959SOL    HW2 3777   2.620   4.820   3.065
  960SOL     OW 3778   0.261   6.175   3.596
  960SOL    HW1 3779   0.218   6.184   3.686
  960SOL    HW2 3780   0.213   6.104   3.544
  961SOL     OW 3781   4.905   6.938   3.225
  961SOL    HW1 3782   4.920   6.852   3.178
  961SOL    HW2 3783   4.841   6.924   3.301
  962SOL     OW 3784   1.492   1.173   4.265
  962SOL    HW1 3785   1.491   1.183   4.165
  962SOL    HW2 3786   1.435   1.245   4.305
  963SOL     OW 3787   6.070   1.175   6.108
  963SOL    HW1 3788   6.149   1.228   6.140
  963SOL    HW2 3789   6.078   1.081   6.140
  964SOL     OW 3790   6.607   3.490   0.471
  964SOL    HW1 3791   6.633   3.584   0.493
  964SOL    HW2 3792   6.689   3.433   0.464
  965SOL     OW 3793   5.911   1.622   1.123
  965SOL    HW1 3794   5.842   1.693   1.104
  965SOL    HW2 3795   5.916   1.558   1.047
  966SOL     OW 3796   5.832   1.366   2.651
  966SOL    HW1 3797   5.859   1.446   2.599
  966SOL    HW2 3798   5.739   1.340   2.626
  967SOL     OW 3799   2.045   5.161   1.331
  967SOL    HW1 3800   2.118   5.193   1.391
  967SOL    HW2 3801   2.043   5.061   1.332
  968SOL     OW 3802   4.649   2.681   2.316
  968SOL    HW1 3803   4.672   2.727   2.230
  968SOL    HW2 3804   4.678   2.738   2.393
  969SOL     OW 3805   4.623   5.941   6.675
  969SOL    HW1 3806   4.533   5.976   6.702
  969SOL    HW2 3807   4.647   5.977   6.584
  970SOL     OW 3808   4.701   0.836   5.180
  970SOL    HW1 3809   4.777   0.887   5.140
  970SOL    HW2 3810   4.728   0.741   5.194
  971SOL     OW 3811   0.269   1.894   3.241
  971SOL    HW1 3812   0.344   1.904   3.307
  971SOL    HW2 3813   0.210   1.975   3.245
  972SOL     OW 3814   5.803   3.699   1.263
  972SOL    HW1 3815   5.724   3.760   1.262
  972SOL    HW2 3816   5.781   3.616   1.314
  973SOL     OW 3817   7.013   4.248   0.133
  973SOL    HW1 3818   6.999   4.314   0.206
  973SOL    HW2 3819   0.064   4.190   0.154
  974SOL     OW 3820   4.208   0.477   2.272
  974SOL    HW1 3821   4.245   0.524   2.192
  974SOL    HW2 3822   4.147   0.538   2.321
  975SOL     OW 3823   2.153   5.492   6.096
  975SOL    HW1 3824   2.121   5.553   6.023
  975SOL    HW2 3825   2.253   5.493   6.099
  976SOL     OW 3826   6.190   3.107   2.446
  976SOL    HW1 3827   6.114   3.047   2.422
  976SOL    HW2 3828   6.156   3.199   2.466
  977SOL     OW 3829   2.788   1.142   3.901
  977SOL    HW1 3830   2.714   1.201   3.933
  977SOL    HW2 3831   2.759   1.092   3.820
  978SOL     OW 3832   4.666   4.322   5.642
  978SOL    HW1 3833   4.762   4.319   5.612
  978SOL    HW2 3834   4.620   4.236   5.615
  979SOL     OW 3835   6.958   2.017   1.628
  979SOL    HW1 3836   6.891   1.948   1.656
  979SOL    HW2 3837   0.000   1.975   1.569
  980SOL     OW 3838   4.564   1.993   4.028
  980SOL    HW1 3839   4.496   2.066   4.025
  980SOL    HW2 3840   4.533   1.921   4.090
  981SOL     OW 3841   1.521   1.545   4.832
  981SOL    HW1 3842   1.424   1.549   4.855
  981SOL    HW2 3843   1.565   1.472   4.883
  982SOL     OW 3844   2.443   1.942   3.358
  982SOL    HW1 3845   2.464   2.038   3.375
  982SOL    HW2 3846   2.368   1.913   3.418
  983SOL     OW 3847   5.876   2.112   3.417
  983SOL    HW1 3848   5.934   2.095   3.338
  983SOL    HW2 3849   5.877   2.210   3.438
  984SOL     OW 3850   3.387   1.221   3.891
  984SOL    HW1 3851   3.317   1.193   3.957
  984SOL    HW2 3852   3.477   1.197   3.926
  985SOL     OW 3853   5.183   4.971   6.525
  985SOL    HW1 3854   5.282   4.978   6.513
  985SOL    HW2 3855   5.153   4.879   6.500
  986SOL     OW 3856   5.277   4.726   0.048
  986SOL    HW1 3857   5.260   4.739   6.977
  986SOL    HW2 3858   5.253   4.632   0.074
  987SOL     OW 3859   4.323   6.197   1.420
  987SOL    HW1 3860   4.264   6.119   1.398
  987SOL    HW2 3861   4.355   6.189   1.514
  988SOL     OW 3862   3.603   3.126   1.761
  988SOL    HW1 3863   3.635   3.040   1.800
  988SOL    HW2 3864   3.652   3.145   1.677
  989SOL     OW 3865   6.792   1.077   5.817
  989SOL    HW1 3866   6.706   1.028   5.802
  989SOL    HW2 3867   6.813   1.079   5.915
  990SOL     OW 3868   4.215   0.891   2.117
  990SOL    HW1 3869   4.250   0.849   2.201
  990SOL    HW2 3870   4.266   0.975   2.098
  991SOL     OW 3871   1.829   2.560   5.452
  991SOL    HW1 3872   1.927   2.560   5.473
  991SOL    HW2 3873   1.812   2.504   5.371
  992SOL     OW 3874   0.876   3.585   0.869
  992SOL    HW1 3875   0.920   3.672   0.890
  992SOL    HW2 3876   0.928   3.537   0.799
  993SOL     OW 3877   1.075   4.801   2.409
  993SOL    HW1 3878   1.131   4.882   2.423
  993SOL    HW2 3879   1.124   4.720   2.444
  994SOL     OW 3880   3.200   3.484   2.749
  994SOL    HW1 3881   3.280   3.498   2.807
  994SOL    HW2 3882   3.225   3.500   2.653
  995SOL     OW 3883   2.874   2.568   6.198
  995SOL    HW1 3884   2.923   2.495   6.245
  995SOL    HW2 3885   2.880   2.555   6.099
  996SOL     OW 3886   1.944   4.593   4.963
  996SOL    HW1 3887   2.016   4.594   5.032
  996SOL    HW2 3888   1.899   4.683   4.960
  997SOL     OW 3889   6.824   0.619   2.088
  997SOL    HW1 3890   6.899   0.661   2.039
  997SOL    HW2 3891   6.767   0.690   2.130
  998SOL     OW 3892   4.902   6.513   4.031
  998SOL    HW1 3893   4.893   6.559   3.942
  998SOL    HW2 3894   4.925   6.417   4.017
  999SOL     OW 3895   5.595   5.046   1.921
  999SOL    HW1 3896   5.577   5.143   1.902
  999SOL    HW2 3897   5.614   5.033   2.018
 1000SOL     OW 3898   1.432   0.740   2.382
 1000SOL    HW1 3899   1.522   0.779   2.360
 1000SOL    HW2 3900   1.365   0.770   2.314
 1001SOL     OW 3901   5.894   6.530   0.382
 1001SOL    HW1 3902   5.897   6.503   0.478
 1001SOL    HW2 3903   5.986   6.525   0.343
 1002SOL     OW 3904   6.079   2.130   6.695
 1002SOL    HW1 3905   6.035   2.205   6.745
 1002SOL    HW2 3906   6.016   2.093   6.627
 1003SOL     OW 3907   2.045   6.066   1.654
 1003SOL    HW1 3908   2.088   6.071   1.564
 1003SOL    HW2 3909   2.071   5.981   1.699
 1004SOL     OW 3910   0.289   0.623   1.241
 1004SOL    HW1 3911   0.385   0.643   1.223
 1004SOL    HW2 3912   0.234   0.705   1.227
 1005SOL     OW 3913   0.656   1.583   2.747
 1005SOL    HW1 3914   0.567   1.592   2.702
 1005SOL    HW2 3915   0.658   1.638   2.830
 1006SOL     OW 3916   1.034   5.586   1.028
 1006SOL    HW1 3917   1.024   5.495   1.066
 1006SOL    HW2 3918   0.944   5.626   1.013
 1007SOL     OW 3919   5.769   6.992   4.173
 1007SOL    HW1 3920   5.705   6.918   4.152
 1007SOL    HW2 3921   5.721   0.053   4.166
 1008SOL     OW 3922   2.075   3.547   5.230
 1008SOL    HW1 3923   1.981   3.577   5.245
 1008SOL    HW2 3924   2.078   3.477   5.159
 1009SOL     OW 3925   0.412   6.289   4.427
 1009SOL    HW1 3926   0.463   6.375   4.425
 1009SOL    HW2 3927   0.401   6.260   4.522
 1010SOL     OW 3928   3.490   2.318   6.545
 1010SOL    HW1 3929   3.414   2.253   6.551
 1010SOL    HW2 3930   3.547   2.296   6.466
 1011SOL     OW 3931   2.730   5.274   2.481
 1011SOL    HW1 3932   2.761   5.300   2.390
 1011SOL    HW2 3933   2.630   5.274   2.483
 1012SOL     OW 3934   6.625   0.096   0.469
 1012SOL    HW1 3935   6.619   0.192   0.495
 1012SOL    HW2 3936   6.600   0.039   0.547
 1013SOL     OW 3937   0.465   1.036   6.104
 1013SOL    HW1 3938   0.471   1.093   6.186
 1013SOL    HW2 3939   0.369   1.018   6.083
 1014SOL     OW 3940   5.053   5.610   6.899
 1014SOL    HW1 3941   4.999   5.664   6.835
 1014SOL    HW2 3942   5.104   5.540   6.850
 1015SOL     OW 3943   2.497   6.708   5.700
 1015SOL    HW1 3944   2.421   6.701   5.637
 1015SOL    HW2 3945   2.479   6.652   5.781
 1016SOL     OW 3946   3.380   3.252   0.423
 1016SOL    HW1 3947   3.387   3.179   0.491
 1016SOL    HW2 3948   3.287   3.288   0.421
 1017SOL     OW 3949   4.782   2.860   1.097
 1017SOL    HW1 3950   4.690   2.877   1.134
 1017SOL    HW2 3951   4.781   2.878   0.998
 1018SOL     OW 3952   1.515   3.537   3.972
 1018SOL    HW1 3953   1.524   3.548   3.873
 1018SOL    HW2 3954   1.418   3.540   3.998
 1019SOL     OW 3955   0.703   0.355   6.883
 1019SOL    HW1 3956   0.640   0.309   6.820
 1019SOL    HW2 3957   0.677   0.451   6.893
 1020SOL     OW 3958   1.133   6.235   1.264
 1020SOL    HW1 3959   1.119   6.312   1.203
 1020SOL    HW2 3960   1.183   6.163   1.215
 1021SOL     OW 3961   5.681   1.364   1.357
 1021SOL    HW1 3962   5.664   1.460   1.375
 1021SOL    HW2 3963   5.753   1.355   1.288
 1022SOL     OW 3964   4.009   4.227   6.162
 1022SOL    HW1 3965   4.016   4.148   6.101
 1022SOL    HW2 3966   3.915   4.261   6.161
 1023SOL     OW 3967   0.205   0.123   2.048
 1023SOL    HW1 3968   0.245   0.085   2.131
 1023SOL    HW2 3969   0.166   0.050   1.993
 1024SOL     OW 3970   5.788   3.653   4.368
 1024SOL    HW1 3971   5.848   3.696   4.437
 1024SOL    HW2 3972   5.700   3.631   4.410
 1025SOL     OW 3973   3.148   3.573   0.212
 1025SOL    HW1 3974   3.239   3.603   0.242
 1025SOL    HW2 3975   3.097   3.651   0.178
 1026SOL     OW 3976   2.134   2.164   1.445
 1026SOL    HW1 3977   2.056   2.182   1.505
 1026SOL    HW2 3978   2.189   2.091   1.485
 1027SOL     OW 3979   2.845   5.800   0.959
 1027SOL    HW1 3980   2.871   5.896   0.947
 1027SOL    HW2 3981   2.785   5.772   0.884
 1028SOL     OW 3982   4.150   5.827   0.403
 1028SOL    HW1 3983   4.184   5.815   0.310
 1028SOL    HW2 3984   4.050   5.828   0.402
 1029SOL     OW 3985   1.349   0.656   6.913
 1029SOL    HW1 3986   1.288   0.651   6.834
 1029SOL    HW2 3987   1.339   0.745   6.957
 1030SOL     OW 3988   3.820   3.969   1.297
 1030SOL    HW1 3989   3.762   4.004   1.224
 1030SOL    HW2 3990   3.765   3.954   1.379
 1031SOL     OW 3991   5.319   5.655   0.916
 1031SOL    HW1 3992   5.284   5.709   0.992
 1031SOL    HW2 3993   5.340   5.563   0.947
 1032SOL     OW 3994   1.853   1.638   4.438
 1032SOL    HW1 3995   1.779   1.651   4.503
 1032SOL    HW2 3996   1.836   1.692   4.356
 1033SOL     OW 3997   1.629   6.327   0.665
 1033SOL    HW1 3998   1.625   6.426   0.677
 1033SOL    HW2 3999   1.720   6.294   0.691
 1034SOL     OW 4000   1.075   6.100   5.475
 1034SOL    HW1 4001   1.095   6.196   5.455
 1034SOL    HW2 4002   1.153   6.043   5.449
 1035SOL     OW 4003   2.059   0.951   3.955
 1035SOL    HW1 4004   2.016   0.900   3.880
 1035SOL    HW2 4005   2.107   0.888   4.016
 1036SOL     OW 4006   2.958   0.666   1.653
 1036SOL    HW1 4007   3.004   0.676   1.741
 1036SOL    HW2 4008   3.025   0.678   1.579
 1037SOL     OW 4009   1.923   0.407   1.154
 1037SOL    HW1 4010   1.974   0.486   1.187
 1037SOL    HW2 4011   1.876   0.362   1.231
 1038SOL     OW 4012   0.928   1.306   5.561
 1038SOL    HW1 4013   1.003   1.275   5.503
 1038SOL    HW2 4014   0.866   1.230   5.580
 1039SOL     OW 4015   3.190   3.023   5.777
 1039SOL    HW1 4016   3.163   3.100   5.833
 1039SOL    HW2 4017   3.141   3.026   5.689
 1040SOL     OW 4018   5.146   2.895   2.731
 1040SOL    HW1 4019   5.076   2.956   2.693
 1040SOL    HW2 4020   5.219   2.949   2.773
 1041SOL     OW 4021   6.627   6.740   4.146
 1041SOL    HW1 4022   6.596   6.654   4.105
 1041SOL    HW2 4023   6.635   6.810   4.074
 1042SOL     OW 4024   3.711   4.947   2.154
 1042SOL    HW1 4025   3.693   4.862   2.104
 1042SOL    HW2 4026   3.668   4.942   2.244
 1043SOL     OW 4027   4.590   1.486   4.962
 1043SOL    HW1 4028   4.558   1.516   4.872
 1043SOL    HW2 4029   4.544   1.400   4.986
 1044SOL     OW 4030   4.779   4.222   2.104
 1044SOL    HW1 4031   4.791   4.152   2.174
 1044SOL    HW2 4032   4.681   4.242   2.093
 1045SOL     OW 4033   2.789   6.267   2.570
 1045SOL    HW1 4034   2.799   6.168   2.563
 1045SOL    HW2 4035   2.739   6.290   2.654
 1046SOL     OW 4036   1.889   6.540   0.172
 1046SOL    HW1 4037   1.875   6.476   0.248
 1046SOL    HW2 4038   1.876   6.634   0.204
 1047SOL     OW 4039   1.015   6.310   2.511
 1047SOL    HW1 4040   1.011   6.210   2.509
 1047SOL    HW2 4041   0.966   6.347   2.432
 1048SOL     OW 4042   4.875   5.771   5.676
 1048SOL    HW1 4043   4.897   5.843   5.742
 1048SOL    HW2 4044   4.777   5.771   5.658
 1049SOL     OW 4045   6.632   4.883   4.534
 1049SOL    HW1 4046   6.713   4.860   4.589
 1049SOL    HW2 4047   6.553   4.893   4.594
 1050SOL     OW 4048   2.987   5.430   0.543
 1050SOL    HW1 4049   2.932   5.347   0.543
 1050SOL    HW2 4050   2.983   5.473   0.633
 1051SOL     OW 4051   2.896   5.132   0.935
 1051SOL    HW1 4052   2.992   5.121   0.960
 1051SOL    HW2 4053   2.850   5.187   1.005
 1052SOL     OW 4054   4.042   0.111   4.192
 1052SOL    HW1 4055   4.100   0.127   4.112
 1052SOL    HW2 4056   3.982   0.033   4.174
 1053SOL     OW 4057   5.323   5.561   3.321
 1053SOL    HW1 4058   5.340   5.495   3.248
 1053SOL    HW2 4059   5.325   5.653   3.284
 1054SOL     OW 4060   3.097   4.593   5.906
 1054SOL    HW1 4061   3.123   4.534   5.830
 1054SOL    HW2 4062   3.125   4.687   5.886
 1055SOL     OW 4063   6.223   6.719   4.364
 1055SOL    HW1 4064   6.142   6.773   4.340
 1055SOL    HW2 4065   6.213   6.626   4.332
 1056SOL     OW 4066   1.615   5.670   5.712
 1056SOL    HW1 4067   1.581   5.599   5.773
 1056SOL    HW2 4068   1.666   5.628   5.636
 1057SOL     OW 4069   3.707   3.557   2.764
 1057SOL    HW1 4070   3.741   3.569   2.857
 1057SOL    HW2 4071   3.771   3.499   2.713
 1058SOL     OW 4072   5.090   1.155   2.136
 1058SOL    HW1 4073   5.175   1.164   2.189
 1058SOL    HW2 4074   5.084   1.063   2.098
 1059SOL     OW 4075   2.545   0.444   0.558
 1059SOL    HW1 4076   2.635   0.407   0.533
 1059SOL    HW2 4077   2.531   0.431   0.656
 1060SOL     OW 4078   0.323   3.700   4.330
 1060SOL    HW1 4079   0.321   3.780   4.389
 1060SOL    HW2 4080   0.321   3.617   4.386
 1061SOL     OW 4081   5.207   3.721   1.572
 1061SOL    HW1 4082   5.276   3.725   1.644
 1061SOL    HW2 4083   5.118   3.700   1.613
 1062SOL     OW 4084   6.285   5.031   5.450
 1062SOL    HW1 4085   6.300   4.995   5.542
 1062SOL    HW2 4086   6.322   5.124   5.444
 1063SOL     OW 4087   1.378   4.208   1.814
 1063SOL    HW1 4088   1.372   4.275   1.741
 1063SOL    HW2 4089   1.306   4.139   1.802
 1064SOL     OW 4090   1.444   4.143   2.301
 1064SOL    HW1 4091   1.351   4.115   2.325
 1064SOL    HW2 4092   1.470   4.101   2.214
 1065SOL     OW 4093   4.388   0.806   4.368
 1065SOL    HW1 4094   4.299   0.818   4.413
 1065SOL    HW2 4095   4.459   0.845   4.426
 1066SOL     OW 4096   5.075   0.714   4.263
 1066SOL    HW1 4097   5.169   0.726   4.231
 1066SOL    HW2 4098   5.020   0.794   4.237
 1067SOL     OW 4099   1.204   3.135   6.709
 1067SOL    HW1 4100   1.155   3.116   6.794
 1067SOL    HW2 4101   1.154   3.096   6.632
 1068SOL     OW 4102   4.673   4.690   2.346
 1068SOL    HW1 4103   4.718   4.665   2.431
 1068SOL    HW2 4104   4.740   4.735   2.285
 1069SOL     OW 4105   5.057   4.695   1.157
 1069SOL    HW1 4106   5.029   4.786   1.186
 1069SOL    HW2 4107   5.157   4.687   1.162
 1070SOL     OW 4108   1.422   0.909   1.216
 1070SOL    HW1 4109   1.471   0.896   1.130
 1070SOL    HW2 4110   1.397   1.005   1.227
 1071SOL     OW 4111   3.330   6.666   3.878
 1071SOL    HW1 4112   3.300   6.723   3.802
 1071SOL    HW2 4113   3.327   6.569   3.851
 1072SOL     OW 4114   1.902   6.119   0.863
 1072SOL    HW1 4115   1.910   6.199   0.804
 1072SOL    HW2 4116   1.940   6.039   0.816
 1073SOL     OW 4117   3.604   6.362   2.960
 1073SOL    HW1 4118   3.520   6.411   2.982
 1073SOL    HW2 4119   3.614   6.355   2.861
 1074SOL     OW 4120   2.363   5.078   0.865
 1074SOL    HW1 4121   2.349   5.174   0.888
 1074SOL    HW2 4122   2.296   5.022   0.913
 1075SOL     OW 4123   4.808   6.114   3.929
 1075SOL    HW1 4124   4.812   6.036   3.992
 1075SOL    HW2 4125   4.769   6.084   3.842
 1076SOL     OW 4126   0.670   4.890   5.318
 1076SOL    HW1 4127   0.575   4.871   5.294
 1076SOL    HW2 4128   0.691   4.986   5.300
 1077SOL     OW 4129   6.003   0.067   0.195
 1077SOL    HW1 4130   6.079   0.087   0.257
 1077SOL    HW2 4131   5.972   0.152   0.152
 1078SOL     OW 4132   2.027   0.776   2.547
 1078SOL    HW1 4133   2.059   0.870   2.552
 1078SOL    HW2 4134   1.995   0.747   2.638
 1079SOL     OW 4135   1.676   5.658   2.418
 1079SOL    HW1 4136   1.623   5.577   2.390
 1079SOL    HW2 4137   1.670   5.728   2.346
 1080SOL     OW 4138   2.014   4.898   3.536
 1080SOL    HW1 4139   1.933   4.847   3.507
 1080SOL    HW2 4140   1.993   4.952   3.617
 1081SOL     OW 4141   0.102   6.711   5.803
 1081SOL    HW1 4142   0.199   6.710   5.780
 1081SOL    HW2 4143   0.058   6.791   5.763
 1082SOL     OW 4144   2.939   1.058   5.546
 1082SOL    HW1 4145   2.949   0.984   5.613
 1082SOL    HW2 4146   2.865   1.119   5.574
 1083SOL     OW 4147   4.179   4.075   0.754
 1083SOL    HW1 4148   4.083   4.046   0.753
 1083SOL    HW2 4149   4.203   4.110   0.663
 1084SOL     OW 4150   6.436   6.356   1.017
 1084SOL    HW1 4151   6.374   6.363   1.095
 1084SOL    HW2 4152   6.529   6.338   1.050
 1085SOL     OW 4153   1.744   4.274   3.361
 1085SOL    HW1 4154   1.772   4.348   3.422
 1085SOL    HW2 4155   1.806   4.197   3.370
 1086SOL     OW 4156   6.634   5.382   2.544
 1086SOL    HW1 4157   6.581   5.311   2.497
 1086SOL    HW2 4158   6.726   5.349   2.562
 1087SOL     OW 4159   5.793   2.589   5.942
 1087SOL    HW1 4160   5.822   2.586   5.847
 1087SOL    HW2 4161   5.694   2.605   5.946
 1088SOL     OW 4162   5.749   4.579   3.469
 1088SOL    HW1 4163   5.803   4.559   3.387
 1088SOL    HW2 4164   5.683   4.505   3.485
 1089SOL     OW 4165   1.560   0.315   4.394
 1089SOL    HW1 4166   1.650   0.281   4.365
 1089SOL    HW2 4167   1.502   0.237   4.421
 1090SOL     OW 4168   2.369   1.595   3.299
 1090SOL    HW1 4169   2.468   1.597   3.289
 1090SOL    HW2 4170   2.327   1.570   3.212
 1091SOL     OW 4171   1.782   3.008   5.030
 1091SOL    HW1 4172   1.776   2.993   5.129
 1091SOL    HW2 4173   1.745   3.098   5.008
 1092SOL     OW 4174   2.378   3.314   0.750
 1092SOL    HW1 4175   2.417   3.380   0.814
 1092SOL    HW2 4176   2.310   3.258   0.797
 1093SOL     OW 4177   1.949   2.066   2.656
 1093SOL    HW1 4178   1.967   2.145   2.713
 1093SOL    HW2 4179   2.033   2.038   2.610
 1094SOL     OW 4180   1.026   6.402   3.017
 1094SOL    HW1 4181   0.956   6.358   3.073
 1094SOL    HW2 4182   0.984   6.464   2.952
 1095SOL     OW 4183   6.634   2.178   5.487
 1095SOL    HW1 4184   6.541   2.206   5.512
 1095SOL    HW2 4185   6.685   2.257   5.453
 1096SOL     OW 4186   3.570   4.420   1.710
 1096SOL    HW1 4187   3.535   4.500   1.758
 1096SOL    HW2 4188   3.669   4.428   1.700
 1097SOL     OW 4189   1.188   4.032   3.941
 1097SOL    HW1 4190   1.212   4.128   3.928
 1097SOL    HW2 4191   1.173   4.013   4.038
 1098SOL     OW 4192   5.299   2.990   0.412
 1098SOL    HW1 4193   5.209   2.952   0.389
 1098SOL    HW2 4194   5.361   2.915   0.437
 1099SOL     OW 4195   3.753   1.154   4.848
 1099SOL    HW1 4196   3.707   1.212   4.781
 1099SOL    HW2 4197   3.764   1.205   4.933
 1100SOL     OW 4198   2.599   1.983   6.890
 1100SOL    HW1 4199   2.515   1.929   6.895
 1100SOL    HW2 4200   2.666   1.935   6.834
 1101SOL     OW 4201   5.653   2.202   0.601
 1101SOL    HW1 4202   5.635   2.285   0.549
 1101SOL    HW2 4203   5.752   2.187   0.605
 1102SOL     OW 4204   1.037   5.387   3.187
 1102SOL    HW1 4205   1.124   5.432   3.170
 1102SOL    HW2 4206   1.045   5.289   3.167
 1103SOL     OW 4207   3.046   1.639   1.094
 1103SOL    HW1 4208   3.033   1.648   0.995
 1103SOL    HW2 4209   2.956   1.630   1.138
 1104SOL     OW 4210   2.385   3.416   6.216
 1104SOL    HW1 4211   2.435   3.440   6.133
 1104SOL    HW2 4212   2.376   3.317   6.222
 1105SOL     OW 4213   5.630   3.577   5.098
 1105SOL    HW1 4214   5.555   3.532   5.049
 1105SOL    HW2 4215   5.715   3.568   5.045
 1106SOL     OW 4216   0.785   1.928   0.459
 1106SOL    HW1 4217   0.784   1.833   0.490
 1106SOL    HW2 4218   0.859   1.941   0.394
 1107SOL     OW 4219   0.831   0.581   6.366
 1107SOL    HW1 4220   0.852   0.588   6.464
 1107SOL    HW2 4221   0.732   0.571   6.354
 1108SOL     OW 4222   2.621   0.510   6.024
 1108SOL    HW1 4223   2.577   0.420   6.022
 1108SOL    HW2 4224   2.553   0.580   6.007
 1109SOL     OW 4225   4.322   5.992   4.747
 1109SOL    HW1 4226   4.378   5.909   4.752
 1109SOL    HW2 4227   4.254   5.991   4.819
 1110SOL     OW 4228   2.810   1.566   2.484
 1110SOL    HW1 4229   2.777   1.493   2.423
 1110SOL    HW2 4230   2.908   1.578   2.471
 1111SOL     OW 4231   5.491   5.692   0.244
 1111SOL    HW1 4232   5.413   5.743   0.206
 1111SOL    HW2 4233   5.576   5.741   0.224
 1112SOL     OW 4234   6.204   1.299   2.809
 1112SOL    HW1 4235   6.137   1.232   2.776
 1112SOL    HW2 4236   6.160   1.388   2.817
 1113SOL     OW 4237   6.852   3.712   2.499
 1113SOL    HW1 4238   6.753   3.709   2.514
 1113SOL    HW2 4239   6.892   3.785   2.554
 1114SOL     OW 4240   4.427   1.021   6.665
 1114SOL    HW1 4241   4.513   1.005   6.713
 1114SOL    HW2 4242   4.417   1.118   6.646
 1115SOL     OW 4243   4.186   3.078   0.080
 1115SOL    HW1 4244   4.229   3.046   0.165
 1115SOL    HW2 4245   4.124   3.154   0.100
 1116SOL     OW 4246   5.539   5.526   4.801
 1116SOL    HW1 4247   5.522   5.583   4.881
 1116SOL    HW2 4248   5.457   5.472   4.781
 1117SOL     OW 4249   1.948   2.917   1.560
 1117SOL    HW1 4250   2.032   2.863   1.556
 1117SOL    HW2 4251   1.869   2.857   1.550
 1118SOL     OW 4252   1.698   4.460   1.385
 1118SOL    HW1 4253   1.792   4.443   1.353
 1118SOL    HW2 4254   1.639   4.386   1.355
 1119SOL     OW 4255   4.112   4.118   1.484
 1119SOL    HW1 4256   4.169   4.124   1.402
 1119SOL    HW2 4257   4.154   4.171   1.558
 1120SOL     OW 4258   5.208   6.441   4.990
 1120SOL    HW1 4259   5.149   6.517   4.966
 1120SOL    HW2 4260   5.153   6.363   5.019
 1121SOL     OW 4261   5.082   4.024   2.132
 1121SOL    HW1 4262   5.095   3.957   2.059
 1121SOL    HW2 4263   4.985   4.044   2.143
 1122SOL     OW 4264   5.099   3.648   5.822
 1122SOL    HW1 4265   5.187   3.607   5.843
 1122SOL    HW2 4266   5.108   3.748   5.817
 1123SOL     OW 4267   5.811   1.554   2.422
 1123SOL    HW1 4268   5.778   1.540   2.329
 1123SOL    HW2 4269   5.815   1.652   2.441
 1124SOL     OW 4270   5.992   4.405   5.473
 1124SOL    HW1 4271   6.001   4.323   5.417
 1124SOL    HW2 4272   5.932   4.385   5.551
 1125SOL     OW 4273   2.315   1.929   4.443
 1125SOL    HW1 4274   2.408   1.963   4.456
 1125SOL    HW2 4275   2.303   1.845   4.495
 1126SOL     OW 4276   5.631   6.882   1.125
 1126SOL    HW1 4277   5.559   6.942   1.161
 1126SOL    HW2 4278   5.619   6.790   1.162
 1127SOL     OW 4279   4.799   5.507   5.053
 1127SOL    HW1 4280   4.809   5.412   5.083
 1127SOL    HW2 4281   4.838   5.568   5.122
 1128SOL     OW 4282   4.867   2.052   5.457
 1128SOL    HW1 4283   4.781   2.087   5.421
 1128SOL    HW2 4284   4.901   1.979   5.397
 1129SOL     OW 4285   3.851   0.455   6.714
 1129SOL    HW1 4286   3.769   0.431   6.662
 1129SOL    HW2 4287   3.889   0.373   6.756
 1130SOL     OW 4288   1.602   4.062   1.544
 1130SOL    HW1 4289   1.579   4.091   1.637
 1130SOL    HW2 4290   1.533   3.998   1.511
 1131SOL     OW 4291   0.551   6.326   5.924
 1131SOL    HW1 4292   0.570   6.347   5.828
 1131SOL    HW2 4293   0.555   6.227   5.938
 1132SOL     OW 4294   5.184   0.303   0.005
 1132SOL    HW1 4295   5.218   0.337   0.093
 1132SOL    HW2 4296   5.155   0.380   6.975
 1133SOL     OW 4297   0.190   1.249   0.551
 1133SOL    HW1 4298   0.112   1.308   0.573
 1133SOL    HW2 4299   0.164   1.153   0.565
 1134SOL     OW 4300   5.030   1.956   0.907
 1134SOL    HW1 4301   4.977   1.953   0.822
 1134SOL    HW2 4302   5.106   1.892   0.903
 1135SOL     OW 4303   3.139   1.431   2.427
 1135SOL    HW1 4304   3.091   1.513   2.459
 1135SOL    HW2 4305   3.081   1.351   2.442
 1136SOL     OW 4306   3.596   5.326   4.910
 1136SOL    HW1 4307   3.551   5.262   4.972
 1136SOL    HW2 4308   3.583   5.296   4.815
 1137SOL     OW 4309   1.074   2.447   6.808
 1137SOL    HW1 4310   1.167   2.441   6.844
 1137SOL    HW2 4311   1.076   2.442   6.708
 1138SOL     OW 4312   0.801   1.142   6.562
 1138SOL    HW1 4313   0.833   1.152   6.656
 1138SOL    HW2 4314   0.788   1.233   6.521
 1139SOL     OW 4315   2.646   5.927   1.221
 1139SOL    HW1 4316   2.680   6.007   1.269
 1139SOL    HW2 4317   2.637   5.948   1.123
 1140SOL     OW 4318   3.407   0.958   2.199
 1140SOL    HW1 4319   3.393   1.049   2.160
 1140SOL    HW2 4320   3.328   0.932   2.255
 1141SOL     OW 4321   6.683   6.071   6.170
 1141SOL    HW1 4322   6.681   6.140   6.242
 1141SOL    HW2 4323   6.768   6.018   6.176
 1142SOL     OW 4324   4.089   0.770   4.481
 1142SOL    HW1 4325   4.139   0.824   4.549
 1142SOL    HW2 4326   3.991   0.793   4.485
 1143SOL     OW 4327   2.548   2.513   2.655
 1143SOL    HW1 4328   2.583   2.462   2.576
 1143SOL    HW2 4329   2.477   2.576   2.625
 1144SOL     OW 4330   6.647   4.714   5.417
 1144SOL    HW1 4331   6.583   4.639   5.399
 1144SOL    HW2 4332   6.615   4.796   5.371
 1145SOL     OW 4333   0.409   4.313   2.924
 1145SOL    HW1 4334   0.429   4.399   2.971
 1145SOL    HW2 4335   0.494   4.273   2.890
 1146SOL     OW 4336   5.167   0.756   1.453
 1146SOL    HW1 4337   5.173   0.810   1.369
 1146SOL    HW2 4338   5.245   0.694   1.458
 1147SOL     OW 4339   1.513   4.646   0.566
 1147SOL    HW1 4340   1.589   4.688   0.516
 1147SOL    HW2 4341   1.426   4.675   0.527
 1148SOL     OW 4342   3.938   6.855   6.960
 1148SOL    HW1 4343   3.889   6.832   6.876
 1148SOL    HW2 4344   3.936   6.776   7.022
 1149SOL     OW 4345   5.911   3.886   3.457
 1149SOL    HW1 4346   5.893   3.962   3.393
 1149SOL    HW2 4347   5.851   3.895   3.536
 1150SOL     OW 4348   1.568   4.270   1.047
 1150SOL    HW1 4349   1.586   4.172   1.039
 1150SOL    HW2 4350   1.484   4.293   0.998
 1151SOL     OW 4351   4.353   5.618   0.006
 1151SOL    HW1 4352   4.289   5.549   7.001
 1151SOL    HW2 4353   4.442   5.604   6.991
 1152SOL     OW 4354   0.666   6.073   5.808
 1152SOL    HW1 4355   0.674   6.004   5.880
 1152SOL    HW2 4356   0.750   6.075   5.753
 1153SOL     OW 4357   2.222   0.046   1.700
 1153SOL    HW1 4358   2.155   0.089   1.761
 1153SOL    HW2 4359   2.190   0.052   1.606
 1154SOL     OW 4360   0.762   4.075   1.694
 1154SOL    HW1 4361   0.804   4.158   1.731
 1154SOL    HW2 4362   0.722   4.022   1.769
 1155SOL     OW 4363   2.867   4.791   0.089
 1155SOL    HW1 4364   2.964   4.783   0.070
 1155SOL    HW2 4365   2.833   4.705   0.126
 1156SOL     OW 4366   1.840   0.886   4.497
 1156SOL    HW1 4367   1.754   0.867   4.544
 1156SOL    HW2 4368   1.822   0.925   4.407
 1157SOL     OW 4369   6.589   0.791   4.657
 1157SOL    HW1 4370   6.494   0.816   4.640
 1157SOL    HW2 4371   6.643   0.874   4.673
 1158SOL     OW 4372   0.449   5.301   6.017
 1158SOL    HW1 4373   0.496   5.245   5.949
 1158SOL    HW2 4374   0.416   5.385   5.974
 1159SOL     OW 4375   5.184   0.229   3.142
 1159SOL    HW1 4376   5.145   0.208   3.052
 1159SOL    HW2 4377   5.238   0.313   3.136
 1160SOL     OW 4378   4.064   3.898   1.683
 1160SOL    HW1 4379   4.152   3.852   1.688
 1160SOL    HW2 4380   4.073   3.981   1.627
 1161SOL     OW 4381   5.070   0.564   6.265
 1161SOL    HW1 4382   5.162   0.531   6.287
 1161SOL    HW2 4383   5.060   0.569   6.165
 1162SOL     OW 4384   3.598   2.636   0.832
 1162SOL    HW1 4385   3.682   2.664   0.879
 1162SOL    HW2 4386   3.611   2.647   0.733
 1163SOL     OW 4387   5.737   3.269   1.749
 1163SOL    HW1 4388   5.781   3.357   1.729
 1163SOL    HW2 4389   5.798   3.213   1.805
 1164SOL     OW 4390   5.131   2.539   4.004
 1164SOL    HW1 4391   5.230   2.532   4.011
 1164SOL    HW2 4392   5.099   2.618   4.056
 1165SOL     OW 4393   1.859   4.615   4.399
 1165SOL    HW1 4394   1.830   4.557   4.475
 1165SOL    HW2 4395   1.916   4.562   4.336
 1166SOL     OW 4396   3.834   1.248   0.213
 1166SOL    HW1 4397   3.897   1.174   0.190
 1166SOL    HW2 4398   3.857   1.329   0.160
 1167SOL     OW 4399   3.358   0.084   6.218
 1167SOL    HW1 4400   3.272   0.078   6.169
 1167SOL    HW2 4401   3.341   0.110   6.313
 1168SOL     OW 4402   6.971   0.903   2.658
 1168SOL    HW1 4403   6.957   0.804   2.660
 1168SOL    HW2 4404   0.027   0.924   2.607
 1169SOL     OW 4405   6.234   3.095   6.674
 1169SOL    HW1 4406   6.171   3.131   6.743
 1169SOL    HW2 4407   6.196   3.012   6.633
 1170SOL     OW 4408   4.553   0.764   2.238
 1170SOL    HW1 4409   4.508   0.850   2.262
 1170SOL    HW2 4410   4.651   0.781   2.227
 1171SOL     OW 4411   2.399   6.329   6.650
 1171SOL    HW1 4412   2.307   6.361   6.674
 1171SOL    HW2 4413   2.466   6.373   6.710
 1172SOL     OW 4414   3.669   4.144   2.971
 1172SOL    HW1 4415   3.585   4.156   2.919
 1172SOL    HW2 4416   3.648   4.139   3.068
 1173SOL     OW 4417   3.128   0.021   5.726
 1173SOL    HW1 4418   3.068   0.084   5.677
 1173SOL    HW2 4419   3.193   0.073   5.782
 1174SOL     OW 4420   3.256   4.302   1.043
 1174SOL    HW1 4421   3.273   4.228   1.108
 1174SOL    HW2 4422   3.179   4.276   0.984
 1175SOL     OW 4423   4.944   3.526   6.488
 1175SOL    HW1 4424   4.887   3.456   6.531
 1175SOL    HW2 4425   4.886   3.588   6.435
 1176SOL     OW 4426   5.520   4.540   0.683
 1176SOL    HW1 4427   5.497   4.565   0.589
 1176SOL    HW2 4428   5.616   4.562   0.700
 1177SOL     OW 4429   0.106   1.452   5.245
 1177SOL    HW1 4430   0.186   1.480   5.298
 1177SOL    HW2 4431   0.096   1.353   5.249
 1178SOL     OW 4432   3.941   2.973   1.072
 1178SOL    HW1 4433   4.036   2.965   1.102
 1178SOL    HW2 4434   3.880   2.942   1.144
 1179SOL     OW 4435   2.988   5.090   0.258
 1179SOL    HW1 4436   3.061   5.145   0.299
 1179SOL    HW2 4437   2.981   5.002   0.306
 1180SOL     OW 4438   2.788   6.766   3.667
 1180SOL    HW1 4439   2.737   6.845   3.634
 1180SOL    HW2 4440   2.730   6.684   3.664
 1181SOL     OW 4441   6.934   2.739   4.619
 1181SOL    HW1 4442   0.004   2.740   4.645
 1181SOL    HW2 4443   6.907   2.831   4.590
 1182SOL     OW 4444   1.769   5.511   3.196
 1182SOL    HW1 4445   1.827   5.560   3.131
 1182SOL    HW2 4446   1.681   5.489   3.152
 1183SOL     OW 4447   3.556   5.696   2.128
 1183SOL    HW1 4448   3.596   5.753   2.057
 1183SOL    HW2 4449   3.554   5.746   2.215
 1184SOL     OW 4450   4.168   1.104   5.074
 1184SOL    HW1 4451   4.215   1.061   4.997
 1184SOL    HW2 4452   4.070   1.101   5.059
 1185SOL     OW 4453   1.773   0.430   0.249
 1185SOL    HW1 4454   1.683   0.472   0.236
 1185SOL    HW2 4455   1.843   0.488   0.209
 1186SOL     OW 4456   6.116   6.660   6.301
 1186SOL    HW1 4457   6.132   6.711   6.385
 1186SOL    HW2 4458   6.203   6.626   6.265
 1187SOL     OW 4459   5.376   5.877   5.240
 1187SOL    HW1 4460   5.308   5.864   5.168
 1187SOL    HW2 4461   5.374   5.972   5.271
 1188SOL     OW 4462   3.239   6.394   6.710
 1188SOL    HW1 4463   3.178   6.349   6.645
 1188SOL    HW2 4464   3.239   6.343   6.796
 1189SOL     OW 4465   5.343   0.434   2.123
 1189SOL    HW1 4466   5.263   0.483   2.089
 1189SOL    HW2 4467   5.417   0.499   2.141
 1190SOL     OW 4468   3.938   4.859   4.436
 1190SOL    HW1 4469   4.007   4.866   4.508
 1190SOL    HW2 4470   3.983   4.848   4.347
 1191SOL     OW 4471   4.327   6.166   5.326
 1191SOL    HW1 4472   4.351   6.174   5.423
 1191SOL    HW2 4473   4.397   6.112   5.279
 1192SOL     OW 4474   5.446   5.567   2.810
 1192SOL    HW1 4475   5.495   5.628   2.872
 1192SOL    HW2 4476   5.458   5.472   2.841
 1193SOL     OW 4477   6.938   0.064   4.698
 1193SOL    HW1 4478   6.976   0.136   4.756
 1193SOL    HW2 4479   6.996   7.009   4.705
 1194SOL     OW 4480   6.976   1.905   1.102
 1194SOL    HW1 4481   6.966   1.992   1.054
 1194SOL    HW2 4482   6.942   1.915   1.196
 1195SOL     OW 4483   6.332   3.146   1.671
 1195SOL    HW1 4484   6.396   3.080   1.633
 1195SOL    HW2 4485   6.368   3.238   1.660
 1196SOL     OW 4486   0.365   4.145   1.895
 1196SOL    HW1 4487   0.308   4.088   1.837
 1196SOL    HW2 4488   0.369   4.238   1.859
 1197SOL     OW 4489   4.156   6.416   4.855
 1197SOL    HW1 4490   4.194   6.502   4.821
 1197SOL    HW2 4491   4.126   6.361   4.777
 1198SOL     OW 4492   2.000   3.060   2.806
 1198SOL    HW1 4493   2.021   3.008   2.723
 1198SOL    HW2 4494   2.078   3.117   2.830
 1199SOL     OW 4495   3.373   2.933   3.187
 1199SOL    HW1 4496   3.460   2.980   3.175
 1199SOL    HW2 4497   3.379   2.873   3.268
 1200SOL     OW 4498   3.695   4.133   4.615
 1200SOL    HW1 4499   3.715   4.089   4.527
 1200SOL    HW2 4500   3.766   4.199   4.637
 1201SOL     OW 4501   0.321   1.477   4.485
 1201SOL    HW1 4502   0.369   1.513   4.566
 1201SOL    HW2 4503   0.358   1.521   4.403
 1202SOL     OW 4504   5.776   1.385   6.115
 1202SOL    HW1 4505   5.777   1.440   6.198
 1202SOL    HW2 4506   5.763   1.289   6.138
 1203SOL     OW 4507   6.292   6.420   1.305
 1203SOL    HW1 4508   6.323   6.465   1.389
 1203SOL    HW2 4509   6.239   6.484   1.251
 1204SOL     OW 4510   4.424   1.656   0.981
 1204SOL    HW1 4511   4.381   1.590   0.921
 1204SOL    HW2 4512   4.390   1.748   0.961
 1205SOL     OW 4513   4.323   3.458   6.340
 1205SOL    HW1 4514   4.310   3.407   6.255
 1205SOL    HW2 4515   4.278   3.547   6.332
 1206SOL     OW 4516   0.948   2.338   4.851
 1206SOL    HW1 4517   0.881   2.265   4.839
 1206SOL    HW2 4518   1.040   2.298   4.856
 1207SOL     OW 4519   0.599   6.735   0.231
 1207SOL    HW1 4520   0.588   6.801   0.156
 1207SOL    HW2 4521   0.691   6.695   0.227
 1208SOL     OW 4522   3.398   4.113   2.425
 1208SOL    HW1 4523   3.355   4.114   2.335
 1208SOL    HW2 4524   3.497   4.112   2.414
 1209SOL     OW 4525   5.597   6.646   4.989
 1209SOL    HW1 4526   5.687   6.656   5.032
 1209SOL    HW2 4527   5.548   6.571   5.033
 1210SOL     OW 4528   4.557   6.454   3.648
 1210SOL    HW1 4529   4.643   6.442   3.696
 1210SOL    HW2 4530   4.484   6.405   3.697
 1211SOL     OW 4531   1.377   3.342   3.165
 1211SOL    HW1 4532   1.329   3.270   3.115
 1211SOL    HW2 4533   1.317   3.421   3.177
 1212SOL     OW 4534   0.289   1.541   4.968
 1212SOL    HW1 4535   0.210   1.602   4.969
 1212SOL    HW2 4536   0.266   1.457   4.918
 1213SOL     OW 4537   5.909   2.924   4.395
 1213SOL    HW1 4538   5.996   2.923   4.345
 1213SOL    HW2 4539   5.884   2.831   4.420
 1214SOL     OW 4540   1.189   2.676   5.391
 1214SOL    HW1 4541   1.222   2.765   5.361
 1214SOL    HW2 4542   1.092   2.667   5.368
 1215SOL     OW 4543   1.948   5.548   2.536
 1215SOL    HW1 4544   2.007   5.469   2.517
 1215SOL    HW2 4545   1.877   5.553   2.466
 1216SOL     OW 4546   0.103   0.470   0.612
 1216SOL    HW1 4547   0.041   0.391   0.607
 1216SOL    HW2 4548   0.050   0.554   0.619
 1217SOL     OW 4549   2.925   5.547   1.428
 1217SOL    HW1 4550   2.985   5.467   1.416
 1217SOL    HW2 4551   2.883   5.570   1.340
 1218SOL     OW 4552   0.503   3.531   4.974
 1218SOL    HW1 4553   0.484   3.456   5.038
 1218SOL    HW2 4554   0.576   3.503   4.911
 1219SOL     OW 4555   4.573   5.388   1.969
 1219SOL    HW1 4556   4.635   5.380   1.891
 1219SOL    HW2 4557   4.480   5.365   1.940
 1220SOL     OW 4558   5.515   4.043   3.209
 1220SOL    HW1 4559   5.559   3.983   3.142
 1220SOL    HW2 4560   5.499   3.993   3.294
 1221SOL     OW 4561   6.136   3.753   6.147
 1221SOL    HW1 4562   6.054   3.747   6.203
 1221SOL    HW2 4563   6.130   3.833   6.087
 1222SOL     OW 4564   6.934   0.507   0.260
 1222SOL    HW1 4565   6.942   0.591   0.205
 1222SOL    HW2 4566   6.843   0.504   0.302
 1223SOL     OW 4567   4.381   0.915   0.569
 1223SOL    HW1 4568   4.425   0.878   0.650
 1223SOL    HW2 4569   4.352   0.840   0.510
 1224SOL     OW 4570   3.273   5.785   0.186
 1224SOL    HW1 4571   3.251   5.878   0.158
 1224SOL    HW2 4572   3.191   5.742   0.226
 1225SOL     OW 4573   3.882   2.412   0.885
 1225SOL    HW1 4574   3.895   2.329   0.940
 1225SOL    HW2 4575   3.879   2.387   0.788
 1226SOL     OW 4576   5.171   6.264   0.812
 1226SOL    HW1 4577   5.095   6.209   0.845
 1226SOL    HW2 4578   5.254   6.209   0.809
 1227SOL     OW 4579   6.054   4.968   6.672
 1227SOL    HW1 4580   6.134   4.963   6.731
 1227SOL    HW2 4581   6.072   5.031   6.596
 1228SOL     OW 4582   4.291   2.791   0.651
 1228SOL    HW1 4583   4.366   2.837   0.698
 1228SOL    HW2 4584   4.212   2.852   0.646
 1229SOL     OW 4585   1.938   5.834   1.067
 1229SOL    HW1 4586   1.938   5.744   1.108
 1229SOL    HW2 4587   1.907   5.902   1.134
 1230SOL     OW 4588   5.566   5.626   2.324
 1230SOL    HW1 4589   5.661   5.654   2.310
 1230SOL    HW2 4590   5.524   5.682   2.396
 1231SOL     OW 4591   1.285   2.189   6.197
 1231SOL    HW1 4592   1.213   2.184   6.266
 1231SOL    HW2 4593   1.366   2.233   6.236
 1232SOL     OW 4594   5.486   1.042   5.656
 1232SOL    HW1 4595   5.505   0.967   5.593
 1232SOL    HW2 4596   5.549   1.117   5.639
 1233SOL     OW 4597   1.143   5.369   3.697
 1233SOL    HW1 4598   1.089   5.441   3.740
 1233SOL    HW2 4599   1.153   5.388   3.599
 1234SOL     OW 4600   6.689   2.815   5.592
 1234SOL    HW1 4601   6.674   2.809   5.691
 1234SOL    HW2 4602   6.616   2.869   5.551
 1235SOL     OW 4603   6.389   4.320   1.097
 1235SOL    HW1 4604   6.407   4.408   1.053
 1235SOL    HW2 4605   6.465   4.258   1.079
 1236SOL     OW 4606   4.495   1.457   1.856
 1236SOL    HW1 4607   4.466   1.523   1.926
 1236SOL    HW2 4608   4.527   1.373   1.900
 1237SOL     OW 4609   1.555   5.704   4.791
 1237SOL    HW1 4610   1.511   5.779   4.741
 1237SOL    HW2 4611   1.596   5.640   4.725
 1238SOL     OW 4612   0.967   0.228   4.526
 1238SOL    HW1 4613   0.922   0.287   4.459
 1238SOL    HW2 4614   0.946   0.261   4.618
 1239SOL     OW 4615   6.566   6.409   5.720
 1239SOL    HW1 4616   6.572   6.329   5.660
 1239SOL    HW2 4617   6.631   6.479   5.689
 1240SOL     OW 4618   6.081   4.912   2.298
 1240SOL    HW1 4619   6.164   4.861   2.277
 1240SOL    HW2 4620   6.104   5.007   2.317
 1241SOL     OW 4621   6.383   4.533   5.133
 1241SOL    HW1 4622   6.388   4.574   5.224
 1241SOL    HW2 4623   6.417   4.439   5.136
 1242SOL     OW 4624   2.167   3.285   0.564
 1242SOL    HW1 4625   2.237   3.302   0.633
 1242SOL    HW2 4626   2.210   3.256   0.479
 1243SOL     OW 4627   0.509   1.170   4.249
 1243SOL    HW1 4628   0.591   1.224   4.266
 1243SOL    HW2 4629   0.440   1.227   4.205
 1244SOL     OW 4630   5.135   6.728   5.403
 1244SOL    HW1 4631   5.048   6.763   5.437
 1244SOL    HW2 4632   5.150   6.760   5.309
 1245SOL     OW 4633   5.810   5.456   0.409
 1245SOL    HW1 4634   5.874   5.422   0.479
 1245SOL    HW2 4635   5.839   5.424   0.319
 1246SOL     OW 4636   3.384   1.463   2.312
 1246SOL    HW1 4637   3.406   1.382   2.257
 1246SOL    HW2 4638   3.298   1.447   2.361
 1247SOL     OW 4639   5.552   6.680   5.301
 1247SOL    HW1 4640   5.465   6.678   5.251
 1247SOL    HW2 4641   5.623   6.722   5.245
 1248SOL     OW 4642   1.530   6.588   3.693
 1248SOL    HW1 4643   1.505   6.636   3.608
 1248SOL    HW2 4644   1.536   6.490   3.675
 1249SOL     OW 4645   0.241   3.444   1.666
 1249SOL    HW1 4646   0.286   3.381   1.730
 1249SOL    HW2 4647   0.275   3.537   1.683
 1250SOL     OW 4648   6.313   3.935   4.189
 1250SOL    HW1 4649   6.247   4.010   4.186
 1250SOL    HW2 4650   6.323   3.896   4.097
 1251SOL     OW 4651   2.518   0.964   2.595
 1251SOL    HW1 4652   2.503   1.057   2.628
 1251SOL    HW2 4653   2.467   0.899   2.651
 1252SOL     OW 4654   3.822   4.970   6.943
 1252SOL    HW1 4655   3.780   4.898   6.888
 1252SOL    HW2 4656   3.866   4.929   7.023
 1253SOL     OW 4657   2.707   0.192   1.652
 1253SOL    HW1 4658   2.697   0.292   1.650
 1253SOL    HW2 4659   2.640   0.153   1.714
 1254SOL     OW 4660   6.835   3.167   2.953
 1254SOL    HW1 4661   6.735   3.161   2.959
 1254SOL    HW2 4662   6.866   3.251   2.998
 1255SOL     OW 4663   5.549   2.487   6.134
 1255SOL    HW1 4664   5.505   2.433   6.062
 1255SOL    HW2 4665   5.548   2.583   6.110
 1256SOL     OW 4666   0.459   6.267   3.941
 1256SOL    HW1 4667   0.450   6.201   4.015
 1256SOL    HW2 4668   0.368   6.291   3.907
 1257SOL     OW 4669   0.168   5.111   4.247
 1257SOL    HW1 4670   0.126   5.091   4.336
 1257SOL    HW2 4671   0.096   5.131   4.181
 1258SOL     OW 4672   2.321   5.454   2.720
 1258SOL    HW1 4673   2.414   5.460   2.683
 1258SOL    HW2 4674   2.255   5.460   2.645
 1259SOL     OW 4675   3.469   6.300   5.368
 1259SOL    HW1 4676   3.435   6.293   5.274
 1259SOL    HW2 4677   3.545   6.236   5.380
 1260SOL     OW 4678   3.217   1.276   1.534
 1260SOL    HW1 4679   3.119   1.277   1.517
 1260SOL    HW2 4680   3.263   1.219   1.467
 1261SOL     OW 4681   0.371   4.361   0.298
 1261SOL    HW1 4682   0.416   4.278   0.267
 1261SOL    HW2 4683   0.412   4.440   0.251
 1262SOL     OW 4684   5.207   6.172   1.489
 1262SOL    HW1 4685   5.147   6.152   1.411
 1262SOL    HW2 4686   5.151   6.195   1.569
 1263SOL     OW 4687   6.290   1.200   0.749
 1263SOL    HW1 4688   6.223   1.252   0.802
 1263SOL    HW2 4689   6.377   1.198   0.798
 1264SOL     OW 4690   0.599   3.595   1.600
 1264SOL    HW1 4691   0.617   3.512   1.548
 1264SOL    HW2 4692   0.650   3.593   1.686
 1265SOL     OW 4693   6.715   5.283   3.725
 1265SOL    HW1 4694   6.616   5.291   3.726
 1265SOL    HW2 4695   6.743   5.216   3.655
 1266SOL     OW 4696   2.130   1.227   3.892
 1266SOL    HW1 4697   2.132   1.130   3.868
 1266SOL    HW2 4698   2.048   1.245   3.947
 1267SOL     OW 4699   5.494   6.178   1.023
 1267SOL    HW1 4700   5.422   6.218   1.080
 1267SOL    HW2 4701   5.577   6.166   1.078
 1268SOL     OW 4702   4.664   2.392   0.101
 1268SOL    HW1 4703   4.595   2.322   0.119
 1268SOL    HW2 4704   4.748   2.371   0.152
 1269SOL     OW 4705   6.363   5.968   5.395
 1269SOL    HW1 4706   6.333   5.927   5.309
 1269SOL    HW2 4707   6.456   5.938   5.415
 1270SOL     OW 4708   2.171   3.404   4.785
 1270SOL    HW1 4709   2.165   3.314   4.742
 1270SOL    HW2 4710   2.265   3.420   4.816
 1271SOL     OW 4711   3.481   2.086   3.602
 1271SOL    HW1 4712   3.467   2.101   3.700
 1271SOL    HW2 4713   3.400   2.118   3.552
 1272SOL     OW 4714   6.204   5.799   0.788
 1272SOL    HW1 4715   6.234   5.883   0.832
 1272SOL    HW2 4716   6.150   5.821   0.707
 1273SOL     OW 4717   1.484   4.416   6.854
 1273SOL    HW1 4718   1.486   4.505   6.899
 1273SOL    HW2 4719   1.537   4.350   6.907
 1274SOL     OW 4720   6.271   3.080   1.234
 1274SOL    HW1 4721   6.330   3.012   1.191
 1274SOL    HW2 4722   6.325   3.137   1.296
 1275SOL     OW 4723   3.703   0.310   3.833
 1275SOL    HW1 4724   3.676   0.281   3.741
 1275SOL    HW2 4725   3.659   0.251   3.901
 1276SOL     OW 4726   0.093   1.018   4.139
 1276SOL    HW1 4727   0.036   0.969   4.072
 1276SOL    HW2 4728   0.128   0.953   4.207
 1277SOL     OW 4729   0.905   7.007   5.323
 1277SOL    HW1 4730   0.989   6.972   5.366
 1277SOL    HW2 4731   0.829   6.946   5.344
 1278SOL     OW 4732   1.253   0.942   5.000
 1278SOL    HW1 4733   1.339   0.965   5.045
 1278SOL    HW2 4734   1.214   0.859   5.042
 1279SOL     OW 4735   3.617   5.411   6.955
 1279SOL    HW1 4736   3.583   5.449   0.014
 1279SOL    HW2 4737   3.623   5.311   6.963
 1280SOL     OW 4738   3.185   5.995   3.929
 1280SOL    HW1 4739   3.211   5.960   4.019
 1280SOL    HW2 4740   3.267   6.012   3.874
 1281SOL     OW 4741   0.865   5.593   2.693
 1281SOL    HW1 4742   0.884   5.691   2.683
 1281SOL    HW2 4743   0.768   5.581   2.715
 1282SOL     OW 4744   0.348   0.557   6.505
 1282SOL    HW1 4745   0.415   0.619   6.547
 1282SOL    HW2 4746   0.304   0.604   6.428
 1283SOL     OW 4747   5.520   2.814   5.036
 1283SOL    HW1 4748   5.427   2.844   5.059
 1283SOL    HW2 4749   5.515   2.739   4.970
 1284SOL     OW 4750   4.514   2.515   1.717
 1284SOL    HW1 4751   4.511   2.503   1.618
 1284SOL    HW2 4752   4.568   2.595   1.740
 1285SOL     OW 4753   5.290   3.324   5.970
 1285SOL    HW1 4754   5.318   3.420   5.964
 1285SOL    HW2 4755   5.315   3.277   5.885
 1286SOL     OW 4756   5.094   4.088   3.053
 1286SOL    HW1 4757   5.186   4.123   3.039
 1286SOL    HW2 4758   5.056   4.124   3.138
 1287SOL     OW 4759   4.803   3.994   5.445
 1287SOL    HW1 4760   4.796   3.900   5.410
 1287SOL    HW2 4761   4.712   4.027   5.469
 1288SOL     OW 4762   6.148   3.625   0.364
 1288SOL    HW1 4763   6.238   3.582   0.364
 1288SOL    HW2 4764   6.078   3.555   0.371
 1289SOL     OW 4765   0.102   6.054   1.536
 1289SOL    HW1 4766   0.167   6.084   1.606
 1289SOL    HW2 4767   0.011   6.089   1.558
 1290SOL     OW 4768   0.988   0.033   0.185
 1290SOL    HW1 4769   1.025   7.001   0.113
 1290SOL    HW2 4770   1.063   0.069   0.241
 1291SOL     OW 4771   0.350   3.160   5.729
 1291SOL    HW1 4772   0.266   3.182   5.778
 1291SOL    HW2 4773   0.405   3.097   5.784
 1292SOL     OW 4774   6.031   5.697   2.936
 1292SOL    HW1 4775   6.022   5.629   3.009
 1292SOL    HW2 4776   6.049   5.650   2.849
 1293SOL     OW 4777   1.364   1.318   6.511
 1293SOL    HW1 4778   1.370   1.242   6.576
 1293SOL    HW2 4779   1.362   1.405   6.561
 1294SOL     OW 4780   1.517   3.379   6.968
 1294SOL    HW1 4781   1.452   3.446   7.005
 1294SOL    HW2 4782   1.481   3.287   6.980
 1295SOL     OW 4783   6.839   4.120   2.860
 1295SOL    HW1 4784   6.882   4.211   2.864
 1295SOL    HW2 4785   6.767   4.120   2.791
 1296SOL     OW 4786   3.599   0.052   5.903
 1296SOL    HW1 4787   3.696   0.030   5.908
 1296SOL    HW2 4788   3.565   0.032   5.811
 1297SOL     OW 4789   6.008   0.582   6.819
 1297SOL    HW1 4790   6.089   0.544   6.864
 1297SOL    HW2 4791   5.937   0.513   6.814
 1298SOL     OW 4792   6.735   4.494   3.567
 1298SOL    HW1 4793   6.820   4.538   3.538
 1298SOL    HW2 4794   6.673   4.485   3.488
 1299SOL     OW 4795   0.569   4.026   3.095
 1299SOL    HW1 4796   0.497   4.050   3.160
 1299SOL    HW2 4797   0.527   3.991   3.011
 1300SOL     OW 4798   3.417   3.967   1.708
 1300SOL    HW1 4799   3.378   4.027   1.779
 1300SOL    HW2 4800   3.513   3.990   1.695
 1301SOL     OW 4801   0.440   5.884   1.885
 1301SOL    HW1 4802   0.463   5.788   1.896
 1301SOL    HW2 4803   0.489   5.921   1.805
 1302SOL     OW 4804   3.203   6.956   5.270
 1302SOL    HW1 4805   3.110   6.995   5.272
 1302SOL    HW2 4806   3.268   0.001   5.246
 1303SOL     OW 4807   4.730   1.466   1.196
 1303SOL    HW1 4808   4.752   1.445   1.291
 1303SOL    HW2 4809   4.711   1.381   1.147
 1304SOL     OW 4810   1.049   1.321   6.611
 1304SOL    HW1 4811   0.968   1.364   6.652
 1304SOL    HW2 4812   1.094   1.385   6.550
 1305SOL     OW 4813   5.260   3.777   0.053
 1305SOL    HW1 4814   5.228   3.684   0.070
 1305SOL    HW2 4815   5.248   3.832   0.135
 1306SOL     OW 4816   0.541   4.119   5.692
 1306SOL    HW1 4817   0.487   4.191   5.648
 1306SOL    HW2 4818   0.636   4.150   5.702
 1307SOL     OW 4819   1.525   2.785   4.698
 1307SOL    HW1 4820   1.599   2.792   4.630
 1307SOL    HW2 4821   1.467   2.866   4.691
 1308SOL     OW 4822   4.268   5.366   4.721
 1308SOL    HW1 4823   4.287   5.409   4.633
 1308SOL    HW2 4824   4.355   5.347   4.768
 1309SOL     OW 4825   5.366   3.208   5.757
 1309SOL    HW1 4826   5.273   3.211   5.720
 1309SOL    HW2 4827   5.425   3.157   5.694
 1310SOL     OW 4828   0.290   3.964   4.834
 1310SOL    HW1 4829   0.290   3.871   4.870
 1310SOL    HW2 4830   0.205   3.980   4.783
 1311SOL     OW 4831   0.112   0.396   4.077
 1311SOL    HW1 4832   0.040   0.329   4.092
 1311SOL    HW2 4833   0.183   0.356   4.019
 1312SOL     OW 4834   0.840   0.292   6.536
 1312SOL    HW1 4835   0.772   0.280   6.609
 1312SOL    HW2 4836   0.815   0.235   6.458
 1313SOL     OW 4837   1.473   4.739   4.679
 1313SOL    HW1 4838   1.457   4.746   4.581
 1313SOL    HW2 4839   1.543   4.805   4.706
 1314SOL     OW 4840   3.318   1.593   5.814
 1314SOL    HW1 4841   3.275   1.682   5.799
 1314SOL    HW2 4842   3.315   1.540   5.729
 1315SOL     OW 4843   0.351   0.656   0.186
 1315SOL    HW1 4844   0.373   0.599   0.265
 1315SOL    HW2 4845   0.356   0.601   0.103
 1316SOL     OW 4846   2.514   6.246   4.192
 1316SOL    HW1 4847   2.532   6.147   4.191
 1316SOL    HW2 4848   2.420   6.263   4.161
 1317SOL     OW 4849   0.749   3.801   4.380
 1317SOL    HW1 4850   0.689   3.847   4.315
 1317SOL    HW2 4851   0.703   3.792   4.468
 1318SOL     OW 4852   0.156   0.956   0.582
 1318SOL    HW1 4853   0.095   0.939   0.505
 1318SOL    HW2 4854   0.164   0.873   0.637
 1319SOL     OW 4855   6.692   0.446   0.385
 1319SOL    HW1 4856   6.674   0.501   0.466
 1319SOL    HW2 4857   6.610   0.393   0.361
 1320SOL     OW 4858   5.831   3.703   0.368
 1320SOL    HW1 4859   5.841   3.791   0.414
 1320SOL    HW2 4860   5.733   3.683   0.355
 1321SOL     OW 4861   4.283   2.195   6.118
 1321SOL    HW1 4862   4.200   2.142   6.099
 1321SOL    HW2 4863   4.313   2.178   6.211
 1322SOL     OW 4864   4.431   0.746   3.717
 1322SOL    HW1 4865   4.431   0.676   3.789
 1322SOL    HW2 4866   4.487   0.715   3.641
 1323SOL     OW 4867   5.587   1.922   5.241
 1323SOL    HW1 4868   5.599   2.021   5.254
 1323SOL    HW2 4869   5.496   1.904   5.204
 1324SOL     OW 4870   0.730   2.610   0.723
 1324SOL    HW1 4871   0.690   2.527   0.764
 1324SOL    HW2 4872   0.739   2.597   0.624
 1325SOL     OW 4873   1.578   6.642   1.847
 1325SOL    HW1 4874   1.645   6.587   1.799
 1325SOL    HW2 4875   1.597   6.639   1.946
 1326SOL     OW 4876   5.024   2.800   4.727
 1326SOL    HW1 4877   5.006   2.860   4.649
 1326SOL    HW2 4878   4.966   2.719   4.722
 1327SOL     OW 4879   2.769   4.996   2.216
 1327SOL    HW1 4880   2.744   4.910   2.172
 1327SOL    HW2 4881   2.814   5.056   2.149
 1328SOL     OW 4882   1.675   2.498   0.735
 1328SOL    HW1 4883   1.656   2.403   0.710
 1328SOL    HW2 4884   1.755   2.530   0.684
 1329SOL     OW 4885   0.659   2.139   0.630
 1329SOL    HW1 4886   0.575   2.168   0.583
 1329SOL    HW2 4887   0.706   2.071   0.575
 1330SOL     OW 4888   6.678   1.220   1.556
 1330SOL    HW1 4889   6.585   1.209   1.591
 1330SOL    HW2 4890   6.743   1.189   1.625
 1331SOL     OW 4891   4.991   2.267   3.330
 1331SOL    HW1 4892   5.059   2.209   3.286
 1331SOL    HW2 4893   4.964   2.340   3.267
 1332SOL     OW 4894   3.768   0.318   0.183
 1332SOL    HW1 4895   3.846   0.361   0.137
 1332SOL    HW2 4896   3.722   0.256   0.120
 1333SOL     OW 4897   3.327   3.406   6.357
 1333SOL    HW1 4898   3.397   3.462   6.402
 1333SOL    HW2 4899   3.337   3.414   6.258
 1334SOL     OW 4900   6.773   2.514   4.953
 1334SOL    HW1 4901   6.763   2.551   4.860
 1334SOL    HW2 4902   6.815   2.423   4.948
 1335SOL     OW 4903   2.813   0.767   3.067
 1335SOL    HW1 4904   2.899   0.717   3.077
 1335SOL    HW2 4905   2.760   0.729   2.991
 1336SOL     OW 4906   1.674   1.196   6.617
 1336SOL    HW1 4907   1.700   1.291   6.637
 1336SOL    HW2 4908   1.582   1.179   6.650
 1337SOL     OW 4909   1.453   1.203   4.933
 1337SOL    HW1 4910   1.486   1.114   4.967
 1337SOL    HW2 4911   1.456   1.270   5.007
 1338SOL     OW 4912   4.737   2.657   6.340
 1338SOL    HW1 4913   4.730   2.622   6.433
 1338SOL    HW2 4914   4.820   2.622   6.297
 1339SOL     OW 4915   0.938   0.201   6.913
 1339SOL    HW1 4916   0.857   0.258   6.915
 1339SOL    HW2 4917   1.017   0.255   6.886
 1340SOL     OW 4918   0.659   1.704   1.855
 1340SOL    HW1 4919   0.624   1.646   1.781
 1340SOL    HW2 4920   0.593   1.705   1.930
 1341SOL     OW 4921   4.840   0.610   5.623
 1341SOL    HW1 4922   4.841   0.688   5.685
 1341SOL    HW2 4923   4.756   0.613   5.568
 1342SOL     OW 4924   1.444   4.524   6.218
 1342SOL    HW1 4925   1.458   4.598   6.283
 1342SOL    HW2 4926   1.526   4.466   6.215
 1343SOL     OW 4927   4.307   5.891   2.636
 1343SOL    HW1 4928   4.223   5.904   2.582
 1343SOL    HW2 4929   4.291   5.923   2.730
 1344SOL     OW 4930   6.633   4.537   3.827
 1344SOL    HW1 4931   6.681   4.538   3.739
 1344SOL    HW2 4932   6.668   4.461   3.882
 1345SOL     OW 4933   1.850   1.733   3.222
 1345SOL    HW1 4934   1.907   1.654   3.200
 1345SOL    HW2 4935   1.816   1.773   3.137
 1346SOL     OW 4936   1.281   7.025   3.306
 1346SOL    HW1 4937   1.357   6.982   3.354
 1346SOL    HW2 4938   1.201   0.001   3.365
 1347SOL     OW 4939   6.342   6.399   4.335
 1347SOL    HW1 4940   6.331   6.350   4.249
 1347SOL    HW2 4941   6.267   6.377   4.396
 1348SOL     OW 4942   5.412   5.337   3.089
 1348SOL    HW1 4943   5.471   5.307   3.164
 1348SOL    HW2 4944   5.331   5.279   3.085
 1349SOL     OW 4945   4.904   2.248   6.198
 1349SOL    HW1 4946   5.000   2.220   6.197
 1349SOL    HW2 4947   4.862   2.224   6.286
 1350SOL     OW 4948   4.308   4.082   6.646
 1350SOL    HW1 4949   4.389   4.055   6.699
 1350SOL    HW2 4950   4.238   4.118   6.707
 1351SOL     OW 4951   6.821   2.317   3.277
 1351SOL    HW1 4952   6.736   2.352   3.237
 1351SOL    HW2 4953   6.830   2.219   3.256
 1352SOL     OW 4954   0.272   0.829   3.475
 1352SOL    HW1 4955   0.327   0.876   3.543
 1352SOL    HW2 4956   0.175   0.832   3.501
 1353SOL     OW 4957   5.906   4.248   5.664
 1353SOL    HW1 4958   5.893   4.227   5.761
 1353SOL    HW2 4959   5.879   4.168   5.609
 1354SOL     OW 4960   0.087   1.849   0.395
 1354SOL    HW1 4961   0.076   1.750   0.401
 1354SOL    HW2 4962   0.012   1.888   0.341
 1355SOL     OW 4963   6.059   2.272   5.581
 1355SOL    HW1 4964   6.155   2.244   5.590
 1355SOL    HW2 4965   6.055   2.369   5.554
 1356SOL     OW 4966   3.096   3.161   3.719
 1356SOL    HW1 4967   3.047   3.217   3.653
 1356SOL    HW2 4968   3.192   3.189   3.721
 1357SOL     OW 4969   1.830   4.606   5.662
 1357SOL    HW1 4970   1.871   4.624   5.751
 1357SOL    HW2 4971   1.878   4.530   5.618
 1358SOL     OW 4972   4.196   1.144   5.839
 1358SOL    HW1 4973   4.217   1.222   5.781
 1358SOL    HW2 4974   4.175   1.176   5.932
 1359SOL     OW 4975   7.007   4.625   1.547
 1359SOL    HW1 4976   0.009   4.586   1.460
 1359SOL    HW2 4977   7.021   4.724   1.545
 1360SOL     OW 4978   3.957   3.874   1.940
 1360SOL    HW1 4979   3.879   3.935   1.927
 1360SOL    HW2 4980   4.017   3.876   1.860
 1361SOL     OW 4981   0.363   5.887   5.410
 1361SOL    HW1 4982   0.417   5.869   5.492
 1361SOL    HW2 4983   0.267   5.895   5.434
 1362SOL     OW 4984   3.074   4.008   3.939
 1362SOL    HW1 4985   3.142   4.044   4.003
 1362SOL    HW2 4986   3.022   3.935   3.983
 1363SOL     OW 4987   6.354   6.006   3.324
 1363SOL    HW1 4988   6.337   6.097   3.288
 1363SOL    HW2 4989   6.291   5.941   3.281
 1364SOL     OW 4990   0.215   2.226   0.218
 1364SOL    HW1 4991   0.209   2.261   0.311
 1364SOL    HW2 4992   0.188   2.297   0.153
 1365SOL     OW 4993   0.532   3.331   5.580
 1365SOL    HW1 4994   0.623   3.292   5.594
 1365SOL    HW2 4995   0.463   3.268   5.615
 1366SOL     OW 4996   1.040   3.953   0.323
 1366SOL    HW1 4997   1.139   3.967   0.325
 1366SOL    HW2 4998   0.994   4.042   0.314
 1367SOL     OW 4999   1.374   5.536   2.729
 1367SOL    HW1 5000   1.446   5.603   2.748
 1367SOL    HW2 5001   1.296   5.551   2.789
 1368SOL     OW 5002   6.615   0.174   3.599
 1368SOL    HW1 5003   6.622   0.273   3.607
 1368SOL    HW2 5004   6.672   0.131   3.669
 1369SOL     OW 5005   1.932   0.176   2.573
 1369SOL    HW1 5006   1.842   0.191   2.615
 1369SOL    HW2 5007   1.945   0.079   2.556
 1370SOL     OW 5008   5.384   1.507   4.132
 1370SOL    HW1 5009   5.388   1.536   4.037
 1370SOL    HW2 5010   5.293   1.524   4.169
 1371SOL     OW 5011   5.761   1.149   4.694
 1371SOL    HW1 5012   5.775   1.104   4.782
 1371SOL    HW2 5013   5.681   1.109   4.648
 1372SOL     OW 5014   1.175   1.913   0.875
 1372SOL    HW1 5015   1.200   1.817   0.864
 1372SOL    HW2 5016   1.132   1.947   0.791
 1373SOL     OW 5017   4.455   2.240   0.251
 1373SOL    HW1 5018   4.508   2.176   0.307
 1373SOL    HW2 5019   4.390   2.289   0.309
 1374SOL     OW 5020   4.191   2.581   0.523
 1374SOL    HW1 5021   4.244   2.661   0.553
 1374SOL    HW2 5022   4.117   2.611   0.463
 1375SOL     OW 5023   0.007   6.944   6.172
 1375SOL    HW1 5024   0.087   6.911   6.122
 1375SOL    HW2 5025   0.032   6.970   6.264
 1376SOL     OW 5026   3.910   4.952   4.903
 1376SOL    HW1 5027   3.849   4.910   4.837
 1376SOL    HW2 5028   3.889   5.050   4.911
 1377SOL     OW 5029   0.983   3.724   3.761
 1377SOL    HW1 5030   0.974   3.823   3.749
 1377SOL    HW2 5031   1.074   3.696   3.730
 1378SOL     OW 5032   5.413   2.467   5.054
 1378SOL    HW1 5033   5.401   2.367   5.053
 1378SOL    HW2 5034   5.440   2.498   4.963
 1379SOL     OW 5035   4.481   5.888   3.360
 1379SOL    HW1 5036   4.419   5.888   3.438
 1379SOL    HW2 5037   4.449   5.954   3.292
 1380SOL     OW 5038   0.629   6.302   3.273
 1380SOL    HW1 5039   0.619   6.295   3.373
 1380SOL    HW2 5040   0.540   6.291   3.230
 1381SOL     OW 5041   5.561   1.597   6.997
 1381SOL    HW1 5042   5.656   1.565   6.990
 1381SOL    HW2 5043   5.554   1.664   0.044
 1382SOL     OW 5044   5.592   3.223   1.280
 1382SOL    HW1 5045   5.643   3.155   1.227
 1382SOL    HW2 5046   5.541   3.282   1.217
 1383SOL     OW 5047   1.153   0.340   1.629
 1383SOL    HW1 5048   1.224   0.392   1.676
 1383SOL    HW2 5049   1.121   0.391   1.549
 1384SOL     OW 5050   4.192   0.622   2.008
 1384SOL    HW1 5051   4.192   0.586   1.915
 1384SOL    HW2 5052   4.209   0.720   2.007
 1385SOL     OW 5053   2.677   4.672   3.885
 1385SOL    HW1 5054   2.714   4.662   3.977
 1385SOL    HW2 5055   2.633   4.762   3.876
 1386SOL     OW 5056   3.152   1.399   4.106
 1386SOL    HW1 5057   3.149   1.444   4.195
 1386SOL    HW2 5058   3.207   1.316   4.112
 1387SOL     OW 5059   3.662   5.236   2.675
 1387SOL    HW1 5060   3.609   5.184   2.609
 1387SOL    HW2 5061   3.699   5.175   2.744
 1388SOL     OW 5062   6.774   0.228   3.188
 1388SOL    HW1 5063   6.688   0.272   3.214
 1388SOL    HW2 5064   6.776   0.216   3.088
 1389SOL     OW 5065   6.587   1.154   3.917
 1389SOL    HW1 5066   6.531   1.197   3.987
 1389SOL    HW2 5067   6.540   1.074   3.880
 1390SOL     OW 5068   6.951   3.085   6.622
 1390SOL    HW1 5069   6.892   3.162   6.596
 1390SOL    HW2 5070   6.978   3.035   6.540
 1391SOL     OW 5071   6.347   6.366   5.130
 1391SOL    HW1 5072   6.253   6.347   5.101
 1391SOL    HW2 5073   6.411   6.331   5.062
 1392SOL     OW 5074   5.211   6.302   5.721
 1392SOL    HW1 5075   5.178   6.212   5.692
 1392SOL    HW2 5076   5.230   6.358   5.640
 1393SOL     OW 5077   6.534   4.594   6.106
 1393SOL    HW1 5078   6.614   4.551   6.064
 1393SOL    HW2 5079   6.474   4.523   6.144
 1394SOL     OW 5080   3.614   5.249   5.393
 1394SOL    HW1 5081   3.527   5.201   5.384
 1394SOL    HW2 5082   3.689   5.185   5.379
 1395SOL     OW 5083   2.023   4.722   5.272
 1395SOL    HW1 5084   2.037   4.819   5.252
 1395SOL    HW2 5085   1.925   4.702   5.267
 1396SOL     OW 5086   0.991   1.659   5.194
 1396SOL    HW1 5087   1.072   1.706   5.232
 1396SOL    HW2 5088   1.020   1.593   5.125
 1397SOL     OW 5089   0.823   6.888   4.283
 1397SOL    HW1 5090   0.780   6.805   4.247
 1397SOL    HW2 5091   0.811   6.890   4.383
 1398SOL     OW 5092   2.971   0.886   6.679
 1398SOL    HW1 5093   2.964   0.801   6.730
 1398SOL    HW2 5094   2.910   0.883   6.600
 1399SOL     OW 5095   4.216   5.296   0.971
 1399SOL    HW1 5096   4.280   5.367   1.002
 1399SOL    HW2 5097   4.158   5.333   0.898
 1400SOL     OW 5098   0.124   1.672   4.134
 1400SOL    HW1 5099   0.049   1.687   4.070
 1400SOL    HW2 5100   0.139   1.755   4.188
 1401SOL     OW 5101   6.382   0.528   4.460
 1401SOL    HW1 5102   6.475   0.492   4.456
 1401SOL    HW2 5103   6.384   0.627   4.450
 1402SOL     OW 5104   6.271   3.762   6.429
 1402SOL    HW1 5105   6.235   3.828   6.494
 1402SOL    HW2 5106   6.232   3.779   6.339
 1403SOL     OW 5107   2.434   2.185   1.522
 1403SOL    HW1 5108   2.487   2.269   1.537
 1403SOL    HW2 5109   2.393   2.188   1.431
 1404SOL     OW 5110   6.454   6.872   0.251
 1404SOL    HW1 5111   6.491   6.935   0.318
 1404SOL    HW2 5112   6.369   6.909   0.213
 1405SOL     OW 5113   2.560   3.230   0.540
 1405SOL    HW1 5114   2.497   3.260   0.611
 1405SOL    HW2 5115   2.540   3.135   0.515
 1406SOL     OW 5116   0.824   5.176   0.576
 1406SOL    HW1 5117   0.896   5.244   0.589
 1406SOL    HW2 5118   0.808   5.128   0.663
 1407SOL     OW 5119   0.564   3.501   2.609
 1407SOL    HW1 5120   0.517   3.588   2.623
 1407SOL    HW2 5121   0.527   3.432   2.672
 1408SOL     OW 5122   5.562   0.834   5.468
 1408SOL    HW1 5123   5.637   0.768   5.457
 1408SOL    HW2 5124   5.596   0.926   5.448
 1409SOL     OW 5125   6.965   0.296   4.876
 1409SOL    HW1 5126   7.017   0.287   4.961
 1409SOL    HW2 5127   6.936   0.391   4.865
 1410SOL     OW 5128   1.533   4.023   6.027
 1410SOL    HW1 5129   1.461   4.093   6.023
 1410SOL    HW2 5130   1.515   3.962   6.104
 1411SOL     OW 5131   3.992   6.925   0.821
 1411SOL    HW1 5132   4.046   6.867   0.882
 1411SOL    HW2 5133   3.949   6.998   0.873
 1412SOL     OW 5134   1.122   1.931   0.601
 1412SOL    HW1 5135   1.202   1.986   0.575
 1412SOL    HW2 5136   1.087   1.883   0.521
 1413SOL     OW 5137   1.918   1.984   5.183
 1413SOL    HW1 5138   1.856   2.058   5.211
 1413SOL    HW2 5139   2.009   2.002   5.220
 1414SOL     OW 5140   2.826   0.928   1.603
 1414SOL    HW1 5141   2.875   0.842   1.616
 1414SOL    HW2 5142   2.870   0.980   1.530
 1415SOL     OW 5143   1.983   1.173   4.507
 1415SOL    HW1 5144   1.979   1.249   4.572
 1415SOL    HW2 5145   1.906   1.179   4.444
 1416SOL     OW 5146   4.786   5.145   4.298
 1416SOL    HW1 5147   4.835   5.081   4.239
 1416SOL    HW2 5148   4.765   5.101   4.385
 1417SOL     OW 5149   3.332   2.226   0.550
 1417SOL    HW1 5150   3.333   2.277   0.465
 1417SOL    HW2 5151   3.278   2.275   0.618
 1418SOL     OW 5152   3.461   4.108   2.800
 1418SOL    HW1 5153   3.504   4.020   2.782
 1418SOL    HW2 5154   3.369   4.109   2.762
 1419SOL     OW 5155   2.798   5.399   3.656
 1419SOL    HW1 5156   2.812   5.434   3.563
 1419SOL    HW2 5157   2.886   5.371   3.695
 1420SOL     OW 5158   1.946   6.740   1.820
 1420SOL    HW1 5159   1.906   6.810   1.878
 1420SOL    HW2 5160   1.910   6.650   1.846
 1421SOL     OW 5161   2.336   5.335   3.128
 1421SOL    HW1 5162   2.276   5.257   3.143
 1421SOL    HW2 5163   2.285   5.420   3.140
 1422SOL     OW 5164   1.027   3.869   6.699
 1422SOL    HW1 5165   0.991   3.823   6.780
 1422SOL    HW2 5166   0.984   3.959   6.689
 1423SOL     OW 5167   5.476   6.399   3.888
 1423SOL    HW1 5168   5.452   6.429   3.980
 1423SOL    HW2 5169   5.473   6.299   3.884
 1424SOL     OW 5170   6.780   4.730   6.734
 1424SOL    HW1 5171   6.833   4.792   6.793
 1424SOL    HW2 5172   6.687   4.723   6.769
 1425SOL     OW 5173   2.023   5.488   5.227
 1425SOL    HW1 5174   2.089   5.485   5.302
 1425SOL    HW2 5175   2.008   5.395   5.192
 1426SOL     OW 5176   2.723   3.794   6.553
 1426SOL    HW1 5177   2.711   3.883   6.596
 1426SOL    HW2 5178   2.806   3.751   6.589
 1427SOL     OW 5179   0.171   0.068   3.567
 1427SOL    HW1 5180   0.185   0.101   3.661
 1427SOL    HW2 5181   0.197   0.139   3.503
 1428SOL     OW 5182   0.634   2.457   6.915
 1428SOL    HW1 5183   0.711   2.396   6.934
 1428SOL    HW2 5184   0.549   2.407   6.930
 1429SOL     OW 5185   4.733   1.624   0.179
 1429SOL    HW1 5186   4.696   1.580   0.097
 1429SOL    HW2 5187   4.805   1.688   0.154
 1430SOL     OW 5188   1.857   4.863   4.189
 1430SOL    HW1 5189   1.763   4.833   4.206
 1430SOL    HW2 5190   1.869   4.957   4.220
 1431SOL     OW 5191   3.001   2.302   0.333
 1431SOL    HW1 5192   3.025   2.211   0.364
 1431SOL    HW2 5193   3.035   2.370   0.398
 1432SOL     OW 5194   2.943   1.742   1.653
 1432SOL    HW1 5195   2.977   1.754   1.560
 1432SOL    HW2 5196   2.864   1.801   1.668
 1433SOL     OW 5197   4.714   0.058   5.054
 1433SOL    HW1 5198   4.615   0.044   5.063
 1433SOL    HW2 5199   4.746   0.014   4.971
 1434SOL     OW 5200   1.076   0.362   6.010
 1434SOL    HW1 5201   1.034   0.443   6.050
 1434SOL    HW2 5202   1.089   0.293   6.080
 1435SOL     OW 5203   6.555   6.959   3.466
 1435SOL    HW1 5204   6.575   0.028   3.487
 1435SOL    HW2 5205   6.574   6.941   3.370
 1436SOL     OW 5206   5.207   3.848   6.443
 1436SOL    HW1 5207   5.203   3.772   6.377
 1436SOL    HW2 5208   5.202   3.935   6.394
 1437SOL     OW 5209   2.987   1.926   4.908
 1437SOL    HW1 5210   2.959   2.021   4.891
 1437SOL    HW2 5211   3.074   1.926   4.956
 1438SOL     OW 5212   2.041   6.484   1.557
 1438SOL    HW1 5213   2.137   6.512   1.559
 1438SOL    HW2 5214   1.983   6.565   1.555
 1439SOL     OW 5215   6.300   5.279   0.730
 1439SOL    HW1 5216   6.333   5.268   0.824
 1439SOL    HW2 5217   6.203   5.302   0.732
 1440SOL     OW 5218   3.386   3.274   6.772
 1440SOL    HW1 5219   3.420   3.362   6.804
 1440SOL    HW2 5220   3.313   3.242   6.833
 1441SOL     OW 5221   6.265   1.012   3.494
 1441SOL    HW1 5222   6.279   1.011   3.395
 1441SOL    HW2 5223   6.354   1.020   3.539
 1442SOL     OW 5224   7.004   6.026   0.150
 1442SOL    HW1 5225   6.967   6.084   0.223
 1442SOL    HW2 5226   0.039   6.080   0.093
 1443SOL     OW 5227   0.612   2.932   4.204
 1443SOL    HW1 5228   0.583   2.961   4.112
 1443SOL    HW2 5229   0.712   2.930   4.208
 1444SOL     OW 5230   5.042   5.703   0.755
 1444SOL    HW1 5231   4.973   5.689   0.683
 1444SOL    HW2 5232   5.005   5.765   0.824
 1445SOL     OW 5233   0.732   2.600   2.677
 1445SOL    HW1 5234   0.687   2.595   2.766
 1445SOL    HW2 5235   0.830   2.610   2.691
 1446SOL     OW 5236   5.870   1.899   0.062
 1446SOL    HW1 5237   5.945   1.836   0.040
 1446SOL    HW2 5238   5.860   1.966   7.016
 1447SOL     OW 5239   5.791   6.718   5.177
 1447SOL    HW1 5240   5.864   6.682   5.235
 1447SOL    HW2 5241   5.784   6.817   5.188
 1448SOL     OW 5242   6.805   2.256   5.269
 1448SOL    HW1 5243   6.829   2.343   5.225
 1448SOL    HW2 5244   6.707   2.240   5.260
 1449SOL     OW 5245   0.868   1.438   6.819
 1449SOL    HW1 5246   0.792   1.489   6.778
 1449SOL    HW2 5247   0.911   1.495   6.890
 1450SOL     OW 5248   0.948   2.400   1.373
 1450SOL    HW1 5249   0.916   2.471   1.435
 1450SOL    HW2 5250   0.975   2.320   1.426
 1451SOL     OW 5251   1.009   0.183   2.308
 1451SOL    HW1 5252   1.037   0.279   2.308
 1451SOL    HW2 5253   0.973   0.159   2.398
 1452SOL     OW 5254   4.227   1.232   4.464
 1452SOL    HW1 5255   4.194   1.228   4.559
 1452SOL    HW2 5256   4.155   1.268   4.405
 1453SOL     OW 5257   6.976   3.704   5.472
 1453SOL    HW1 5258   6.918   3.764   5.527
 1453SOL    HW2 5259   6.994   3.748   5.384
 1454SOL     OW 5260   0.466   3.004   2.326
 1454SOL    HW1 5261   0.493   2.910   2.302
 1454SOL    HW2 5262   0.463   3.060   2.243
 1455SOL     OW 5263   1.243   0.650   1.231
 1455SOL    HW1 5264   1.312   0.713   1.267
 1455SOL    HW2 5265   1.214   0.681   1.140
 1456SOL     OW 5266   0.100   5.828   5.401
 1456SOL    HW1 5267   0.120   5.775   5.482
 1456SOL    HW2 5268   0.107   5.770   5.320
 1457SOL     OW 5269   0.813   0.040   1.740
 1457SOL    HW1 5270   0.770   6.983   1.775
 1457SOL    HW2 5271   0.865   0.083   1.813
 1458SOL     OW 5272   5.485   5.808   3.868
 1458SOL    HW1 5273   5.423   5.757   3.928
 1458SOL    HW2 5274   5.529   5.744   3.804
 1459SOL     OW 5275   3.327   5.798   5.806
 1459SOL    HW1 5276   3.261   5.869   5.831
 1459SOL    HW2 5277   3.395   5.835   5.743
 1460SOL     OW 5278   0.599   6.588   5.260
 1460SOL    HW1 5279   0.579   6.541   5.174
 1460SOL    HW2 5280   0.640   6.524   5.325
 1461SOL     OW 5281   5.936   4.494   3.242
 1461SOL    HW1 5282   5.998   4.556   3.194
 1461SOL    HW2 5283   5.970   4.400   3.233
 1462SOL     OW 5284   1.237   0.311   0.101
 1462SOL    HW1 5285   1.198   0.238   0.158
 1462SOL    HW2 5286   1.288   0.375   0.158
 1463SOL     OW 5287   0.053   5.500   6.801
 1463SOL    HW1 5288   7.010   5.429   6.808
 1463SOL    HW2 5289   0.010   5.588   6.778
 1464SOL     OW 5290   0.210   6.233   1.736
 1464SOL    HW1 5291   0.283   6.171   1.765
 1464SOL    HW2 5292   0.173   6.281   1.815
 1465SOL     OW 5293   1.531   1.068   3.480
 1465SOL    HW1 5294   1.552   1.022   3.394
 1465SOL    HW2 5295   1.604   1.134   3.500
 1466SOL     OW 5296   1.865   2.297   2.224
 1466SOL    HW1 5297   1.937   2.231   2.200
 1466SOL    HW2 5298   1.777   2.251   2.224
 1467SOL     OW 5299   1.938   1.295   2.452
 1467SOL    HW1 5300   2.018   1.353   2.462
 1467SOL    HW2 5301   1.856   1.352   2.447
 1468SOL     OW 5302   3.435   6.361   2.243
 1468SOL    HW1 5303   3.394   6.368   2.153
 1468SOL    HW2 5304   3.530   6.332   2.235
 1469SOL     OW 5305   0.673   1.402   1.720
 1469SOL    HW1 5306   0.650   1.308   1.694
 1469SOL    HW2 5307   0.656   1.463   1.644
 1470SOL     OW 5308   1.151   2.177   2.510
 1470SOL    HW1 5309   1.238   2.208   2.473
 1470SOL    HW2 5310   1.134   2.220   2.599
 1471SOL     OW 5311   0.670   0.275   1.044
 1471SOL    HW1 5312   0.735   0.332   1.094
 1471SOL    HW2 5313   0.670   0.302   0.947
 1472SOL     OW 5314   3.411   5.086   5.368
 1472SOL    HW1 5315   3.311   5.078   5.362
 1472SOL    HW2 5316   3.443   5.044   5.453
 1473SOL     OW 5317   4.404   5.687   5.063
 1473SOL    HW1 5318   4.457   5.615   5.106
 1473SOL    HW2 5319   4.309   5.658   5.054
 1474SOL     OW 5320   5.679   5.233   2.418
 1474SOL    HW1 5321   5.685   5.323   2.462
 1474SOL    HW2 5322   5.738   5.168   2.466
 1475SOL     OW 5323   6.150   0.421   1.692
 1475SOL    HW1 5324   6.160   0.505   1.745
 1475SOL    HW2 5325   6.132   0.444   1.596
 1476SOL     OW 5326   2.996   1.010   0.469
 1476SOL    HW1 5327   2.984   1.016   0.568
 1476SOL    HW2 5328   3.088   0.977   0.449
 1477SOL     OW 5329   3.153   6.861   5.969
 1477SOL    HW1 5330   3.127   6.860   5.873
 1477SOL    HW2 5331   3.113   6.782   6.015
 1478SOL     OW 5332   6.147   5.330   6.155
 1478SOL    HW1 5333   6.227   5.282   6.190
 1478SOL    HW2 5334   6.176   5.403   6.093
 1479SOL     OW 5335   1.378   2.249   0.845
 1479SOL    HW1 5336   1.282   2.248   0.816
 1479SOL    HW2 5337   1.393   2.176   0.912
 1480SOL     OW 5338   3.387   0.753   4.863
 1480SOL    HW1 5339   3.426   0.830   4.914
 1480SOL    HW2 5340   3.308   0.786   4.809
 1481SOL     OW 5341   6.299   3.374   6.691
 1481SOL    HW1 5342   6.308   3.277   6.672
 1481SOL    HW2 5343   6.253   3.419   6.614
 1482SOL     OW 5344   4.627   1.305   1.643
 1482SOL    HW1 5345   4.539   1.348   1.623
 1482SOL    HW2 5346   4.634   1.289   1.742
 1483SOL     OW 5347   4.820   2.209   6.442
 1483SOL    HW1 5348   4.730   2.172   6.462
 1483SOL    HW2 5349   4.858   2.253   6.524
 1484SOL     OW 5350   5.626   4.228   4.932
 1484SOL    HW1 5351   5.654   4.134   4.912
 1484SOL    HW2 5352   5.533   4.228   4.968
 1485SOL     OW 5353   4.023   1.426   3.367
 1485SOL    HW1 5354   3.942   1.486   3.368
 1485SOL    HW2 5355   3.996   1.333   3.392
 1486SOL     OW 5356   5.171   1.361   2.737
 1486SOL    HW1 5357   5.204   1.340   2.645
 1486SOL    HW2 5358   5.071   1.355   2.738
 1487SOL     OW 5359   0.118   2.099   6.735
 1487SOL    HW1 5360   0.090   2.075   6.828
 1487SOL    HW2 5361   0.064   2.177   6.704
 1488SOL     OW 5362   5.179   0.745   3.655
 1488SOL    HW1 5363   5.241   0.811   3.612
 1488SOL    HW2 5364   5.228   0.661   3.675
 1489SOL     OW 5365   4.073   4.842   5.076
 1489SOL    HW1 5366   4.155   4.800   5.036
 1489SOL    HW2 5367   4.023   4.891   5.005
 1490SOL     OW 5368   0.831   2.916   1.635
 1490SOL    HW1 5369   0.917   2.932   1.587
 1490SOL    HW2 5370   0.769   2.866   1.575
 1491SOL     OW 5371   6.238   4.282   2.412
 1491SOL    HW1 5372   6.144   4.260   2.437
 1491SOL    HW2 5373   6.293   4.199   2.411
 1492SOL     OW 5374   6.294   1.248   2.483
 1492SOL    HW1 5375   6.211   1.296   2.454
 1492SOL    HW2 5376   6.355   1.312   2.528
 1493SOL     OW 5377   3.312   6.941   5.513
 1493SOL    HW1 5378   3.239   6.937   5.445
 1493SOL    HW2 5379   3.346   6.849   5.531
 1494SOL     OW 5380   4.872   1.536   6.953
 1494SOL    HW1 5381   4.825   1.452   6.981
 1494SOL    HW2 5382   4.805   1.605   6.927
 1495SOL     OW 5383   6.858   3.117   5.365
 1495SOL    HW1 5384   6.879   3.025   5.398
 1495SOL    HW2 5385   6.833   3.113   5.268
 1496SOL     OW 5386   0.284   1.693   1.742
 1496SOL    HW1 5387   0.343   1.621   1.779
 1496SOL    HW2 5388   0.269   1.764   1.811
 1497SOL     OW 5389   5.801   3.739   2.596
 1497SOL    HW1 5390   5.783   3.736   2.497
 1497SOL    HW2 5391   5.877   3.802   2.614
 1498SOL     OW 5392   2.555   4.940   6.933
 1498SOL    HW1 5393   2.472   4.977   6.893
 1498SOL    HW2 5394   2.542   4.927   0.005
 1499SOL     OW 5395   0.518   2.961   5.851
 1499SOL    HW1 5396   0.586   2.929   5.785
 1499SOL    HW2 5397   0.508   2.894   5.924
 1500SOL     OW 5398   0.159   6.947   6.905
 1500SOL    HW1 5399   0.080   6.989   6.950
 1500SOL    HW2 5400   0.140   6.850   6.888
 1501SOL     OW 5401   5.028   2.161   6.834
 1501SOL    HW1 5402   5.115   2.149   6.882
 1501SOL    HW2 5403   4.976   2.235   6.878
 1502SOL     OW 5404   3.893   0.074   0.047
 1502SOL    HW1 5405   3.894   7.015   7.022
 1502SOL    HW2 5406   3.900   0.054   0.144
 1503SOL     OW 5407   0.805   3.569   1.793
 1503SOL    HW1 5408   0.755   3.576   1.880
 1503SOL    HW2 5409   0.872   3.495   1.799
 1504SOL     OW 5410   0.541   6.753   4.558
 1504SOL    HW1 5411   0.617   6.780   4.617
 1504SOL    HW2 5412   0.502   6.834   4.514
 1505SOL     OW 5413   5.383   0.230   4.853
 1505SOL    HW1 5414   5.372   0.323   4.888
 1505SOL    HW2 5415   5.346   0.165   4.919
 1506SOL     OW 5416   0.793   5.991   0.226
 1506SOL    HW1 5417   0.850   5.946   0.294
 1506SOL    HW2 5418   0.698   5.960   0.235
 1507SOL     OW 5419   0.565   1.940   5.814
 1507SOL    HW1 5420   0.527   1.852   5.843
 1507SOL    HW2 5421   0.497   2.012   5.825
 1508SOL     OW 5422   6.423   1.815   1.899
 1508SOL    HW1 5423   6.383   1.866   1.822
 1508SOL    HW2 5424   6.349   1.781   1.957
 1509SOL     OW 5425   3.729   1.629   5.702
 1509SOL    HW1 5426   3.745   1.531   5.710
 1509SOL    HW2 5427   3.815   1.678   5.715
 1510SOL     OW 5428   5.021   1.574   5.088
 1510SOL    HW1 5429   5.035   1.527   5.175
 1510SOL    HW2 5430   5.103   1.627   5.064
 1511SOL     OW 5431   3.935   3.024   3.153
 1511SOL    HW1 5432   3.916   3.002   3.248
 1511SOL    HW2 5433   3.986   3.109   3.148
 1512SOL     OW 5434   0.210   4.935   0.989
 1512SOL    HW1 5435   0.193   4.892   0.901
 1512SOL    HW2 5436   0.304   4.917   1.017
 1513SOL     OW 5437   3.758   0.592   4.764
 1513SOL    HW1 5438   3.808   0.512   4.797
 1513SOL    HW2 5439   3.660   0.573   4.763
 1514SOL     OW 5440   4.128   1.978   5.740
 1514SOL    HW1 5441   4.177   2.063   5.754
 1514SOL    HW2 5442   4.119   1.960   5.642
 1515SOL     OW 5443   6.057   1.900   3.005
 1515SOL    HW1 5444   6.072   1.821   3.066
 1515SOL    HW2 5445   6.031   1.867   2.914
 1516SOL     OW 5446   0.009   6.427   6.948
 1516SOL    HW1 5447   6.965   6.416   6.878
 1516SOL    HW2 5448   0.099   6.410   6.908
 1517SOL     OW 5449   4.754   6.243   3.329
 1517SOL    HW1 5450   4.814   6.163   3.328
 1517SOL    HW2 5451   4.688   6.234   3.403
 1518SOL     OW 5452   0.850   2.527   0.208
 1518SOL    HW1 5453   0.942   2.505   0.240
 1518SOL    HW2 5454   0.845   2.517   0.109
 1519SOL     OW 5455   6.981   5.410   1.507
 1519SOL    HW1 5456   6.885   5.381   1.514
 1519SOL    HW2 5457   0.013   5.344   1.554
 1520SOL     OW 5458   0.354   4.179   2.165
 1520SOL    HW1 5459   0.368   4.169   2.067
 1520SOL    HW2 5460   0.318   4.093   2.202
 1521SOL     OW 5461   1.514   4.067   6.378
 1521SOL    HW1 5462   1.467   3.993   6.329
 1521SOL    HW2 5463   1.595   4.094   6.326
 1522SOL     OW 5464   5.471   6.418   5.034
 1522SOL    HW1 5465   5.483   6.327   5.075
 1522SOL    HW2 5466   5.374   6.435   5.019
 1523SOL     OW 5467   4.853   5.952   0.833
 1523SOL    HW1 5468   4.842   6.051   0.842
 1523SOL    HW2 5469   4.823   5.906   0.917
 1524SOL     OW 5470   2.683   2.203   2.016
 1524SOL    HW1 5471   2.678   2.104   2.008
 1524SOL    HW2 5472   2.778   2.233   2.006
 1525SOL     OW 5473   6.966   2.955   0.620
 1525SOL    HW1 5474   6.935   3.047   0.598
 1525SOL    HW2 5475   7.026   2.921   0.548
 1526SOL     OW 5476   6.684   0.137   0.179
 1526SOL    HW1 5477   6.630   0.178   0.106
 1526SOL    HW2 5478   6.631   0.140   0.264
 1527SOL     OW 5479   4.465   0.519   4.998
 1527SOL    HW1 5480   4.407   0.450   5.040
 1527SOL    HW2 5481   4.430   0.610   5.021
 1528SOL     OW 5482   4.634   5.315   2.586
 1528SOL    HW1 5483   4.634   5.355   2.678
 1528SOL    HW2 5484   4.577   5.370   2.525
 1529SOL     OW 5485   4.056   1.085   0.161
 1529SOL    HW1 5486   4.134   1.130   0.205
 1529SOL    HW2 5487   4.072   1.079   0.063
 1530SOL     OW 5488   3.383   2.170   1.805
 1530SOL    HW1 5489   3.459   2.202   1.862
 1530SOL    HW2 5490   3.303   2.154   1.863
 1531SOL     OW 5491   4.490   0.508   5.521
 1531SOL    HW1 5492   4.397   0.499   5.484
 1531SOL    HW2 5493   4.519   0.421   5.560
 1532SOL     OW 5494   3.203   3.298   6.583
 1532SOL    HW1 5495   3.266   3.284   6.660
 1532SOL    HW2 5496   3.254   3.337   6.506
 1533SOL     OW 5497   5.684   4.117   6.723
 1533SOL    HW1 5498   5.768   4.162   6.754
 1533SOL    HW2 5499   5.608   4.143   6.783
 1534SOL     OW 5500   2.184   4.776   6.975
 1534SOL    HW1 5501   2.105   4.750   6.919
 1534SOL    HW2 5502   2.250   4.701   6.978
 1535SOL     OW 5503   4.819   6.603   4.505
 1535SOL    HW1 5504   4.904   6.576   4.462
 1535SOL    HW2 5505   4.778   6.680   4.456
 1536SOL     OW 5506   3.972   4.684   5.577
 1536SOL    HW1 5507   3.923   4.600   5.553
 1536SOL    HW2 5508   4.063   4.661   5.612
 1537SOL     OW 5509   4.909   6.475   3.481
 1537SOL    HW1 5510   4.871   6.385   3.463
 1537SOL    HW2 5511   4.947   6.478   3.573
 1538SOL     OW 5512   3.830   5.565   6.846
 1538SOL    HW1 5513   3.763   5.491   6.843
 1538SOL    HW2 5514   3.790   5.648   6.809
 1539SOL     OW 5515   4.993   4.190   1.536
 1539SOL    HW1 5516   4.960   4.155   1.624
 1539SOL    HW2 5517   5.083   4.152   1.517
 1540SOL     OW 5518   1.269   6.237   5.966
 1540SOL    HW1 5519   1.344   6.223   6.030
 1540SOL    HW2 5520   1.255   6.336   5.953
 1541SOL     OW 5521   3.960   3.053   3.466
 1541SOL    HW1 5522   4.004   3.005   3.542
 1541SOL    HW2 5523   3.998   3.145   3.459
 1542SOL     OW 5524   5.650   6.716   2.621
 1542SOL    HW1 5525   5.565   6.678   2.656
 1542SOL    HW2 5526   5.676   6.668   2.537
 1543SOL     OW 5527   3.494   4.966   5.583
 1543SOL    HW1 5528   3.560   5.004   5.648
 1543SOL    HW2 5529   3.523   4.875   5.554
 1544SOL     OW 5530   2.970   3.182   2.928
 1544SOL    HW1 5531   2.885   3.132   2.943
 1544SOL    HW2 5532   3.047   3.118   2.936
 1545SOL     OW 5533   4.948   0.811   3.809
 1545SOL    HW1 5534   5.024   0.784   3.750
 1545SOL    HW2 5535   4.914   0.730   3.858
 1546SOL     OW 5536   3.685   6.279   5.991
 1546SOL    HW1 5537   3.681   6.225   6.075
 1546SOL    HW2 5538   3.753   6.351   6.000
 1547SOL     OW 5539   2.193   3.234   2.921
 1547SOL    HW1 5540   2.209   3.170   2.996
 1547SOL    HW2 5541   2.269   3.297   2.914
 1548SOL     OW 5542   5.375   3.741   5.714
 1548SOL    HW1 5543   5.380   3.839   5.734
 1548SOL    HW2 5544   5.462   3.710   5.677
 1549SOL     OW 5545   4.877   1.282   2.495
 1549SOL    HW1 5546   4.937   1.362   2.500
 1549SOL    HW2 5547   4.933   1.199   2.488
 1550SOL     OW 5548   3.147   3.320   0.129
 1550SOL    HW1 5549   3.131   3.418   0.134
 1550SOL    HW2 5550   3.143   3.280   0.221
 1551SOL     OW 5551   2.436   4.621   5.748
 1551SOL    HW1 5552   2.337   4.605   5.743
 1551SOL    HW2 5553   2.484   4.544   5.706
 1552SOL     OW 5554   0.398   5.846   0.064
 1552SOL    HW1 5555   0.388   5.943   0.085
 1552SOL    HW2 5556   0.465   5.835   7.017
 1553SOL     OW 5557   0.360   1.844   5.434
 1553SOL    HW1 5558   0.337   1.757   5.390
 1553SOL    HW2 5559   0.450   1.875   5.403
 1554SOL     OW 5560   4.669   2.102   3.137
 1554SOL    HW1 5561   4.592   2.039   3.147
 1554SOL    HW2 5562   4.696   2.136   3.227
 1555SOL     OW 5563   4.880   2.366   6.931
 1555SOL    HW1 5564   4.791   2.323   6.949
 1555SOL    HW2 5565   4.875   2.463   6.953
 1556SOL     OW 5566   3.541   1.088   0.581
 1556SOL    HW1 5567   3.592   1.029   0.517
 1556SOL    HW2 5568   3.581   1.179   0.580
 1557SOL     OW 5569   2.285   1.834   6.291
 1557SOL    HW1 5570   2.332   1.827   6.204
 1557SOL    HW2 5571   2.259   1.743   6.323
 1558SOL     OW 5572   5.315   0.879   4.772
 1558SOL    HW1 5573   5.233   0.871   4.715
 1558SOL    HW2 5574   5.311   0.812   4.846
 1559SOL     OW 5575   0.144   2.412   0.033
 1559SOL    HW1 5576   0.180   2.501   0.059
 1559SOL    HW2 5577   0.068   2.424   6.996
 1560SOL     OW 5578   1.109   1.081   5.900
 1560SOL    HW1 5579   1.074   1.072   5.807
 1560SOL    HW2 5580   1.065   1.158   5.945
 1561SOL     OW 5581   6.304   6.542   3.949
 1561SOL    HW1 5582   6.328   6.632   3.915
 1561SOL    HW2 5583   6.204   6.530   3.945
 1562SOL     OW 5584   4.004   6.292   2.765
 1562SOL    HW1 5585   3.921   6.335   2.802
 1562SOL    HW2 5586   3.993   6.279   2.666
 1563SOL     OW 5587   1.882   0.675   5.934
 1563SOL    HW1 5588   1.949   0.749   5.936
 1563SOL    HW2 5589   1.861   0.651   5.840
 1564SOL     OW 5590   1.084   2.848   3.257
 1564SOL    HW1 5591   1.075   2.766   3.314
 1564SOL    HW2 5592   1.159   2.904   3.291
 1565SOL     OW 5593   4.088   4.846   4.670
 1565SOL    HW1 5594   4.084   4.749   4.695
 1565SOL    HW2 5595   4.018   4.897   4.720
 1566SOL     OW 5596   5.223   5.069   3.673
 1566SOL    HW1 5597   5.203   5.142   3.739
 1566SOL    HW2 5598   5.206   4.981   3.716
 1567SOL     OW 5599   5.848   5.725   0.495
 1567SOL    HW1 5600   5.768   5.755   0.546
 1567SOL    HW2 5601   5.838   5.628   0.471
 1568SOL     OW 5602   1.854   6.576   0.878
 1568SOL    HW1 5603   1.843   6.564   0.977
 1568SOL    HW2 5604   1.765   6.596   0.837
 1569SOL     OW 5605   4.426   6.251   3.795
 1569SOL    HW1 5606   4.407   6.288   3.886
 1569SOL    HW2 5607   4.463   6.159   3.803
 1570SOL     OW 5608   2.226   6.929   0.379
 1570SOL    HW1 5609   2.151   6.992   0.398
 1570SOL    HW2 5610   2.291   6.971   0.316
 1571SOL     OW 5611   5.269   1.938   1.641
 1571SOL    HW1 5612   5.318   1.908   1.722
 1571SOL    HW2 5613   5.192   1.996   1.668
 1572SOL     OW 5614   0.541   6.790   0.548
 1572SOL    HW1 5615   0.601   6.722   0.506
 1572SOL    HW2 5616   0.482   6.830   0.478
 1573SOL     OW 5617   5.131   3.899   1.893
 1573SOL    HW1 5618   5.198   3.879   1.821
 1573SOL    HW2 5619   5.067   3.823   1.901
 1574SOL     OW 5620   0.015   0.779   2.299
 1574SOL    HW1 5621   6.943   0.778   2.290
 1574SOL    HW2 5622   0.048   0.873   2.298
 1575SOL     OW 5623   3.566   1.611   0.721
 1575SOL    HW1 5624   3.485   1.610   0.662
 1575SOL    HW2 5625   3.608   1.702   0.718
 1576SOL     OW 5626   1.567   0.273   3.097
 1576SOL    HW1 5627   1.575   0.346   3.165
 1576SOL    HW2 5628   1.657   0.251   3.060
 1577SOL     OW 5629   2.925   1.183   4.968
 1577SOL    HW1 5630   2.958   1.112   4.906
 1577SOL    HW2 5631   3.000   1.216   5.025
 1578SOL     OW 5632   6.171   2.631   5.627
 1578SOL    HW1 5633   6.149   2.593   5.537
 1578SOL    HW2 5634   6.173   2.730   5.621
 1579SOL     OW 5635   0.621   1.407   2.097
 1579SOL    HW1 5636   0.639   1.482   2.161
 1579SOL    HW2 5637   0.568   1.336   2.143
 1580SOL     OW 5638   3.252   3.600   4.631
 1580SOL    HW1 5639   3.323   3.634   4.693
 1580SOL    HW2 5640   3.163   3.607   4.676
 1581SOL     OW 5641   0.785   3.747   4.930
 1581SOL    HW1 5642   0.884   3.766   4.926
 1581SOL    HW2 5643   0.761   3.719   5.023
 1582SOL     OW 5644   1.975   0.367   3.752
 1582SOL    HW1 5645   2.028   0.298   3.702
 1582SOL    HW2 5646   1.939   0.434   3.688
 1583SOL     OW 5647   1.545   4.601   3.647
 1583SOL    HW1 5648   1.627   4.649   3.679
 1583SOL    HW2 5649   1.467   4.630   3.702
 1584SOL     OW 5650   1.214   6.718   5.404
 1584SOL    HW1 5651   1.282   6.648   5.426
 1584SOL    HW2 5652   1.144   6.678   5.344
 1585SOL     OW 5653   6.071   1.391   3.637
 1585SOL    HW1 5654   6.069   1.350   3.546
 1585SOL    HW2 5655   6.048   1.321   3.705
 1586SOL     OW 5656   3.503   5.037   1.953
 1586SOL    HW1 5657   3.543   4.947   1.970
 1586SOL    HW2 5658   3.474   5.044   1.858
 1587SOL     OW 5659   3.325   5.702   6.409
 1587SOL    HW1 5660   3.276   5.673   6.492
 1587SOL    HW2 5661   3.402   5.640   6.392
 1588SOL     OW 5662   4.820   1.590   3.103
 1588SOL    HW1 5663   4.867   1.670   3.140
 1588SOL    HW2 5664   4.762   1.619   3.026
 1589SOL     OW 5665   5.783   3.390   1.404
 1589SOL    HW1 5666   5.714   3.330   1.363
 1589SOL    HW2 5667   5.738   3.452   1.468
 1590SOL     OW 5668   3.574   5.857   6.320
 1590SOL    HW1 5669   3.499   5.888   6.262
 1590SOL    HW2 5670   3.548   5.866   6.416
 1591SOL     OW 5671   6.041   4.903   2.705
 1591SOL    HW1 5672   6.010   4.808   2.711
 1591SOL    HW2 5673   6.131   4.906   2.661
 1592SOL     OW 5674   1.875   4.330   6.864
 1592SOL    HW1 5675   1.810   4.289   6.928
 1592SOL    HW2 5676   1.853   4.300   6.771
 1593SOL     OW 5677   1.367   6.704   4.447
 1593SOL    HW1 5678   1.457   6.675   4.414
 1593SOL    HW2 5679   1.377   6.749   4.536
 1594SOL     OW 5680   0.427   6.081   2.084
 1594SOL    HW1 5681   0.496   6.153   2.092
 1594SOL    HW2 5682   0.457   6.013   2.017
 1595SOL     OW 5683   1.245   5.570   0.361
 1595SOL    HW1 5684   1.266   5.537   0.269
 1595SOL    HW2 5685   1.308   5.529   0.426
 1596SOL     OW 5686   0.578   2.340   3.865
 1596SOL    HW1 5687   0.487   2.314   3.898
 1596SOL    HW2 5688   0.586   2.440   3.864
 1597SOL     OW 5689   1.601   6.733   6.589
 1597SOL    HW1 5690   1.603   6.755   6.492
 1597SOL    HW2 5691   1.509   6.701   6.614
 1598SOL     OW 5692   0.809   3.924   6.328
 1598SOL    HW1 5693   0.835   3.861   6.255
 1598SOL    HW2 5694   0.709   3.930   6.331
 1599SOL     OW 5695   4.794   4.597   5.825
 1599SOL    HW1 5696   4.732   4.607   5.748
 1599SOL    HW2 5697   4.778   4.508   5.870
 1600SOL     OW 5698   4.824   1.597   4.210
 1600SOL    HW1 5699   4.856   1.504   4.190
 1600SOL    HW2 5700   4.903   1.658   4.221
 1601SOL     OW 5701   0.421   4.471   4.840
 1601SOL    HW1 5702   0.499   4.409   4.831
 1601SOL    HW2 5703   0.435   4.551   4.782
 1602SOL     OW 5704   2.493   5.277   3.386
 1602SOL    HW1 5705   2.457   5.264   3.293
 1602SOL    HW2 5706   2.592   5.290   3.381
 1603SOL     OW 5707   6.848   6.238   2.365
 1603SOL    HW1 5708   6.902   6.310   2.323
 1603SOL    HW2 5709   6.855   6.154   2.310
 1604SOL     OW 5710   5.984   4.711   1.584
 1604SOL    HW1 5711   6.028   4.691   1.496
 1604SOL    HW2 5712   5.952   4.805   1.585
 1605SOL     OW 5713   6.599   6.100   1.715
 1605SOL    HW1 5714   6.574   6.004   1.730
 1605SOL    HW2 5715   6.695   6.104   1.685
 1606SOL     OW 5716   3.715   0.870   4.962
 1606SOL    HW1 5717   3.672   0.806   4.900
 1606SOL    HW2 5718   3.690   0.964   4.937
 1607SOL     OW 5719   4.380   1.384   1.529
 1607SOL    HW1 5720   4.294   1.348   1.491
 1607SOL    HW2 5721   4.374   1.483   1.536
 1608SOL     OW 5722   1.207   0.502   4.009
 1608SOL    HW1 5723   1.234   0.424   4.066
 1608SOL    HW2 5724   1.158   0.470   3.929
 1609SOL     OW 5725   3.726   0.607   0.373
 1609SOL    HW1 5726   3.765   0.646   0.456
 1609SOL    HW2 5727   3.701   0.681   0.311
 1610SOL     OW 5728   5.598   4.429   6.901
 1610SOL    HW1 5729   5.651   4.450   6.983
 1610SOL    HW2 5730   5.546   4.345   6.915
 1611SOL     OW 5731   2.291   3.788   1.479
 1611SOL    HW1 5732   2.277   3.748   1.569
 1611SOL    HW2 5733   2.333   3.720   1.418
 1612SOL     OW 5734   2.602   0.939   5.341
 1612SOL    HW1 5735   2.544   1.020   5.330
 1612SOL    HW2 5736   2.677   0.943   5.276
 1613SOL     OW 5737   1.822   5.177   1.639
 1613SOL    HW1 5738   1.853   5.249   1.577
 1613SOL    HW2 5739   1.766   5.111   1.588
 1614SOL     OW 5740   6.474   3.589   0.120
 1614SOL    HW1 5741   6.497   3.647   0.042
 1614SOL    HW2 5742   6.540   3.514   0.126
 1615SOL     OW 5743   6.567   4.891   1.171
 1615SOL    HW1 5744   6.629   4.843   1.232
 1615SOL    HW2 5745   6.616   4.965   1.124
 1616SOL     OW 5746   3.777   2.009   5.266
 1616SOL    HW1 5747   3.726   1.953   5.201
 1616SOL    HW2 5748   3.844   1.953   5.313
 1617SOL     OW 5749   6.093   0.516   2.221
 1617SOL    HW1 5750   6.047   0.562   2.297
 1617SOL    HW2 5751   6.192   0.532   2.228
 1618SOL     OW 5752   2.016   4.275   1.658
 1618SOL    HW1 5753   2.092   4.218   1.692
 1618SOL    HW2 5754   2.006   4.355   1.717
 1619SOL     OW 5755   0.792   2.824   2.234
 1619SOL    HW1 5756   0.824   2.793   2.145
 1619SOL    HW2 5757   0.863   2.811   2.302
 1620SOL     OW 5758   2.767   4.980   1.734
 1620SOL    HW1 5759   2.700   5.041   1.776
 1620SOL    HW2 5760   2.723   4.927   1.661
 1621SOL     OW 5761   0.720   1.191   0.110
 1621SOL    HW1 5762   0.624   1.211   0.088
 1621SOL    HW2 5763   0.725   1.137   0.194
 1622SOL     OW 5764   0.725   2.578   4.682
 1622SOL    HW1 5765   0.662   2.648   4.648
 1622SOL    HW2 5766   0.738   2.589   4.780
 1623SOL     OW 5767   2.320   3.711   5.523
 1623SOL    HW1 5768   2.395   3.764   5.484
 1623SOL    HW2 5769   2.298   3.635   5.462
 1624SOL     OW 5770   2.737   1.239   5.205
 1624SOL    HW1 5771   2.649   1.281   5.180
 1624SOL    HW2 5772   2.776   1.196   5.124
 1625SOL     OW 5773   1.188   5.564   1.942
 1625SOL    HW1 5774   1.199   5.662   1.923
 1625SOL    HW2 5775   1.114   5.527   1.886
 1626SOL     OW 5776   3.399   2.124   6.330
 1626SOL    HW1 5777   3.316   2.146   6.280
 1626SOL    HW2 5778   3.375   2.072   6.412
 1627SOL     OW 5779   0.031   3.111   3.780
 1627SOL    HW1 5780   7.025   3.133   3.688
 1627SOL    HW2 5781   0.129   3.133   3.786
 1628SOL     OW 5782   4.230   4.386   0.764
 1628SOL    HW1 5783   4.212   4.288   0.760
 1628SOL    HW2 5784   4.223   4.418   0.858
 1629SOL     OW 5785   3.023   1.480   3.863
 1629SOL    HW1 5786   3.055   1.444   3.950
 1629SOL    HW2 5787   3.087   1.549   3.829
 1630SOL     OW 5788   1.474   5.879   5.801
 1630SOL    HW1 5789   1.541   5.810   5.772
 1630SOL    HW2 5790   1.385   5.856   5.762
 1631SOL     OW 5791   0.565   2.094   6.328
 1631SOL    HW1 5792   0.616   2.027   6.274
 1631SOL    HW2 5793   0.485   2.125   6.276
 1632SOL     OW 5794   0.038   1.815   6.745
 1632SOL    HW1 5795   0.088   1.885   6.694
 1632SOL    HW2 5796   6.973   1.847   6.766
 1633SOL     OW 5797   5.194   2.666   4.418
 1633SOL    HW1 5798   5.289   2.650   4.443
 1633SOL    HW2 5799   5.140   2.583   4.436
 1634SOL     OW 5800   4.135   5.109   6.671
 1634SOL    HW1 5801   4.122   5.155   6.583
 1634SOL    HW2 5802   4.071   5.147   6.738
 1635SOL     OW 5803   0.271   5.836   5.853
 1635SOL    HW1 5804   0.210   5.814   5.929
 1635SOL    HW2 5805   0.366   5.831   5.883
 1636SOL     OW 5806   3.006   4.237   1.717
 1636SOL    HW1 5807   2.928   4.174   1.716
 1636SOL    HW2 5808   2.977   4.327   1.750
 1637SOL     OW 5809   0.499   0.439   3.118
 1637SOL    HW1 5810   0.598   0.431   3.113
 1637SOL    HW2 5811   0.457   0.396   3.038
 1638SOL     OW 5812   0.173   4.414   3.727
 1638SOL    HW1 5813   0.150   4.479   3.799
 1638SOL    HW2 5814   0.096   4.352   3.712
 1639SOL     OW 5815   4.552   6.780   2.955
 1639SOL    HW1 5816   4.649   6.763   2.970
 1639SOL    HW2 5817   4.525   6.746   2.865
 1640SOL     OW 5818   5.765   1.263   0.427
 1640SOL    HW1 5819   5.735   1.326   0.355
 1640SOL    HW2 5820   5.719   1.285   0.513
 1641SOL     OW 5821   5.054   2.451   4.485
 1641SOL    HW1 5822   4.970   2.428   4.436
 1641SOL    HW2 5823   5.114   2.370   4.489
 1642SOL     OW 5824   6.180   3.888   6.695
 1642SOL    HW1 5825   6.092   3.851   6.721
 1642SOL    HW2 5826   6.253   3.840   6.745
 1643SOL     OW 5827   2.482   5.010   4.215
 1643SOL    HW1 5828   2.458   5.073   4.289
 1643SOL    HW2 5829   2.415   4.936   4.210
 1644SOL     OW 5830   0.423   2.649   0.994
 1644SOL    HW1 5831   0.519   2.679   0.990
 1644SOL    HW2 5832   0.420   2.550   1.008
 1645SOL     OW 5833   2.964   5.967   5.893
 1645SOL    HW1 5834   2.986   5.943   5.799
 1645SOL    HW2 5835   3.018   5.912   5.956
 1646SOL     OW 5836   2.868   5.797   0.607
 1646SOL    HW1 5837   2.845   5.780   0.511
 1646SOL    HW2 5838   2.811   5.739   0.666
 1647SOL     OW 5839   6.397   2.613   4.671
 1647SOL    HW1 5840   6.358   2.702   4.651
 1647SOL    HW2 5841   6.496   2.617   4.662
 1648SOL     OW 5842   5.941   5.744   0.926
 1648SOL    HW1 5843   6.007   5.751   1.001
 1648SOL    HW2 5844   5.971   5.674   0.861
 1649SOL     OW 5845   3.484   0.075   4.565
 1649SOL    HW1 5846   3.493   7.023   4.504
 1649SOL    HW2 5847   3.525   0.156   4.521
 1650SOL     OW 5848   2.161   6.382   5.496
 1650SOL    HW1 5849   2.089   6.358   5.431
 1650SOL    HW2 5850   2.124   6.443   5.566
 1651SOL     OW 5851   0.670   1.538   1.457
 1651SOL    HW1 5852   0.585   1.487   1.441
 1651SOL    HW2 5853   0.731   1.526   1.378
 1652SOL     OW 5854   1.097   3.057   2.170
 1652SOL    HW1 5855   1.186   3.051   2.215
 1652SOL    HW2 5856   1.102   3.124   2.096
 1653SOL     OW 5857   1.128   6.865   1.235
 1653SOL    HW1 5858   1.177   6.941   1.277
 1653SOL    HW2 5859   1.030   6.877   1.249
 1654SOL     OW 5860   6.876   3.140   2.196
 1654SOL    HW1 5861   6.795   3.098   2.155
 1654SOL    HW2 5862   6.848   3.210   2.261
 1655SOL     OW 5863   6.564   2.589   5.088
 1655SOL    HW1 5864   6.633   2.553   5.026
 1655SOL    HW2 5865   6.475   2.594   5.042
 1656SOL     OW 5866   2.773   4.970   2.476
 1656SOL    HW1 5867   2.757   5.066   2.501
 1656SOL    HW2 5868   2.786   4.963   2.377
 1657SOL     OW 5869   6.926   0.275   4.182
 1657SOL    HW1 5870   6.906   0.366   4.218
 1657SOL    HW2 5871   6.858   0.251   4.113
 1658SOL     OW 5872   1.217   0.062   1.352
 1658SOL    HW1 5873   1.315   0.084   1.354
 1658SOL    HW2 5874   1.163   0.146   1.352
 1659SOL     OW 5875   3.573   0.929   5.731
 1659SOL    HW1 5876   3.504   0.896   5.796
 1659SOL    HW2 5877   3.639   0.856   5.715
 1660SOL     OW 5878   0.821   5.011   3.945
 1660SOL    HW1 5879   0.886   5.082   3.973
 1660SOL    HW2 5880   0.825   5.000   3.845
 1661SOL     OW 5881   3.289   1.190   2.129
 1661SOL    HW1 5882   3.190   1.184   2.121
 1661SOL    HW2 5883   3.323   1.264   2.070
 1662SOL     OW 5884   6.824   0.246   3.937
 1662SOL    HW1 5885   6.758   0.316   3.910
 1662SOL    HW2 5886   6.902   0.247   3.874
 1663SOL     OW 5887   4.189   6.904   2.903
 1663SOL    HW1 5888   4.111   6.871   2.956
 1663SOL    HW2 5889   4.273   6.866   2.942
 1664SOL     OW 5890   2.498   6.536   4.182
 1664SOL    HW1 5891   2.562   6.604   4.217
 1664SOL    HW2 5892   2.528   6.445   4.209
 1665SOL     OW 5893   0.384   1.450   3.056
 1665SOL    HW1 5894   0.387   1.550   3.054
 1665SOL    HW2 5895   0.472   1.413   3.028
 1666SOL     OW 5896   5.631   3.379   0.074
 1666SOL    HW1 5897   5.570   3.331   0.012
 1666SOL    HW2 5898   5.684   3.312   0.127
 1667SOL     OW 5899   6.888   6.604   1.376
 1667SOL    HW1 5900   6.878   6.683   1.436
 1667SOL    HW2 5901   6.933   6.631   1.291
 1668SOL     OW 5902   5.206   6.173   5.424
 1668SOL    HW1 5903   5.168   6.127   5.504
 1668SOL    HW2 5904   5.303   6.191   5.439
 1669SOL     OW 5905   0.454   5.752   6.301
 1669SOL    HW1 5906   0.501   5.701   6.229
 1669SOL    HW2 5907   0.479   5.848   6.296
 1670SOL     OW 5908   6.939   4.285   6.232
 1670SOL    HW1 5909   7.004   4.286   6.156
 1670SOL    HW2 5910   6.895   4.375   6.239
 1671SOL     OW 5911   4.959   3.077   0.625
 1671SOL    HW1 5912   4.949   3.108   0.531
 1671SOL    HW2 5913   5.006   2.988   0.626
 1672SOL     OW 5914   1.818   3.115   1.362
 1672SOL    HW1 5915   1.868   3.065   1.433
 1672SOL    HW2 5916   1.740   3.060   1.331
 1673SOL     OW 5917   0.295   2.325   3.853
 1673SOL    HW1 5918   0.207   2.373   3.844
 1673SOL    HW2 5919   0.306   2.262   3.776
 1674SOL     OW 5920   0.800   4.016   2.703
 1674SOL    HW1 5921   0.733   3.951   2.668
 1674SOL    HW2 5922   0.753   4.093   2.746
 1675SOL     OW 5923   4.191   0.680   5.866
 1675SOL    HW1 5924   4.131   0.756   5.840
 1675SOL    HW2 5925   4.156   0.638   5.950
 1676SOL     OW 5926   1.929   1.376   2.115
 1676SOL    HW1 5927   1.900   1.291   2.160
 1676SOL    HW2 5928   1.853   1.412   2.060
 1677SOL     OW 5929   3.779   3.323   5.668
 1677SOL    HW1 5930   3.793   3.420   5.648
 1677SOL    HW2 5931   3.811   3.269   5.591
 1678SOL     OW 5932   4.445   5.011   4.969
 1678SOL    HW1 5933   4.447   5.041   4.873
 1678SOL    HW2 5934   4.397   5.079   5.024
 1679SOL     OW 5935   2.222   2.869   5.221
 1679SOL    HW1 5936   2.255   2.879   5.315
 1679SOL    HW2 5937   2.298   2.882   5.158
 1680SOL     OW 5938   0.532   2.984   4.768
 1680SOL    HW1 5939   0.478   3.048   4.713
 1680SOL    HW2 5940   0.624   3.021   4.781
 1681SOL     OW 5941   6.316   5.585   0.136
 1681SOL    HW1 5942   6.229   5.567   0.089
 1681SOL    HW2 5943   6.297   5.629   0.223
 1682SOL     OW 5944   0.279   1.945   5.073
 1682SOL    HW1 5945   0.325   2.014   5.017
 1682SOL    HW2 5946   0.344   1.874   5.098
 1683SOL     OW 5947   4.114   5.654   1.094
 1683SOL    HW1 5948   4.043   5.585   1.081
 1683SOL    HW2 5949   4.189   5.616   1.147
 1684SOL     OW 5950   1.414   6.262   2.698
 1684SOL    HW1 5951   1.441   6.216   2.613
 1684SOL    HW2 5952   1.359   6.343   2.676
 1685SOL     OW 5953   2.178   1.152   5.688
 1685SOL    HW1 5954   2.149   1.232   5.742
 1685SOL    HW2 5955   2.188   1.179   5.592
 1686SOL     OW 5956   2.647   5.078   5.364
 1686SOL    HW1 5957   2.745   5.063   5.346
 1686SOL    HW2 5958   2.595   5.003   5.324
 1687SOL     OW 5959   2.422   3.321   1.179
 1687SOL    HW1 5960   2.359   3.304   1.255
 1687SOL    HW2 5961   2.399   3.260   1.103
 1688SOL     OW 5962   1.702   2.340   3.887
 1688SOL    HW1 5963   1.695   2.264   3.953
 1688SOL    HW2 5964   1.633   2.329   3.816
 1689SOL     OW 5965   4.874   0.898   2.523
 1689SOL    HW1 5966   4.805   0.914   2.452
 1689SOL    HW2 5967   4.855   0.812   2.570
 1690SOL     OW 5968   1.807   2.839   3.411
 1690SOL    HW1 5969   1.892   2.797   3.381
 1690SOL    HW2 5970   1.745   2.847   3.333
 1691SOL     OW 5971   5.528   4.407   3.497
 1691SOL    HW1 5972   5.476   4.394   3.413
 1691SOL    HW2 5973   5.525   4.324   3.553
 1692SOL     OW 5974   5.436   0.568   1.722
 1692SOL    HW1 5975   5.424   0.610   1.632
 1692SOL    HW2 5976   5.396   0.626   1.792
 1693SOL     OW 5977   0.399   2.243   2.389
 1693SOL    HW1 5978   0.380   2.300   2.469
 1693SOL    HW2 5979   0.380   2.147   2.412
 1694SOL     OW 5980   5.325   0.625   3.959
 1694SOL    HW1 5981   5.242   0.578   3.928
 1694SOL    HW2 5982   5.386   0.639   3.882
 1695SOL     OW 5983   2.827   1.407   6.290
 1695SOL    HW1 5984   2.732   1.382   6.304
 1695SOL    HW2 5985   2.851   1.395   6.194
 1696SOL     OW 5986   5.112   4.649   0.604
 1696SOL    HW1 5987   5.194   4.705   0.594
 1696SOL    HW2 5988   5.045   4.698   0.660
 1697SOL     OW 5989   5.351   6.313   1.906
 1697SOL    HW1 5990   5.252   6.298   1.902
 1697SOL    HW2 5991   5.371   6.375   1.982
 1698SOL     OW 5992   5.102   0.850   0.039
 1698SOL    HW1 5993   5.002   0.859   0.046
 1698SOL    HW2 5994   5.142   0.863   0.130
 1699SOL     OW 5995   2.698   1.341   0.720
 1699SOL    HW1 5996   2.787   1.367   0.683
 1699SOL    HW2 5997   2.660   1.267   0.665
 1700SOL     OW 5998   5.792   2.253   3.170
 1700SOL    HW1 5999   5.870   2.293   3.122
 1700SOL    HW2 6000   5.814   2.160   3.199
 1701SOL     OW 6001   5.565   4.516   5.561
 1701SOL    HW1 6002   5.467   4.506   5.541
 1701SOL    HW2 6003   5.589   4.458   5.639
 1702SOL     OW 6004   6.811   3.195   0.579
 1702SOL    HW1 6005   6.878   3.229   0.645
 1702SOL    HW2 6006   6.719   3.212   0.614
 1703SOL     OW 6007   3.894   3.108   2.178
 1703SOL    HW1 6008   3.823   3.039   2.171
 1703SOL    HW2 6009   3.957   3.100   2.101
 1704SOL     OW 6010   0.880   1.677   2.036
 1704SOL    HW1 6011   0.800   1.695   1.979
 1704SOL    HW2 6012   0.906   1.581   2.028
 1705SOL     OW 6013   3.653   2.400   1.324
 1705SOL    HW1 6014   3.638   2.365   1.417
 1705SOL    HW2 6015   3.752   2.405   1.306
 1706SOL     OW 6016   4.854   0.642   1.345
 1706SOL    HW1 6017   4.777   0.639   1.409
 1706SOL    HW2 6018   4.939   0.659   1.396
 1707SOL     OW 6019   4.969   1.535   2.548
 1707SOL    HW1 6020   4.894   1.592   2.515
 1707SOL    HW2 6021   5.034   1.591   2.600
 1708SOL     OW 6022   4.740   5.003   2.298
 1708SOL    HW1 6023   4.774   4.939   2.229
 1708SOL    HW2 6024   4.735   5.095   2.259
 1709SOL     OW 6025   2.546   5.700   1.343
 1709SOL    HW1 6026   2.454   5.665   1.323
 1709SOL    HW2 6027   2.558   5.788   1.297
 1710SOL     OW 6028   5.755   5.020   3.784
 1710SOL    HW1 6029   5.813   4.947   3.748
 1710SOL    HW2 6030   5.737   5.087   3.712
 1711SOL     OW 6031   1.233   5.018   4.456
 1711SOL    HW1 6032   1.245   4.920   4.472
 1711SOL    HW2 6033   1.140   5.035   4.422
 1712SOL     OW 6034   0.100   3.179   6.321
 1712SOL    HW1 6035   0.198   3.200   6.317
 1712SOL    HW2 6036   0.071   3.138   6.235
 1713SOL     OW 6037   3.929   2.141   1.472
 1713SOL    HW1 6038   3.997   2.069   1.485
 1713SOL    HW2 6039   3.885   2.161   1.559
 1714SOL     OW 6040   4.310   1.693   5.527
 1714SOL    HW1 6041   4.274   1.783   5.500
 1714SOL    HW2 6042   4.342   1.697   5.622
 1715SOL     OW 6043   0.202   4.243   2.762
 1715SOL    HW1 6044   0.165   4.310   2.697
 1715SOL    HW2 6045   0.299   4.263   2.779
 1716SOL     OW 6046   4.127   0.213   2.557
 1716SOL    HW1 6047   4.187   0.293   2.562
 1716SOL    HW2 6048   4.066   0.213   2.637
 1717SOL     OW 6049   2.486   6.120   6.218
 1717SOL    HW1 6050   2.464   6.108   6.315
 1717SOL    HW2 6051   2.583   6.100   6.202
 1718SOL     OW 6052   1.941   1.991   2.044
 1718SOL    HW1 6053   1.996   1.907   2.042
 1718SOL    HW2 6054   1.996   2.066   2.080
 1719SOL     OW 6055   1.966   4.030   0.787
 1719SOL    HW1 6056   2.048   3.995   0.741
 1719SOL    HW2 6057   1.986   4.049   0.883
 1720SOL     OW 6058   0.675   2.149   0.252
 1720SOL    HW1 6059   0.665   2.110   0.160
 1720SOL    HW2 6060   0.672   2.076   0.320
 1721SOL     OW 6061   1.225   6.484   2.287
 1721SOL    HW1 6062   1.191   6.516   2.199
 1721SOL    HW2 6063   1.188   6.393   2.306
 1722SOL     OW 6064   4.584   2.261   4.387
 1722SOL    HW1 6065   4.522   2.216   4.452
 1722SOL    HW2 6066   4.548   2.351   4.364
 1723SOL     OW 6067   6.949   2.496   2.574
 1723SOL    HW1 6068   6.949   2.471   2.477
 1723SOL    HW2 6069   6.909   2.587   2.584
 1724SOL     OW 6070   6.215   2.181   1.210
 1724SOL    HW1 6071   6.158   2.103   1.182
 1724SOL    HW2 6072   6.281   2.202   1.137
 1725SOL     OW 6073   2.354   4.660   6.511
 1725SOL    HW1 6074   2.365   4.634   6.607
 1725SOL    HW2 6075   2.427   4.618   6.457
 1726SOL     OW 6076   5.084   5.136   5.743
 1726SOL    HW1 6077   5.048   5.054   5.789
 1726SOL    HW2 6078   5.173   5.115   5.703
 1727SOL     OW 6079   3.838   3.382   4.488
 1727SOL    HW1 6080   3.836   3.449   4.414
 1727SOL    HW2 6081   3.748   3.339   4.497
 1728SOL     OW 6082   5.306   5.012   5.983
 1728SOL    HW1 6083   5.304   4.964   5.895
 1728SOL    HW2 6084   5.394   5.059   5.992
 1729SOL     OW 6085   1.970   3.569   3.780
 1729SOL    HW1 6086   1.990   3.603   3.871
 1729SOL    HW2 6087   1.919   3.638   3.729
 1730SOL     OW 6088   6.816   6.929   5.262
 1730SOL    HW1 6089   6.825   7.005   5.198
 1730SOL    HW2 6090   6.759   6.956   5.339
 1731SOL     OW 6091   6.847   4.747   2.026
 1731SOL    HW1 6092   6.831   4.652   2.053
 1731SOL    HW2 6093   6.938   4.756   1.985
 1732SOL     OW 6094   2.637   4.550   5.466
 1732SOL    HW1 6095   2.632   4.548   5.566
 1732SOL    HW2 6096   2.719   4.600   5.438
 1733SOL     OW 6097   1.215   4.068   2.420
 1733SOL    HW1 6098   1.131   4.046   2.370
 1733SOL    HW2 6099   1.198   4.057   2.518
 1734SOL     OW 6100   4.692   3.209   1.694
 1734SOL    HW1 6101   4.671   3.142   1.622
 1734SOL    HW2 6102   4.660   3.174   1.782
 1735SOL     OW 6103   5.565   5.906   1.371
 1735SOL    HW1 6104   5.528   5.950   1.453
 1735SOL    HW2 6105   5.649   5.857   1.395
 1736SOL     OW 6106   4.108   2.558   1.195
 1736SOL    HW1 6107   4.187   2.503   1.166
 1736SOL    HW2 6108   4.038   2.497   1.234
 1737SOL     OW 6109   2.563   1.311   3.955
 1737SOL    HW1 6110   2.514   1.283   4.038
 1737SOL    HW2 6111   2.639   1.371   3.980
 1738SOL     OW 6112   1.904   1.773   4.159
 1738SOL    HW1 6113   1.982   1.717   4.188
 1738SOL    HW2 6114   1.908   1.788   4.061
 1739SOL     OW 6115   5.703   2.151   5.592
 1739SOL    HW1 6116   5.691   2.182   5.687
 1739SOL    HW2 6117   5.629   2.087   5.569
 1740SOL     OW 6118   0.126   1.770   6.063
 1740SOL    HW1 6119   0.102   1.675   6.044
 1740SOL    HW2 6120   0.105   1.792   6.158
 1741SOL     OW 6121   2.356   0.670   3.743
 1741SOL    HW1 6122   2.422   0.638   3.811
 1741SOL    HW2 6123   2.370   0.768   3.727
 1742SOL     OW 6124   4.940   0.211   6.186
 1742SOL    HW1 6125   5.009   0.254   6.129
 1742SOL    HW2 6126   4.859   0.270   6.191
 1743SOL     OW 6127   1.614   2.191   2.215
 1743SOL    HW1 6128   1.605   2.092   2.226
 1743SOL    HW2 6129   1.583   2.217   2.123
 1744SOL     OW 6130   0.690   0.471   1.787
 1744SOL    HW1 6131   0.789   0.466   1.799
 1744SOL    HW2 6132   0.650   0.533   1.855
 1745SOL     OW 6133   6.409   0.860   3.720
 1745SOL    HW1 6134   6.450   0.944   3.685
 1745SOL    HW2 6135   6.405   0.792   3.647
 1746SOL     OW 6136   2.445   4.619   5.263
 1746SOL    HW1 6137   2.513   4.612   5.190
 1746SOL    HW2 6138   2.484   4.582   5.348
 1747SOL     OW 6139   6.008   1.544   2.821
 1747SOL    HW1 6140   5.983   1.575   2.912
 1747SOL    HW2 6141   5.942   1.476   2.789
 1748SOL     OW 6142   0.633   0.924   3.905
 1748SOL    HW1 6143   0.675   1.004   3.861
 1748SOL    HW2 6144   0.544   0.906   3.863
 1749SOL     OW 6145   2.457   0.229   4.814
 1749SOL    HW1 6146   2.401   0.301   4.772
 1749SOL    HW2 6147   2.447   0.233   4.913
 1750SOL     OW 6148   6.677   6.814   3.675
 1750SOL    HW1 6149   6.640   6.863   3.596
 1750SOL    HW2 6150   6.699   6.879   3.748
 1751SOL     OW 6151   4.204   5.929   4.996
 1751SOL    HW1 6152   4.205   6.019   5.040
 1751SOL    HW2 6153   4.169   5.861   5.060
 1752SOL     OW 6154   0.426   2.312   1.914
 1752SOL    HW1 6155   0.360   2.312   1.989
 1752SOL    HW2 6156   0.490   2.236   1.925
 1753SOL     OW 6157   0.409   2.181   0.511
 1753SOL    HW1 6158   0.392   2.181   0.413
 1753SOL    HW2 6159   0.321   2.189   0.560
 1754SOL     OW 6160   2.998   3.416   0.646
 1754SOL    HW1 6161   2.915   3.455   0.685
 1754SOL    HW2 6162   3.049   3.367   0.717
 1755SOL     OW 6163   6.280   6.313   1.871
 1755SOL    HW1 6164   6.377   6.332   1.854
 1755SOL    HW2 6165   6.229   6.399   1.870
 1756SOL     OW 6166   4.209   4.532   5.874
 1756SOL    HW1 6167   4.115   4.505   5.858
 1756SOL    HW2 6168   4.252   4.468   5.939
 1757SOL     OW 6169   2.641   4.980   4.986
 1757SOL    HW1 6170   2.735   5.008   4.969
 1757SOL    HW2 6171   2.600   5.041   5.054
 1758SOL     OW 6172   2.576   0.415   4.059
 1758SOL    HW1 6173   2.555   0.505   4.022
 1758SOL    HW2 6174   2.584   0.349   3.984
 1759SOL     OW 6175   2.046   5.266   6.209
 1759SOL    HW1 6176   2.108   5.342   6.189
 1759SOL    HW2 6177   1.956   5.301   6.232
 1760SOL     OW 6178   5.694   2.349   2.310
 1760SOL    HW1 6179   5.774   2.386   2.357
 1760SOL    HW2 6180   5.623   2.419   2.305
 1761SOL     OW 6181   0.584   0.030   0.308
 1761SOL    HW1 6182   0.493   0.049   0.344
 1761SOL    HW2 6183   0.577   0.001   0.212
 1762SOL     OW 6184   7.022   2.001   4.788
 1762SOL    HW1 6185   0.057   2.060   4.738
 1762SOL    HW2 6186   0.029   1.989   4.882
 1763SOL     OW 6187   1.875   3.800   3.966
 1763SOL    HW1 6188   1.817   3.728   4.005
 1763SOL    HW2 6189   1.874   3.794   3.866
 1764SOL     OW 6190   2.113   3.604   2.150
 1764SOL    HW1 6191   2.062   3.651   2.077
 1764SOL    HW2 6192   2.155   3.521   2.114
 1765SOL     OW 6193   4.196   1.730   0.542
 1765SOL    HW1 6194   4.206   1.825   0.513
 1765SOL    HW2 6195   4.250   1.671   0.481
 1766SOL     OW 6196   4.937   3.175   3.003
 1766SOL    HW1 6197   4.903   3.081   3.003
 1766SOL    HW2 6198   4.914   3.219   2.916
 1767SOL     OW 6199   6.968   3.880   2.678
 1767SOL    HW1 6200   7.021   3.829   2.745
 1767SOL    HW2 6201   6.928   3.961   2.722
 1768SOL     OW 6202   4.002   1.576   5.210
 1768SOL    HW1 6203   4.093   1.604   5.181
 1768SOL    HW2 6204   4.008   1.489   5.260
 1769SOL     OW 6205   4.629   2.883   5.531
 1769SOL    HW1 6206   4.614   2.910   5.436
 1769SOL    HW2 6207   4.716   2.835   5.540
 1770SOL     OW 6208   0.193   5.367   4.548
 1770SOL    HW1 6209   0.157   5.428   4.477
 1770SOL    HW2 6210   0.261   5.306   4.508
 1771SOL     OW 6211   2.199   5.432   0.146
 1771SOL    HW1 6212   2.180   5.518   0.193
 1771SOL    HW2 6213   2.248   5.450   0.061
 1772SOL     OW 6214   3.719   6.287   3.209
 1772SOL    HW1 6215   3.677   6.343   3.138
 1772SOL    HW2 6216   3.654   6.216   3.237
 1773SOL     OW 6217   3.251   4.593   6.816
 1773SOL    HW1 6218   3.176   4.575   6.880
 1773SOL    HW2 6219   3.221   4.660   6.748
 1774SOL     OW 6220   4.550   6.709   1.562
 1774SOL    HW1 6221   4.622   6.743   1.623
 1774SOL    HW2 6222   4.538   6.773   1.486
 1775SOL     OW 6223   1.439   5.166   4.021
 1775SOL    HW1 6224   1.432   5.099   4.095
 1775SOL    HW2 6225   1.366   5.149   3.954
 1776SOL     OW 6226   3.245   0.915   5.485
 1776SOL    HW1 6227   3.303   0.995   5.466
 1776SOL    HW2 6228   3.153   0.946   5.508
 1777SOL     OW 6229   3.259   5.482   5.812
 1777SOL    HW1 6230   3.289   5.577   5.819
 1777SOL    HW2 6231   3.338   5.421   5.812
 1778SOL     OW 6232   4.961   2.142   4.764
 1778SOL    HW1 6233   5.033   2.172   4.827
 1778SOL    HW2 6234   4.953   2.043   4.768
 1779SOL     OW 6235   4.725   1.437   4.580
 1779SOL    HW1 6236   4.715   1.512   4.645
 1779SOL    HW2 6237   4.817   1.398   4.587
 1780SOL     OW 6238   2.609   4.422   5.978
 1780SOL    HW1 6239   2.584   4.338   6.026
 1780SOL    HW2 6240   2.570   4.501   6.025
 1781SOL     OW 6241   4.412   5.203   3.846
 1781SOL    HW1 6242   4.421   5.142   3.925
 1781SOL    HW2 6243   4.465   5.165   3.770
 1782SOL     OW 6244   2.978   1.828   3.049
 1782SOL    HW1 6245   2.938   1.877   3.127
 1782SOL    HW2 6246   3.075   1.812   3.066
 1783SOL     OW 6247   1.857   3.677   6.540
 1783SOL    HW1 6248   1.856   3.761   6.594
 1783SOL    HW2 6249   1.889   3.697   6.447
 1784SOL     OW 6250   3.203   0.984   4.415
 1784SOL    HW1 6251   3.117   0.934   4.427
 1784SOL    HW2 6252   3.267   0.928   4.363
 1785SOL     OW 6253   5.233   6.187   3.829
 1785SOL    HW1 6254   5.272   6.227   3.746
 1785SOL    HW2 6255   5.208   6.091   3.812
 1786SOL     OW 6256   1.321   3.063   1.163
 1786SOL    HW1 6257   1.399   3.119   1.136
 1786SOL    HW2 6258   1.298   2.999   1.089
 1787SOL     OW 6259   2.260   1.048   4.429
 1787SOL    HW1 6260   2.252   1.146   4.413
 1787SOL    HW2 6261   2.336   1.030   4.491
 1788SOL     OW 6262   3.464   3.139   0.676
 1788SOL    HW1 6263   3.365   3.136   0.684
 1788SOL    HW2 6264   3.503   3.052   0.704
 1789SOL     OW 6265   6.587   2.287   2.299
 1789SOL    HW1 6266   6.558   2.268   2.392
 1789SOL    HW2 6267   6.525   2.242   2.235
 1790SOL     OW 6268   3.896   6.423   4.018
 1790SOL    HW1 6269   3.882   6.385   4.109
 1790SOL    HW2 6270   3.987   6.397   3.985
 1791SOL     OW 6271   0.564   1.866   4.467
 1791SOL    HW1 6272   0.506   1.946   4.453
 1791SOL    HW2 6273   0.574   1.817   4.380
 1792SOL     OW 6274   0.355   2.524   4.241
 1792SOL    HW1 6275   0.345   2.549   4.144
 1792SOL    HW2 6276   0.422   2.585   4.284
 1793SOL     OW 6277   6.620   0.406   3.902
 1793SOL    HW1 6278   6.592   0.432   3.810
 1793SOL    HW2 6279   6.579   0.468   3.969
 1794SOL     OW 6280   5.029   6.016   6.605
 1794SOL    HW1 6281   5.068   6.098   6.563
 1794SOL    HW2 6282   5.024   5.943   6.536
 1795SOL     OW 6283   0.588   3.795   2.184
 1795SOL    HW1 6284   0.638   3.879   2.206
 1795SOL    HW2 6285   0.516   3.815   2.119
 1796SOL     OW 6286   2.182   1.328   4.280
 1796SOL    HW1 6287   2.088   1.363   4.275
 1796SOL    HW2 6288   2.187   1.241   4.230
 1797SOL     OW 6289   0.975   1.087   6.320
 1797SOL    HW1 6290   0.952   0.990   6.319
 1797SOL    HW2 6291   0.977   1.119   6.415
 1798SOL     OW 6292   4.826   2.501   5.265
 1798SOL    HW1 6293   4.923   2.479   5.253
 1798SOL    HW2 6294   4.771   2.448   5.200
 1799SOL     OW 6295   6.787   1.658   6.436
 1799SOL    HW1 6296   6.725   1.737   6.429
 1799SOL    HW2 6297   6.870   1.677   6.385
 1800SOL     OW 6298   4.567   5.622   3.272
 1800SOL    HW1 6299   4.518   5.557   3.330
 1800SOL    HW2 6300   4.543   5.715   3.298
 1801SOL     OW 6301   0.813   1.119   2.021
 1801SOL    HW1 6302   0.810   1.162   2.112
 1801SOL    HW2 6303   0.835   1.189   1.953
 1802SOL     OW 6304   5.064   5.110   2.177
 1802SOL    HW1 6305   5.158   5.077   2.163
 1802SOL    HW2 6306   5.040   5.101   2.273
 1803SOL     OW 6307   6.795   6.136   0.867
 1803SOL    HW1 6308   6.859   6.171   0.936
 1803SOL    HW2 6309   6.742   6.061   0.906
 1804SOL     OW 6310   2.107   3.637   6.120
 1804SOL    HW1 6311   2.199   3.677   6.122
 1804SOL    HW2 6312   2.076   3.629   6.025
 1805SOL     OW 6313   0.264   4.019   5.512
 1805SOL    HW1 6314   0.294   4.068   5.593
 1805SOL    HW2 6315   0.165   4.032   5.499
 1806SOL     OW 6316   1.260   1.377   0.920
 1806SOL    HW1 6317   1.321   1.334   0.853
 1806SOL    HW2 6318   1.203   1.307   0.963
 1807SOL     OW 6319   5.313   2.411   5.978
 1807SOL    HW1 6320   5.296   2.353   5.899
 1807SOL    HW2 6321   5.238   2.477   5.988
 1808SOL     OW 6322   6.531   3.502   5.646
 1808SOL    HW1 6323   6.609   3.496   5.709
 1808SOL    HW2 6324   6.532   3.592   5.601
 1809SOL     OW 6325   2.071   3.172   4.374
 1809SOL    HW1 6326   2.034   3.261   4.347
 1809SOL    HW2 6327   2.109   3.178   4.466
 1810SOL     OW 6328   2.362   0.729   5.734
 1810SOL    HW1 6329   2.300   0.807   5.731
 1810SOL    HW2 6330   2.430   0.737   5.661
 1811SOL     OW 6331   4.310   4.642   3.522
 1811SOL    HW1 6332   4.341   4.567   3.464
 1811SOL    HW2 6333   4.224   4.679   3.487
 1812SOL     OW 6334   4.284   6.997   6.304
 1812SOL    HW1 6335   4.336   6.935   6.363
 1812SOL    HW2 6336   4.341   0.048   6.280
 1813SOL     OW 6337   4.388   4.901   1.119
 1813SOL    HW1 6338   4.325   4.870   1.047
 1813SOL    HW2 6339   4.417   4.994   1.099
 1814SOL     OW 6340   6.434   0.600   0.219
 1814SOL    HW1 6341   6.488   0.605   0.135
 1814SOL    HW2 6342   6.442   0.508   0.258
 1815SOL     OW 6343   6.612   2.136   1.663
 1815SOL    HW1 6344   6.633   2.059   1.724
 1815SOL    HW2 6345   6.681   2.208   1.674
 1816SOL     OW 6346   1.623   3.972   1.118
 1816SOL    HW1 6347   1.684   3.997   1.194
 1816SOL    HW2 6348   1.562   3.898   1.146
 1817SOL     OW 6349   3.256   6.505   3.261
 1817SOL    HW1 6350   3.214   6.591   3.289
 1817SOL    HW2 6351   3.229   6.432   3.323
 1818SOL     OW 6352   1.916   6.352   2.461
 1818SOL    HW1 6353   1.971   6.378   2.541
 1818SOL    HW2 6354   1.918   6.252   2.452
 1819SOL     OW 6355   0.645   5.230   1.613
 1819SOL    HW1 6356   0.558   5.265   1.579
 1819SOL    HW2 6357   0.716   5.246   1.545
 1820SOL     OW 6358   3.727   0.980   2.774
 1820SOL    HW1 6359   3.717   0.954   2.870
 1820SOL    HW2 6360   3.788   0.916   2.728
 1821SOL     OW 6361   2.382   0.760   1.906
 1821SOL    HW1 6362   2.319   0.693   1.867
 1821SOL    HW2 6363   2.355   0.852   1.879
 1822SOL     OW 6364   2.186   3.012   1.060
 1822SOL    HW1 6365   2.101   3.051   1.096
 1822SOL    HW2 6366   2.200   3.045   0.967
 1823SOL     OW 6367   2.719   5.912   3.008
 1823SOL    HW1 6368   2.713   5.815   3.028
 1823SOL    HW2 6369   2.669   5.932   2.923
 1824SOL     OW 6370   3.344   4.385   1.550
 1824SOL    HW1 6371   3.410   4.404   1.622
 1824SOL    HW2 6372   3.382   4.318   1.486
 1825SOL     OW 6373   1.199   2.417   3.484
 1825SOL    HW1 6374   1.296   2.438   3.478
 1825SOL    HW2 6375   1.186   2.320   3.504
 1826SOL     OW 6376   2.977   0.391   0.689
 1826SOL    HW1 6377   3.051   0.339   0.731
 1826SOL    HW2 6378   2.910   0.416   0.760
 1827SOL     OW 6379   0.591   5.563   1.634
 1827SOL    HW1 6380   0.527   5.622   1.683
 1827SOL    HW2 6381   0.556   5.469   1.633
 1828SOL     OW 6382   1.078   2.438   0.663
 1828SOL    HW1 6383   1.041   2.409   0.751
 1828SOL    HW2 6384   1.024   2.397   0.589
 1829SOL     OW 6385   3.053   0.956   3.150
 1829SOL    HW1 6386   2.954   0.943   3.146
 1829SOL    HW2 6387   3.086   0.995   3.064
 1830SOL     OW 6388   6.617   6.244   3.838
 1830SOL    HW1 6389   6.520   6.220   3.833
 1830SOL    HW2 6390   6.628   6.341   3.812
 1831SOL     OW 6391   6.319   0.180   2.593
 1831SOL    HW1 6392   6.266   0.169   2.677
 1831SOL    HW2 6393   6.257   0.174   2.514
 1832SOL     OW 6394   4.573   1.053   1.581
 1832SOL    HW1 6395   4.570   1.152   1.596
 1832SOL    HW2 6396   4.500   1.027   1.518
 1833SOL     OW 6397   5.286   0.432   0.225
 1833SOL    HW1 6398   5.293   0.531   0.207
 1833SOL    HW2 6399   5.238   0.418   0.312
 1834SOL     OW 6400   3.387   3.471   0.635
 1834SOL    HW1 6401   3.416   3.437   0.546
 1834SOL    HW2 6402   3.352   3.564   0.624
 1835SOL     OW 6403   0.138   4.341   2.491
 1835SOL    HW1 6404   0.162   4.375   2.400
 1835SOL    HW2 6405   0.049   4.296   2.488
 1836SOL     OW 6406   5.010   2.251   1.537
 1836SOL    HW1 6407   5.009   2.351   1.536
 1836SOL    HW2 6408   5.044   2.218   1.625
 1837SOL     OW 6409   1.107   0.667   5.084
 1837SOL    HW1 6410   1.048   0.655   5.004
 1837SOL    HW2 6411   1.154   0.581   5.104
 1838SOL     OW 6412   0.059   1.693   4.914
 1838SOL    HW1 6413   7.007   1.632   4.919
 1838SOL    HW2 6414   0.076   1.717   4.818
 1839SOL     OW 6415   5.928   2.218   5.246
 1839SOL    HW1 6416   5.957   2.313   5.258
 1839SOL    HW2 6417   5.916   2.174   5.335
 1840SOL     OW 6418   3.493   6.817   1.151
 1840SOL    HW1 6419   3.426   6.864   1.210
 1840SOL    HW2 6420   3.481   6.718   1.159
 1841SOL     OW 6421   2.493   0.973   3.213
 1841SOL    HW1 6422   2.513   1.001   3.119
 1841SOL    HW2 6423   2.524   0.878   3.227
 1842SOL     OW 6424   1.879   5.804   0.200
 1842SOL    HW1 6425   1.861   5.868   0.126
 1842SOL    HW2 6426   1.900   5.856   0.284
 1843SOL     OW 6427   6.209   2.378   3.301
 1843SOL    HW1 6428   6.127   2.402   3.354
 1843SOL    HW2 6429   6.188   2.384   3.204
 1844SOL     OW 6430   3.065   6.787   5.706
 1844SOL    HW1 6431   3.089   6.882   5.690
 1844SOL    HW2 6432   2.965   6.778   5.708
 1845SOL     OW 6433   2.137   0.277   4.867
 1845SOL    HW1 6434   2.157   0.375   4.876
 1845SOL    HW2 6435   2.168   0.244   4.778
 1846SOL     OW 6436   4.166   1.901   1.262
 1846SOL    HW1 6437   4.195   1.979   1.317
 1846SOL    HW2 6438   4.075   1.920   1.223
 1847SOL     OW 6439   1.410   1.131   6.695
 1847SOL    HW1 6440   1.403   1.052   6.634
 1847SOL    HW2 6441   1.472   1.109   6.770
 1848SOL     OW 6442   1.064   6.126   2.953
 1848SOL    HW1 6443   1.065   6.224   2.974
 1848SOL    HW2 6444   0.973   6.089   2.967
 1849SOL     OW 6445   4.416   2.521   0.904
 1849SOL    HW1 6446   4.478   2.531   0.827
 1849SOL    HW2 6447   4.327   2.487   0.872
 1850SOL     OW 6448   0.900   2.608   1.535
 1850SOL    HW1 6449   0.825   2.636   1.595
 1850SOL    HW2 6450   0.987   2.633   1.577
 1851SOL     OW 6451   6.771   2.627   0.277
 1851SOL    HW1 6452   6.703   2.685   0.320
 1851SOL    HW2 6453   6.853   2.624   0.334
 1852SOL     OW 6454   6.202   4.590   2.490
 1852SOL    HW1 6455   6.104   4.604   2.482
 1852SOL    HW2 6456   6.221   4.493   2.505
 1853SOL     OW 6457   6.986   2.126   2.770
 1853SOL    HW1 6458   6.910   2.190   2.757
 1853SOL    HW2 6459   0.045   2.178   2.773
 1854SOL     OW 6460   2.647   5.647   2.999
 1854SOL    HW1 6461   2.605   5.640   2.909
 1854SOL    HW2 6462   2.638   5.559   3.047
 1855SOL     OW 6463   4.994   2.922   5.432
 1855SOL    HW1 6464   5.059   2.904   5.506
 1855SOL    HW2 6465   4.974   3.019   5.428
 1856SOL     OW 6466   6.150   3.974   5.970
 1856SOL    HW1 6467   6.221   4.039   5.999
 1856SOL    HW2 6468   6.178   3.931   5.884
 1857SOL     OW 6469   4.592   1.970   5.843
 1857SOL    HW1 6470   4.539   1.889   5.819
 1857SOL    HW2 6471   4.689   1.945   5.849
 1858SOL     OW 6472   5.755   3.826   4.164
 1858SOL    HW1 6473   5.780   3.786   4.253
 1858SOL    HW2 6474   5.782   3.763   4.091
 1859SOL     OW 6475   5.414   2.554   3.328
 1859SOL    HW1 6476   5.406   2.476   3.390
 1859SOL    HW2 6477   5.367   2.534   3.242
 1860SOL     OW 6478   6.666   0.326   5.236
 1860SOL    HW1 6479   6.617   0.292   5.155
 1860SOL    HW2 6480   6.679   0.424   5.227
 1861SOL     OW 6481   6.122   6.657   2.303
 1861SOL    HW1 6482   6.041   6.602   2.284
 1861SOL    HW2 6483   6.133   6.668   2.402
 1862SOL     OW 6484   2.050   0.448   6.287
 1862SOL    HW1 6485   2.082   0.385   6.216
 1862SOL    HW2 6486   2.092   0.425   6.374
 1863SOL     OW 6487   0.563   2.673   3.318
 1863SOL    HW1 6488   0.629   2.651   3.247
 1863SOL    HW2 6489   0.605   2.733   3.385
 1864SOL     OW 6490   1.443   0.259   5.021
 1864SOL    HW1 6491   1.471   0.204   4.943
 1864SOL    HW2 6492   1.477   0.217   5.106
 1865SOL     OW 6493   3.270   6.600   6.428
 1865SOL    HW1 6494   3.238   6.676   6.372
 1865SOL    HW2 6495   3.198   6.575   6.494
 1866SOL     OW 6496   4.653   4.886   3.043
 1866SOL    HW1 6497   4.633   4.822   2.969
 1866SOL    HW2 6498   4.724   4.847   3.102
 1867SOL     OW 6499   0.561   3.693   0.206
 1867SOL    HW1 6500   0.538   3.789   0.195
 1867SOL    HW2 6501   0.489   3.648   0.259
 1868SOL     OW 6502   5.182   3.144   6.350
 1868SOL    HW1 6503   5.236   3.221   6.318
 1868SOL    HW2 6504   5.196   3.066   6.289
 1869SOL     OW 6505   5.982   3.020   5.799
 1869SOL    HW1 6506   6.065   3.036   5.745
 1869SOL    HW2 6507   5.988   3.071   5.884
 1870SOL     OW 6508   1.122   3.238   5.152
 1870SOL    HW1 6509   1.206   3.258   5.101
 1870SOL    HW2 6510   1.129   3.276   5.244
 1871SOL     OW 6511   0.819   0.686   6.610
 1871SOL    HW1 6512   0.815   0.652   6.704
 1871SOL    HW2 6513   0.901   0.742   6.600
 1872SOL     OW 6514   3.852   1.608   6.782
 1872SOL    HW1 6515   3.797   1.690   6.767
 1872SOL    HW2 6516   3.943   1.621   6.743
 1873SOL     OW 6517   5.304   0.879   6.252
 1873SOL    HW1 6518   5.371   0.918   6.314
 1873SOL    HW2 6519   5.242   0.818   6.302
 1874SOL     OW 6520   2.962   1.431   0.597
 1874SOL    HW1 6521   3.012   1.386   0.671
 1874SOL    HW2 6522   3.019   1.432   0.514
 1875SOL     OW 6523   0.090   0.625   6.654
 1875SOL    HW1 6524   0.186   0.641   6.634
 1875SOL    HW2 6525   0.060   0.541   6.610
 1876SOL     OW 6526   3.712   6.120   6.213
 1876SOL    HW1 6527   3.787   6.083   6.267
 1876SOL    HW2 6528   3.627   6.073   6.237
 1877SOL     OW 6529   0.782   1.190   3.167
 1877SOL    HW1 6530   0.865   1.135   3.177
 1877SOL    HW2 6531   0.706   1.132   3.139
 1878SOL     OW 6532   6.956   2.789   4.134
 1878SOL    HW1 6533   6.952   2.820   4.039
 1878SOL    HW2 6534   6.889   2.716   4.148
 1879SOL     OW 6535   1.925   5.500   3.750
 1879SOL    HW1 6536   1.856   5.435   3.719
 1879SOL    HW2 6537   1.900   5.535   3.840
 1880SOL     OW 6538   6.975   0.556   4.350
 1880SOL    HW1 6539   6.889   0.601   4.376
 1880SOL    HW2 6540   0.007   0.621   4.302
 1881SOL     OW 6541   6.868   3.195   2.662
 1881SOL    HW1 6542   6.808   3.131   2.614
 1881SOL    HW2 6543   6.858   3.183   2.761
 1882SOL     OW 6544   1.436   3.731   6.609
 1882SOL    HW1 6545   1.506   3.708   6.541
 1882SOL    HW2 6546   1.349   3.749   6.563
 1883SOL     OW 6547   0.900   2.252   3.523
 1883SOL    HW1 6548   0.978   2.190   3.531
 1883SOL    HW2 6549   0.933   2.345   3.508
 1884SOL     OW 6550   6.314   3.214   0.241
 1884SOL    HW1 6551   6.324   3.238   0.145
 1884SOL    HW2 6552   6.344   3.291   0.298
 1885SOL     OW 6553   1.179   1.935   6.025
 1885SOL    HW1 6554   1.210   1.847   6.063
 1885SOL    HW2 6555   1.206   2.009   6.087
 1886SOL     OW 6556   2.673   0.579   1.356
 1886SOL    HW1 6557   2.705   0.575   1.451
 1886SOL    HW2 6558   2.587   0.629   1.352
 1887SOL     OW 6559   1.339   5.942   5.428
 1887SOL    HW1 6560   1.379   6.031   5.411
 1887SOL    HW2 6561   1.411   5.873   5.435
 1888SOL     OW 6562   2.899   2.366   6.956
 1888SOL    HW1 6563   2.992   2.366   6.993
 1888SOL    HW2 6564   2.834   2.359   0.005
 1889SOL     OW 6565   0.115   2.867   5.971
 1889SOL    HW1 6566   0.076   2.959   5.969
 1889SOL    HW2 6567   0.169   2.852   5.888
 1890SOL     OW 6568   1.518   6.764   4.207
 1890SOL    HW1 6569   1.454   6.731   4.137
 1890SOL    HW2 6570   1.602   6.710   4.203
 1891SOL     OW 6571   5.545   2.187   2.696
 1891SOL    HW1 6572   5.464   2.128   2.694
 1891SOL    HW2 6573   5.586   2.184   2.786
 1892SOL     OW 6574   2.591   1.194   1.363
 1892SOL    HW1 6575   2.670   1.195   1.301
 1892SOL    HW2 6576   2.547   1.284   1.362
 1893SOL     OW 6577   3.876   2.796   6.910
 1893SOL    HW1 6578   3.803   2.863   6.924
 1893SOL    HW2 6579   3.964   2.843   6.907
 1894SOL     OW 6580   3.994   3.640   3.772
 1894SOL    HW1 6581   3.898   3.630   3.746
 1894SOL    HW2 6582   4.041   3.698   3.706
 1895SOL     OW 6583   4.658   0.676   1.530
 1895SOL    HW1 6584   4.685   0.770   1.548
 1895SOL    HW2 6585   4.678   0.620   1.611
 1896SOL     OW 6586   6.418   0.151   1.385
 1896SOL    HW1 6587   6.503   0.131   1.336
 1896SOL    HW2 6588   6.386   0.068   1.430
 1897SOL     OW 6589   1.994   4.101   1.915
 1897SOL    HW1 6590   1.928   4.043   1.962
 1897SOL    HW2 6591   1.959   4.195   1.911
 1898SOL     OW 6592   2.361   5.248   2.869
 1898SOL    HW1 6593   2.329   5.309   2.797
 1898SOL    HW2 6594   2.358   5.296   2.957
 1899SOL     OW 6595   1.294   0.791   2.610
 1899SOL    HW1 6596   1.316   0.788   2.513
 1899SOL    HW2 6597   1.196   0.811   2.622
 1900SOL     OW 6598   1.031   0.381   6.363
 1900SOL    HW1 6599   0.967   0.447   6.325
 1900SOL    HW2 6600   0.995   0.346   6.450
 1901SOL     OW 6601   1.768   2.121   0.305
 1901SOL    HW1 6602   1.843   2.150   0.365
 1901SOL    HW2 6603   1.799   2.124   0.210
 1902SOL     OW 6604   2.167   2.150   4.775
 1902SOL    HW1 6605   2.258   2.172   4.740
 1902SOL    HW2 6606   2.129   2.231   4.820
 1903SOL     OW 6607   0.103   3.263   2.511
 1903SOL    HW1 6608   0.013   3.244   2.550
 1903SOL    HW2 6609   0.122   3.198   2.437
 1904SOL     OW 6610   5.983   6.298   3.505
 1904SOL    HW1 6611   5.964   6.361   3.429
 1904SOL    HW2 6612   6.080   6.300   3.527
 1905SOL     OW 6613   2.157   0.616   3.953
 1905SOL    HW1 6614   2.233   0.634   3.892
 1905SOL    HW2 6615   2.161   0.678   4.031
 1906SOL     OW 6616   2.112   0.217   5.148
 1906SOL    HW1 6617   2.161   0.292   5.193
 1906SOL    HW2 6618   2.116   0.229   5.049
 1907SOL     OW 6619   3.260   0.270   2.687
 1907SOL    HW1 6620   3.296   0.218   2.609
 1907SOL    HW2 6621   3.259   0.212   2.768
 1908SOL     OW 6622   3.684   6.758   5.240
 1908SOL    HW1 6623   3.646   6.673   5.276
 1908SOL    HW2 6624   3.695   6.824   5.314
 1909SOL     OW 6625   0.562   3.893   2.628
 1909SOL    HW1 6626   0.636   3.858   2.570
 1909SOL    HW2 6627   0.475   3.853   2.599
 1910SOL     OW 6628   0.175   3.009   6.507
 1910SOL    HW1 6629   0.136   3.068   6.436
 1910SOL    HW2 6630   0.197   3.064   6.587
 1911SOL     OW 6631   6.252   3.512   5.556
 1911SOL    HW1 6632   6.349   3.537   5.566
 1911SOL    HW2 6633   6.235   3.484   5.462
 1912SOL     OW 6634   3.877   5.727   0.632
 1912SOL    HW1 6635   3.971   5.700   0.609
 1912SOL    HW2 6636   3.870   5.827   0.631
 1913SOL     OW 6637   2.106   6.498   4.447
 1913SOL    HW1 6638   2.163   6.580   4.443
 1913SOL    HW2 6639   2.151   6.430   4.505
 1914SOL     OW 6640   3.577   3.064   6.486
 1914SOL    HW1 6641   3.670   3.030   6.473
 1914SOL    HW2 6642   3.549   3.051   6.581
 1915SOL     OW 6643   4.161   2.237   5.237
 1915SOL    HW1 6644   4.180   2.335   5.241
 1915SOL    HW2 6645   4.089   2.220   5.169
 1916SOL     OW 6646   3.828   5.825   1.450
 1916SOL    HW1 6647   3.777   5.911   1.456
 1916SOL    HW2 6648   3.768   5.753   1.415
 1917SOL     OW 6649   2.918   3.072   5.547
 1917SOL    HW1 6650   2.908   3.161   5.502
 1917SOL    HW2 6651   2.896   2.999   5.483
 1918SOL     OW 6652   1.121   1.222   5.370
 1918SOL    HW1 6653   1.157   1.315   5.363
 1918SOL    HW2 6654   1.194   1.160   5.399
 1919SOL     OW 6655   1.905   0.364   1.765
 1919SOL    HW1 6656   1.827   0.382   1.825
 1919SOL    HW2 6657   1.954   0.450   1.748
 1920SOL     OW 6658   0.870   3.695   2.863
 1920SOL    HW1 6659   0.861   3.639   2.781
 1920SOL    HW2 6660   0.842   3.789   2.843
 1921SOL     OW 6661   1.247   4.163   6.311
 1921SOL    HW1 6662   1.182   4.106   6.363
 1921SOL    HW2 6663   1.340   4.132   6.329
 1922SOL     OW 6664   2.080   3.802   1.066
 1922SOL    HW1 6665   2.053   3.806   1.162
 1922SOL    HW2 6666   2.155   3.866   1.049
 1923SOL     OW 6667   3.408   0.681   5.477
 1923SOL    HW1 6668   3.485   0.717   5.425
 1923SOL    HW2 6669   3.344   0.756   5.497
 1924SOL     OW 6670   5.144   5.892   1.079
 1924SOL    HW1 6671   5.046   5.880   1.092
 1924SOL    HW2 6672   5.193   5.830   1.141
 1925SOL     OW 6673   2.052   5.014   0.623
 1925SOL    HW1 6674   1.983   5.019   0.695
 1925SOL    HW2 6675   2.022   5.066   0.543
 1926SOL     OW 6676   2.224   6.724   3.000
 1926SOL    HW1 6677   2.222   6.790   3.075
 1926SOL    HW2 6678   2.275   6.762   2.924
 1927SOL     OW 6679   2.437   4.349   0.233
 1927SOL    HW1 6680   2.380   4.398   0.300
 1927SOL    HW2 6681   2.513   4.304   0.281
 1928SOL     OW 6682   6.871   4.449   5.476
 1928SOL    HW1 6683   6.825   4.367   5.441
 1928SOL    HW2 6684   6.805   4.524   5.480
 1929SOL     OW 6685   1.725   5.897   1.639
 1929SOL    HW1 6686   1.726   5.993   1.665
 1929SOL    HW2 6687   1.814   5.871   1.602
 1930SOL     OW 6688   3.559   4.250   6.253
 1930SOL    HW1 6689   3.648   4.217   6.224
 1930SOL    HW2 6690   3.505   4.173   6.289
 1931SOL     OW 6691   1.022   2.506   1.958
 1931SOL    HW1 6692   1.050   2.410   1.951
 1931SOL    HW2 6693   0.966   2.530   1.878
 1932SOL     OW 6694   4.754   2.819   3.239
 1932SOL    HW1 6695   4.843   2.774   3.240
 1932SOL    HW2 6696   4.682   2.752   3.254
 1933SOL     OW 6697   2.137   3.157   0.847
 1933SOL    HW1 6698   2.063   3.224   0.857
 1933SOL    HW2 6699   2.129   3.111   0.758
 1934SOL     OW 6700   0.333   6.630   5.338
 1934SOL    HW1 6701   0.420   6.609   5.294
 1934SOL    HW2 6702   0.265   6.651   5.269
 1935SOL     OW 6703   4.470   5.991   3.822
 1935SOL    HW1 6704   4.540   5.920   3.815
 1935SOL    HW2 6705   4.439   5.997   3.917
 1936SOL     OW 6706   5.495   3.715   3.913
 1936SOL    HW1 6707   5.550   3.679   3.988
 1936SOL    HW2 6708   5.458   3.804   3.938
 1937SOL     OW 6709   4.067   6.578   1.255
 1937SOL    HW1 6710   4.109   6.487   1.256
 1937SOL    HW2 6711   3.987   6.578   1.316
 1938SOL     OW 6712   2.130   1.605   1.498
 1938SOL    HW1 6713   2.189   1.670   1.450
 1938SOL    HW2 6714   2.161   1.595   1.592
 1939SOL     OW 6715   6.577   6.842   4.636
 1939SOL    HW1 6716   6.538   6.843   4.544
 1939SOL    HW2 6717   6.532   6.770   4.690
 1940SOL     OW 6718   5.918   5.570   0.693
 1940SOL    HW1 6719   5.904   5.637   0.620
 1940SOL    HW2 6720   5.840   5.508   0.697
 1941SOL     OW 6721   1.259   3.415   4.327
 1941SOL    HW1 6722   1.162   3.428   4.304
 1941SOL    HW2 6723   1.312   3.407   4.242
 1942SOL     OW 6724   5.493   2.320   1.225
 1942SOL    HW1 6725   5.525   2.367   1.143
 1942SOL    HW2 6726   5.546   2.352   1.304
 1943SOL     OW 6727   2.214   6.346   3.704
 1943SOL    HW1 6728   2.239   6.421   3.643
 1943SOL    HW2 6729   2.245   6.260   3.665
 1944SOL     OW 6730   6.604   3.098   0.182
 1944SOL    HW1 6731   6.527   3.100   0.245
 1944SOL    HW2 6732   6.607   3.010   0.135
 1945SOL     OW 6733   3.823   5.044   0.695
 1945SOL    HW1 6734   3.798   5.095   0.777
 1945SOL    HW2 6735   3.874   4.962   0.720
 1946SOL     OW 6736   5.901   6.504   0.884
 1946SOL    HW1 6737   5.971   6.434   0.898
 1946SOL    HW2 6738   5.832   6.498   0.956
 1947SOL     OW 6739   5.283   6.330   4.472
 1947SOL    HW1 6740   5.264   6.258   4.405
 1947SOL    HW2 6741   5.268   6.294   4.564
 1948SOL     OW 6742   6.097   5.249   4.027
 1948SOL    HW1 6743   6.071   5.172   3.969
 1948SOL    HW2 6744   6.041   5.329   4.003
 1949SOL     OW 6745   3.329   3.352   5.958
 1949SOL    HW1 6746   3.389   3.291   5.906
 1949SOL    HW2 6747   3.236   3.314   5.960
 1950SOL     OW 6748   4.238   3.152   0.820
 1950SOL    HW1 6749   4.184   3.094   0.759
 1950SOL    HW2 6750   4.211   3.247   0.807
 1951SOL     OW 6751   6.231   4.607   0.243
 1951SOL    HW1 6752   6.140   4.637   0.215
 1951SOL    HW2 6753   6.222   4.537   0.315
 1952SOL     OW 6754   4.686   3.547   1.271
 1952SOL    HW1 6755   4.655   3.458   1.303
 1952SOL    HW2 6756   4.607   3.609   1.263
 1953SOL     OW 6757   6.172   1.666   5.804
 1953SOL    HW1 6758   6.205   1.578   5.838
 1953SOL    HW2 6759   6.176   1.733   5.878
 1954SOL     OW 6760   6.812   0.878   1.702
 1954SOL    HW1 6761   6.851   0.842   1.618
 1954SOL    HW2 6762   6.832   0.816   1.778
 1955SOL     OW 6763   0.566   1.039   3.124
 1955SOL    HW1 6764   0.495   1.109   3.137
 1955SOL    HW2 6765   0.556   0.968   3.194
 1956SOL     OW 6766   4.375   6.933   1.894
 1956SOL    HW1 6767   4.385   6.894   1.803
 1956SOL    HW2 6768   4.305   6.882   1.945
 1957SOL     OW 6769   5.665   4.398   4.062
 1957SOL    HW1 6770   5.642   4.481   4.011
 1957SOL    HW2 6771   5.751   4.413   4.111
 1958SOL     OW 6772   4.770   1.472   1.850
 1958SOL    HW1 6773   4.768   1.379   1.886
 1958SOL    HW2 6774   4.688   1.488   1.795
 1959SOL     OW 6775   1.785   0.578   3.922
 1959SOL    HW1 6776   1.856   0.638   3.884
 1959SOL    HW2 6777   1.797   0.486   3.886
 1960SOL     OW 6778   0.371   4.631   2.148
 1960SOL    HW1 6779   0.312   4.709   2.170
 1960SOL    HW2 6780   0.457   4.665   2.109
 1961SOL     OW 6781   6.103   5.040   4.968
 1961SOL    HW1 6782   6.104   5.085   5.058
 1961SOL    HW2 6783   6.128   4.944   4.978
 1962SOL     OW 6784   1.411   5.892   2.276
 1962SOL    HW1 6785   1.373   5.924   2.189
 1962SOL    HW2 6786   1.341   5.843   2.327
 1963SOL     OW 6787   1.037   1.788   1.242
 1963SOL    HW1 6788   1.027   1.832   1.153
 1963SOL    HW2 6789   1.059   1.857   1.311
 1964SOL     OW 6790   4.386   4.638   1.750
 1964SOL    HW1 6791   4.402   4.613   1.846
 1964SOL    HW2 6792   4.447   4.584   1.692
 1965SOL     OW 6793   1.426   2.963   4.134
 1965SOL    HW1 6794   1.344   3.005   4.175
 1965SOL    HW2 6795   1.422   2.864   4.147
 1966SOL     OW 6796   0.561   6.426   0.848
 1966SOL    HW1 6797   0.645   6.449   0.798
 1966SOL    HW2 6798   0.572   6.450   0.944
 1967SOL     OW 6799   5.489   2.708   4.191
 1967SOL    HW1 6800   5.564   2.651   4.227
 1967SOL    HW2 6801   5.453   2.765   4.265
 1968SOL     OW 6802   1.596   0.027   5.385
 1968SOL    HW1 6803   1.634   0.119   5.374
 1968SOL    HW2 6804   1.505   0.023   5.344
 1969SOL     OW 6805   2.144   1.753   0.358
 1969SOL    HW1 6806   2.082   1.805   0.299
 1969SOL    HW2 6807   2.206   1.816   0.405
 1970SOL     OW 6808   2.820   6.446   6.351
 1970SOL    HW1 6809   2.828   6.396   6.438
 1970SOL    HW2 6810   2.815   6.381   6.276
 1971SOL     OW 6811   0.451   0.198   5.064
 1971SOL    HW1 6812   0.418   0.112   5.103
 1971SOL    HW2 6813   0.519   0.178   4.993
 1972SOL     OW 6814   5.058   2.115   1.776
 1972SOL    HW1 6815   5.083   2.174   1.852
 1972SOL    HW2 6816   5.036   2.023   1.809
 1973SOL     OW 6817   3.671   3.321   0.701
 1973SOL    HW1 6818   3.686   3.322   0.799
 1973SOL    HW2 6819   3.593   3.261   0.679
 1974SOL     OW 6820   5.466   6.941   4.525
 1974SOL    HW1 6821   5.383   6.986   4.559
 1974SOL    HW2 6822   5.538   7.009   4.514
 1975SOL     OW 6823   1.904   1.987   4.350
 1975SOL    HW1 6824   1.905   1.919   4.277
 1975SOL    HW2 6825   1.810   2.003   4.381
 1976SOL     OW 6826   6.528   6.986   0.716
 1976SOL    HW1 6827   6.607   6.925   0.706
 1976SOL    HW2 6828   6.505   6.996   0.813
 1977SOL     OW 6829   2.069   3.055   5.043
 1977SOL    HW1 6830   1.975   3.034   5.019
 1977SOL    HW2 6831   2.105   2.984   5.103
 1978SOL     OW 6832   1.958   6.068   3.156
 1978SOL    HW1 6833   1.903   6.120   3.222
 1978SOL    HW2 6834   1.971   5.975   3.190
 1979SOL     OW 6835   5.570   4.682   0.027
 1979SOL    HW1 6836   5.570   4.655   6.958
 1979SOL    HW2 6837   5.476   4.704   0.055
 1980SOL     OW 6838   3.090   0.571   4.306
 1980SOL    HW1 6839   3.098   0.539   4.401
 1980SOL    HW2 6840   3.171   0.542   4.255
 1981SOL     OW 6841   6.219   3.676   1.846
 1981SOL    HW1 6842   6.218   3.654   1.748
 1981SOL    HW2 6843   6.179   3.601   1.898
 1982SOL     OW 6844   0.381   4.074   4.290
 1982SOL    HW1 6845   0.300   4.025   4.321
 1982SOL    HW2 6846   0.393   4.156   4.346
 1983SOL     OW 6847   1.384   6.965   1.939
 1983SOL    HW1 6848   1.308   6.934   1.883
 1983SOL    HW2 6849   1.455   7.005   1.881
 1984SOL     OW 6850   4.873   2.360   4.928
 1984SOL    HW1 6851   4.877   2.270   4.886
 1984SOL    HW2 6852   4.964   2.386   4.961
 1985SOL     OW 6853   0.654   6.557   2.273
 1985SOL    HW1 6854   0.676   6.625   2.343
 1985SOL    HW2 6855   0.575   6.587   2.221
 1986SOL     OW 6856   2.535   1.078   6.777
 1986SOL    HW1 6857   2.550   0.981   6.758
 1986SOL    HW2 6858   2.558   1.131   6.695
 1987SOL     OW 6859   1.940   1.630   2.951
 1987SOL    HW1 6860   1.997   1.704   2.914
 1987SOL    HW2 6861   1.997   1.564   2.999
 1988SOL     OW 6862   6.657   3.741   0.574
 1988SOL    HW1 6863   6.574   3.785   0.609
 1988SOL    HW2 6864   6.730   3.748   0.643
 1989SOL     OW 6865   2.181   5.639   5.058
 1989SOL    HW1 6866   2.223   5.694   5.131
 1989SOL    HW2 6867   2.131   5.562   5.099
 1990SOL     OW 6868   3.786   5.951   0.901
 1990SOL    HW1 6869   3.859   5.890   0.871
 1990SOL    HW2 6870   3.805   5.984   0.993
 1991SOL     OW 6871   3.171   4.846   6.736
 1991SOL    HW1 6872   3.071   4.842   6.736
 1991SOL    HW2 6873   3.203   4.889   6.821
 1992SOL     OW 6874   0.125   0.442   0.062
 1992SOL    HW1 6875   0.088   0.477   0.148
 1992SOL    HW2 6876   0.119   0.342   0.061
 1993SOL     OW 6877   3.663   2.292   6.025
 1993SOL    HW1 6878   3.731   2.266   5.956
 1993SOL    HW2 6879   3.601   2.360   5.986
 1994SOL     OW 6880   0.019   1.583   0.427
 1994SOL    HW1 6881   7.002   1.515   0.367
 1994SOL    HW2 6882   0.070   1.535   0.499
 1995SOL     OW 6883   5.124   2.818   3.552
 1995SOL    HW1 6884   5.117   2.760   3.634
 1995SOL    HW2 6885   5.070   2.901   3.566
 1996SOL     OW 6886   2.361   2.282   0.782
 1996SOL    HW1 6887   2.285   2.336   0.819
 1996SOL    HW2 6888   2.340   2.185   0.792
 1997SOL     OW 6889   3.615   2.094   4.989
 1997SOL    HW1 6890   3.701   2.085   4.938
 1997SOL    HW2 6891   3.621   2.174   5.049
 1998SOL     OW 6892   2.172   3.956   0.665
 1998SOL    HW1 6893   2.148   3.930   0.571
 1998SOL    HW2 6894   2.220   3.880   0.709
 1999SOL     OW 6895   1.932   6.885   6.290
 1999SOL    HW1 6896   1.912   6.981   6.312
 1999SOL    HW2 6897   1.849   6.831   6.301
 2000SOL     OW 6898   4.029   2.640   5.373
 2000SOL    HW1 6899   4.079   2.598   5.298
 2000SOL    HW2 6900   4.086   2.711   5.416
 2001SOL     OW 6901   2.273   0.541   1.375
 2001SOL    HW1 6902   2.344   0.593   1.329
 2001SOL    HW2 6903   2.227   0.599   1.443
 2002SOL     OW 6904   0.825   4.107   0.634
 2002SOL    HW1 6905   0.861   4.121   0.541
 2002SOL    HW2 6906   0.758   4.178   0.654
 2003SOL     OW 6907   6.358   4.797   2.371
 2003SOL    HW1 6908   6.424   4.826   2.302
 2003SOL    HW2 6909   6.327   4.704   2.351
 2004SOL     OW 6910   5.675   0.781   4.148
 2004SOL    HW1 6911   5.624   0.744   4.225
 2004SOL    HW2 6912   5.647   0.876   4.132
 2005SOL     OW 6913   0.421   4.420   0.582
 2005SOL    HW1 6914   0.491   4.488   0.562
 2005SOL    HW2 6915   0.403   4.366   0.500
 2006SOL     OW 6916   5.705   0.399   2.751
 2006SOL    HW1 6917   5.720   0.498   2.752
 2006SOL    HW2 6918   5.607   0.381   2.757
 2007SOL     OW 6919   4.876   4.243   1.116
 2007SOL    HW1 6920   4.868   4.167   1.181
 2007SOL    HW2 6921   4.956   4.298   1.139
 2008SOL     OW 6922   2.131   4.106   3.821
 2008SOL    HW1 6923   2.124   4.100   3.921
 2008SOL    HW2 6924   2.163   4.018   3.785
 2009SOL     OW 6925   5.456   0.260   2.844
 2009SOL    HW1 6926   5.479   0.252   2.941
 2009SOL    HW2 6927   5.358   0.242   2.832
 2010SOL     OW 6928   3.258   1.755   1.561
 2010SOL    HW1 6929   3.305   1.736   1.647
 2010SOL    HW2 6930   3.305   1.707   1.486
 2011SOL     OW 6931   0.566   0.933   4.680
 2011SOL    HW1 6932   0.477   0.896   4.706
 2011SOL    HW2 6933   0.637   0.896   4.741
 2012SOL     OW 6934   1.061   3.973   2.816
 2012SOL    HW1 6935   0.978   3.970   2.760
 2012SOL    HW2 6936   1.141   3.976   2.756
 2013SOL     OW 6937   6.105   2.714   3.400
 2013SOL    HW1 6938   6.010   2.690   3.380
 2013SOL    HW2 6939   6.122   2.808   3.372
 2014SOL     OW 6940   2.803   6.503   3.361
 2014SOL    HW1 6941   2.767   6.409   3.363
 2014SOL    HW2 6942   2.759   6.557   3.433
 2015SOL     OW 6943   2.267   0.375   0.412
 2015SOL    HW1 6944   2.357   0.368   0.456
 2015SOL    HW2 6945   2.214   0.447   0.457
 2016SOL     OW 6946   2.034   6.168   5.731
 2016SOL    HW1 6947   2.064   6.211   5.816
 2016SOL    HW2 6948   1.965   6.225   5.687
 2017SOL     OW 6949   3.847   0.134   2.949
 2017SOL    HW1 6950   3.781   0.183   2.892
 2017SOL    HW2 6951   3.914   0.088   2.891
 2018SOL     OW 6952   5.788   2.244   4.031
 2018SOL    HW1 6953   5.826   2.205   4.115
 2018SOL    HW2 6954   5.695   2.278   4.049
 2019SOL     OW 6955   5.451   3.696   6.300
 2019SOL    HW1 6956   5.453   3.598   6.282
 2019SOL    HW2 6957   5.501   3.716   6.384
 2020SOL     OW 6958   1.964   0.476   5.697
 2020SOL    HW1 6959   1.940   0.387   5.658
 2020SOL    HW2 6960   1.951   0.473   5.796
 2021SOL     OW 6961   6.646   6.517   4.953
 2021SOL    HW1 6962   6.575   6.551   4.891
 2021SOL    HW2 6963   6.664   6.420   4.934
 2022SOL     OW 6964   1.781   4.714   3.734
 2022SOL    HW1 6965   1.862   4.663   3.761
 2022SOL    HW2 6966   1.751   4.773   3.809
 2023SOL     OW 6967   0.375   0.264   6.506
 2023SOL    HW1 6968   0.325   0.250   6.421
 2023SOL    HW2 6969   0.362   0.358   6.538
 2024SOL     OW 6970   0.126   6.004   3.438
 2024SOL    HW1 6971   0.035   5.996   3.479
 2024SOL    HW2 6972   0.119   5.993   3.339
 2025SOL     OW 6973   4.137   0.933   3.456
 2025SOL    HW1 6974   4.212   0.987   3.494
 2025SOL    HW2 6975   4.119   0.855   3.517
 2026SOL     OW 6976   6.231   3.183   5.823
 2026SOL    HW1 6977   6.275   3.096   5.846
 2026SOL    HW2 6978   6.299   3.257   5.827
 2027SOL     OW 6979   1.089   7.005   0.837
 2027SOL    HW1 6980   1.043   0.058   0.876
 2027SOL    HW2 6981   1.082   6.928   0.900
 2028SOL     OW 6982   2.976   5.308   4.188
 2028SOL    HW1 6983   2.959   5.235   4.121
 2028SOL    HW2 6984   2.984   5.395   4.140
 2029SOL     OW 6985   6.071   1.711   6.997
 2029SOL    HW1 6986   6.039   1.656   6.920
 2029SOL    HW2 6987   6.109   1.651   0.041
 2030SOL     OW 6988   3.265   0.823   3.854
 2030SOL    HW1 6989   3.306   0.857   3.770
 2030SOL    HW2 6990   3.324   0.846   3.932
 2031SOL     OW 6991   6.948   5.946   1.820
 2031SOL    HW1 6992   6.908   5.966   1.730
 2031SOL    HW2 6993   0.016   5.979   1.821
 2032SOL     OW 6994   3.938   0.917   2.154
 2032SOL    HW1 6995   4.026   0.925   2.107
 2032SOL    HW2 6996   3.897   1.007   2.164
 2033SOL     OW 6997   2.912   2.757   0.036
 2033SOL    HW1 6998   2.933   2.754   6.965
 2033SOL    HW2 6999   2.817   2.785   0.049
 2034SOL     OW 7000   2.759   5.085   5.629
 2034SOL    HW1 7001   2.781   4.995   5.666
 2034SOL    HW2 7002   2.707   5.074   5.544
 2035SOL     OW 7003   6.134   6.468   3.349
 2035SOL    HW1 7004   6.154   6.520   3.432
 2035SOL    HW2 7005   6.129   6.530   3.271
 2036SOL     OW 7006   1.102   3.262   2.811
 2036SOL    HW1 7007   1.058   3.247   2.722
 2036SOL    HW2 7008   1.035   3.255   2.884
 2037SOL     OW 7009   6.133   2.785   5.985
 2037SOL    HW1 7010   6.087   2.721   6.046
 2037SOL    HW2 7011   6.073   2.809   5.909
 2038SOL     OW 7012   1.705   1.467   0.243
 2038SOL    HW1 7013   1.707   1.451   0.342
 2038SOL    HW2 7014   1.790   1.434   0.202
 2039SOL     OW 7015   6.856   5.931   3.280
 2039SOL    HW1 7016   6.760   5.908   3.262
 2039SOL    HW2 7017   6.910   5.920   3.197
 2040SOL     OW 7018   1.741   2.999   6.784
 2040SOL    HW1 7019   1.757   2.901   6.776
 2040SOL    HW2 7020   1.646   3.020   6.762
 2041SOL     OW 7021   1.147   6.363   5.014
 2041SOL    HW1 7022   1.110   6.343   5.104
 2041SOL    HW2 7023   1.074   6.360   4.946
 2042SOL     OW 7024   4.770   6.203   6.845
 2042SOL    HW1 7025   4.762   6.111   6.808
 2042SOL    HW2 7026   4.847   6.250   6.802
 2043SOL     OW 7027   6.381   3.415   3.415
 2043SOL    HW1 7028   6.302   3.364   3.447
 2043SOL    HW2 7029   6.449   3.420   3.488
 2044SOL     OW 7030   6.314   0.927   1.322
 2044SOL    HW1 7031   6.334   1.025   1.322
 2044SOL    HW2 7032   6.358   0.884   1.401
 2045SOL     OW 7033   1.966   5.497   4.663
 2045SOL    HW1 7034   1.917   5.584   4.671
 2045SOL    HW2 7035   1.957   5.462   4.570
 2046SOL     OW 7036   6.570   1.863   4.493
 2046SOL    HW1 7037   6.542   1.916   4.413
 2046SOL    HW2 7038   6.588   1.925   4.569
 2047SOL     OW 7039   6.673   2.535   0.030
 2047SOL    HW1 7040   6.690   2.530   0.129
 2047SOL    HW2 7041   6.652   2.629   0.005
 2048SOL     OW 7042   0.687   6.802   5.654
 2048SOL    HW1 7043   0.682   6.763   5.746
 2048SOL    HW2 7044   0.616   6.872   5.643
 2049SOL     OW 7045   5.970   1.291   4.357
 2049SOL    HW1 7046   5.988   1.334   4.446
 2049SOL    HW2 7047   6.011   1.200   4.355
 2050SOL     OW 7048   6.327   2.807   3.887
 2050SOL    HW1 7049   6.256   2.876   3.871
 2050SOL    HW2 7050   6.363   2.776   3.800
 2051SOL     OW 7051   1.681   5.704   6.320
 2051SOL    HW1 7052   1.764   5.655   6.294
 2051SOL    HW2 7053   1.601   5.657   6.283
 2052SOL     OW 7054   1.491   2.893   0.930
 2052SOL    HW1 7055   1.521   2.810   0.976
 2052SOL    HW2 7056   1.396   2.883   0.901
 2053SOL     OW 7057   6.971   5.924   4.581
 2053SOL    HW1 7058   6.922   5.936   4.495
 2053SOL    HW2 7059   6.991   5.827   4.595
 2054SOL     OW 7060   3.561   4.105   3.224
 2054SOL    HW1 7061   3.575   4.122   3.322
 2054SOL    HW2 7062   3.567   4.007   3.206
 2055SOL     OW 7063   5.915   3.333   4.481
 2055SOL    HW1 7064   5.860   3.263   4.437
 2055SOL    HW2 7065   5.899   3.422   4.436
 2056SOL     OW 7066   4.523   5.255   1.299
 2056SOL    HW1 7067   4.466   5.268   1.380
 2056SOL    HW2 7068   4.577   5.171   1.310
 2057SOL     OW 7069   4.595   4.091   5.926
 2057SOL    HW1 7070   4.687   4.073   5.960
 2057SOL    HW2 7071   4.572   4.025   5.855
 2058SOL     OW 7072   0.189   6.571   2.694
 2058SOL    HW1 7073   0.282   6.535   2.699
 2058SOL    HW2 7074   0.177   6.643   2.763
 2059SOL     OW 7075   1.936   5.954   6.165
 2059SOL    HW1 7076   1.990   5.886   6.215
 2059SOL    HW2 7077   1.997   6.019   6.120
 2060SOL     OW 7078   0.356   3.693   1.547
 2060SOL    HW1 7079   0.322   3.637   1.471
 2060SOL    HW2 7080   0.453   3.674   1.561
 2061SOL     OW 7081   1.578   1.544   2.021
 2061SOL    HW1 7082   1.623   1.633   2.015
 2061SOL    HW2 7083   1.583   1.498   1.933
 2062SOL     OW 7084   0.144   5.680   5.168
 2062SOL    HW1 7085   0.180   5.601   5.118
 2062SOL    HW2 7086   0.054   5.704   5.131
 2063SOL     OW 7087   1.288   6.621   4.933
 2063SOL    HW1 7088   1.222   6.560   4.979
 2063SOL    HW2 7089   1.324   6.686   5.000
 2064SOL     OW 7090   0.146   2.202   4.685
 2064SOL    HW1 7091   0.215   2.223   4.755
 2064SOL    HW2 7092   0.124   2.285   4.634
 2065SOL     OW 7093   5.736   2.935   6.152
 2065SOL    HW1 7094   5.811   2.869   6.150
 2065SOL    HW2 7095   5.773   3.028   6.144
 2066SOL     OW 7096   0.010   4.081   5.426
 2066SOL    HW1 7097   7.019   4.105   5.331
 2066SOL    HW2 7098   6.956   4.100   5.481
 2067SOL     OW 7099   0.216   4.760   0.693
 2067SOL    HW1 7100   0.168   4.848   0.687
 2067SOL    HW2 7101   0.257   4.738   0.605
 2068SOL     OW 7102   3.320   0.404   3.766
 2068SOL    HW1 7103   3.380   0.436   3.693
 2068SOL    HW2 7104   3.369   0.339   3.824
 2069SOL     OW 7105   6.642   2.254   4.052
 2069SOL    HW1 7106   6.644   2.178   3.988
 2069SOL    HW2 7107   6.734   2.268   4.090
 2070SOL     OW 7108   1.240   1.631   0.839
 2070SOL    HW1 7109   1.247   1.534   0.861
 2070SOL    HW2 7110   1.261   1.645   0.742
 2071SOL     OW 7111   6.193   0.324   5.842
 2071SOL    HW1 7112   6.160   0.361   5.756
 2071SOL    HW2 7113   6.125   0.340   5.914
 2072SOL     OW 7114   4.718   5.436   4.632
 2072SOL    HW1 7115   4.749   5.427   4.537
 2072SOL    HW2 7116   4.774   5.504   4.679
 2073SOL     OW 7117   4.431   6.384   5.120
 2073SOL    HW1 7118   4.467   6.466   5.075
 2073SOL    HW2 7119   4.341   6.405   5.159
 2074SOL     OW 7120   2.131   2.582   6.241
 2074SOL    HW1 7121   2.207   2.517   6.242
 2074SOL    HW2 7122   2.147   2.652   6.311
 2075SOL     OW 7123   6.764   2.420   2.954
 2075SOL    HW1 7124   6.856   2.418   2.993
 2075SOL    HW2 7125   6.697   2.403   3.026
 2076SOL     OW 7126   5.236   6.487   6.434
 2076SOL    HW1 7127   5.195   6.400   6.462
 2076SOL    HW2 7128   5.185   6.563   6.474
 2077SOL     OW 7129   6.781   2.229   2.102
 2077SOL    HW1 7130   6.713   2.239   2.174
 2077SOL    HW2 7131   6.846   2.306   2.107
 2078SOL     OW 7132   2.320   5.208   5.919
 2078SOL    HW1 7133   2.340   5.275   5.991
 2078SOL    HW2 7134   2.229   5.226   5.881
 2079SOL     OW 7135   0.296   1.293   2.729
 2079SOL    HW1 7136   0.205   1.283   2.687
 2079SOL    HW2 7137   0.338   1.378   2.697
 2080SOL     OW 7138   2.582   0.715   5.143
 2080SOL    HW1 7139   2.624   0.806   5.145
 2080SOL    HW2 7140   2.496   0.717   5.194
 2081SOL     OW 7141   1.089   6.724   4.362
 2081SOL    HW1 7142   1.184   6.698   4.381
 2081SOL    HW2 7143   1.032   6.701   4.442
 2082SOL     OW 7144   0.794   6.237   3.063
 2082SOL    HW1 7145   0.736   6.218   3.142
 2082SOL    HW2 7146   0.787   6.162   2.998
 2083SOL     OW 7147   1.167   5.908   5.190
 2083SOL    HW1 7148   1.232   5.932   5.262
 2083SOL    HW2 7149   1.217   5.886   5.106
 2084SOL     OW 7150   1.017   3.443   2.397
 2084SOL    HW1 7151   0.934   3.449   2.341
 2084SOL    HW2 7152   1.092   3.488   2.350
 2085SOL     OW 7153   4.925   0.531   0.916
 2085SOL    HW1 7154   4.855   0.531   0.988
 2085SOL    HW2 7155   4.944   0.437   0.889
 2086SOL     OW 7156   3.676   6.257   6.951
 2086SOL    HW1 7157   3.620   6.186   6.994
 2086SOL    HW2 7158   3.771   6.228   6.951
 2087SOL     OW 7159   4.737   1.891   1.764
 2087SOL    HW1 7160   4.642   1.892   1.733
 2087SOL    HW2 7161   4.789   1.826   1.709
 2088SOL     OW 7162   1.514   5.861   6.498
 2088SOL    HW1 7163   1.432   5.804   6.492
 2088SOL    HW2 7164   1.586   5.821   6.442
 2089SOL     OW 7165   4.625   2.200   5.415
 2089SOL    HW1 7166   4.530   2.168   5.412
 2089SOL    HW2 7167   4.639   2.255   5.497
 2090SOL     OW 7168   4.781   3.314   5.650
 2090SOL    HW1 7169   4.746   3.403   5.621
 2090SOL    HW2 7170   4.774   3.305   5.749
 2091SOL     OW 7171   6.988   5.109   1.289
 2091SOL    HW1 7172   6.903   5.087   1.337
 2091SOL    HW2 7173   6.984   5.203   1.256
 2092SOL     OW 7174   5.406   3.173   0.624
 2092SOL    HW1 7175   5.427   3.244   0.557
 2092SOL    HW2 7176   5.370   3.092   0.576
 2093SOL     OW 7177   3.201   2.299   1.633
 2093SOL    HW1 7178   3.265   2.260   1.699
 2093SOL    HW2 7179   3.225   2.268   1.541
 2094SOL     OW 7180   5.346   1.735   1.444
 2094SOL    HW1 7181   5.366   1.735   1.347
 2094SOL    HW2 7182   5.295   1.817   1.468
 2095SOL     OW 7183   6.106   6.407   4.636
 2095SOL    HW1 7184   6.049   6.391   4.716
 2095SOL    HW2 7185   6.052   6.394   4.553
 2096SOL     OW 7186   4.854   5.676   3.460
 2096SOL    HW1 7187   4.841   5.636   3.551
 2096SOL    HW2 7188   4.816   5.615   3.391
 2097SOL     OW 7189   2.768   3.271   6.846
 2097SOL    HW1 7190   2.744   3.260   6.943
 2097SOL    HW2 7191   2.858   3.313   6.839
 2098SOL     OW 7192   4.507   6.029   2.480
 2098SOL    HW1 7193   4.473   5.955   2.421
 2098SOL    HW2 7194   4.432   6.062   2.538
 2099SOL     OW 7195   3.981   1.781   0.105
 2099SOL    HW1 7196   3.966   1.844   0.182
 2099SOL    HW2 7197   3.902   1.783   0.044
 2100SOL     OW 7198   5.390   1.319   0.754
 2100SOL    HW1 7199   5.480   1.357   0.776
 2100SOL    HW2 7200   5.378   1.232   0.801
 2101SOL     OW 7201   6.619   6.471   1.417
 2101SOL    HW1 7202   6.710   6.511   1.424
 2101SOL    HW2 7203   6.553   6.528   1.465
 2102SOL     OW 7204   4.813   3.874   1.977
 2102SOL    HW1 7205   4.745   3.884   1.904
 2102SOL    HW2 7206   4.861   3.787   1.966
 2103SOL     OW 7207   3.776   3.829   0.219
 2103SOL    HW1 7208   3.774   3.927   0.197
 2103SOL    HW2 7209   3.739   3.815   0.310
 2104SOL     OW 7210   1.486   4.429   2.253
 2104SOL    HW1 7211   1.464   4.332   2.263
 2104SOL    HW2 7212   1.489   4.453   2.156
 2105SOL     OW 7213   5.194   4.973   6.837
 2105SOL    HW1 7214   5.243   4.893   6.802
 2105SOL    HW2 7215   5.111   4.986   6.783
 2106SOL     OW 7216   4.319   3.698   1.655
 2106SOL    HW1 7217   4.333   3.793   1.630
 2106SOL    HW2 7218   4.242   3.661   1.604
 2107SOL     OW 7219   5.876   2.659   5.672
 2107SOL    HW1 7220   5.962   2.623   5.637
 2107SOL    HW2 7221   5.805   2.652   5.602
 2108SOL     OW 7222   6.320   5.437   4.989
 2108SOL    HW1 7223   6.304   5.346   5.026
 2108SOL    HW2 7224   6.249   5.500   5.021
 2109SOL     OW 7225   3.166   5.972   2.464
 2109SOL    HW1 7226   3.115   5.950   2.381
 2109SOL    HW2 7227   3.239   6.038   2.442
 2110SOL     OW 7228   3.240   0.908   6.616
 2110SOL    HW1 7229   3.250   0.820   6.568
 2110SOL    HW2 7230   3.151   0.913   6.659
 2111SOL     OW 7231   2.407   3.523   5.770
 2111SOL    HW1 7232   2.344   3.449   5.796
 2111SOL    HW2 7233   2.363   3.581   5.702
 2112SOL     OW 7234   5.233   2.204   0.648
 2112SOL    HW1 7235   5.147   2.212   0.699
 2112SOL    HW2 7236   5.218   2.152   0.564
 2113SOL     OW 7237   2.427   0.727   4.828
 2113SOL    HW1 7238   2.524   0.740   4.810
 2113SOL    HW2 7239   2.411   0.730   4.927
 2114SOL     OW 7240   2.832   2.321   6.688
 2114SOL    HW1 7241   2.846   2.420   6.679
 2114SOL    HW2 7242   2.836   2.296   6.785
 2115SOL     OW 7243   0.938   4.205   2.511
 2115SOL    HW1 7244   0.865   4.249   2.458
 2115SOL    HW2 7245   0.899   4.129   2.564
 2116SOL     OW 7246   1.125   2.859   1.942
 2116SOL    HW1 7247   1.137   2.904   2.030
 2116SOL    HW2 7248   1.186   2.900   1.875
 2117SOL     OW 7249   5.597   3.826   1.152
 2117SOL    HW1 7250   5.542   3.835   1.235
 2117SOL    HW2 7251   5.539   3.843   1.072
 2118SOL     OW 7252   6.867   3.385   3.107
 2118SOL    HW1 7253   6.860   3.470   3.054
 2118SOL    HW2 7254   6.816   3.394   3.193
 2119SOL     OW 7255   1.908   1.034   1.041
 2119SOL    HW1 7256   1.835   1.006   1.103
 2119SOL    HW2 7257   1.966   1.101   1.087
 2120SOL     OW 7258   0.353   3.627   2.274
 2120SOL    HW1 7259   0.428   3.676   2.319
 2120SOL    HW2 7260   0.301   3.576   2.342
 2121SOL     OW 7261   1.705   2.899   6.050
 2121SOL    HW1 7262   1.689   2.821   5.990
 2121SOL    HW2 7263   1.797   2.894   6.089
 2122SOL     OW 7264   5.202   6.213   6.536
 2122SOL    HW1 7265   5.259   6.182   6.461
 2122SOL    HW2 7266   5.259   6.251   6.609
 2123SOL     OW 7267   6.243   6.110   1.660
 2123SOL    HW1 7268   6.159   6.164   1.667
 2123SOL    HW2 7269   6.321   6.171   1.648
 2124SOL     OW 7270   3.019   1.506   0.167
 2124SOL    HW1 7271   2.967   1.580   0.124
 2124SOL    HW2 7272   3.048   1.441   0.097
 2125SOL     OW 7273   0.862   5.583   1.969
 2125SOL    HW1 7274   0.873   5.525   1.888
 2125SOL    HW2 7275   0.880   5.678   1.944
 2126SOL     OW 7276   3.136   2.599   6.470
 2126SOL    HW1 7277   3.122   2.672   6.403
 2126SOL    HW2 7278   3.054   2.590   6.527
 2127SOL     OW 7279   0.654   1.941   5.514
 2127SOL    HW1 7280   0.697   1.975   5.597
 2127SOL    HW2 7281   0.598   2.013   5.472
 2128SOL     OW 7282   6.032   2.525   2.337
 2128SOL    HW1 7283   6.066   2.456   2.273
 2128SOL    HW2 7284   6.092   2.606   2.334
 2129SOL     OW 7285   4.405   4.739   4.789
 2129SOL    HW1 7286   4.373   4.715   4.881
 2129SOL    HW2 7287   4.355   4.819   4.756
 2130SOL     OW 7288   2.640   0.872   2.019
 2130SOL    HW1 7289   2.559   0.823   1.988
 2130SOL    HW2 7290   2.690   0.907   1.939
 2131SOL     OW 7291   5.261   0.897   0.804
 2131SOL    HW1 7292   5.215   0.815   0.837
 2131SOL    HW2 7293   5.202   0.943   0.737
 2132SOL     OW 7294   3.045   1.363   6.948
 2132SOL    HW1 7295   2.971   1.299   6.924
 2132SOL    HW2 7296   3.119   1.313   6.992
 2133SOL     OW 7297   3.389   2.181   1.018
 2133SOL    HW1 7298   3.405   2.138   1.107
 2133SOL    HW2 7299   3.440   2.268   1.013
 2134SOL     OW 7300   0.889   0.980   4.811
 2134SOL    HW1 7301   0.823   0.966   4.885
 2134SOL    HW2 7302   0.966   1.035   4.845
 2135SOL     OW 7303   0.380   2.146   4.861
 2135SOL    HW1 7304   0.391   2.056   4.819
 2135SOL    HW2 7305   0.453   2.207   4.831
 2136SOL     OW 7306   1.083   3.590   4.769
 2136SOL    HW1 7307   1.043   3.637   4.848
 2136SOL    HW2 7308   1.159   3.643   4.733
 2137SOL     OW 7309   0.238   6.562   4.425
 2137SOL    HW1 7310   0.165   6.552   4.357
 2137SOL    HW2 7311   0.316   6.505   4.400
 2138SOL     OW 7312   6.263   2.287   2.099
 2138SOL    HW1 7313   6.227   2.219   2.035
 2138SOL    HW2 7314   6.292   2.368   2.047
 2139SOL     OW 7315   4.013   1.164   2.665
 2139SOL    HW1 7316   4.040   1.222   2.589
 2139SOL    HW2 7317   3.958   1.087   2.631
 2140SOL     OW 7318   3.042   6.072   3.213
 2140SOL    HW1 7319   3.076   6.065   3.119
 2140SOL    HW2 7320   3.059   5.986   3.261
 2141SOL     OW 7321   0.142   3.016   1.505
 2141SOL    HW1 7322   0.181   3.041   1.417
 2141SOL    HW2 7323   0.066   3.078   1.527
 2142SOL     OW 7324   1.415   2.142   2.950
 2142SOL    HW1 7325   1.376   2.233   2.936
 2142SOL    HW2 7326   1.378   2.102   3.034
 2143SOL     OW 7327   3.139   4.653   0.798
 2143SOL    HW1 7328   3.141   4.621   0.703
 2143SOL    HW2 7329   3.053   4.624   0.841
 2144SOL     OW 7330   1.480   0.152   2.718
 2144SOL    HW1 7331   1.395   0.130   2.765
 2144SOL    HW2 7332   1.536   0.210   2.776
 2145SOL     OW 7333   3.799   5.519   3.673
 2145SOL    HW1 7334   3.874   5.532   3.608
 2145SOL    HW2 7335   3.808   5.585   3.748
 2146SOL     OW 7336   2.885   3.616   2.053
 2146SOL    HW1 7337   2.831   3.581   1.977
 2146SOL    HW2 7338   2.900   3.714   2.041
 2147SOL     OW 7339   6.888   0.368   6.748
 2147SOL    HW1 7340   6.877   0.411   6.837
 2147SOL    HW2 7341   6.975   0.318   6.746
 2148SOL     OW 7342   4.796   2.981   4.589
 2148SOL    HW1 7343   4.724   2.918   4.617
 2148SOL    HW2 7344   4.803   2.982   4.489
 2149SOL     OW 7345   3.411   0.962   1.281
 2149SOL    HW1 7346   3.445   0.873   1.310
 2149SOL    HW2 7347   3.457   0.991   1.198
 2150SOL     OW 7348   2.690   2.333   2.446
 2150SOL    HW1 7349   2.670   2.255   2.505
 2150SOL    HW2 7350   2.775   2.377   2.476
 2151SOL     OW 7351   2.215   1.700   3.991
 2151SOL    HW1 7352   2.314   1.685   3.987
 2151SOL    HW2 7353   2.186   1.698   4.087
 2152SOL     OW 7354   4.165   5.738   1.495
 2152SOL    HW1 7355   4.092   5.686   1.452
 2152SOL    HW2 7356   4.252   5.691   1.482
 2153SOL     OW 7357   3.569   0.255   3.275
 2153SOL    HW1 7358   3.477   0.266   3.311
 2153SOL    HW2 7359   3.595   0.336   3.222
 2154SOL     OW 7360   3.973   6.508   5.032
 2154SOL    HW1 7361   3.912   6.445   5.081
 2154SOL    HW2 7362   4.028   6.456   4.967
 2155SOL     OW 7363   1.576   5.447   6.759
 2155SOL    HW1 7364   1.505   5.440   6.689
 2155SOL    HW2 7365   1.560   5.529   6.814
 2156SOL     OW 7366   2.544   0.446   2.166
 2156SOL    HW1 7367   2.495   0.449   2.079
 2156SOL    HW2 7368   2.573   0.538   2.191
 2157SOL     OW 7369   6.443   1.297   2.953
 2157SOL    HW1 7370   6.482   1.215   2.910
 2157SOL    HW2 7371   6.351   1.313   2.918
 2158SOL     OW 7372   3.979   6.264   0.765
 2158SOL    HW1 7373   3.892   6.215   0.758
 2158SOL    HW2 7374   3.977   6.344   0.705
 2159SOL     OW 7375   1.767   6.330   5.626
 2159SOL    HW1 7376   1.725   6.261   5.685
 2159SOL    HW2 7377   1.754   6.305   5.530
 2160SOL     OW 7378   4.612   3.036   1.481
 2160SOL    HW1 7379   4.526   2.989   1.461
 2160SOL    HW2 7380   4.688   2.971   1.470
 2161SOL     OW 7381   5.349   2.796   3.426
 2161SOL    HW1 7382   5.263   2.804   3.475
 2161SOL    HW2 7383   5.373   2.700   3.414
 2162SOL     OW 7384   2.721   0.535   0.042
 2162SOL    HW1 7385   2.626   0.520   0.069
 2162SOL    HW2 7386   2.774   0.452   0.059
 2163SOL     OW 7387   0.155   5.758   6.349
 2163SOL    HW1 7388   0.126   5.834   6.291
 2163SOL    HW2 7389   0.254   5.745   6.341
 2164SOL     OW 7390   1.558   2.031   6.998
 2164SOL    HW1 7391   1.473   1.985   6.973
 2164SOL    HW2 7392   1.615   1.969   0.024
 2165SOL     OW 7393   1.089   1.725   2.746
 2165SOL    HW1 7394   1.060   1.782   2.669
 2165SOL    HW2 7395   1.105   1.631   2.714
 2166SOL     OW 7396   2.108   2.400   5.362
 2166SOL    HW1 7397   2.121   2.468   5.434
 2166SOL    HW2 7398   2.110   2.308   5.402
 2167SOL     OW 7399   2.512   0.397   3.185
 2167SOL    HW1 7400   2.519   0.486   3.231
 2167SOL    HW2 7401   2.601   0.351   3.188
 2168SOL     OW 7402   6.647   2.098   3.840
 2168SOL    HW1 7403   6.722   2.117   3.777
 2168SOL    HW2 7404   6.640   1.999   3.855
 2169SOL     OW 7405   5.964   2.179   5.838
 2169SOL    HW1 7406   5.975   2.189   5.739
 2169SOL    HW2 7407   5.969   2.268   5.882
 2170SOL     OW 7408   5.968   5.045   5.602
 2170SOL    HW1 7409   6.036   5.043   5.676
 2170SOL    HW2 7410   5.929   5.137   5.594
 2171SOL     OW 7411   5.983   3.085   0.567
 2171SOL    HW1 7412   5.913   3.096   0.637
 2171SOL    HW2 7413   6.057   3.028   0.602
 2172SOL     OW 7414   2.408   1.775   0.766
 2172SOL    HW1 7415   2.320   1.749   0.806
 2172SOL    HW2 7416   2.402   1.770   0.666
 2173SOL     OW 7417   3.641   0.146   5.418
 2173SOL    HW1 7418   3.706   0.070   5.427
 2173SOL    HW2 7419   3.673   0.208   5.346
 2174SOL     OW 7420   6.196   5.023   6.052
 2174SOL    HW1 7421   6.233   4.959   6.120
 2174SOL    HW2 7422   6.101   4.998   6.031
 2175SOL     OW 7423   3.112   2.171   3.597
 2175SOL    HW1 7424   3.105   2.076   3.567
 2175SOL    HW2 7425   3.122   2.175   3.696
 2176SOL     OW 7426   1.177   2.406   1.217
 2176SOL    HW1 7427   1.108   2.399   1.290
 2176SOL    HW2 7428   1.264   2.371   1.250
 2177SOL     OW 7429   6.512   0.731   2.500
 2177SOL    HW1 7430   6.490   0.828   2.493
 2177SOL    HW2 7431   6.522   0.706   2.596
 2178SOL     OW 7432   1.676   4.230   0.526
 2178SOL    HW1 7433   1.705   4.134   0.522
 2178SOL    HW2 7434   1.614   4.249   0.449
 2179SOL     OW 7435   2.476   5.406   4.511
 2179SOL    HW1 7436   2.439   5.402   4.604
 2179SOL    HW2 7437   2.493   5.501   4.486
 2180SOL     OW 7438   3.100   3.068   1.840
 2180SOL    HW1 7439   3.069   2.983   1.797
 2180SOL    HW2 7440   3.045   3.084   1.923
 2181SOL     OW 7441   5.179   4.396   5.751
 2181SOL    HW1 7442   5.268   4.391   5.797
 2181SOL    HW2 7443   5.137   4.305   5.749
 2182SOL     OW 7444   6.475   3.051   5.580
 2182SOL    HW1 7445   6.532   3.125   5.544
 2182SOL    HW2 7446   6.449   3.072   5.674
 2183SOL     OW 7447   3.729   3.663   0.011
 2183SOL    HW1 7448   3.649   3.604   0.027
 2183SOL    HW2 7449   3.734   3.732   0.083
 2184SOL     OW 7450   3.421   1.287   5.026
 2184SOL    HW1 7451   3.421   1.213   5.094
 2184SOL    HW2 7452   3.483   1.360   5.057
 2185SOL     OW 7453   1.946   1.966   0.773
 2185SOL    HW1 7454   1.961   2.019   0.689
 2185SOL    HW2 7455   1.917   2.028   0.846
 2186SOL     OW 7456   6.816   4.613   2.602
 2186SOL    HW1 7457   6.911   4.584   2.594
 2186SOL    HW2 7458   6.762   4.573   2.528
 2187SOL     OW 7459   0.852   1.414   1.960
 2187SOL    HW1 7460   0.772   1.413   2.020
 2187SOL    HW2 7461   0.822   1.431   1.866
 2188SOL     OW 7462   5.429   5.957   3.629
 2188SOL    HW1 7463   5.486   5.919   3.556
 2188SOL    HW2 7464   5.456   5.917   3.716
 2189SOL     OW 7465   1.830   6.238   6.407
 2189SOL    HW1 7466   1.808   6.331   6.435
 2189SOL    HW2 7467   1.912   6.239   6.349
 2190SOL     OW 7468   6.394   2.266   1.755
 2190SOL    HW1 7469   6.443   2.292   1.838
 2190SOL    HW2 7470   6.455   2.211   1.697
 2191SOL     OW 7471   2.830   1.700   6.336
 2191SOL    HW1 7472   2.819   1.608   6.373
 2191SOL    HW2 7473   2.914   1.741   6.372
 2192SOL     OW 7474   3.913   0.165   4.577
 2192SOL    HW1 7475   3.869   0.077   4.560
 2192SOL    HW2 7476   4.009   0.161   4.547
 2193SOL     OW 7477   6.888   5.892   6.187
 2193SOL    HW1 7478   6.903   5.946   6.269
 2193SOL    HW2 7479   6.975   5.877   6.140
 2194SOL     OW 7480   2.415   4.603   0.045
 2194SOL    HW1 7481   2.435   4.520   0.096
 2194SOL    HW2 7482   2.483   4.615   6.999
 2195SOL     OW 7483   0.194   6.787   2.137
 2195SOL    HW1 7484   0.126   6.787   2.210
 2195SOL    HW2 7485   0.150   6.767   2.049
 2196SOL     OW 7486   2.069   0.710   6.262
 2196SOL    HW1 7487   2.068   0.611   6.275
 2196SOL    HW2 7488   1.976   0.743   6.243
 2197SOL     OW 7489   4.920   3.710   1.579
 2197SOL    HW1 7490   4.875   3.779   1.524
 2197SOL    HW2 7491   4.852   3.660   1.632
 2198SOL     OW 7492   6.840   2.203   6.964
 2198SOL    HW1 7493   6.933   2.168   6.976
 2198SOL    HW2 7494   6.843   2.301   6.948
 2199SOL     OW 7495   5.384   0.606   1.441
 2199SOL    HW1 7496   5.336   0.555   1.369
 2199SOL    HW2 7497   5.483   0.596   1.428
 2200SOL     OW 7498   4.105   0.396   4.904
 2200SOL    HW1 7499   4.144   0.416   4.814
 2200SOL    HW2 7500   4.100   0.481   4.957
 2201SOL     OW 7501   6.623   3.310   2.570
 2201SOL    HW1 7502   6.613   3.217   2.533
 2201SOL    HW2 7503   6.584   3.313   2.662
 2202SOL     OW 7504   3.577   4.974   4.521
 2202SOL    HW1 7505   3.622   4.935   4.440
 2202SOL    HW2 7506   3.486   5.007   4.495
 2203SOL     OW 7507   2.310   2.225   2.357
 2203SOL    HW1 7508   2.363   2.141   2.366
 2203SOL    HW2 7509   2.358   2.289   2.296
 2204SOL     OW 7510   3.499   1.363   6.751
 2204SOL    HW1 7511   3.500   1.276   6.800
 2204SOL    HW2 7512   3.411   1.409   6.768
 2205SOL     OW 7513   1.290   0.226   6.672
 2205SOL    HW1 7514   1.224   0.156   6.646
 2205SOL    HW2 7515   1.376   0.182   6.700
 2206SOL     OW 7516   3.137   4.513   5.365
 2206SOL    HW1 7517   3.061   4.490   5.305
 2206SOL    HW2 7518   3.115   4.488   5.459
 2207SOL     OW 7519   2.054   3.953   6.641
 2207SOL    HW1 7520   2.084   4.029   6.699
 2207SOL    HW2 7521   2.133   3.902   6.609
 2208SOL     OW 7522   1.954   4.681   2.238
 2208SOL    HW1 7523   1.929   4.767   2.193
 2208SOL    HW2 7524   1.881   4.652   2.298
 2209SOL     OW 7525   1.409   6.179   5.581
 2209SOL    HW1 7526   1.348   6.149   5.655
 2209SOL    HW2 7527   1.504   6.167   5.609
 2210SOL     OW 7528   0.218   4.726   3.623
 2210SOL    HW1 7529   0.219   4.659   3.698
 2210SOL    HW2 7530   0.309   4.768   3.616
 2211SOL     OW 7531   5.560   1.345   6.340
 2211SOL    HW1 7532   5.599   1.302   6.421
 2211SOL    HW2 7533   5.589   1.294   6.259
 2212SOL     OW 7534   1.116   6.253   0.147
 2212SOL    HW1 7535   1.091   6.171   0.094
 2212SOL    HW2 7536   1.214   6.252   0.167
 2213SOL     OW 7537   4.592   2.654   5.039
 2213SOL    HW1 7538   4.610   2.726   5.107
 2213SOL    HW2 7539   4.615   2.689   4.948
 2214SOL     OW 7540   4.796   0.893   5.448
 2214SOL    HW1 7541   4.722   0.836   5.485
 2214SOL    HW2 7542   4.797   0.885   5.349
 2215SOL     OW 7543   6.873   1.434   5.671
 2215SOL    HW1 7544   6.875   1.432   5.571
 2215SOL    HW2 7545   6.801   1.497   5.701
 2216SOL     OW 7546   1.699   0.831   6.856
 2216SOL    HW1 7547   1.658   0.917   6.888
 2216SOL    HW2 7548   1.652   0.802   6.773
 2217SOL     OW 7549   3.085   0.379   1.041
 2217SOL    HW1 7550   3.016   0.321   1.084
 2217SOL    HW2 7551   3.137   0.426   1.112
 2218SOL     OW 7552   1.303   6.518   0.397
 2218SOL    HW1 7553   1.297   6.552   0.491
 2218SOL    HW2 7554   1.301   6.596   0.333
 2219SOL     OW 7555   1.192   4.288   3.121
 2219SOL    HW1 7556   1.286   4.297   3.088
 2219SOL    HW2 7557   1.182   4.339   3.206
 2220SOL     OW 7558   0.695   1.477   4.418
 2220SOL    HW1 7559   0.728   1.545   4.484
 2220SOL    HW2 7560   0.684   1.520   4.329
 2221SOL     OW 7561   6.626   0.686   0.031
 2221SOL    HW1 7562   6.641   0.738   6.974
 2221SOL    HW2 7563   6.713   0.650   0.065
 2222SOL     OW 7564   3.763   1.250   0.682
 2222SOL    HW1 7565   3.686   1.294   0.728
 2222SOL    HW2 7566   3.791   1.170   0.735
 2223SOL     OW 7567   5.836   6.240   3.713
 2223SOL    HW1 7568   5.740   6.263   3.700
 2223SOL    HW2 7569   5.888   6.270   3.633
 2224SOL     OW 7570   1.921   4.431   1.233
 2224SOL    HW1 7571   1.890   4.412   1.140
 2224SOL    HW2 7572   1.984   4.509   1.232
 2225SOL     OW 7573   6.403   5.480   3.226
 2225SOL    HW1 7574   6.407   5.510   3.322
 2225SOL    HW2 7575   6.318   5.429   3.211
 2226SOL     OW 7576   3.975   3.543   0.642
 2226SOL    HW1 7577   3.883   3.574   0.617
 2226SOL    HW2 7578   4.009   3.479   0.573
 2227SOL     OW 7579   5.888   4.297   0.173
 2227SOL    HW1 7580   5.820   4.229   0.143
 2227SOL    HW2 7581   5.901   4.365   0.100
 2228SOL     OW 7582   3.329   5.879   0.796
 2228SOL    HW1 7583   3.340   5.782   0.775
 2228SOL    HW2 7584   3.232   5.903   0.787
 2229SOL     OW 7585   4.018   1.664   4.124
 2229SOL    HW1 7586   3.992   1.755   4.157
 2229SOL    HW2 7587   3.960   1.639   4.047
 2230SOL     OW 7588   1.102   6.363   4.184
 2230SOL    HW1 7589   1.047   6.447   4.188
 2230SOL    HW2 7590   1.079   6.312   4.102
 2231SOL     OW 7591   2.052   1.856   1.736
 2231SOL    HW1 7592   1.996   1.839   1.655
 2231SOL    HW2 7593   2.041   1.781   1.801
 2232SOL     OW 7594   0.930   2.847   4.109
 2232SOL    HW1 7595   0.895   2.755   4.097
 2232SOL    HW2 7596   0.983   2.852   4.194
 2233SOL     OW 7597   3.024   4.906   0.475
 2233SOL    HW1 7598   3.073   4.937   0.557
 2233SOL    HW2 7599   3.084   4.848   0.420
 2234SOL     OW 7600   4.677   2.151   1.182
 2234SOL    HW1 7601   4.676   2.184   1.277
 2234SOL    HW2 7602   4.675   2.051   1.181
 2235SOL     OW 7603   1.477   0.186   0.339
 2235SOL    HW1 7604   1.477   0.254   0.413
 2235SOL    HW2 7605   1.531   0.219   0.263
 2236SOL     OW 7606   1.222   4.848   0.774
 2236SOL    HW1 7607   1.185   4.909   0.704
 2236SOL    HW2 7608   1.154   4.780   0.799
 2237SOL     OW 7609   6.203   3.584   5.102
 2237SOL    HW1 7610   6.236   3.676   5.082
 2237SOL    HW2 7611   6.204   3.529   5.019
 2238SOL     OW 7612   6.330   5.026   2.762
 2238SOL    HW1 7613   6.355   4.944   2.710
 2238SOL    HW2 7614   6.374   5.106   2.723
 2239SOL     OW 7615   4.216   5.067   3.579
 2239SOL    HW1 7616   4.224   4.995   3.648
 2239SOL    HW2 7617   4.228   5.028   3.488
 2240SOL     OW 7618   5.712   5.372   3.863
 2240SOL    HW1 7619   5.743   5.299   3.923
 2240SOL    HW2 7620   5.711   5.339   3.768
 2241SOL     OW 7621   0.264   6.188   2.551
 2241SOL    HW1 7622   0.318   6.127   2.492
 2241SOL    HW2 7623   0.315   6.273   2.565
 2242SOL     OW 7624   5.438   1.984   3.517
 2242SOL    HW1 7625   5.395   1.901   3.551
 2242SOL    HW2 7626   5.474   2.037   3.594
 2243SOL     OW 7627   2.717   6.156   5.371
 2243SOL    HW1 7628   2.723   6.240   5.426
 2243SOL    HW2 7629   2.741   6.177   5.276
 2244SOL     OW 7630   3.913   0.513   3.081
 2244SOL    HW1 7631   3.923   0.472   2.991
 2244SOL    HW2 7632   3.941   0.448   3.152
 2245SOL     OW 7633   0.604   2.006   2.094
 2245SOL    HW1 7634   0.608   2.010   1.994
 2245SOL    HW2 7635   0.610   2.099   2.131
 2246SOL     OW 7636   1.528   1.947   5.085
 2246SOL    HW1 7637   1.518   1.957   5.184
 2246SOL    HW2 7638   1.541   2.037   5.044
 2247SOL     OW 7639   2.223   2.409   6.634
 2247SOL    HW1 7640   2.300   2.354   6.667
 2247SOL    HW2 7641   2.192   2.373   6.546
 2248SOL     OW 7642   5.110   4.135   5.659
 2248SOL    HW1 7643   5.089   4.055   5.714
 2248SOL    HW2 7644   5.140   4.105   5.568
 2249SOL     OW 7645   5.976   6.722   2.742
 2249SOL    HW1 7646   5.988   6.815   2.774
 2249SOL    HW2 7647   5.880   6.695   2.752
 2250SOL     OW 7648   5.183   3.959   1.135
 2250SOL    HW1 7649   5.138   3.873   1.111
 2250SOL    HW2 7650   5.200   4.012   1.052
 2251SOL     OW 7651   5.684   1.454   0.257
 2251SOL    HW1 7652   5.741   1.484   0.180
 2251SOL    HW2 7653   5.620   1.385   0.225
 2252SOL     OW 7654   6.182   2.418   4.654
 2252SOL    HW1 7655   6.219   2.334   4.614
 2252SOL    HW2 7656   6.256   2.485   4.667
 2253SOL     OW 7657   0.962   3.007   6.518
 2253SOL    HW1 7658   0.863   3.018   6.521
 2253SOL    HW2 7659   0.999   3.065   6.444
 2254SOL     OW 7660   2.312   2.834   5.777
 2254SOL    HW1 7661   2.297   2.915   5.832
 2254SOL    HW2 7662   2.255   2.759   5.810
 2255SOL     OW 7663   6.181   2.461   0.949
 2255SOL    HW1 7664   6.085   2.434   0.941
 2255SOL    HW2 7665   6.240   2.380   0.940
 2256SOL     OW 7666   4.115   5.864   1.743
 2256SOL    HW1 7667   4.122   5.822   1.653
 2256SOL    HW2 7668   4.084   5.797   1.810
 2257SOL     OW 7669   0.894   2.584   4.446
 2257SOL    HW1 7670   0.946   2.663   4.413
 2257SOL    HW2 7671   0.846   2.608   4.531
 2258SOL     OW 7672   1.444   5.856   4.579
 2258SOL    HW1 7673   1.350   5.838   4.550
 2258SOL    HW2 7674   1.464   5.954   4.570
 2259SOL     OW 7675   5.101   3.663   6.259
 2259SOL    HW1 7676   5.127   3.568   6.276
 2259SOL    HW2 7677   5.160   3.701   6.188
 2260SOL     OW 7678   4.560   4.501   3.053
 2260SOL    HW1 7679   4.612   4.578   3.015
 2260SOL    HW2 7680   4.572   4.421   2.994
 2261SOL     OW 7681   5.866   6.380   0.639
 2261SOL    HW1 7682   5.872   6.405   0.736
 2261SOL    HW2 7683   5.773   6.351   0.618
 2262SOL     OW 7684   5.974   2.325   2.753
 2262SOL    HW1 7685   5.940   2.235   2.779
 2262SOL    HW2 7686   6.069   2.335   2.781
 2263SOL     OW 7687   2.699   5.737   6.216
 2263SOL    HW1 7688   2.685   5.653   6.269
 2263SOL    HW2 7689   2.626   5.746   6.149
 2264SOL     OW 7690   3.224   4.036   2.629
 2264SOL    HW1 7691   3.282   4.086   2.564
 2264SOL    HW2 7692   3.242   3.938   2.621
 2265SOL     OW 7693   0.529   0.852   3.330
 2265SOL    HW1 7694   0.586   0.902   3.395
 2265SOL    HW2 7695   0.436   0.843   3.367
 2266SOL     OW 7696   6.955   1.633   1.121
 2266SOL    HW1 7697   7.020   1.579   1.068
 2266SOL    HW2 7698   6.985   1.728   1.124
 2267SOL     OW 7699   5.372   2.502   4.573
 2267SOL    HW1 7700   5.357   2.404   4.588
 2267SOL    HW2 7701   5.469   2.523   4.581
 2268SOL     OW 7702   6.754   5.013   0.366
 2268SOL    HW1 7703   6.776   5.107   0.341
 2268SOL    HW2 7704   6.655   4.999   0.361
 2269SOL     OW 7705   5.991   5.730   5.321
 2269SOL    HW1 7706   6.037   5.705   5.405
 2269SOL    HW2 7707   5.956   5.824   5.329
 2270SOL     OW 7708   3.750   4.077   0.581
 2270SOL    HW1 7709   3.674   4.132   0.618
 2270SOL    HW2 7710   3.804   4.040   0.656
 2271SOL     OW 7711   6.208   3.872   1.449
 2271SOL    HW1 7712   6.272   3.885   1.373
 2271SOL    HW2 7713   6.174   3.961   1.480
 2272SOL     OW 7714   6.211   1.992   4.812
 2272SOL    HW1 7715   6.194   2.063   4.880
 2272SOL    HW2 7716   6.234   1.906   4.858
 2273SOL     OW 7717   1.557   1.905   2.224
 2273SOL    HW1 7718   1.557   1.843   2.302
 2273SOL    HW2 7719   1.464   1.935   2.205
 2274SOL     OW 7720   1.060   3.664   5.534
 2274SOL    HW1 7721   1.151   3.632   5.558
 2274SOL    HW2 7722   0.992   3.600   5.569
 2275SOL     OW 7723   4.671   6.938   4.393
 2275SOL    HW1 7724   4.641   7.005   4.326
 2275SOL    HW2 7725   4.758   6.898   4.364
 2276SOL     OW 7726   3.268   5.049   1.317
 2276SOL    HW1 7727   3.357   5.051   1.363
 2276SOL    HW2 7728   3.239   4.954   1.306
 2277SOL     OW 7729   3.102   3.653   4.854
 2277SOL    HW1 7730   3.080   3.578   4.917
 2277SOL    HW2 7731   3.020   3.709   4.839
 2278SOL     OW 7732   4.855   6.813   3.763
 2278SOL    HW1 7733   4.802   6.761   3.695
 2278SOL    HW2 7734   4.896   6.893   3.719
 2279SOL     OW 7735   5.986   4.849   4.349
 2279SOL    HW1 7736   6.060   4.835   4.284
 2279SOL    HW2 7737   5.916   4.907   4.308
 2280SOL     OW 7738   5.968   6.366   4.865
 2280SOL    HW1 7739   5.996   6.348   4.959
 2280SOL    HW2 7740   5.905   6.294   4.835
 2281SOL     OW 7741   3.404   1.382   1.949
 2281SOL    HW1 7742   3.437   1.337   1.866
 2281SOL    HW2 7743   3.480   1.392   2.013
 2282SOL     OW 7744   5.063   6.015   5.245
 2282SOL    HW1 7745   4.977   5.988   5.288
 2282SOL    HW2 7746   5.113   6.076   5.307
 2283SOL     OW 7747   0.228   3.923   1.728
 2283SOL    HW1 7748   0.249   3.840   1.676
 2283SOL    HW2 7749   0.134   3.917   1.764
 2284SOL     OW 7750   2.278   1.912   1.475
 2284SOL    HW1 7751   2.361   1.871   1.438
 2284SOL    HW2 7752   2.281   1.909   1.575
 2285SOL     OW 7753   2.122   3.370   6.761
 2285SOL    HW1 7754   2.120   3.435   6.685
 2285SOL    HW2 7755   2.056   3.297   6.744
 2286SOL     OW 7756   6.680   5.983   4.920
 2286SOL    HW1 7757   6.681   5.956   5.017
 2286SOL    HW2 7758   6.718   6.075   4.911
 2287SOL     OW 7759   2.504   2.646   1.750
 2287SOL    HW1 7760   2.410   2.669   1.774
 2287SOL    HW2 7761   2.544   2.589   1.822
 2288SOL     OW 7762   0.264   5.902   4.121
 2288SOL    HW1 7763   0.180   5.944   4.155
 2288SOL    HW2 7764   0.270   5.808   4.156
 2289SOL     OW 7765   5.873   3.543   2.304
 2289SOL    HW1 7766   5.884   3.464   2.365
 2289SOL    HW2 7767   5.777   3.567   2.297
 2290SOL     OW 7768   2.738   3.560   1.816
 2290SOL    HW1 7769   2.760   3.463   1.800
 2290SOL    HW2 7770   2.690   3.596   1.735
 2291SOL     OW 7771   2.211   2.047   0.844
 2291SOL    HW1 7772   2.120   2.018   0.815
 2291SOL    HW2 7773   2.235   2.002   0.930
 2292SOL     OW 7774   5.282   3.236   4.000
 2292SOL    HW1 7775   5.185   3.224   4.025
 2292SOL    HW2 7776   5.301   3.333   3.988
 2293SOL     OW 7777   6.046   1.048   0.784
 2293SOL    HW1 7778   5.975   1.075   0.849
 2293SOL    HW2 7779   6.136   1.071   0.821
 2294SOL     OW 7780   2.969   2.096   6.320
 2294SOL    HW1 7781   3.034   2.121   6.248
 2294SOL    HW2 7782   2.897   2.039   6.281
 2295SOL     OW 7783   6.878   1.079   2.497
 2295SOL    HW1 7784   6.782   1.074   2.470
 2295SOL    HW2 7785   6.900   1.004   2.559
 2296SOL     OW 7786   2.698   5.098   2.901
 2296SOL    HW1 7787   2.664   5.051   2.983
 2296SOL    HW2 7788   2.794   5.071   2.886
 2297SOL     OW 7789   4.758   4.738   6.106
 2297SOL    HW1 7790   4.768   4.685   6.021
 2297SOL    HW2 7791   4.675   4.709   6.154
 2298SOL     OW 7792   3.510   3.830   3.178
 2298SOL    HW1 7793   3.544   3.748   3.224
 2298SOL    HW2 7794   3.473   3.805   3.088
 2299SOL     OW 7795   4.739   4.071   5.097
 2299SOL    HW1 7796   4.671   4.144   5.089
 2299SOL    HW2 7797   4.750   4.046   5.194
 2300SOL     OW 7798   3.530   7.019   3.510
 2300SOL    HW1 7799   3.630   7.011   3.513
 2300SOL    HW2 7800   3.499   0.054   3.582
 2301SOL     OW 7801   3.453   3.044   3.560
 2301SOL    HW1 7802   3.375   3.068   3.502
 2301SOL    HW2 7803   3.422   2.984   3.634
 2302SOL     OW 7804   3.692   0.360   1.413
 2302SOL    HW1 7805   3.622   0.321   1.353
 2302SOL    HW2 7806   3.703   0.457   1.391
 2303SOL     OW 7807   2.157   2.759   1.504
 2303SOL    HW1 7808   2.195   2.705   1.579
 2303SOL    HW2 7809   2.223   2.764   1.429
 2304SOL     OW 7810   5.581   5.441   4.154
 2304SOL    HW1 7811   5.635   5.449   4.238
 2304SOL    HW2 7812   5.642   5.437   4.075
 2305SOL     OW 7813   2.357   0.425   3.600
 2305SOL    HW1 7814   2.352   0.499   3.668
 2305SOL    HW2 7815   2.452   0.401   3.583
 2306SOL     OW 7816   1.515   5.165   2.341
 2306SOL    HW1 7817   1.592   5.122   2.388
 2306SOL    HW2 7818   1.460   5.217   2.406
 2307SOL     OW 7819   0.848   3.401   5.188
 2307SOL    HW1 7820   0.836   3.377   5.284
 2307SOL    HW2 7821   0.933   3.363   5.153
 2308SOL     OW 7822   2.718   4.419   1.159
 2308SOL    HW1 7823   2.816   4.396   1.165
 2308SOL    HW2 7824   2.705   4.515   1.180
 2309SOL     OW 7825   1.598   0.887   3.985
 2309SOL    HW1 7826   1.668   0.886   3.913
 2309SOL    HW2 7827   1.512   0.853   3.948
 2310SOL     OW 7828   6.409   6.212   2.369
 2310SOL    HW1 7829   6.407   6.203   2.469
 2310SOL    HW2 7830   6.485   6.273   2.343
 2311SOL     OW 7831   2.329   5.904   0.201
 2311SOL    HW1 7832   2.389   5.932   0.276
 2311SOL    HW2 7833   2.377   5.838   0.144
 2312SOL     OW 7834   4.191   5.528   3.525
 2312SOL    HW1 7835   4.139   5.444   3.541
 2312SOL    HW2 7836   4.148   5.580   3.451
 2313SOL     OW 7837   4.891   5.049   1.956
 2313SOL    HW1 7838   4.930   5.071   2.045
 2313SOL    HW2 7839   4.961   5.059   1.885
 2314SOL     OW 7840   3.715   6.649   3.075
 2314SOL    HW1 7841   3.738   6.602   2.989
 2314SOL    HW2 7842   3.639   6.601   3.119
 2315SOL     OW 7843   5.354   3.587   5.964
 2315SOL    HW1 7844   5.406   3.620   5.885
 2315SOL    HW2 7845   5.315   3.665   6.013
 2316SOL     OW 7846   5.064   2.382   3.616
 2316SOL    HW1 7847   4.979   2.329   3.611
 2316SOL    HW2 7848   5.123   2.356   3.540
 2317SOL     OW 7849   0.136   5.011   3.341
 2317SOL    HW1 7850   0.104   5.105   3.351
 2317SOL    HW2 7851   0.097   4.954   3.413
 2318SOL     OW 7852   0.348   2.571   3.968
 2318SOL    HW1 7853   0.327   2.482   3.928
 2318SOL    HW2 7854   0.438   2.600   3.937
 2319SOL     OW 7855   1.332   4.436   5.062
 2319SOL    HW1 7856   1.337   4.535   5.049
 2319SOL    HW2 7857   1.407   4.392   5.012
 2320SOL     OW 7858   0.161   2.878   4.245
 2320SOL    HW1 7859   0.154   2.969   4.204
 2320SOL    HW2 7860   0.083   2.822   4.218
 2321SOL     OW 7861   3.576   0.799   5.289
 2321SOL    HW1 7862   3.534   0.737   5.222
 2321SOL    HW2 7863   3.676   0.791   5.284
 2322SOL     OW 7864   1.844   2.174   5.564
 2322SOL    HW1 7865   1.847   2.259   5.617
 2322SOL    HW2 7866   1.937   2.141   5.550
 2323SOL     OW 7867   2.980   5.129   2.826
 2323SOL    HW1 7868   3.035   5.061   2.779
 2323SOL    HW2 7869   2.978   5.214   2.773
 2324SOL     OW 7870   0.093   5.985   2.635
 2324SOL    HW1 7871   0.122   6.065   2.583
 2324SOL    HW2 7872   0.163   5.959   2.701
 2325SOL     OW 7873   1.113   3.953   1.741
 2325SOL    HW1 7874   1.136   3.858   1.762
 2325SOL    HW2 7875   1.016   3.969   1.762
 2326SOL     OW 7876   2.566   3.641   5.942
 2326SOL    HW1 7877   2.510   3.589   5.878
 2326SOL    HW2 7878   2.625   3.580   5.993
 2327SOL     OW 7879   4.881   2.581   4.716
 2327SOL    HW1 7880   4.868   2.526   4.799
 2327SOL    HW2 7881   4.922   2.523   4.645
 2328SOL     OW 7882   4.775   0.979   3.700
 2328SOL    HW1 7883   4.845   0.919   3.737
 2328SOL    HW2 7884   4.746   1.044   3.770
 2329SOL     OW 7885   1.372   5.511   4.199
 2329SOL    HW1 7886   1.329   5.455   4.128
 2329SOL    HW2 7887   1.383   5.457   4.282
 2330SOL     OW 7888   0.063   4.553   2.657
 2330SOL    HW1 7889   0.125   4.626   2.629
 2330SOL    HW2 7890   0.090   4.468   2.611
 2331SOL     OW 7891   6.293   4.736   6.656
 2331SOL    HW1 7892   6.307   4.835   6.661
 2331SOL    HW2 7893   6.329   4.701   6.570
 2332SOL     OW 7894   5.130   2.035   5.599
 2332SOL    HW1 7895   5.113   2.026   5.697
 2332SOL    HW2 7896   5.045   2.060   5.553
 2333SOL     OW 7897   7.024   5.081   2.830
 2333SOL    HW1 7898   6.966   4.999   2.827
 2333SOL    HW2 7899   7.009   5.129   2.916
 2334SOL     OW 7900   3.311   6.961   6.936
 2334SOL    HW1 7901   3.276   6.952   0.002
 2334SOL    HW2 7902   3.256   6.904   6.874
 2335SOL     OW 7903   6.452   1.266   3.249
 2335SOL    HW1 7904   6.469   1.280   3.151
 2335SOL    HW2 7905   6.443   1.169   3.268
 2336SOL     OW 7906   4.722   1.123   5.589
 2336SOL    HW1 7907   4.752   1.032   5.560
 2336SOL    HW2 7908   4.686   1.173   5.510
 2337SOL     OW 7909   5.158   0.479   3.762
 2337SOL    HW1 7910   5.124   0.471   3.669
 2337SOL    HW2 7911   5.085   0.512   3.822
 2338SOL     OW 7912   0.724   6.825   6.814
 2338SOL    HW1 7913   0.786   6.903   6.799
 2338SOL    HW2 7914   0.777   6.740   6.814
 2339SOL     OW 7915   3.233   3.640   5.633
 2339SOL    HW1 7916   3.276   3.716   5.585
 2339SOL    HW2 7917   3.270   3.554   5.598
 2340SOL     OW 7918   3.824   6.772   5.659
 2340SOL    HW1 7919   3.812   6.857   5.606
 2340SOL    HW2 7920   3.904   6.723   5.625
 2341SOL     OW 7921   5.166   3.926   0.243
 2341SOL    HW1 7922   5.162   3.882   0.333
 2341SOL    HW2 7923   5.206   4.017   0.252
 2342SOL     OW 7924   0.785   6.325   4.952
 2342SOL    HW1 7925   0.833   6.242   4.980
 2342SOL    HW2 7926   0.697   6.300   4.911
 2343SOL     OW 7927   1.497   0.051   0.786
 2343SOL    HW1 7928   1.565   0.122   0.807
 2343SOL    HW2 7929   1.405   0.089   0.801
 2344SOL     OW 7930   2.463   1.993   2.364
 2344SOL    HW1 7931   2.455   1.915   2.426
 2344SOL    HW2 7932   2.462   1.962   2.270
 2345SOL     OW 7933   1.619   6.862   5.210
 2345SOL    HW1 7934   1.617   6.938   5.275
 2345SOL    HW2 7935   1.699   6.804   5.229
 2346SOL     OW 7936   4.689   2.965   5.246
 2346SOL    HW1 7937   4.721   2.954   5.152
 2346SOL    HW2 7938   4.763   3.001   5.302
 2347SOL     OW 7939   1.861   4.346   2.226
 2347SOL    HW1 7940   1.944   4.336   2.171
 2347SOL    HW2 7941   1.831   4.442   2.224
 2348SOL     OW 7942   1.906   6.227   3.528
 2348SOL    HW1 7943   1.897   6.219   3.627
 2348SOL    HW2 7944   1.982   6.170   3.497
 2349SOL     OW 7945   1.003   6.281   6.373
 2349SOL    HW1 7946   1.070   6.322   6.312
 2349SOL    HW2 7947   1.048   6.212   6.430
 2350SOL     OW 7948   3.340   0.182   5.872
 2350SOL    HW1 7949   3.375   0.272   5.895
 2350SOL    HW2 7950   3.407   0.112   5.899
 2351SOL     OW 7951   3.317   4.920   3.725
 2351SOL    HW1 7952   3.237   4.860   3.714
 2351SOL    HW2 7953   3.328   4.976   3.643
 2352SOL     OW 7954   6.857   3.914   3.384
 2352SOL    HW1 7955   6.808   3.983   3.331
 2352SOL    HW2 7956   6.803   3.829   3.385
 2353SOL     OW 7957   2.352   4.231   5.237
 2353SOL    HW1 7958   2.351   4.171   5.157
 2353SOL    HW2 7959   2.447   4.243   5.268
 2354SOL     OW 7960   3.649   2.386   6.774
 2354SOL    HW1 7961   3.587   2.375   6.695
 2354SOL    HW2 7962   3.612   2.455   6.835
 2355SOL     OW 7963   0.930   6.721   0.420
 2355SOL    HW1 7964   0.860   6.668   0.373
 2355SOL    HW2 7965   0.903   6.818   0.422
 2356SOL     OW 7966   2.213   4.629   1.977
 2356SOL    HW1 7967   2.273   4.658   1.903
 2356SOL    HW2 7968   2.204   4.703   2.044
 2357SOL     OW 7969   4.956   4.951   4.171
 2357SOL    HW1 7970   4.978   4.893   4.093
 2357SOL    HW2 7971   5.034   5.010   4.193
 2358SOL     OW 7972   3.029   6.664   4.135
 2358SOL    HW1 7973   3.062   6.757   4.146
 2358SOL    HW2 7974   2.959   6.661   4.064
 2359SOL     OW 7975   2.564   1.415   5.855
 2359SOL    HW1 7976   2.584   1.492   5.916
 2359SOL    HW2 7977   2.567   1.446   5.760
 2360SOL     OW 7978   3.966   4.759   0.071
 2360SOL    HW1 7979   4.046   4.748   0.131
 2360SOL    HW2 7980   3.908   4.678   0.079
 2361SOL     OW 7981   3.067   6.742   3.687
 2361SOL    HW1 7982   3.105   6.649   3.679
 2361SOL    HW2 7983   2.969   6.736   3.707
 2362SOL     OW 7984   4.779   6.250   5.026
 2362SOL    HW1 7985   4.744   6.242   5.119
 2362SOL    HW2 7986   4.780   6.347   4.999
 2363SOL     OW 7987   4.612   1.889   5.249
 2363SOL    HW1 7988   4.710   1.899   5.265
 2363SOL    HW2 7989   4.566   1.872   5.336
 2364SOL     OW 7990   5.391   1.542   1.659
 2364SOL    HW1 7991   5.333   1.541   1.740
 2364SOL    HW2 7992   5.365   1.618   1.600
 2365SOL     OW 7993   6.239   4.765   5.364
 2365SOL    HW1 7994   6.152   4.717   5.353
 2365SOL    HW2 7995   6.224   4.851   5.413
 2366SOL     OW 7996   0.889   4.028   6.041
 2366SOL    HW1 7997   0.888   3.934   6.076
 2366SOL    HW2 7998   0.911   4.028   5.944
 2367SOL     OW 7999   0.506   3.559   5.706
 2367SOL    HW1 8000   0.545   3.607   5.627
 2367SOL    HW2 8001   0.496   3.462   5.685
 2368SOL     OW 8002   4.519   1.250   5.059
 2368SOL    HW1 8003   4.514   1.156   5.023
 2368SOL    HW2 8004   4.465   1.256   5.142
 2369SOL     OW 8005   2.794   2.040   3.825
 2369SOL    HW1 8006   2.850   1.970   3.780
 2369SOL    HW2 8007   2.706   1.999   3.852
 2370SOL     OW 8008   4.623   2.646   0.742
 2370SOL    HW1 8009   4.665   2.726   0.786
 2370SOL    HW2 8010   4.612   2.665   0.644
 2371SOL     OW 8011   0.578   5.866   2.656
 2371SOL    HW1 8012   0.596   5.856   2.558
 2371SOL    HW2 8013   0.550   5.778   2.694
 2372SOL     OW 8014   6.427   0.455   6.502
 2372SOL    HW1 8015   6.510   0.430   6.551
 2372SOL    HW2 8016   6.426   0.554   6.485
 2373SOL     OW 8017   6.331   0.716   5.913
 2373SOL    HW1 8018   6.259   0.675   5.969
 2373SOL    HW2 8019   6.361   0.650   5.844
 2374SOL     OW 8020   6.032   5.799   3.313
 2374SOL    HW1 8021   5.977   5.879   3.291
 2374SOL    HW2 8022   6.118   5.802   3.262
 2375SOL     OW 8023   0.751   0.623   3.857
 2375SOL    HW1 8024   0.841   0.647   3.893
 2375SOL    HW2 8025   0.761   0.581   3.767
 2376SOL     OW 8026   6.366   2.662   3.347
 2376SOL    HW1 8027   6.269   2.688   3.350
 2376SOL    HW2 8028   6.379   2.575   3.395
 2377SOL     OW 8029   3.716   4.081   5.277
 2377SOL    HW1 8030   3.621   4.055   5.297
 2377SOL    HW2 8031   3.717   4.151   5.207
 2378SOL     OW 8032   5.469   1.816   0.341
 2378SOL    HW1 8033   5.386   1.873   0.339
 2378SOL    HW2 8034   5.516   1.824   0.253
 2379SOL     OW 8035   6.510   4.114   0.320
 2379SOL    HW1 8036   6.470   4.189   0.269
 2379SOL    HW2 8037   6.448   4.035   0.319
 2380SOL     OW 8038   5.761   1.443   5.320
 2380SOL    HW1 8039   5.703   1.412   5.396
 2380SOL    HW2 8040   5.762   1.543   5.318
 2381SOL     OW 8041   1.538   5.053   4.864
 2381SOL    HW1 8042   1.592   5.045   4.780
 2381SOL    HW2 8043   1.447   5.089   4.842
 2382SOL     OW 8044   2.429   6.272   2.653
 2382SOL    HW1 8045   2.445   6.184   2.697
 2382SOL    HW2 8046   2.373   6.259   2.571
 2383SOL     OW 8047   5.281   5.729   6.427
 2383SOL    HW1 8048   5.243   5.738   6.335
 2383SOL    HW2 8049   5.355   5.796   6.439
 2384SOL     OW 8050   1.376   2.467   1.006
 2384SOL    HW1 8051   1.389   2.392   0.941
 2384SOL    HW2 8052   1.308   2.440   1.074
 2385SOL     OW 8053   0.942   0.895   0.116
 2385SOL    HW1 8054   0.952   0.897   0.017
 2385SOL    HW2 8055   0.846   0.903   0.141
 2386SOL     OW 8056   3.778   4.910   4.679
 2386SOL    HW1 8057   3.829   4.870   4.602
 2386SOL    HW2 8058   3.685   4.933   4.649
 2387SOL     OW 8059   6.770   3.731   4.676
 2387SOL    HW1 8060   6.856   3.684   4.659
 2387SOL    HW2 8061   6.765   3.814   4.619
 2388SOL     OW 8062   0.252   1.517   5.780
 2388SOL    HW1 8063   0.309   1.492   5.858
 2388SOL    HW2 8064   0.182   1.447   5.765
 2389SOL     OW 8065   5.026   4.743   4.013
 2389SOL    HW1 8066   4.927   4.729   4.006
 2389SOL    HW2 8067   5.072   4.655   4.002
 2390SOL     OW 8068   3.480   4.053   4.956
 2390SOL    HW1 8069   3.434   4.132   4.915
 2390SOL    HW2 8070   3.430   3.970   4.932
 2391SOL     OW 8071   3.849   3.919   5.821
 2391SOL    HW1 8072   3.842   3.943   5.918
 2391SOL    HW2 8073   3.768   3.866   5.794
 2392SOL     OW 8074   3.169   4.127   6.242
 2392SOL    HW1 8075   3.255   4.083   6.220
 2392SOL    HW2 8076   3.130   4.085   6.324
 2393SOL     OW 8077   3.916   5.285   1.259
 2393SOL    HW1 8078   3.978   5.353   1.298
 2393SOL    HW2 8079   3.966   5.199   1.245
 2394SOL     OW 8080   0.515   3.444   4.124
 2394SOL    HW1 8081   0.582   3.518   4.127
 2394SOL    HW2 8082   0.423   3.481   4.124
 2395SOL     OW 8083   0.101   3.180   0.308
 2395SOL    HW1 8084   0.004   3.157   0.310
 2395SOL    HW2 8085   0.119   3.258   0.367
 2396SOL     OW 8086   5.433   6.621   0.373
 2396SOL    HW1 8087   5.449   6.591   0.467
 2396SOL    HW2 8088   5.335   6.631   0.358
 2397SOL     OW 8089   0.260   4.657   0.421
 2397SOL    HW1 8090   0.350   4.642   0.379
 2397SOL    HW2 8091   0.228   4.572   0.462
 2398SOL     OW 8092   2.902   5.075   4.938
 2398SOL    HW1 8093   2.944   4.984   4.925
 2398SOL    HW2 8094   2.970   5.137   4.975
 2399SOL     OW 8095   3.739   2.143   3.648
 2399SOL    HW1 8096   3.798   2.105   3.577
 2399SOL    HW2 8097   3.644   2.145   3.615
 2400SOL     OW 8098   2.015   3.712   0.156
 2400SOL    HW1 8099   2.053   3.681   0.069
 2400SOL    HW2 8100   2.012   3.812   0.158
 2401SOL     OW 8101   3.394   0.452   4.293
 2401SOL    HW1 8102   3.382   0.507   4.376
 2401SOL    HW2 8103   3.491   0.451   4.268
 2402SOL     OW 8104   0.066   1.377   3.899
 2402SOL    HW1 8105   7.003   1.409   3.930
 2402SOL    HW2 8106   0.118   1.342   3.977
 2403SOL     OW 8107   3.929   3.533   0.953
 2403SOL    HW1 8108   3.907   3.536   0.856
 2403SOL    HW2 8109   3.972   3.446   0.976
 2404SOL     OW 8110   5.569   1.837   1.665
 2404SOL    HW1 8111   5.518   1.838   1.750
 2404SOL    HW2 8112   5.560   1.925   1.618
 2405SOL     OW 8113   3.415   4.719   5.986
 2405SOL    HW1 8114   3.417   4.619   5.986
 2405SOL    HW2 8115   3.482   4.753   6.053
 2406SOL     OW 8116   2.514   6.646   3.939
 2406SOL    HW1 8117   2.422   6.666   3.905
 2406SOL    HW2 8118   2.507   6.590   4.022
 2407SOL     OW 8119   4.291   2.399   3.013
 2407SOL    HW1 8120   4.348   2.457   3.071
 2407SOL    HW2 8121   4.325   2.401   2.919
 2408SOL     OW 8122   2.354   5.002   2.972
 2408SOL    HW1 8123   2.422   4.994   3.045
 2408SOL    HW2 8124   2.359   5.093   2.931
 2409SOL     OW 8125   2.547   2.976   0.423
 2409SOL    HW1 8126   2.456   2.933   0.423
 2409SOL    HW2 8127   2.563   3.020   0.335
 2410SOL     OW 8128   6.054   3.049   6.067
 2410SOL    HW1 8129   6.058   3.084   6.161
 2410SOL    HW2 8130   6.125   2.980   6.055
 2411SOL     OW 8131   3.122   3.858   5.790
 2411SOL    HW1 8132   3.155   3.765   5.807
 2411SOL    HW2 8133   3.076   3.892   5.871
 2412SOL     OW 8134   2.604   2.767   0.652
 2412SOL    HW1 8135   2.664   2.796   0.726
 2412SOL    HW2 8136   2.594   2.840   0.585
 2413SOL     OW 8137   5.660   3.441   6.493
 2413SOL    HW1 8138   5.716   3.359   6.484
 2413SOL    HW2 8139   5.564   3.415   6.496
 2414SOL     OW 8140   5.771   3.125   3.749
 2414SOL    HW1 8141   5.732   3.217   3.759
 2414SOL    HW2 8142   5.755   3.072   3.832
 2415SOL     OW 8143   1.729   0.167   0.862
 2415SOL    HW1 8144   1.779   0.230   0.801
 2415SOL    HW2 8145   1.794   0.104   0.904
 2416SOL     OW 8146   1.584   2.778   3.777
 2416SOL    HW1 8147   1.599   2.737   3.867
 2416SOL    HW2 8148   1.612   2.713   3.706
 2417SOL     OW 8149   4.889   2.101   0.131
 2417SOL    HW1 8150   4.894   2.198   0.153
 2417SOL    HW2 8151   4.922   2.047   0.208
 2418SOL     OW 8152   3.494   3.663   4.768
 2418SOL    HW1 8153   3.589   3.640   4.789
 2418SOL    HW2 8154   3.464   3.737   4.827
 2419SOL     OW 8155   1.760   0.040   4.091
 2419SOL    HW1 8156   1.673   0.019   4.046
 2419SOL    HW2 8157   1.804   0.117   4.046
 2420SOL     OW 8158   3.480   5.722   1.703
 2420SOL    HW1 8159   3.527   5.637   1.679
 2420SOL    HW2 8160   3.548   5.794   1.718
 2421SOL     OW 8161   3.509   6.569   4.195
 2421SOL    HW1 8162   3.592   6.619   4.172
 2421SOL    HW2 8163   3.445   6.572   4.118
 2422SOL     OW 8164   4.076   0.334   1.061
 2422SOL    HW1 8165   4.013   0.292   1.126
 2422SOL    HW2 8166   4.090   0.273   0.983
 2423SOL     OW 8167   1.386   5.508   1.149
 2423SOL    HW1 8168   1.314   5.554   1.097
 2423SOL    HW2 8169   1.344   5.439   1.209
 2424SOL     OW 8170   5.325   6.349   6.747
 2424SOL    HW1 8171   5.313   6.430   6.803
 2424SOL    HW2 8172   5.404   6.361   6.686
 2425SOL     OW 8173   5.245   6.508   5.532
 2425SOL    HW1 8174   5.205   6.578   5.473
 2425SOL    HW2 8175   5.330   6.541   5.572
 2426SOL     OW 8176   1.412   5.515   3.654
 2426SOL    HW1 8177   1.416   5.466   3.741
 2426SOL    HW2 8178   1.372   5.606   3.668
 2427SOL     OW 8179   4.988   6.183   0.408
 2427SOL    HW1 8180   5.041   6.261   0.442
 2427SOL    HW2 8181   4.986   6.112   0.478
 2428SOL     OW 8182   0.214   0.671   3.222
 2428SOL    HW1 8183   0.305   0.642   3.248
 2428SOL    HW2 8184   0.204   0.770   3.237
 2429SOL     OW 8185   5.627   5.078   2.748
 2429SOL    HW1 8186   5.701   5.065   2.682
 2429SOL    HW2 8187   5.539   5.062   2.703
 2430SOL     OW 8188   5.533   2.669   0.314
 2430SOL    HW1 8189   5.505   2.696   0.406
 2430SOL    HW2 8190   5.482   2.723   0.247
 2431SOL     OW 8191   4.711   1.073   0.696
 2431SOL    HW1 8192   4.654   1.049   0.775
 2431SOL    HW2 8193   4.763   1.156   0.717
 2432SOL     OW 8194   2.790   6.603   1.598
 2432SOL    HW1 8195   2.761   6.694   1.569
 2432SOL    HW2 8196   2.785   6.539   1.522
 2433SOL     OW 8197   1.487   6.946   0.137
 2433SOL    HW1 8198   1.560   6.935   0.070
 2433SOL    HW2 8199   1.477   0.017   0.160
 2434SOL     OW 8200   5.734   1.869   2.974
 2434SOL    HW1 8201   5.637   1.863   2.997
 2434SOL    HW2 8202   5.782   1.788   3.007
 2435SOL     OW 8203   5.450   5.120   0.023
 2435SOL    HW1 8204   5.410   5.200   7.006
 2435SOL    HW2 8205   5.428   5.121   0.121
 2436SOL     OW 8206   1.669   0.390   1.024
 2436SOL    HW1 8207   1.685   0.321   0.953
 2436SOL    HW2 8208   1.757   0.424   1.057
 2437SOL     OW 8209   5.240   6.758   1.350
 2437SOL    HW1 8210   5.224   6.665   1.384
 2437SOL    HW2 8211   5.162   6.816   1.372
 2438SOL     OW 8212   3.788   1.491   3.997
 2438SOL    HW1 8213   3.823   1.399   4.017
 2438SOL    HW2 8214   3.821   1.520   3.907
 2439SOL     OW 8215   0.799   5.077   0.828
 2439SOL    HW1 8216   0.723   5.130   0.867
 2439SOL    HW2 8217   0.771   4.982   0.817
 2440SOL     OW 8218   3.860   0.140   6.296
 2440SOL    HW1 8219   3.767   0.108   6.283
 2440SOL    HW2 8220   3.859   0.231   6.338
 2441SOL     OW 8221   6.094   1.478   6.801
 2441SOL    HW1 8222   6.123   1.406   6.864
 2441SOL    HW2 8223   6.014   1.446   6.750
 2442SOL     OW 8224   5.559   5.319   2.875
 2442SOL    HW1 8225   5.563   5.235   2.821
 2442SOL    HW2 8226   5.501   5.306   2.954
 2443SOL     OW 8227   2.849   0.288   6.707
 2443SOL    HW1 8228   2.858   0.195   6.671
 2443SOL    HW2 8229   2.938   0.318   6.743
 2444SOL     OW 8230   4.248   4.135   0.492
 2444SOL    HW1 8231   4.155   4.110   0.466
 2444SOL    HW2 8232   4.280   4.210   0.433
 2445SOL     OW 8233   5.792   1.413   1.826
 2445SOL    HW1 8234   5.877   1.448   1.788
 2445SOL    HW2 8235   5.737   1.489   1.861
 2446SOL     OW 8236   1.442   2.693   4.103
 2446SOL    HW1 8237   1.520   2.638   4.072
 2446SOL    HW2 8238   1.357   2.646   4.082
 2447SOL     OW 8239   2.500   0.464   0.827
 2447SOL    HW1 8240   2.576   0.465   0.892
 2447SOL    HW2 8241   2.429   0.401   0.859
 2448SOL     OW 8242   6.438   1.236   4.151
 2448SOL    HW1 8243   6.384   1.153   4.164
 2448SOL    HW2 8244   6.514   1.236   4.216
 2449SOL     OW 8245   1.417   3.490   1.511
 2449SOL    HW1 8246   1.506   3.516   1.472
 2449SOL    HW2 8247   1.431   3.441   1.597
 2450SOL     OW 8248   3.380   4.605   6.315
 2450SOL    HW1 8249   3.325   4.606   6.231
 2450SOL    HW2 8250   3.364   4.689   6.366
 2451SOL     OW 8251   1.353   0.590   3.331
 2451SOL    HW1 8252   1.266   0.589   3.282
 2451SOL    HW2 8253   1.356   0.669   3.393
 2452SOL     OW 8254   3.044   2.081   4.218
 2452SOL    HW1 8255   3.023   2.036   4.304
 2452SOL    HW2 8256   2.983   2.160   4.206
 2453SOL     OW 8257   0.329   2.940   0.369
 2453SOL    HW1 8258   0.352   3.031   0.404
 2453SOL    HW2 8259   0.405   2.904   0.315
 2454SOL     OW 8260   2.770   6.696   6.902
 2454SOL    HW1 8261   2.847   6.746   6.862
 2454SOL    HW2 8262   2.690   6.704   6.842
 2455SOL     OW 8263   4.057   0.847   0.317
 2455SOL    HW1 8264   4.005   0.901   0.250
 2455SOL    HW2 8265   4.100   0.909   0.383
 2456SOL     OW 8266   7.010   2.382   6.668
 2456SOL    HW1 8267   0.049   2.405   6.740
 2456SOL    HW2 8268   0.032   2.348   6.588
 2457SOL     OW 8269   6.500   0.728   6.252
 2457SOL    HW1 8270   6.557   0.773   6.183
 2457SOL    HW2 8271   6.462   0.644   6.213
 2458SOL     OW 8272   1.844   6.841   3.715
 2458SOL    HW1 8273   1.877   6.747   3.704
 2458SOL    HW2 8274   1.840   6.886   3.626
 2459SOL     OW 8275   2.779   6.337   5.656
 2459SOL    HW1 8276   2.731   6.383   5.581
 2459SOL    HW2 8277   2.877   6.355   5.648
 2460SOL     OW 8278   1.462   1.305   0.769
 2460SOL    HW1 8279   1.480   1.217   0.726
 2460SOL    HW2 8280   1.518   1.314   0.851
 2461SOL     OW 8281   5.118   0.469   4.329
 2461SOL    HW1 8282   5.216   0.458   4.345
 2461SOL    HW2 8283   5.098   0.566   4.314
 2462SOL     OW 8284   1.928   4.978   6.773
 2462SOL    HW1 8285   1.863   4.912   6.735
 2462SOL    HW2 8286   1.880   5.038   6.837
 2463SOL     OW 8287   5.814   2.209   6.614
 2463SOL    HW1 8288   5.794   2.142   6.543
 2463SOL    HW2 8289   5.733   2.225   6.670
 2464SOL     OW 8290   2.128   3.624   3.049
 2464SOL    HW1 8291   2.110   3.540   3.099
 2464SOL    HW2 8292   2.153   3.602   2.954
 2465SOL     OW 8293   1.273   6.597   6.871
 2465SOL    HW1 8294   1.220   6.652   6.936
 2465SOL    HW2 8295   1.266   6.500   6.897
 2466SOL     OW 8296   2.199   2.005   2.593
 2466SOL    HW1 8297   2.257   1.934   2.552
 2466SOL    HW2 8298   2.253   2.056   2.660
 2467SOL     OW 8299   5.309   1.802   5.246
 2467SOL    HW1 8300   5.266   1.764   5.329
 2467SOL    HW2 8301   5.330   1.727   5.183
 2468SOL     OW 8302   4.072   0.234   0.770
 2468SOL    HW1 8303   4.093   0.328   0.745
 2468SOL    HW2 8304   3.973   0.220   0.769
 2469SOL     OW 8305   4.143   3.464   4.490
 2469SOL    HW1 8306   4.240   3.452   4.471
 2469SOL    HW2 8307   4.122   3.434   4.583
 2470SOL     OW 8308   4.333   4.214   5.946
 2470SOL    HW1 8309   4.322   4.270   6.028
 2470SOL    HW2 8310   4.430   4.188   5.936
 2471SOL     OW 8311   3.338   6.079   0.217
 2471SOL    HW1 8312   3.260   6.132   0.184
 2471SOL    HW2 8313   3.331   6.068   0.316
 2472SOL     OW 8314   4.896   2.160   3.580
 2472SOL    HW1 8315   4.912   2.154   3.482
 2472SOL    HW2 8316   4.920   2.073   3.623
 2473SOL     OW 8317   1.171   3.254   4.567
 2473SOL    HW1 8318   1.210   3.269   4.658
 2473SOL    HW2 8319   1.240   3.277   4.497
 2474SOL     OW 8320   0.179   5.920   1.812
 2474SOL    HW1 8321   0.173   5.851   1.739
 2474SOL    HW2 8322   0.274   5.926   1.844
 2475SOL     OW 8323   3.855   0.688   2.316
 2475SOL    HW1 8324   3.950   0.668   2.337
 2475SOL    HW2 8325   3.845   0.707   2.218
 2476SOL     OW 8326   6.356   1.638   3.031
 2476SOL    HW1 8327   6.431   1.621   3.095
 2476SOL    HW2 8328   6.393   1.658   2.940
 2477SOL     OW 8329   4.086   1.528   2.873
 2477SOL    HW1 8330   4.030   1.514   2.791
 2477SOL    HW2 8331   4.080   1.447   2.931
 2478SOL     OW 8332   5.941   1.645   1.516
 2478SOL    HW1 8333   5.842   1.659   1.517
 2478SOL    HW2 8334   5.973   1.636   1.611
 2479SOL     OW 8335   0.519   2.739   2.260
 2479SOL    HW1 8336   0.617   2.754   2.249
 2479SOL    HW2 8337   0.499   2.711   2.354
 2480SOL     OW 8338   5.262   3.580   0.479
 2480SOL    HW1 8339   5.173   3.535   0.487
 2480SOL    HW2 8340   5.319   3.556   0.558
 2481SOL     OW 8341   3.673   6.514   6.917
 2481SOL    HW1 8342   3.689   6.556   7.007
 2481SOL    HW2 8343   3.661   6.416   6.928
 2482SOL     OW 8344   5.604   3.638   5.652
 2482SOL    HW1 8345   5.694   3.677   5.672
 2482SOL    HW2 8346   5.612   3.577   5.573
 2483SOL     OW 8347   1.626   1.606   0.031
 2483SOL    HW1 8348   1.657   1.560   0.114
 2483SOL    HW2 8349   1.570   1.543   7.003
 2484SOL     OW 8350   3.800   0.662   6.963
 2484SOL    HW1 8351   3.776   0.753   6.927
 2484SOL    HW2 8352   3.725   0.598   6.944
 2485SOL     OW 8353   6.144   3.649   1.589
 2485SOL    HW1 8354   6.206   3.587   1.542
 2485SOL    HW2 8355   6.155   3.742   1.552
 2486SOL     OW 8356   1.972   4.959   4.767
 2486SOL    HW1 8357   1.998   4.906   4.686
 2486SOL    HW2 8358   1.935   4.898   4.836
 2487SOL     OW 8359   4.314   6.078   0.357
 2487SOL    HW1 8360   4.283   5.995   0.403
 2487SOL    HW2 8361   4.407   6.100   0.387
 2488SOL     OW 8362   1.720   4.586   2.333
 2488SOL    HW1 8363   1.625   4.563   2.309
 2488SOL    HW2 8364   1.725   4.612   2.429
 2489SOL     OW 8365   1.471   6.696   3.467
 2489SOL    HW1 8366   1.496   6.793   3.473
 2489SOL    HW2 8367   1.395   6.686   3.403
 2490SOL     OW 8368   0.053   4.894   1.461
 2490SOL    HW1 8369   0.046   4.987   1.426
 2490SOL    HW2 8370   0.140   4.854   1.433
 2491SOL     OW 8371   2.291   5.110   0.362
 2491SOL    HW1 8372   2.260   5.036   0.302
 2491SOL    HW2 8373   2.219   5.130   0.428
 2492SOL     OW 8374   4.962   3.125   1.032
 2492SOL    HW1 8375   4.862   3.119   1.036
 2492SOL    HW2 8376   5.001   3.034   1.023
 2493SOL     OW 8377   5.849   0.255   1.954
 2493SOL    HW1 8378   5.878   0.336   2.004
 2493SOL    HW2 8379   5.876   0.172   2.004
 2494SOL     OW 8380   4.837   4.546   3.005
 2494SOL    HW1 8381   4.799   4.462   2.967
 2494SOL    HW2 8382   4.789   4.569   3.090
 2495SOL     OW 8383   4.904   6.786   4.306
 2495SOL    HW1 8384   4.900   6.816   4.211
 2495SOL    HW2 8385   4.943   6.695   4.311
 2496SOL     OW 8386   6.825   3.234   6.009
 2496SOL    HW1 8387   6.726   3.233   5.993
 2496SOL    HW2 8388   6.873   3.220   5.922
 2497SOL     OW 8389   0.498   0.650   0.708
 2497SOL    HW1 8390   0.592   0.683   0.723
 2497SOL    HW2 8391   0.481   0.571   0.767
 2498SOL     OW 8392   2.969   1.915   4.424
 2498SOL    HW1 8393   2.870   1.907   4.436
 2498SOL    HW2 8394   3.014   1.841   4.474
 2499SOL     OW 8395   6.318   2.576   2.016
 2499SOL    HW1 8396   6.258   2.576   1.936
 2499SOL    HW2 8397   6.379   2.656   2.012
 2500SOL     OW 8398   4.614   3.740   6.848
 2500SOL    HW1 8399   4.534   3.708   6.796
 2500SOL    HW2 8400   4.697   3.699   6.810
 2501SOL     OW 8401   6.113   4.838   0.747
 2501SOL    HW1 8402   6.070   4.767   0.804
 2501SOL    HW2 8403   6.103   4.814   0.651
 2502SOL     OW 8404   1.334   6.472   3.107
 2502SOL    HW1 8405   1.354   6.375   3.092
 2502SOL    HW2 8406   1.237   6.489   3.091
 2503SOL     OW 8407   2.591   5.980   4.155
 2503SOL    HW1 8408   2.547   5.924   4.085
 2503SOL    HW2 8409   2.681   6.010   4.123
 2504SOL     OW 8410   3.650   5.425   4.454
 2504SOL    HW1 8411   3.692   5.369   4.383
 2504SOL    HW2 8412   3.650   5.521   4.426
 2505SOL     OW 8413   0.943   6.565   2.811
 2505SOL    HW1 8414   0.959   6.662   2.792
 2505SOL    HW2 8415   0.847   6.543   2.792
 2506SOL     OW 8416   5.959   4.204   5.286
 2506SOL    HW1 8417   5.913   4.116   5.281
 2506SOL    HW2 8418   5.915   4.268   5.223
 2507SOL     OW 8419   0.867   3.839   0.541
 2507SOL    HW1 8420   0.837   3.915   0.598
 2507SOL    HW2 8421   0.940   3.870   0.480
 2508SOL     OW 8422   1.972   1.314   3.229
 2508SOL    HW1 8423   1.878   1.347   3.233
 2508SOL    HW2 8424   1.985   1.258   3.148
 2509SOL     OW 8425   6.812   2.952   0.850
 2509SOL    HW1 8426   6.858   2.947   0.762
 2509SOL    HW2 8427   6.851   2.885   0.913
 2510SOL     OW 8428   2.720   4.203   1.687
 2510SOL    HW1 8429   2.713   4.297   1.651
 2510SOL    HW2 8430   2.748   4.142   1.613
 2511SOL     OW 8431   3.761   2.001   4.381
 2511SOL    HW1 8432   3.765   1.998   4.480
 2511SOL    HW2 8433   3.666   2.014   4.352
 2512SOL     OW 8434   5.586   3.807   5.237
 2512SOL    HW1 8435   5.618   3.743   5.167
 2512SOL    HW2 8436   5.538   3.757   5.309
 2513SOL     OW 8437   1.530   4.362   5.400
 2513SOL    HW1 8438   1.596   4.396   5.334
 2513SOL    HW2 8439   1.573   4.294   5.459
 2514SOL     OW 8440   6.487   3.155   4.507
 2514SOL    HW1 8441   6.563   3.219   4.497
 2514SOL    HW2 8442   6.436   3.176   4.591
 2515SOL     OW 8443   1.903   6.766   0.291
 2515SOL    HW1 8444   1.839   6.841   0.306
 2515SOL    HW2 8445   1.996   6.803   0.286
 2516SOL     OW 8446   6.001   1.141   2.701
 2516SOL    HW1 8447   6.011   1.090   2.616
 2516SOL    HW2 8448   5.956   1.228   2.682
 2517SOL     OW 8449   1.260   6.067   5.777
 2517SOL    HW1 8450   1.215   5.978   5.782
 2517SOL    HW2 8451   1.256   6.112   5.866
 2518SOL     OW 8452   1.219   4.468   6.917
 2518SOL    HW1 8453   1.220   4.567   6.904
 2518SOL    HW2 8454   1.306   4.430   6.885
 2519SOL     OW 8455   4.365   6.655   3.354
 2519SOL    HW1 8456   4.368   6.705   3.268
 2519SOL    HW2 8457   4.423   6.573   3.347
 2520SOL     OW 8458   2.696   1.697   0.589
 2520SOL    HW1 8459   2.671   1.773   0.650
 2520SOL    HW2 8460   2.791   1.671   0.607
 2521SOL     OW 8461   1.741   0.838   5.069
 2521SOL    HW1 8462   1.778   0.811   4.980
 2521SOL    HW2 8463   1.641   0.844   5.063
 2522SOL     OW 8464   0.295   3.711   4.925
 2522SOL    HW1 8465   0.256   3.723   5.016
 2522SOL    HW2 8466   0.369   3.644   4.929
 2523SOL     OW 8467   0.325   2.751   1.259
 2523SOL    HW1 8468   0.356   2.845   1.243
 2523SOL    HW2 8469   0.331   2.699   1.174
 2524SOL     OW 8470   1.394   6.158   4.972
 2524SOL    HW1 8471   1.362   6.066   4.949
 2524SOL    HW2 8472   1.317   6.222   4.971
 2525SOL     OW 8473   1.015   2.438   5.586
 2525SOL    HW1 8474   0.962   2.360   5.620
 2525SOL    HW2 8475   1.106   2.438   5.627
 2526SOL     OW 8476   1.302   4.169   6.039
 2526SOL    HW1 8477   1.255   4.214   6.115
 2526SOL    HW2 8478   1.260   4.196   5.952
 2527SOL     OW 8479   5.122   5.796   5.098
 2527SOL    HW1 8480   5.096   5.818   5.004
 2527SOL    HW2 8481   5.099   5.873   5.158
 2528SOL     OW 8482   5.733   4.901   0.702
 2528SOL    HW1 8483   5.752   4.925   0.607
 2528SOL    HW2 8484   5.774   4.813   0.723
 2529SOL     OW 8485   6.258   6.998   6.268
 2529SOL    HW1 8486   6.296   6.976   6.358
 2529SOL    HW2 8487   6.328   6.983   6.198
 2530SOL     OW 8488   2.635   6.964   5.263
 2530SOL    HW1 8489   2.658   6.992   5.356
 2530SOL    HW2 8490   2.623   0.018   5.206
 2531SOL     OW 8491   4.933   6.257   4.349
 2531SOL    HW1 8492   4.849   6.290   4.392
 2531SOL    HW2 8493   4.938   6.157   4.358
 2532SOL     OW 8494   0.579   6.538   1.106
 2532SOL    HW1 8495   0.661   6.480   1.111
 2532SOL    HW2 8496   0.498   6.482   1.121
 2533SOL     OW 8497   3.572   6.405   3.516
 2533SOL    HW1 8498   3.527   6.329   3.470
 2533SOL    HW2 8499   3.526   6.424   3.603
 2534SOL     OW 8500   3.634   0.541   3.190
 2534SOL    HW1 8501   3.634   0.621   3.250
 2534SOL    HW2 8502   3.721   0.538   3.140
 2535SOL     OW 8503   3.984   2.143   5.041
 2535SOL    HW1 8504   3.966   2.195   4.958
 2535SOL    HW2 8505   3.921   2.065   5.046
 2536SOL     OW 8506   1.085   2.023   5.119
 2536SOL    HW1 8507   1.079   2.085   5.197
 2536SOL    HW2 8508   1.007   1.961   5.119
 2537SOL     OW 8509   3.922   0.409   6.365
 2537SOL    HW1 8510   3.982   0.380   6.290
 2537SOL    HW2 8511   3.974   0.463   6.430
 2538SOL     OW 8512   1.320   4.526   4.232
 2538SOL    HW1 8513   1.268   4.443   4.254
 2538SOL    HW2 8514   1.406   4.499   4.187
 2539SOL     OW 8515   5.050   1.461   5.763
 2539SOL    HW1 8516   4.957   1.485   5.792
 2539SOL    HW2 8517   5.104   1.433   5.842
 2540SOL     OW 8518   4.356   1.640   2.803
 2540SOL    HW1 8519   4.275   1.589   2.833
 2540SOL    HW2 8520   4.364   1.725   2.856
 2541SOL     OW 8521   2.604   0.201   5.150
 2541SOL    HW1 8522   2.532   0.193   5.219
 2541SOL    HW2 8523   2.600   0.291   5.107
 2542SOL     OW 8524   4.022   1.505   6.323
 2542SOL    HW1 8525   3.980   1.582   6.372
 2542SOL    HW2 8526   3.953   1.434   6.308
 2543SOL     OW 8527   1.467   1.448   3.180
 2543SOL    HW1 8528   1.388   1.417   3.232
 2543SOL    HW2 8529   1.472   1.399   3.093
 2544SOL     OW 8530   0.352   5.952   1.471
 2544SOL    HW1 8531   0.341   5.872   1.531
 2544SOL    HW2 8532   0.265   6.001   1.466
 2545SOL     OW 8533   1.615   0.444   1.718
 2545SOL    HW1 8534   1.633   0.422   1.814
 2545SOL    HW2 8535   1.577   0.363   1.673
 2546SOL     OW 8536   0.067   1.750   1.556
 2546SOL    HW1 8537   0.118   1.823   1.511
 2546SOL    HW2 8538   0.121   1.712   1.631
 2547SOL     OW 8539   6.108   5.092   0.411
 2547SOL    HW1 8540   6.199   5.069   0.445
 2547SOL    HW2 8541   6.116   5.133   0.320
 2548SOL     OW 8542   2.017   6.878   5.982
 2548SOL    HW1 8543   2.080   6.804   5.962
 2548SOL    HW2 8544   2.006   6.888   6.081
 2549SOL     OW 8545   2.285   1.076   0.777
 2549SOL    HW1 8546   2.343   1.004   0.738
 2549SOL    HW2 8547   2.332   1.116   0.857
 2550SOL     OW 8548   0.037   0.175   6.099
 2550SOL    HW1 8549   0.018   0.083   6.131
 2550SOL    HW2 8550   0.081   0.171   6.009
 2551SOL     OW 8551   3.614   4.863   0.796
 2551SOL    HW1 8552   3.696   4.918   0.780
 2551SOL    HW2 8553   3.539   4.923   0.827
 2552SOL     OW 8554   2.225   6.099   5.523
 2552SOL    HW1 8555   2.218   6.192   5.487
 2552SOL    HW2 8556   2.147   6.079   5.581
 2553SOL     OW 8557   4.853   2.684   5.479
 2553SOL    HW1 8558   4.908   2.766   5.467
 2553SOL    HW2 8559   4.843   2.637   5.391
 2554SOL     OW 8560   2.169   6.602   0.576
 2554SOL    HW1 8561   2.230   6.595   0.497
 2554SOL    HW2 8562   2.203   6.543   0.649
 2555SOL     OW 8563   5.988   0.002   6.220
 2555SOL    HW1 8564   5.948   6.999   6.307
 2555SOL    HW2 8565   6.084   6.999   6.216
 2556SOL     OW 8566   4.545   5.736   0.816
 2556SOL    HW1 8567   4.594   5.692   0.741
 2556SOL    HW2 8568   4.498   5.818   0.782
 2557SOL     OW 8569   2.702   3.494   6.138
 2557SOL    HW1 8570   2.723   3.400   6.164
 2557SOL    HW2 8571   2.699   3.551   6.219
 2558SOL     OW 8572   5.259   1.797   5.514
 2558SOL    HW1 8573   5.282   1.730   5.584
 2558SOL    HW2 8574   5.231   1.883   5.558
 2559SOL     OW 8575   6.816   3.970   4.254
 2559SOL    HW1 8576   6.887   4.034   4.227
 2559SOL    HW2 8577   6.729   4.019   4.264
 2560SOL     OW 8578   5.814   3.327   4.730
 2560SOL    HW1 8579   5.739   3.261   4.720
 2560SOL    HW2 8580   5.858   3.341   4.641
 2561SOL     OW 8581   3.245   6.480   4.547
 2561SOL    HW1 8582   3.218   6.503   4.454
 2561SOL    HW2 8583   3.285   6.560   4.591
 2562SOL     OW 8584   1.161   5.095   2.125
 2562SOL    HW1 8585   1.214   5.155   2.185
 2562SOL    HW2 8586   1.219   5.066   2.049
 2563SOL     OW 8587   4.099   2.200   0.640
 2563SOL    HW1 8588   4.191   2.191   0.679
 2563SOL    HW2 8589   4.043   2.122   0.668
 2564SOL     OW 8590   2.380   6.257   5.745
 2564SOL    HW1 8591   2.459   6.204   5.714
 2564SOL    HW2 8592   2.310   6.258   5.673
 2565SOL     OW 8593   0.367   0.080   0.019
 2565SOL    HW1 8594   0.381   0.145   6.971
 2565SOL    HW2 8595   0.281   0.032   0.006
 2566SOL     OW 8596   2.652   0.104   0.400
 2566SOL    HW1 8597   2.659   0.005   0.390
 2566SOL    HW2 8598   2.636   0.145   0.310
 2567SOL     OW 8599   0.458   1.181   1.338
 2567SOL    HW1 8600   0.371   1.172   1.291
 2567SOL    HW2 8601   0.533   1.162   1.274
 2568SOL     OW 8602   4.037   0.535   0.030
 2568SOL    HW1 8603   3.964   0.582   7.008
 2568SOL    HW2 8604   4.024   0.546   0.128
 2569SOL     OW 8605   3.344   1.654   1.844
 2569SOL    HW1 8606   3.402   1.709   1.905
 2569SOL    HW2 8607   3.386   1.565   1.830
 2570SOL     OW 8608   5.417   0.274   6.462
 2570SOL    HW1 8609   5.439   0.357   6.511
 2570SOL    HW2 8610   5.466   0.197   6.503
 2571SOL     OW 8611   2.451   4.443   5.015
 2571SOL    HW1 8612   2.451   4.413   5.110
 2571SOL    HW2 8613   2.534   4.494   4.996
 2572SOL     OW 8614   2.275   5.500   6.915
 2572SOL    HW1 8615   2.303   5.411   6.878
 2572SOL    HW2 8616   2.204   5.540   6.857
 2573SOL     OW 8617   6.460   2.782   1.915
 2573SOL    HW1 8618   6.490   2.749   1.826
 2573SOL    HW2 8619   6.539   2.811   1.968
 2574SOL     OW 8620   6.212   3.660   0.019
 2574SOL    HW1 8621   6.120   3.640   0.052
 2574SOL    HW2 8622   6.265   3.576   0.014
 2575SOL     OW 8623   5.241   5.259   0.828
 2575SOL    HW1 8624   5.291   5.298   0.905
 2575SOL    HW2 8625   5.216   5.164   0.850
 2576SOL     OW 8626   3.688   6.966   4.317
 2576SOL    HW1 8627   3.754   6.931   4.250
 2576SOL    HW2 8628   3.633   6.890   4.352
 2577SOL     OW 8629   3.430   6.776   2.151
 2577SOL    HW1 8630   3.424   6.697   2.213
 2577SOL    HW2 8631   3.518   6.822   2.165
 2578SOL     OW 8632   4.920   1.214   3.940
 2578SOL    HW1 8633   4.835   1.162   3.944
 2578SOL    HW2 8634   4.917   1.279   3.865
 2579SOL     OW 8635   1.328   6.054   2.840
 2579SOL    HW1 8636   1.362   6.131   2.786
 2579SOL    HW2 8637   1.246   6.082   2.889
 2580SOL     OW 8638   2.872   3.343   6.282
 2580SOL    HW1 8639   2.938   3.323   6.209
 2580SOL    HW2 8640   2.883   3.276   6.356
 2581SOL     OW 8641   0.911   4.931   1.070
 2581SOL    HW1 8642   0.967   4.991   1.013
 2581SOL    HW2 8643   0.970   4.867   1.120
 2582SOL     OW 8644   0.509   4.818   2.634
 2582SOL    HW1 8645   0.517   4.771   2.722
 2582SOL    HW2 8646   0.520   4.916   2.647
 2583SOL     OW 8647   0.744   1.047   0.341
 2583SOL    HW1 8648   0.663   1.065   0.397
 2583SOL    HW2 8649   0.770   0.951   0.350
 2584SOL     OW 8650   4.405   5.693   6.707
 2584SOL    HW1 8651   4.498   5.707   6.740
 2584SOL    HW2 8652   4.355   5.636   6.773
 2585SOL     OW 8653   4.909   2.367   0.238
 2585SOL    HW1 8654   4.986   2.431   0.240
 2585SOL    HW2 8655   4.892   2.332   0.330
 2586SOL     OW 8656   3.842   1.066   3.245
 2586SOL    HW1 8657   3.891   0.981   3.226
 2586SOL    HW2 8658   3.747   1.058   3.215
 2587SOL     OW 8659   0.504   0.650   3.636
 2587SOL    HW1 8660   0.603   0.647   3.649
 2587SOL    HW2 8661   0.480   0.600   3.554
 2588SOL     OW 8662   4.411   0.757   6.610
 2588SOL    HW1 8663   4.466   0.707   6.676
 2588SOL    HW2 8664   4.410   0.854   6.632
 2589SOL     OW 8665   0.803   5.874   6.446
 2589SOL    HW1 8666   0.833   5.821   6.525
 2589SOL    HW2 8667   0.718   5.921   6.468
 2590SOL     OW 8668   3.559   5.831   0.974
 2590SOL    HW1 8669   3.632   5.865   0.914
 2590SOL    HW2 8670   3.470   5.842   0.928
 2591SOL     OW 8671   6.677   4.845   3.127
 2591SOL    HW1 8672   6.618   4.920   3.099
 2591SOL    HW2 8673   6.669   4.769   3.062
 2592SOL     OW 8674   3.633   5.158   6.995
 2592SOL    HW1 8675   3.684   5.083   6.953
 2592SOL    HW2 8676   3.632   5.146   0.068
 2593SOL     OW 8677   3.278   5.158   0.756
 2593SOL    HW1 8678   3.191   5.108   0.750
 2593SOL    HW2 8679   3.271   5.245   0.708
 2594SOL     OW 8680   1.943   4.868   6.445
 2594SOL    HW1 8681   1.998   4.813   6.382
 2594SOL    HW2 8682   1.936   4.820   6.533
 2595SOL     OW 8683   6.334   1.466   4.039
 2595SOL    HW1 8684   6.389   1.391   4.077
 2595SOL    HW2 8685   6.310   1.530   4.113
 2596SOL     OW 8686   3.027   1.796   1.386
 2596SOL    HW1 8687   3.122   1.795   1.416
 2596SOL    HW2 8688   2.991   1.890   1.391
 2597SOL     OW 8689   1.631   5.272   5.673
 2597SOL    HW1 8690   1.558   5.300   5.611
 2597SOL    HW2 8691   1.718   5.269   5.624
 2598SOL     OW 8692   6.832   1.426   2.881
 2598SOL    HW1 8693   6.900   1.356   2.859
 2598SOL    HW2 8694   6.851   1.463   2.972
 2599SOL     OW 8695   1.825   6.487   1.139
 2599SOL    HW1 8696   1.827   6.584   1.165
 2599SOL    HW2 8697   1.762   6.437   1.198
 2600SOL     OW 8698   5.236   3.016   4.839
 2600SOL    HW1 8699   5.272   2.994   4.930
 2600SOL    HW2 8700   5.166   2.949   4.814
 2601SOL     OW 8701   2.122   1.347   1.902
 2601SOL    HW1 8702   2.059   1.387   1.969
 2601SOL    HW2 8703   2.189   1.415   1.873
 2602SOL     OW 8704   1.370   4.482   4.654
 2602SOL    HW1 8705   1.403   4.576   4.657
 2602SOL    HW2 8706   1.429   4.427   4.595
 2603SOL     OW 8707   2.839   0.974   4.091
 2603SOL    HW1 8708   2.810   1.036   4.017
 2603SOL    HW2 8709   2.906   1.021   4.149
 2604SOL     OW 8710   4.794   1.764   2.562
 2604SOL    HW1 8711   4.802   1.805   2.653
 2604SOL    HW2 8712   4.699   1.734   2.548
 2605SOL     OW 8713   2.114   3.142   3.620
 2605SOL    HW1 8714   2.142   3.227   3.666
 2605SOL    HW2 8715   2.080   3.077   3.688
 2606SOL     OW 8716   5.439   4.494   1.910
 2606SOL    HW1 8717   5.458   4.504   2.007
 2606SOL    HW2 8718   5.428   4.397   1.888
 2607SOL     OW 8719   1.508   1.535   1.590
 2607SOL    HW1 8720   1.537   1.598   1.662
 2607SOL    HW2 8721   1.461   1.587   1.518
 2608SOL     OW 8722   5.095   5.120   0.526
 2608SOL    HW1 8723   5.151   5.080   0.599
 2608SOL    HW2 8724   5.131   5.210   0.503
 2609SOL     OW 8725   6.097   1.272   1.531
 2609SOL    HW1 8726   6.133   1.344   1.590
 2609SOL    HW2 8727   6.003   1.250   1.557
 2610SOL     OW 8728   1.091   4.576   4.583
 2610SOL    HW1 8729   1.127   4.493   4.541
 2610SOL    HW2 8730   1.022   4.552   4.651
 2611SOL     OW 8731   4.160   0.129   0.522
 2611SOL    HW1 8732   4.093   0.073   0.473
 2611SOL    HW2 8733   4.113   0.182   0.593
 2612SOL     OW 8734   6.311   0.058   5.019
 2612SOL    HW1 8735   6.265   7.003   4.984
 2612SOL    HW2 8736   6.313   0.056   5.119
 2613SOL     OW 8737   2.662   5.489   6.331
 2613SOL    HW1 8738   2.709   5.431   6.263
 2613SOL    HW2 8739   2.665   5.444   6.420
 2614SOL     OW 8740   6.286   1.482   6.361
 2614SOL    HW1 8741   6.194   1.458   6.331
 2614SOL    HW2 8742   6.330   1.538   6.291
 2615SOL     OW 8743   0.680   3.540   2.029
 2615SOL    HW1 8744   0.706   3.460   2.082
 2615SOL    HW2 8745   0.626   3.603   2.086
 2616SOL     OW 8746   3.204   2.805   5.939
 2616SOL    HW1 8747   3.268   2.818   6.014
 2616SOL    HW2 8748   3.199   2.888   5.884
 2617SOL     OW 8749   3.757   6.926   0.495
 2617SOL    HW1 8750   3.682   6.944   0.432
 2617SOL    HW2 8751   3.721   6.893   0.582
 2618SOL     OW 8752   6.524   0.480   3.650
 2618SOL    HW1 8753   6.441   0.534   3.662
 2618SOL    HW2 8754   6.551   0.482   3.553
 2619SOL     OW 8755   4.476   2.247   2.545
 2619SOL    HW1 8756   4.457   2.156   2.508
 2619SOL    HW2 8757   4.517   2.304   2.475
 2620SOL     OW 8758   6.219   6.893   3.210
 2620SOL    HW1 8759   6.252   6.987   3.211
 2620SOL    HW2 8760   6.291   6.833   3.175
 2621SOL     OW 8761   0.747   5.162   1.843
 2621SOL    HW1 8762   0.697   5.179   1.758
 2621SOL    HW2 8763   0.813   5.236   1.858
 2622SOL     OW 8764   1.550   3.668   5.229
 2622SOL    HW1 8765   1.504   3.666   5.139
 2622SOL    HW2 8766   1.502   3.732   5.289
 2623SOL     OW 8767   0.465   1.207   5.476
 2623SOL    HW1 8768   0.368   1.183   5.477
 2623SOL    HW2 8769   0.475   1.302   5.505
 2624SOL     OW 8770   0.109   1.063   4.614
 2624SOL    HW1 8771   0.018   1.100   4.597
 2624SOL    HW2 8772   0.175   1.138   4.622
 2625SOL     OW 8773   2.503   3.865   5.377
 2625SOL    HW1 8774   2.582   3.927   5.374
 2625SOL    HW2 8775   2.446   3.880   5.297
 2626SOL     OW 8776   6.988   0.532   5.691
 2626SOL    HW1 8777   6.903   0.480   5.680
 2626SOL    HW2 8778   7.006   0.584   5.608
 2627SOL     OW 8779   0.698   0.896   6.147
 2627SOL    HW1 8780   0.610   0.941   6.163
 2627SOL    HW2 8781   0.682   0.805   6.109
 2628SOL     OW 8782   2.043   4.136   5.983
 2628SOL    HW1 8783   2.138   4.117   6.009
 2628SOL    HW2 8784   2.041   4.207   5.913
 2629SOL     OW 8785   3.790   3.365   2.209
 2629SOL    HW1 8786   3.819   3.271   2.228
 2629SOL    HW2 8787   3.705   3.363   2.156
 2630SOL     OW 8788   2.998   2.026   2.862
 2630SOL    HW1 8789   2.988   1.948   2.923
 2630SOL    HW2 8790   3.092   2.058   2.863
 2631SOL     OW 8791   5.532   0.588   6.046
 2631SOL    HW1 8792   5.461   0.648   6.009
 2631SOL    HW2 8793   5.562   0.622   6.135
 2632SOL     OW 8794   5.750   3.218   0.289
 2632SOL    HW1 8795   5.672   3.169   0.250
 2632SOL    HW2 8796   5.825   3.154   0.303
 2633SOL     OW 8797   0.792   1.959   4.559
 2633SOL    HW1 8798   0.700   1.942   4.526
 2633SOL    HW2 8799   0.825   2.046   4.523
 2634SOL     OW 8800   0.550   4.560   3.675
 2634SOL    HW1 8801   0.582   4.573   3.769
 2634SOL    HW2 8802   0.579   4.638   3.620
 2635SOL     OW 8803   6.950   6.112   5.106
 2635SOL    HW1 8804   6.854   6.083   5.109
 2635SOL    HW2 8805   6.992   6.078   5.022
 2636SOL     OW 8806   4.230   0.451   5.411
 2636SOL    HW1 8807   4.158   0.411   5.354
 2636SOL    HW2 8808   4.196   0.461   5.504
 2637SOL     OW 8809   5.717   1.667   3.490
 2637SOL    HW1 8810   5.701   1.752   3.440
 2637SOL    HW2 8811   5.808   1.670   3.531
 2638SOL     OW 8812   0.071   0.114   3.878
 2638SOL    HW1 8813   0.091   0.062   3.962
 2638SOL    HW2 8814   0.156   0.126   3.826
 2639SOL     OW 8815   0.564   5.838   0.319
 2639SOL    HW1 8816   0.553   5.871   0.413
 2639SOL    HW2 8817   0.489   5.873   0.263
 2640SOL     OW 8818   0.099   6.104   5.379
 2640SOL    HW1 8819   0.085   6.114   5.280
 2640SOL    HW2 8820   0.086   6.008   5.405
 2641SOL     OW 8821   5.813   3.056   2.121
 2641SOL    HW1 8822   5.717   3.060   2.148
 2641SOL    HW2 8823   5.866   3.006   2.190
 2642SOL     OW 8824   5.503   0.690   3.758
 2642SOL    HW1 8825   5.481   0.645   3.671
 2642SOL    HW2 8826   5.586   0.745   3.747
 2643SOL     OW 8827   1.207   3.903   3.393
 2643SOL    HW1 8828   1.235   3.812   3.426
 2643SOL    HW2 8829   1.206   3.903   3.293
 2644SOL     OW 8830   4.818   5.217   5.079
 2644SOL    HW1 8831   4.913   5.243   5.092
 2644SOL    HW2 8832   4.807   5.119   5.098
 2645SOL     OW 8833   3.928   5.810   3.599
 2645SOL    HW1 8834   4.006   5.852   3.552
 2645SOL    HW2 8835   3.843   5.836   3.553
 2646SOL     OW 8836   6.150   1.720   6.664
 2646SOL    HW1 8837   6.160   1.634   6.714
 2646SOL    HW2 8838   6.239   1.746   6.625
 2647SOL     OW 8839   6.350   6.948   1.537
 2647SOL    HW1 8840   6.304   6.961   1.624
 2647SOL    HW2 8841   6.448   6.934   1.553
 2648SOL     OW 8842   1.087   6.559   3.381
 2648SOL    HW1 8843   0.993   6.590   3.366
 2648SOL    HW2 8844   1.148   6.606   3.318
 2649SOL     OW 8845   6.866   3.362   0.942
 2649SOL    HW1 8846   6.912   3.289   0.891
 2649SOL    HW2 8847   6.831   3.324   1.029
 2650SOL     OW 8848   1.763   4.919   3.917
 2650SOL    HW1 8849   1.813   5.005   3.899
 2650SOL    HW2 8850   1.806   4.872   3.994
 2651SOL     OW 8851   2.363   1.489   1.070
 2651SOL    HW1 8852   2.336   1.585   1.081
 2651SOL    HW2 8853   2.430   1.481   0.996
 2652SOL     OW 8854   4.210   3.400   5.245
 2652SOL    HW1 8855   4.146   3.333   5.281
 2652SOL    HW2 8856   4.260   3.362   5.167
 2653SOL     OW 8857   4.591   6.921   5.773
 2653SOL    HW1 8858   4.651   6.893   5.697
 2653SOL    HW2 8859   4.573   6.841   5.831
 2654SOL     OW 8860   4.292   6.983   1.572
 2654SOL    HW1 8861   4.220   6.916   1.588
 2654SOL    HW2 8862   4.255   0.048   1.584
 2655SOL     OW 8863   5.883   6.602   3.752
 2655SOL    HW1 8864   5.913   6.695   3.733
 2655SOL    HW2 8865   5.787   6.591   3.725
 2656SOL     OW 8866   3.269   5.141   4.180
 2656SOL    HW1 8867   3.271   5.235   4.213
 2656SOL    HW2 8868   3.208   5.087   4.236
 2657SOL     OW 8869   0.913   4.135   6.762
 2657SOL    HW1 8870   0.988   4.147   6.828
 2657SOL    HW2 8871   0.834   4.095   6.808
 2658SOL     OW 8872   5.296   4.814   0.487
 2658SOL    HW1 8873   5.290   4.885   0.557
 2658SOL    HW2 8874   5.261   4.850   0.400
 2659SOL     OW 8875   4.868   2.912   5.027
 2659SOL    HW1 8876   4.952   2.867   5.057
 2659SOL    HW2 8877   4.889   2.995   4.976
 2660SOL     OW 8878   1.160   6.889   1.793
 2660SOL    HW1 8879   1.137   6.803   1.748
 2660SOL    HW2 8880   1.080   6.923   1.842
 2661SOL     OW 8881   1.797   6.750   1.188
 2661SOL    HW1 8882   1.768   6.784   1.099
 2661SOL    HW2 8883   1.881   6.796   1.215
 2662SOL     OW 8884   3.598   6.582   5.639
 2662SOL    HW1 8885   3.553   6.572   5.728
 2662SOL    HW2 8886   3.680   6.638   5.650
 2663SOL     OW 8887   3.641   4.382   0.044
 2663SOL    HW1 8888   3.701   4.452   0.083
 2663SOL    HW2 8889   3.696   4.316   7.020
 2664SOL     OW 8890   4.492   3.637   5.738
 2664SOL    HW1 8891   4.439   3.620   5.655
 2664SOL    HW2 8892   4.475   3.564   5.805
 2665SOL     OW 8893   3.041   3.119   5.071
 2665SOL    HW1 8894   2.952   3.097   5.112
 2665SOL    HW2 8895   3.066   3.049   5.005
 2666SOL     OW 8896   0.568   5.006   1.287
 2666SOL    HW1 8897   0.661   5.043   1.278
 2666SOL    HW2 8898   0.557   4.969   1.380
 2667SOL     OW 8899   0.995   5.703   4.026
 2667SOL    HW1 8900   1.074   5.764   4.032
 2667SOL    HW2 8901   0.911   5.756   4.035
 2668SOL     OW 8902   0.134   3.132   5.183
 2668SOL    HW1 8903   0.208   3.136   5.116
 2668SOL    HW2 8904   0.154   3.196   5.258
 2669SOL     OW 8905   3.175   4.852   5.910
 2669SOL    HW1 8906   3.119   4.898   5.979
 2669SOL    HW2 8907   3.258   4.817   5.953
 2670SOL     OW 8908   5.882   3.748   5.452
 2670SOL    HW1 8909   5.975   3.775   5.424
 2670SOL    HW2 8910   5.830   3.830   5.476
 2671SOL     OW 8911   4.086   5.521   0.139
 2671SOL    HW1 8912   4.143   5.600   0.114
 2671SOL    HW2 8913   4.135   5.465   0.205
 2672SOL     OW 8914   2.482   5.087   1.201
 2672SOL    HW1 8915   2.435   5.080   1.289
 2672SOL    HW2 8916   2.423   5.134   1.135
 2673SOL     OW 8917   6.220   1.867   1.717
 2673SOL    HW1 8918   6.222   1.895   1.620
 2673SOL    HW2 8919   6.173   1.780   1.725
 2674SOL     OW 8920   1.547   4.436   4.091
 2674SOL    HW1 8921   1.608   4.361   4.117
 2674SOL    HW2 8922   1.536   4.437   3.992
 2675SOL     OW 8923   6.236   5.782   4.004
 2675SOL    HW1 8924   6.203   5.772   4.098
 2675SOL    HW2 8925   6.333   5.804   4.005
 2676SOL     OW 8926   3.403   2.990   1.048
 2676SOL    HW1 8927   3.487   3.019   1.002
 2676SOL    HW2 8928   3.408   3.018   1.144
 2677SOL     OW 8929   2.693   4.159   6.978
 2677SOL    HW1 8930   2.594   4.169   6.992
 2677SOL    HW2 8931   2.729   4.244   6.939
 2678SOL     OW 8932   0.263   2.269   2.124
 2678SOL    HW1 8933   0.209   2.185   2.124
 2678SOL    HW2 8934   0.317   2.275   2.208
 2679SOL     OW 8935   2.113   5.017   1.845
 2679SOL    HW1 8936   2.063   4.996   1.761
 2679SOL    HW2 8937   2.192   5.074   1.822
 2680SOL     OW 8938   0.938   1.988   1.037
 2680SOL    HW1 8939   0.958   2.086   1.050
 2680SOL    HW2 8940   1.006   1.948   0.976
 2681SOL     OW 8941   1.257   2.370   5.273
 2681SOL    HW1 8942   1.203   2.289   5.298
 2681SOL    HW2 8943   1.324   2.389   5.344
 2682SOL     OW 8944   4.763   4.512   3.747
 2682SOL    HW1 8945   4.680   4.501   3.801
 2682SOL    HW2 8946   4.842   4.512   3.808
 2683SOL     OW 8947   2.692   5.262   1.919
 2683SOL    HW1 8948   2.638   5.251   1.835
 2683SOL    HW2 8949   2.678   5.353   1.956
 2684SOL     OW 8950   4.379   6.462   1.960
 2684SOL    HW1 8951   4.310   6.488   1.893
 2684SOL    HW2 8952   4.407   6.367   1.945
 2685SOL     OW 8953   6.175   5.834   6.486
 2685SOL    HW1 8954   6.099   5.898   6.474
 2685SOL    HW2 8955   6.147   5.743   6.456
 2686SOL     OW 8956   2.046   1.793   5.959
 2686SOL    HW1 8957   1.990   1.738   5.897
 2686SOL    HW2 8958   2.123   1.739   5.992
 2687SOL     OW 8959   5.235   5.793   1.483
 2687SOL    HW1 8960   5.307   5.863   1.477
 2687SOL    HW2 8961   5.151   5.834   1.518
 2688SOL     OW 8962   2.924   2.724   0.518
 2688SOL    HW1 8963   2.914   2.766   0.608
 2688SOL    HW2 8964   2.916   2.794   0.447
 2689SOL     OW 8965   0.687   4.075   2.206
 2689SOL    HW1 8966   0.786   4.061   2.206
 2689SOL    HW2 8967   0.666   4.161   2.252
 2690SOL     OW 8968   3.727   3.351   5.040
 2690SOL    HW1 8969   3.826   3.341   5.051
 2690SOL    HW2 8970   3.682   3.319   5.123
 2691SOL     OW 8971   0.763   5.300   3.762
 2691SOL    HW1 8972   0.848   5.349   3.780
 2691SOL    HW2 8973   0.686   5.352   3.798
 2692SOL     OW 8974   2.531   6.363   3.431
 2692SOL    HW1 8975   2.446   6.377   3.380
 2692SOL    HW2 8976   2.534   6.269   3.466
 2693SOL     OW 8977   2.210   5.055   3.765
 2693SOL    HW1 8978   2.270   5.100   3.699
 2693SOL    HW2 8979   2.115   5.067   3.737
 2694SOL     OW 8980   4.047   6.549   3.053
 2694SOL    HW1 8981   4.007   6.641   3.052
 2694SOL    HW2 8982   4.008   6.496   3.128
 2695SOL     OW 8983   5.825   1.127   2.265
 2695SOL    HW1 8984   5.805   1.057   2.196
 2695SOL    HW2 8985   5.750   1.193   2.267
 2696SOL     OW 8986   3.624   3.008   6.053
 2696SOL    HW1 8987   3.586   3.058   6.131
 2696SOL    HW2 8988   3.573   3.030   5.971
 2697SOL     OW 8989   3.465   1.326   3.142
 2697SOL    HW1 8990   3.545   1.366   3.188
 2697SOL    HW2 8991   3.385   1.338   3.201
 2698SOL     OW 8992   1.807   4.366   0.723
 2698SOL    HW1 8993   1.872   4.426   0.677
 2698SOL    HW2 8994   1.741   4.331   0.656
 2699SOL     OW 8995   2.797   5.673   1.204
 2699SOL    HW1 8996   2.809   5.699   1.108
 2699SOL    HW2 8997   2.749   5.745   1.253
 2700SOL     OW 8998   2.463   2.570   0.781
 2700SOL    HW1 8999   2.402   2.516   0.722
 2700SOL    HW2 9000   2.517   2.632   0.724
 2701SOL     OW 9001   5.310   1.989   6.285
 2701SOL    HW1 9002   5.286   2.024   6.375
 2701SOL    HW2 9003   5.289   1.891   6.281
 2702SOL     OW 9004   0.372   2.729   3.612
 2702SOL    HW1 9005   0.309   2.784   3.557
 2702SOL    HW2 9006   0.324   2.694   3.693
 2703SOL     OW 9007   1.067   6.544   0.612
 2703SOL    HW1 9008   1.166   6.562   0.615
 2703SOL    HW2 9009   1.030   6.579   0.526
 2704SOL     OW 9010   6.553   5.765   1.871
 2704SOL    HW1 9011   6.537   5.714   1.787
 2704SOL    HW2 9012   6.511   5.717   1.948
 2705SOL     OW 9013   6.204   6.847   4.955
 2705SOL    HW1 9014   6.226   6.787   4.877
 2705SOL    HW2 9015   6.216   6.796   5.040
 2706SOL     OW 9016   6.201   4.807   3.249
 2706SOL    HW1 9017   6.217   4.855   3.336
 2706SOL    HW2 9018   6.249   4.855   3.176
 2707SOL     OW 9019   3.658   0.420   4.278
 2707SOL    HW1 9020   3.691   0.345   4.220
 2707SOL    HW2 9021   3.714   0.501   4.263
 2708SOL     OW 9022   6.422   2.928   1.106
 2708SOL    HW1 9023   6.367   2.848   1.080
 2708SOL    HW2 9024   6.483   2.951   1.030
 2709SOL     OW 9025   5.309   0.079   0.173
 2709SOL    HW1 9026   5.380   0.145   0.147
 2709SOL    HW2 9027   5.223   0.103   0.128
 2710SOL     OW 9028   1.169   3.138   4.200
 2710SOL    HW1 9029   1.092   3.197   4.225
 2710SOL    HW2 9030   1.174   3.130   4.101
 2711SOL     OW 9031   3.059   1.361   3.543
 2711SOL    HW1 9032   3.070   1.261   3.551
 2711SOL    HW2 9033   3.012   1.395   3.625
 2712SOL     OW 9034   2.643   4.666   1.232
 2712SOL    HW1 9035   2.703   4.721   1.290
 2712SOL    HW2 9036   2.564   4.721   1.205
 2713SOL     OW 9037   2.369   2.908   6.189
 2713SOL    HW1 9038   2.452   2.946   6.231
 2713SOL    HW2 9039   2.379   2.809   6.180
 2714SOL     OW 9040   4.335   2.256   0.010
 2714SOL    HW1 9041   4.296   2.164   0.011
 2714SOL    HW2 9042   4.372   2.278   0.100
 2715SOL     OW 9043   5.454   2.659   1.151
 2715SOL    HW1 9044   5.476   2.707   1.235
 2715SOL    HW2 9045   5.528   2.595   1.128
 2716SOL     OW 9046   5.129   3.357   3.637
 2716SOL    HW1 9047   5.225   3.345   3.660
 2716SOL    HW2 9048   5.114   3.335   3.541
 2717SOL     OW 9049   0.445   0.044   2.529
 2717SOL    HW1 9050   0.389   6.988   2.541
 2717SOL    HW2 9051   0.410   0.097   2.452
 2718SOL     OW 9052   1.368   1.117   5.437
 2718SOL    HW1 9053   1.417   1.054   5.496
 2718SOL    HW2 9054   1.434   1.177   5.390
 2719SOL     OW 9055   0.596   4.962   1.563
 2719SOL    HW1 9056   0.674   5.021   1.584
 2719SOL    HW2 9057   0.514   4.997   1.607
 2720SOL     OW 9058   1.627   6.940   2.385
 2720SOL    HW1 9059   1.616   6.847   2.421
 2720SOL    HW2 9060   1.613   6.939   2.286
 2721SOL     OW 9061   3.384   6.170   3.562
 2721SOL    HW1 9062   3.352   6.075   3.557
 2721SOL    HW2 9063   3.464   6.175   3.623
 2722SOL     OW 9064   5.970   5.275   0.559
 2722SOL    HW1 9065   6.012   5.204   0.502
 2722SOL    HW2 9066   5.989   5.256   0.655
 2723SOL     OW 9067   1.137   5.634   6.207
 2723SOL    HW1 9068   1.180   5.724   6.219
 2723SOL    HW2 9069   1.125   5.617   6.109
 2724SOL     OW 9070   1.989   5.890   6.651
 2724SOL    HW1 9071   1.972   5.905   6.553
 2724SOL    HW2 9072   2.068   5.945   6.679
 2725SOL     OW 9073   5.026   4.636   4.668
 2725SOL    HW1 9074   5.000   4.729   4.694
 2725SOL    HW2 9075   5.114   4.639   4.619
 2726SOL     OW 9076   0.160   2.341   1.785
 2726SOL    HW1 9077   0.237   2.377   1.838
 2726SOL    HW2 9078   0.189   2.327   1.690
 2727SOL     OW 9079   0.803   4.706   3.752
 2727SOL    HW1 9080   0.758   4.751   3.675
 2727SOL    HW2 9081   0.821   4.774   3.823
 2728SOL     OW 9082   4.484   6.641   4.993
 2728SOL    HW1 9083   4.393   6.668   5.024
 2728SOL    HW2 9084   4.491   6.652   4.894
 2729SOL     OW 9085   0.456   5.888   0.589
 2729SOL    HW1 9086   0.506   5.971   0.613
 2729SOL    HW2 9087   0.403   5.903   0.507
 2730SOL     OW 9088   1.413   5.500   2.058
 2730SOL    HW1 9089   1.327   5.516   2.010
 2730SOL    HW2 9090   1.488   5.544   2.008
 2731SOL     OW 9091   2.874   3.545   3.381
 2731SOL    HW1 9092   2.938   3.614   3.415
 2731SOL    HW2 9093   2.867   3.551   3.281
 2732SOL     OW 9094   5.906   2.480   1.818
 2732SOL    HW1 9095   5.917   2.449   1.912
 2732SOL    HW2 9096   5.817   2.525   1.808
 2733SOL     OW 9097   6.438   1.772   5.079
 2733SOL    HW1 9098   6.436   1.675   5.105
 2733SOL    HW2 9099   6.395   1.827   5.151
 2734SOL     OW 9100   2.968   5.530   0.823
 2734SOL    HW1 9101   2.942   5.620   0.858
 2734SOL    HW2 9102   2.896   5.464   0.847
 2735SOL     OW 9103   1.455   2.800   1.798
 2735SOL    HW1 9104   1.516   2.796   1.878
 2735SOL    HW2 9105   1.376   2.741   1.815
 2736SOL     OW 9106   6.178   6.145   4.473
 2736SOL    HW1 9107   6.100   6.101   4.428
 2736SOL    HW2 9108   6.147   6.229   4.517
 2737SOL     OW 9109   2.917   4.193   5.270
 2737SOL    HW1 9110   2.959   4.135   5.201
 2737SOL    HW2 9111   2.934   4.289   5.247
 2738SOL     OW 9112   5.109   6.360   2.071
 2738SOL    HW1 9113   5.094   6.387   2.166
 2738SOL    HW2 9114   5.098   6.261   2.063
 2739SOL     OW 9115   1.553   5.205   1.005
 2739SOL    HW1 9116   1.583   5.293   1.042
 2739SOL    HW2 9117   1.622   5.135   1.023
 2740SOL     OW 9118   6.342   4.361   1.841
 2740SOL    HW1 9119   6.353   4.262   1.852
 2740SOL    HW2 9120   6.327   4.383   1.745
 2741SOL     OW 9121   6.200   0.500   4.829
 2741SOL    HW1 9122   6.297   0.478   4.827
 2741SOL    HW2 9123   6.188   0.593   4.864
 2742SOL     OW 9124   1.406   5.168   0.413
 2742SOL    HW1 9125   1.418   5.261   0.449
 2742SOL    HW2 9126   1.349   5.171   0.331
 2743SOL     OW 9127   0.002   4.562   2.934
 2743SOL    HW1 9128   0.031   4.574   2.839
 2743SOL    HW2 9129   0.041   4.635   2.990
 2744SOL     OW 9130   4.813   2.268   0.469
 2744SOL    HW1 9131   4.787   2.359   0.501
 2744SOL    HW2 9132   4.732   2.209   0.467
 2745SOL     OW 9133   6.994   0.780   4.690
 2745SOL    HW1 9134   0.027   0.795   4.612
 2745SOL    HW2 9135   6.911   0.835   4.679
 2746SOL     OW 9136   1.063   2.592   4.787
 2746SOL    HW1 9137   1.008   2.509   4.799
 2746SOL    HW2 9138   1.142   2.571   4.729
 2747SOL     OW 9139   4.880   4.953   6.738
 2747SOL    HW1 9140   4.820   5.028   6.713
 2747SOL    HW2 9141   4.896   4.894   6.658
 2748SOL     OW 9142   4.658   1.098   2.554
 2748SOL    HW1 9143   4.654   1.134   2.647
 2748SOL    HW2 9144   4.727   1.148   2.502
 2749SOL     OW 9145   0.239   4.069   1.189
 2749SOL    HW1 9146   0.311   4.138   1.179
 2749SOL    HW2 9147   0.278   3.984   1.223
 2750SOL     OW 9148   1.456   3.392   0.921
 2750SOL    HW1 9149   1.523   3.417   0.851
 2750SOL    HW2 9150   1.469   3.297   0.948
 2751SOL     OW 9151   1.393   3.022   1.445
 2751SOL    HW1 9152   1.394   3.098   1.380
 2751SOL    HW2 9153   1.302   2.980   1.445
 2752SOL     OW 9154   3.658   4.753   5.490
 2752SOL    HW1 9155   3.723   4.701   5.546
 2752SOL    HW2 9156   3.704   4.785   5.407
 2753SOL     OW 9157   6.906   6.344   5.235
 2753SOL    HW1 9158   6.914   6.250   5.201
 2753SOL    HW2 9159   6.984   6.397   5.204
 2754SOL     OW 9160   0.983   0.424   1.031
 2754SOL    HW1 9161   0.944   0.436   1.122
 2754SOL    HW2 9162   0.970   0.508   0.978
 2755SOL     OW 9163   2.562   6.942   2.293
 2755SOL    HW1 9164   2.654   6.969   2.266
 2755SOL    HW2 9165   2.566   6.856   2.344
 2756SOL     OW 9166   5.898   5.372   0.184
 2756SOL    HW1 9167   5.847   5.313   0.121
 2756SOL    HW2 9168   5.983   5.327   0.210
 2757SOL     OW 9169   2.577   6.731   6.724
 2757SOL    HW1 9170   2.629   6.729   6.639
 2757SOL    HW2 9171   2.481   6.751   6.705
 2758SOL     OW 9172   3.778   6.165   4.359
 2758SOL    HW1 9173   3.803   6.257   4.331
 2758SOL    HW2 9174   3.678   6.159   4.370
 2759SOL     OW 9175   5.034   6.739   6.072
 2759SOL    HW1 9176   4.991   6.829   6.082
 2759SOL    HW2 9177   5.133   6.751   6.061
 2760SOL     OW 9178   0.864   6.298   1.725
 2760SOL    HW1 9179   0.952   6.270   1.687
 2760SOL    HW2 9180   0.791   6.246   1.681
 2761SOL     OW 9181   2.220   5.635   4.519
 2761SOL    HW1 9182   2.227   5.617   4.618
 2761SOL    HW2 9183   2.174   5.558   4.475
 2762SOL     OW 9184   1.381   1.371   5.658
 2762SOL    HW1 9185   1.374   1.303   5.585
 2762SOL    HW2 9186   1.476   1.380   5.686
 2763SOL     OW 9187   5.366   1.345   3.448
 2763SOL    HW1 9188   5.354   1.341   3.348
 2763SOL    HW2 9189   5.295   1.403   3.488
 2764SOL     OW 9190   5.694   0.878   1.039
 2764SOL    HW1 9191   5.699   0.975   1.014
 2764SOL    HW2 9192   5.598   0.849   1.039
 2765SOL     OW 9193   5.877   6.804   1.238
 2765SOL    HW1 9194   5.828   6.822   1.153
 2765SOL    HW2 9195   5.974   6.826   1.226
 2766SOL     OW 9196   5.053   2.088   0.487
 2766SOL    HW1 9197   5.005   2.176   0.482
 2766SOL    HW2 9198   5.015   2.033   0.561
 2767SOL     OW 9199   6.991   5.210   0.561
 2767SOL    HW1 9200   6.894   5.236   0.569
 2767SOL    HW2 9201   0.000   5.244   0.474
 2768SOL     OW 9202   4.121   0.768   0.756
 2768SOL    HW1 9203   4.220   0.781   0.759
 2768SOL    HW2 9204   4.080   0.835   0.695
 2769SOL     OW 9205   1.699   4.233   4.221
 2769SOL    HW1 9206   1.727   4.150   4.270
 2769SOL    HW2 9207   1.760   4.248   4.143
 2770SOL     OW 9208   3.859   5.654   5.391
 2770SOL    HW1 9209   3.765   5.683   5.370
 2770SOL    HW2 9210   3.876   5.565   5.350
 2771SOL     OW 9211   6.628   0.978   3.342
 2771SOL    HW1 9212   6.668   1.058   3.297
 2771SOL    HW2 9213   6.700   0.912   3.365
 2772SOL     OW 9214   4.315   1.385   1.120
 2772SOL    HW1 9215   4.303   1.475   1.161
 2772SOL    HW2 9216   4.266   1.381   1.033
 2773SOL     OW 9217   6.275   2.292   5.143
 2773SOL    HW1 9218   6.213   2.217   5.120
 2773SOL    HW2 9219   6.261   2.368   5.081
 2774SOL     OW 9220   5.766   3.640   3.301
 2774SOL    HW1 9221   5.802   3.732   3.286
 2774SOL    HW2 9222   5.772   3.588   3.216
 2775SOL     OW 9223   0.205   6.089   6.487
 2775SOL    HW1 9224   0.242   6.014   6.542
 2775SOL    HW2 9225   0.241   6.083   6.394
 2776SOL     OW 9226   4.224   5.256   5.473
 2776SOL    HW1 9227   4.219   5.208   5.385
 2776SOL    HW2 9228   4.235   5.189   5.546
 2777SOL     OW 9229   2.482   1.319   2.230
 2777SOL    HW1 9230   2.385   1.306   2.251
 2777SOL    HW2 9231   2.531   1.234   2.245
 2778SOL     OW 9232   1.561   0.031   5.669
 2778SOL    HW1 9233   1.597   0.020   5.576
 2778SOL    HW2 9234   1.575   6.973   5.720
 2779SOL     OW 9235   5.036   6.516   1.271
 2779SOL    HW1 9236   5.020   6.418   1.277
 2779SOL    HW2 9237   5.109   6.534   1.206
 2780SOL     OW 9238   6.691   6.510   6.929
 2780SOL    HW1 9239   6.756   6.526   6.855
 2780SOL    HW2 9240   6.688   6.590   6.989
 2781SOL     OW 9241   5.284   6.608   1.983
 2781SOL    HW1 9242   5.292   6.669   2.063
 2781SOL    HW2 9243   5.221   6.534   2.005
 2782SOL     OW 9244   3.871   1.842   6.091
 2782SOL    HW1 9245   3.777   1.847   6.126
 2782SOL    HW2 9246   3.934   1.832   6.168
 2783SOL     OW 9247   4.979   4.337   3.852
 2783SOL    HW1 9248   5.020   4.293   3.772
 2783SOL    HW2 9249   4.914   4.275   3.895
 2784SOL     OW 9250   3.605   1.464   2.106
 2784SOL    HW1 9251   3.628   1.560   2.122
 2784SOL    HW2 9252   3.676   1.405   2.144
 2785SOL     OW 9253   4.688   1.447   0.892
 2785SOL    HW1 9254   4.607   1.495   0.926
 2785SOL    HW2 9255   4.770   1.495   0.923
 2786SOL     OW 9256   4.812   0.122   1.913
 2786SOL    HW1 9257   4.813   0.046   1.977
 2786SOL    HW2 9258   4.791   0.207   1.961
 2787SOL     OW 9259   3.870   1.679   6.461
 2787SOL    HW1 9260   3.940   1.734   6.416
 2787SOL    HW2 9261   3.784   1.729   6.462
 2788SOL     OW 9262   2.139   4.832   5.792
 2788SOL    HW1 9263   2.066   4.822   5.860
 2788SOL    HW2 9264   2.146   4.747   5.739
 2789SOL     OW 9265   1.837   2.322   3.604
 2789SOL    HW1 9266   1.862   2.300   3.510
 2789SOL    HW2 9267   1.780   2.249   3.642
 2790SOL     OW 9268   3.098   5.815   1.976
 2790SOL    HW1 9269   3.005   5.791   1.947
 2790SOL    HW2 9270   3.154   5.732   1.978
 2791SOL     OW 9271   0.883   3.188   3.028
 2791SOL    HW1 9272   0.798   3.141   3.004
 2791SOL    HW2 9273   0.865   3.285   3.043
 2792SOL     OW 9274   2.164   6.873   3.968
 2792SOL    HW1 9275   2.216   6.816   3.905
 2792SOL    HW2 9276   2.070   6.839   3.975
 2793SOL     OW 9277   5.434   3.687   3.218
 2793SOL    HW1 9278   5.405   3.626   3.292
 2793SOL    HW2 9279   5.355   3.719   3.168
 2794SOL     OW 9280   0.016   2.748   6.541
 2794SOL    HW1 9281   6.991   2.812   6.484
 2794SOL    HW2 9282   0.108   2.737   6.504
 2795SOL     OW 9283   1.399   2.775   0.435
 2795SOL    HW1 9284   1.409   2.702   0.503
 2795SOL    HW2 9285   1.308   2.770   0.394
 2796SOL     OW 9286   6.887   6.034   2.798
 2796SOL    HW1 9287   6.901   6.123   2.843
 2796SOL    HW2 9288   6.971   6.006   2.753
 2797SOL     OW 9289   5.497   5.386   4.469
 2797SOL    HW1 9290   5.584   5.433   4.454
 2797SOL    HW2 9291   5.460   5.411   4.558
 2798SOL     OW 9292   0.267   5.164   2.011
 2798SOL    HW1 9293   0.326   5.214   2.075
 2798SOL    HW2 9294   0.174   5.161   2.047
 2799SOL     OW 9295   6.107   5.826   0.058
 2799SOL    HW1 9296   6.145   5.852   6.996
 2799SOL    HW2 9297   6.022   5.876   0.074
 2800SOL     OW 9298   4.820   5.677   0.568
 2800SOL    HW1 9299   4.746   5.630   0.617
 2800SOL    HW2 9300   4.787   5.706   0.478
 2801SOL     OW 9301   6.402   5.873   6.320
 2801SOL    HW1 9302   6.381   5.922   6.235
 2801SOL    HW2 9303   6.318   5.857   6.371
 2802SOL     OW 9304   5.360   1.305   5.308
 2802SOL    HW1 9305   5.291   1.291   5.379
 2802SOL    HW2 9306   5.336   1.253   5.226
 2803SOL     OW 9307   4.161   5.965   6.805
 2803SOL    HW1 9308   4.227   6.040   6.814
 2803SOL    HW2 9309   4.153   5.939   6.709
 2804SOL     OW 9310   0.240   5.080   4.966
 2804SOL    HW1 9311   0.223   5.031   4.881
 2804SOL    HW2 9312   0.318   5.141   4.954
 2805SOL     OW 9313   5.412   3.407   1.625
 2805SOL    HW1 9314   5.452   3.322   1.660
 2805SOL    HW2 9315   5.336   3.435   1.685
 2806SOL     OW 9316   6.702   5.017   6.027
 2806SOL    HW1 9317   6.621   5.035   5.970
 2806SOL    HW2 9318   6.732   4.922   6.014
 2807SOL     OW 9319   5.044   6.550   4.330
 2807SOL    HW1 9320   5.139   6.575   4.309
 2807SOL    HW2 9321   5.041   6.457   4.365
 2808SOL     OW 9322   5.635   4.132   2.694
 2808SOL    HW1 9323   5.592   4.043   2.711
 2808SOL    HW2 9324   5.731   4.128   2.721
 2809SOL     OW 9325   5.926   3.227   0.917
 2809SOL    HW1 9326   5.929   3.234   1.017
 2809SOL    HW2 9327   5.912   3.318   0.878
 2810SOL     OW 9328   3.346   5.129   3.230
 2810SOL    HW1 9329   3.389   5.172   3.310
 2810SOL    HW2 9330   3.366   5.183   3.149
 2811SOL     OW 9331   1.106   2.065   3.466
 2811SOL    HW1 9332   1.146   2.068   3.558
 2811SOL    HW2 9333   1.152   1.995   3.412
 2812SOL     OW 9334   4.994   4.094   6.289
 2812SOL    HW1 9335   5.001   4.101   6.389
 2812SOL    HW2 9336   5.083   4.114   6.248
 2813SOL     OW 9337   6.826   6.806   6.008
 2813SOL    HW1 9338   6.793   6.736   6.071
 2813SOL    HW2 9339   6.894   6.863   6.053
 2814SOL     OW 9340   4.076   3.600   5.418
 2814SOL    HW1 9341   4.108   3.535   5.349
 2814SOL    HW2 9342   4.095   3.693   5.386
 2815SOL     OW 9343   6.089   0.133   5.454
 2815SOL    HW1 9344   6.044   0.116   5.541
 2815SOL    HW2 9345   6.188   0.141   5.468
 2816SOL     OW 9346   6.670   5.540   3.139
 2816SOL    HW1 9347   6.575   5.524   3.166
 2816SOL    HW2 9348   6.673   5.609   3.067
 2817SOL     OW 9349   2.754   0.071   1.386
 2817SOL    HW1 9350   2.715   7.009   1.411
 2817SOL    HW2 9351   2.736   0.137   1.459
 2818SOL     OW 9352   0.209   0.749   0.765
 2818SOL    HW1 9353   0.151   0.703   0.833
 2818SOL    HW2 9354   0.289   0.693   0.746
 2819SOL     OW 9355   0.559   1.173   1.581
 2819SOL    HW1 9356   0.518   1.187   1.492
 2819SOL    HW2 9357   0.489   1.146   1.647
 2820SOL     OW 9358   0.744   2.933   3.018
 2820SOL    HW1 9359   0.774   2.856   3.074
 2820SOL    HW2 9360   0.683   2.899   2.945
 2821SOL     OW 9361   4.367   3.281   6.938
 2821SOL    HW1 9362   4.295   3.214   6.954
 2821SOL    HW2 9363   4.328   3.364   6.899
 2822SOL     OW 9364   4.393   1.714   0.384
 2822SOL    HW1 9365   4.406   1.806   0.348
 2822SOL    HW2 9366   4.480   1.678   0.417
 2823SOL     OW 9367   4.512   0.069   0.265
 2823SOL    HW1 9368   4.552   0.132   0.198
 2823SOL    HW2 9369   4.429   0.028   0.227
 2824SOL     OW 9370   3.332   1.390   3.434
 2824SOL    HW1 9371   3.247   1.378   3.485
 2824SOL    HW2 9372   3.358   1.486   3.434
 2825SOL     OW 9373   6.143   0.246   6.700
 2825SOL    HW1 9374   6.132   0.240   6.601
 2825SOL    HW2 9375   6.183   0.334   6.725
 2826SOL     OW 9376   4.979   1.367   6.619
 2826SOL    HW1 9377   4.900   1.333   6.670
 2826SOL    HW2 9378   4.958   1.457   6.580
 2827SOL     OW 9379   0.123   0.749   4.949
 2827SOL    HW1 9380   0.073   0.783   4.869
 2827SOL    HW2 9381   0.169   0.664   4.926
 2828SOL     OW 9382   2.725   1.128   6.957
 2828SOL    HW1 9383   2.809   1.076   6.939
 2828SOL    HW2 9384   2.657   1.106   6.887
 2829SOL     OW 9385   3.479   3.529   5.184
 2829SOL    HW1 9386   3.449   3.478   5.103
 2829SOL    HW2 9387   3.398   3.557   5.237
 2830SOL     OW 9388   1.746   3.228   6.038
 2830SOL    HW1 9389   1.721   3.246   6.133
 2830SOL    HW2 9390   1.691   3.153   6.003
 2831SOL     OW 9391   0.834   5.068   3.684
 2831SOL    HW1 9392   0.806   5.155   3.724
 2831SOL    HW2 9393   0.871   5.084   3.592
 2832SOL     OW 9394   0.609   2.270   2.203
 2832SOL    HW1 9395   0.685   2.306   2.257
 2832SOL    HW2 9396   0.538   2.234   2.264
 2833SOL     OW 9397   3.288   2.041   2.209
 2833SOL    HW1 9398   3.381   2.020   2.178
 2833SOL    HW2 9399   3.238   2.087   2.136
 2834SOL     OW 9400   3.845   5.175   6.577
 2834SOL    HW1 9401   3.874   5.079   6.574
 2834SOL    HW2 9402   3.844   5.212   6.485
 2835SOL     OW 9403   0.393   0.278   1.919
 2835SOL    HW1 9404   0.486   0.241   1.928
 2835SOL    HW2 9405   0.328   0.213   1.959
 2836SOL     OW 9406   6.650   0.114   2.341
 2836SOL    HW1 9407   6.562   0.079   2.310
 2836SOL    HW2 9408   6.719   0.042   2.332
 2837SOL     OW 9409   5.337   4.693   2.424
 2837SOL    HW1 9410   5.393   4.611   2.435
 2837SOL    HW2 9411   5.374   4.767   2.480
 2838SOL     OW 9412   2.258   3.985   0.985
 2838SOL    HW1 9413   2.356   3.990   1.004
 2838SOL    HW2 9414   2.211   4.059   1.032
 2839SOL     OW 9415   6.834   1.766   2.213
 2839SOL    HW1 9416   6.864   1.846   2.161
 2839SOL    HW2 9417   6.914   1.722   2.254
 2840SOL     OW 9418   1.920   0.826   3.131
 2840SOL    HW1 9419   1.943   0.855   3.224
 2840SOL    HW2 9420   1.961   0.737   3.113
 2841SOL     OW 9421   0.331   0.704   6.036
 2841SOL    HW1 9422   0.420   0.662   6.055
 2841SOL    HW2 9423   0.343   0.781   5.974
 2842SOL     OW 9424   0.586   3.923   4.208
 2842SOL    HW1 9425   0.631   4.010   4.188
 2842SOL    HW2 9426   0.493   3.940   4.240
 2843SOL     OW 9427   2.629   2.129   2.613
 2843SOL    HW1 9428   2.561   2.060   2.587
 2843SOL    HW2 9429   2.671   2.103   2.700
 2844SOL     OW 9430   0.047   4.937   0.594
 2844SOL    HW1 9431   0.006   5.028   0.587
 2844SOL    HW2 9432   7.007   4.868   0.568
 2845SOL     OW 9433   6.156   2.814   1.358
 2845SOL    HW1 9434   6.068   2.856   1.335
 2845SOL    HW2 9435   6.228   2.854   1.302
 2846SOL     OW 9436   4.087   1.240   6.699
 2846SOL    HW1 9437   4.074   1.147   6.665
 2846SOL    HW2 9438   4.000   1.274   6.735
 2847SOL     OW 9439   5.035   3.298   3.903
 2847SOL    HW1 9440   4.991   3.213   3.873
 2847SOL    HW2 9441   5.100   3.328   3.833
 2848SOL     OW 9442   1.551   2.499   5.011
 2848SOL    HW1 9443   1.592   2.590   5.001
 2848SOL    HW2 9444   1.567   2.465   5.103
 2849SOL     OW 9445   4.151   6.037   0.669
 2849SOL    HW1 9446   4.118   6.130   0.687
 2849SOL    HW2 9447   4.101   5.998   0.592
 2850SOL     OW 9448   1.555   0.408   2.169
 2850SOL    HW1 9449   1.514   0.498   2.157
 2850SOL    HW2 9450   1.484   0.338   2.162
 2851SOL     OW 9451   6.311   1.256   6.203
 2851SOL    HW1 9452   6.335   1.351   6.222
 2851SOL    HW2 9453   6.382   1.215   6.145
 2852SOL     OW 9454   5.906   4.279   6.813
 2852SOL    HW1 9455   5.933   4.326   6.729
 2852SOL    HW2 9456   5.971   4.207   6.834
 2853SOL     OW 9457   1.594   2.699   6.557
 2853SOL    HW1 9458   1.558   2.702   6.464
 2853SOL    HW2 9459   1.531   2.650   6.616
 2854SOL     OW 9460   4.292   1.517   5.330
 2854SOL    HW1 9461   4.240   1.435   5.352
 2854SOL    HW2 9462   4.299   1.575   5.410
 2855SOL     OW 9463   2.297   1.186   0.213
 2855SOL    HW1 9464   2.277   1.283   0.203
 2855SOL    HW2 9465   2.395   1.173   0.224
 2856SOL     OW 9466   1.269   2.944   5.636
 2856SOL    HW1 9467   1.248   2.881   5.711
 2856SOL    HW2 9468   1.260   3.038   5.669
 2857SOL     OW 9469   2.806   2.025   2.408
 2857SOL    HW1 9470   2.727   2.076   2.443
 2857SOL    HW2 9471   2.869   2.088   2.363
 2858SOL     OW 9472   4.765   4.173   2.455
 2858SOL    HW1 9473   4.710   4.257   2.456
 2858SOL    HW2 9474   4.757   4.128   2.366
 2859SOL     OW 9475   5.316   1.542   6.422
 2859SOL    HW1 9476   5.353   1.570   6.510
 2859SOL    HW2 9477   5.363   1.460   6.391
 2860SOL     OW 9478   3.102   1.344   1.910
 2860SOL    HW1 9479   3.065   1.354   2.003
 2860SOL    HW2 9480   3.190   1.392   1.905
 2861SOL     OW 9481   4.102   3.877   5.351
 2861SOL    HW1 9482   4.006   3.900   5.335
 2861SOL    HW2 9483   4.151   3.880   5.264
 2862SOL     OW 9484   5.868   1.345   3.090
 2862SOL    HW1 9485   5.819   1.285   3.027
 2862SOL    HW2 9486   5.920   1.290   3.155
 2863SOL     OW 9487   5.216   1.221   6.535
 2863SOL    HW1 9488   5.135   1.276   6.554
 2863SOL    HW2 9489   5.265   1.203   6.620
 2864SOL     OW 9490   4.649   1.668   1.521
 2864SOL    HW1 9491   4.564   1.712   1.491
 2864SOL    HW2 9492   4.679   1.603   1.451
 2865SOL     OW 9493   3.725   4.178   6.889
 2865SOL    HW1 9494   3.690   4.207   6.800
 2865SOL    HW2 9495   3.699   4.083   6.906
 2866SOL     OW 9496   6.754   5.421   0.506
 2866SOL    HW1 9497   6.813   5.479   0.563
 2866SOL    HW2 9498   6.669   5.403   0.554
 2867SOL     OW 9499   6.083   5.197   2.942
 2867SOL    HW1 9500   6.153   5.139   2.900
 2867SOL    HW2 9501   5.995   5.149   2.941
 2868SOL     OW 9502   0.994   1.934   5.475
 2868SOL    HW1 9503   0.939   1.914   5.394
 2868SOL    HW2 9504   0.939   1.919   5.557
 2869SOL     OW 9505   6.824   1.525   3.149
 2869SOL    HW1 9506   6.888   1.486   3.215
 2869SOL    HW2 9507   6.813   1.623   3.167
 2870SOL     OW 9508   0.450   1.599   4.748
 2870SOL    HW1 9509   0.543   1.617   4.781
 2870SOL    HW2 9510   0.391   1.577   4.825
 2871SOL     OW 9511   0.577   1.784   6.753
 2871SOL    HW1 9512   0.484   1.790   6.790
 2871SOL    HW2 9513   0.592   1.859   6.689
 2872SOL     OW 9514   2.728   1.664   2.747
 2872SOL    HW1 9515   2.800   1.734   2.752
 2872SOL    HW2 9516   2.745   1.604   2.668
 2873SOL     OW 9517   6.728   5.244   3.042
 2873SOL    HW1 9518   6.707   5.332   3.085
 2873SOL    HW2 9519   6.807   5.203   3.087
 2874SOL     OW 9520   3.873   6.740   3.346
 2874SOL    HW1 9521   3.908   6.821   3.392
 2874SOL    HW2 9522   3.854   6.762   3.250
 2875SOL     OW 9523   4.390   0.007   0.545
 2875SOL    HW1 9524   4.302   0.055   0.547
 2875SOL    HW2 9525   4.444   0.039   0.467
 2876SOL     OW 9526   1.411   0.259   1.555
 2876SOL    HW1 9527   1.464   0.175   1.545
 2876SOL    HW2 9528   1.328   0.240   1.608
 2877SOL     OW 9529   3.305   2.604   5.308
 2877SOL    HW1 9530   3.270   2.515   5.279
 2877SOL    HW2 9531   3.281   2.619   5.404
 2878SOL     OW 9532   4.433   5.094   4.723
 2878SOL    HW1 9533   4.383   5.145   4.654
 2878SOL    HW2 9534   4.528   5.126   4.726
 2879SOL     OW 9535   5.509   5.389   0.493
 2879SOL    HW1 9536   5.507   5.289   0.487
 2879SOL    HW2 9537   5.598   5.422   0.462
 2880SOL     OW 9538   6.862   0.284   1.729
 2880SOL    HW1 9539   6.858   0.328   1.818
 2880SOL    HW2 9540   6.770   0.252   1.703
 2881SOL     OW 9541   5.258   5.866   0.175
 2881SOL    HW1 9542   5.168   5.824   0.190
 2881SOL    HW2 9543   5.277   5.872   0.077
 2882SOL     OW 9544   0.846   4.652   2.760
 2882SOL    HW1 9545   0.810   4.560   2.743
 2882SOL    HW2 9546   0.826   4.711   2.681
 2883SOL     OW 9547   5.837   0.226   3.336
 2883SOL    HW1 9548   5.917   0.286   3.342
 2883SOL    HW2 9549   5.758   0.271   3.378
 2884SOL     OW 9550   0.774   0.086   2.853
 2884SOL    HW1 9551   0.791   0.127   2.943
 2884SOL    HW2 9552   0.848   0.023   2.831
 2885SOL     OW 9553   0.827   3.475   3.030
 2885SOL    HW1 9554   0.850   3.562   2.987
 2885SOL    HW2 9555   0.825   3.486   3.129
 2886SOL     OW 9556   2.076   4.163   5.614
 2886SOL    HW1 9557   2.037   4.250   5.586
 2886SOL    HW2 9558   2.142   4.132   5.545
 2887SOL     OW 9559   0.289   0.544   4.875
 2887SOL    HW1 9560   0.279   0.527   4.777
 2887SOL    HW2 9561   0.383   0.573   4.894
 2888SOL     OW 9562   0.740   4.239   0.034
 2888SOL    HW1 9563   0.751   4.141   0.053
 2888SOL    HW2 9564   0.802   4.265   6.988
 2889SOL     OW 9565   2.013   6.974   2.207
 2889SOL    HW1 9566   2.112   6.965   2.195
 2889SOL    HW2 9567   1.991   0.040   2.237
 2890SOL     OW 9568   2.462   6.025   0.937
 2890SOL    HW1 9569   2.536   6.079   0.977
 2890SOL    HW2 9570   2.375   6.054   0.977
 2891SOL     OW 9571   0.882   4.319   3.880
 2891SOL    HW1 9572   0.975   4.313   3.843
 2891SOL    HW2 9573   0.832   4.390   3.831
 2892SOL     OW 9574   5.116   3.223   0.017
 2892SOL    HW1 9575   5.090   3.319   0.028
 2892SOL    HW2 9576   5.215   3.215   0.027
 2893SOL     OW 9577   0.636   6.121   4.732
 2893SOL    HW1 9578   0.711   6.059   4.754
 2893SOL    HW2 9579   0.554   6.094   4.782
 2894SOL     OW 9580   1.676   2.362   1.624
 2894SOL    HW1 9581   1.587   2.394   1.655
 2894SOL    HW2 9582   1.746   2.429   1.651
 2895SOL     OW 9583   4.641   2.405   5.999
 2895SOL    HW1 9584   4.714   2.341   6.021
 2895SOL    HW2 9585   4.570   2.358   5.947
 2896SOL     OW 9586   4.800   5.916   6.131
 2896SOL    HW1 9587   4.887   5.965   6.128
 2896SOL    HW2 9588   4.816   5.822   6.162
 2897SOL     OW 9589   3.892   5.129   3.167
 2897SOL    HW1 9590   3.944   5.203   3.210
 2897SOL    HW2 9591   3.935   5.104   3.081
 2898SOL     OW 9592   4.312   5.172   4.487
 2898SOL    HW1 9593   4.243   5.229   4.444
 2898SOL    HW2 9594   4.390   5.162   4.426
 2899SOL     OW 9595   1.021   1.591   0.431
 2899SOL    HW1 9596   0.938   1.537   0.447
 2899SOL    HW2 9597   1.002   1.661   0.362
 2900SOL     OW 9598   1.617   4.778   5.472
 2900SOL    HW1 9599   1.546   4.834   5.515
 2900SOL    HW2 9600   1.651   4.711   5.537
 2901SOL     OW 9601   3.116   5.777   3.713
 2901SOL    HW1 9602   3.101   5.713   3.638
 2901SOL    HW2 9603   3.166   5.731   3.787
 2902SOL     OW 9604   4.908   6.796   2.596
 2902SOL    HW1 9605   4.860   6.833   2.517
 2902SOL    HW2 9606   4.987   6.854   2.617
 2903SOL     OW 9607   3.269   0.979   0.331
 2903SOL    HW1 9608   3.309   1.069   0.346
 2903SOL    HW2 9609   3.321   0.931   0.259
 2904SOL     OW 9610   2.068   4.078   5.160
 2904SOL    HW1 9611   2.075   3.984   5.195
 2904SOL    HW2 9612   2.135   4.091   5.086
 2905SOL     OW 9613   1.697   2.606   3.941
 2905SOL    HW1 9614   1.785   2.631   3.981
 2905SOL    HW2 9615   1.688   2.507   3.939
 2906SOL     OW 9616   4.348   5.648   1.880
 2906SOL    HW1 9617   4.442   5.669   1.856
 2906SOL    HW2 9618   4.292   5.731   1.876
 2907SOL     OW 9619   0.543   1.651   3.424
 2907SOL    HW1 9620   0.623   1.668   3.368
 2907SOL    HW2 9621   0.509   1.737   3.462
 2908SOL     OW 9622   4.538   6.189   4.277
 2908SOL    HW1 9623   4.578   6.098   4.287
 2908SOL    HW2 9624   4.548   6.240   4.362
 2909SOL     OW 9625   1.580   6.174   3.197
 2909SOL    HW1 9626   1.493   6.140   3.231
 2909SOL    HW2 9627   1.577   6.180   3.097
 2910SOL     OW 9628   4.378   6.839   4.379
 2910SOL    HW1 9629   4.379   6.769   4.450
 2910SOL    HW2 9630   4.464   6.889   4.381
 2911SOL     OW 9631   1.147   5.429   3.435
 2911SOL    HW1 9632   1.175   5.519   3.402
 2911SOL    HW2 9633   1.072   5.395   3.378
 2912SOL     OW 9634   4.722   0.598   0.031
 2912SOL    HW1 9635   4.752   0.608   0.126
 2912SOL    HW2 9636   4.633   0.551   0.028
 2913SOL     OW 9637   2.880   4.824   2.831
 2913SOL    HW1 9638   2.828   4.780   2.905
 2913SOL    HW2 9639   2.847   4.791   2.743
 2914SOL     OW 9640   6.070   6.309   6.783
 2914SOL    HW1 9641   6.149   6.282   6.727
 2914SOL    HW2 9642   6.085   6.278   6.877
 2915SOL     OW 9643   5.609   1.314   4.090
 2915SOL    HW1 9644   5.522   1.358   4.112
 2915SOL    HW2 9645   5.660   1.371   4.026
 2916SOL     OW 9646   0.867   6.620   0.005
 2916SOL    HW1 9647   0.961   6.655   0.013
 2916SOL    HW2 9648   0.831   6.644   6.941
 2917SOL     OW 9649   2.541   0.036   3.033
 2917SOL    HW1 9650   2.474   0.012   3.103
 2917SOL    HW2 9651   2.498   0.095   2.964
 2918SOL     OW 9652   6.878   5.486   4.507
 2918SOL    HW1 9653   6.947   5.511   4.575
 2918SOL    HW2 9654   6.923   5.455   4.423
 2919SOL     OW 9655   6.463   1.428   1.209
 2919SOL    HW1 9656   6.557   1.452   1.187
 2919SOL    HW2 9657   6.455   1.411   1.307
 2920SOL     OW 9658   2.544   1.943   1.591
 2920SOL    HW1 9659   2.483   2.021   1.578
 2920SOL    HW2 9660   2.615   1.967   1.657
 2921SOL     OW 9661   1.233   0.517   3.601
 2921SOL    HW1 9662   1.216   0.611   3.633
 2921SOL    HW2 9663   1.315   0.516   3.544
 2922SOL     OW 9664   4.777   0.599   0.290
 2922SOL    HW1 9665   4.706   0.567   0.353
 2922SOL    HW2 9666   4.829   0.673   0.333
 2923SOL     OW 9667   6.811   5.478   2.157
 2923SOL    HW1 9668   6.715   5.507   2.151
 2923SOL    HW2 9669   6.848   5.505   2.246
 2924SOL     OW 9670   6.484   1.847   6.224
 2924SOL    HW1 9671   6.562   1.876   6.278
 2924SOL    HW2 9672   6.416   1.804   6.284
 2925SOL     OW 9673   4.215   0.779   2.402
 2925SOL    HW1 9674   4.143   0.716   2.430
 2925SOL    HW2 9675   4.282   0.790   2.475
 2926SOL     OW 9676   6.380   1.616   4.569
 2926SOL    HW1 9677   6.385   1.593   4.666
 2926SOL    HW2 9678   6.437   1.697   4.551
 2927SOL     OW 9679   0.769   2.557   2.082
 2927SOL    HW1 9680   0.771   2.551   2.182
 2927SOL    HW2 9681   0.860   2.537   2.045
 2928SOL     OW 9682   0.183   0.984   6.072
 2928SOL    HW1 9683   0.139   0.911   6.021
 2928SOL    HW2 9684   0.147   0.986   6.166
 2929SOL     OW 9685   0.398   2.094   6.823
 2929SOL    HW1 9686   0.302   2.087   6.798
 2929SOL    HW2 9687   0.410   2.171   6.887
 2930SOL     OW 9688   4.509   6.616   4.715
 2930SOL    HW1 9689   4.572   6.540   4.731
 2930SOL    HW2 9690   4.561   6.696   4.684
 2931SOL     OW 9691   5.537   5.110   0.506
 2931SOL    HW1 9692   5.523   5.063   0.593
 2931SOL    HW2 9693   5.632   5.101   0.478
 2932SOL     OW 9694   0.466   4.895   1.046
 2932SOL    HW1 9695   0.489   4.962   1.116
 2932SOL    HW2 9696   0.544   4.835   1.030
 2933SOL     OW 9697   6.301   4.414   3.545
 2933SOL    HW1 9698   6.367   4.478   3.504
 2933SOL    HW2 9699   6.277   4.344   3.479
 2934SOL     OW 9700   4.313   1.127   0.269
 2934SOL    HW1 9701   4.391   1.138   0.208
 2934SOL    HW2 9702   4.335   1.160   0.360
 2935SOL     OW 9703   6.205   2.729   0.427
 2935SOL    HW1 9704   6.221   2.817   0.472
 2935SOL    HW2 9705   6.213   2.655   0.494
 2936SOL     OW 9706   3.678   6.054   1.345
 2936SOL    HW1 9707   3.589   6.033   1.384
 2936SOL    HW2 9708   3.726   6.118   1.405
 2937SOL     OW 9709   4.727   4.512   0.557
 2937SOL    HW1 9710   4.796   4.460   0.607
 2937SOL    HW2 9711   4.725   4.606   0.591
 2938SOL     OW 9712   4.336   5.253   0.073
 2938SOL    HW1 9713   4.248   5.245   0.026
 2938SOL    HW2 9714   4.403   5.296   0.012
 2939SOL     OW 9715   1.390   1.268   3.618
 2939SOL    HW1 9716   1.440   1.191   3.578
 2939SOL    HW2 9717   1.296   1.241   3.636
 2940SOL     OW 9718   5.907   5.415   6.250
 2940SOL    HW1 9719   5.991   5.369   6.222
 2940SOL    HW2 9720   5.897   5.411   6.349
 2941SOL     OW 9721   1.560   3.191   4.701
 2941SOL    HW1 9722   1.568   3.219   4.605
 2941SOL    HW2 9723   1.510   3.105   4.706
 2942SOL     OW 9724   3.504   2.722   1.282
 2942SOL    HW1 9725   3.436   2.795   1.289
 2942SOL    HW2 9726   3.474   2.643   1.335
 2943SOL     OW 9727   4.641   4.689   2.847
 2943SOL    HW1 9728   4.565   4.674   2.783
 2943SOL    HW2 9729   4.708   4.616   2.837
 2944SOL     OW 9730   3.206   5.393   5.284
 2944SOL    HW1 9731   3.127   5.453   5.270
 2944SOL    HW2 9732   3.284   5.428   5.232
 2945SOL     OW 9733   3.597   4.155   3.982
 2945SOL    HW1 9734   3.571   4.170   4.077
 2945SOL    HW2 9735   3.687   4.111   3.979
 2946SOL     OW 9736   1.047   5.164   6.347
 2946SOL    HW1 9737   1.051   5.081   6.403
 2946SOL    HW2 9738   1.118   5.160   6.277
 2947SOL     OW 9739   0.605   3.399   0.943
 2947SOL    HW1 9740   0.640   3.486   0.908
 2947SOL    HW2 9741   0.674   3.327   0.930
 2948SOL     OW 9742   0.649   4.848   5.588
 2948SOL    HW1 9743   0.550   4.837   5.596
 2948SOL    HW2 9744   0.673   4.872   5.494
 2949SOL     OW 9745   2.849   4.877   1.119
 2949SOL    HW1 9746   2.770   4.862   1.060
 2949SOL    HW2 9747   2.882   4.970   1.107
 2950SOL     OW 9748   5.679   3.847   4.603
 2950SOL    HW1 9749   5.674   3.935   4.556
 2950SOL    HW2 9750   5.622   3.781   4.555
 2951SOL     OW 9751   5.992   1.179   1.103
 2951SOL    HW1 9752   5.977   1.227   1.189
 2951SOL    HW2 9753   6.054   1.232   1.045
 2952SOL     OW 9754   1.052   5.470   4.822
 2952SOL    HW1 9755   1.151   5.465   4.808
 2952SOL    HW2 9756   1.013   5.378   4.812
 2953SOL     OW 9757   5.118   3.436   3.029
 2953SOL    HW1 9758   5.084   3.345   3.051
 2953SOL    HW2 9759   5.149   3.481   3.112
 2954SOL     OW 9760   0.258   5.569   1.862
 2954SOL    HW1 9761   0.324   5.539   1.931
 2954SOL    HW2 9762   0.169   5.582   1.905
 2955SOL     OW 9763   1.257   3.850   1.260
 2955SOL    HW1 9764   1.268   3.884   1.166
 2955SOL    HW2 9765   1.197   3.770   1.259
 2956SOL     OW 9766   5.660   6.650   3.057
 2956SOL    HW1 9767   5.729   6.640   2.986
 2956SOL    HW2 9768   5.692   6.714   3.127
 2957SOL     OW 9769   5.974   3.186   1.902
 2957SOL    HW1 9770   5.895   3.145   1.947
 2957SOL    HW2 9771   6.020   3.118   1.846
 2958SOL     OW 9772   2.029   4.783   4.560
 2958SOL    HW1 9773   1.953   4.760   4.500
 2958SOL    HW2 9774   2.073   4.699   4.592
 2959SOL     OW 9775   4.869   4.343   0.865
 2959SOL    HW1 9776   4.879   4.309   0.958
 2959SOL    HW2 9777   4.853   4.442   0.867
 2960SOL     OW 9778   3.603   0.621   6.085
 2960SOL    HW1 9779   3.676   0.689   6.084
 2960SOL    HW2 9780   3.618   0.558   6.162
 2961SOL     OW 9781   4.882   3.334   3.207
 2961SOL    HW1 9782   4.878   3.432   3.191
 2961SOL    HW2 9783   4.874   3.285   3.120
 2962SOL     OW 9784   3.934   0.281   3.223
 2962SOL    HW1 9785   3.859   0.261   3.286
 2962SOL    HW2 9786   3.939   0.211   3.152
 2963SOL     OW 9787   1.686   0.288   6.722
 2963SOL    HW1 9788   1.774   0.333   6.729
 2963SOL    HW2 9789   1.646   0.277   6.813
 2964SOL     OW 9790   0.782   0.501   2.998
 2964SOL    HW1 9791   0.806   0.415   3.044
 2964SOL    HW2 9792   0.840   0.512   2.917
 2965SOL     OW 9793   6.485   1.348   4.907
 2965SOL    HW1 9794   6.484   1.251   4.884
 2965SOL    HW2 9795   6.395   1.387   4.891
 2966SOL     OW 9796   6.346   6.086   4.261
 2966SOL    HW1 9797   6.327   6.167   4.205
 2966SOL    HW2 9798   6.292   6.091   4.345
 2967SOL     OW 9799   5.952   0.830   4.601
 2967SOL    HW1 9800   6.003   0.883   4.670
 2967SOL    HW2 9801   5.991   0.739   4.594
 2968SOL     OW 9802   0.432   3.106   6.369
 2968SOL    HW1 9803   0.379   3.038   6.319
 2968SOL    HW2 9804   0.479   3.063   6.446
 2969SOL     OW 9805   5.476   1.067   4.323
 2969SOL    HW1 9806   5.475   1.008   4.405
 2969SOL    HW2 9807   5.544   1.139   4.335
 2970SOL     OW 9808   1.661   4.372   6.138
 2970SOL    HW1 9809   1.668   4.278   6.171
 2970SOL    HW2 9810   1.638   4.372   6.040
 2971SOL     OW 9811   5.055   4.164   6.858
 2971SOL    HW1 9812   5.072   4.196   6.951
 2971SOL    HW2 9813   4.981   4.096   6.859
 2972SOL     OW 9814   6.177   4.310   6.388
 2972SOL    HW1 9815   6.184   4.218   6.427
 2972SOL    HW2 9816   6.119   4.306   6.307
 2973SOL     OW 9817   5.383   0.721   3.256
 2973SOL    HW1 9818   5.335   0.808   3.261
 2973SOL    HW2 9819   5.480   0.737   3.238
 2974SOL     OW 9820   0.384   4.540   3.066
 2974SOL    HW1 9821   0.346   4.560   3.157
 2974SOL    HW2 9822   0.348   4.607   3.000
 2975SOL     OW 9823   6.109   2.989   5.273
 2975SOL    HW1 9824   6.195   2.951   5.237
 2975SOL    HW2 9825   6.077   3.061   5.211
 2976SOL     OW 9826   4.072   2.160   3.421
 2976SOL    HW1 9827   4.093   2.065   3.441
 2976SOL    HW2 9828   4.143   2.199   3.362
 2977SOL     OW 9829   2.392   6.734   3.406
 2977SOL    HW1 9830   2.331   6.668   3.451
 2977SOL    HW2 9831   2.455   6.685   3.345
 2978SOL     OW 9832   4.794   4.649   0.329
 2978SOL    HW1 9833   4.785   4.744   0.360
 2978SOL    HW2 9834   4.764   4.587   0.401
 2979SOL     OW 9835   4.688   1.189   4.476
 2979SOL    HW1 9836   4.773   1.145   4.447
 2979SOL    HW2 9837   4.710   1.276   4.521
 2980SOL     OW 9838   1.905   6.558   3.687
 2980SOL    HW1 9839   1.964   6.481   3.664
 2980SOL    HW2 9840   1.835   6.568   3.616
 2981SOL     OW 9841   2.287   1.068   6.237
 2981SOL    HW1 9842   2.344   1.072   6.319
 2981SOL    HW2 9843   2.344   1.083   6.157
 2982SOL     OW 9844   4.091   5.336   3.259
 2982SOL    HW1 9845   4.083   5.284   3.344
 2982SOL    HW2 9846   4.175   5.310   3.211
 2983SOL     OW 9847   1.035   1.626   3.187
 2983SOL    HW1 9848   0.991   1.537   3.199
 2983SOL    HW2 9849   1.111   1.617   3.122
 2984SOL     OW 9850   5.325   5.729   1.229
 2984SOL    HW1 9851   5.410   5.778   1.247
 2984SOL    HW2 9852   5.271   5.722   1.313
 2985SOL     OW 9853   1.191   3.045   6.043
 2985SOL    HW1 9854   1.227   3.054   6.136
 2985SOL    HW2 9855   1.091   3.052   6.045
 2986SOL     OW 9856   3.249   4.296   5.239
 2986SOL    HW1 9857   3.230   4.235   5.316
 2986SOL    HW2 9858   3.220   4.388   5.262
 2987SOL     OW 9859   6.148   0.951   4.810
 2987SOL    HW1 9860   6.145   0.865   4.860
 2987SOL    HW2 9861   6.143   1.027   4.875
 2988SOL     OW 9862   0.512   5.736   2.395
 2988SOL    HW1 9863   0.585   5.668   2.387
 2988SOL    HW2 9864   0.425   5.689   2.414
 2989SOL     OW 9865   6.874   6.411   6.722
 2989SOL    HW1 9866   6.844   6.468   6.646
 2989SOL    HW2 9867   6.834   6.320   6.715
 2990SOL     OW 9868   4.493   1.902   4.426
 2990SOL    HW1 9869   4.546   1.819   4.447
 2990SOL    HW2 9870   4.531   1.979   4.477
 2991SOL     OW 9871   6.370   4.398   5.865
 2991SOL    HW1 9872   6.311   4.476   5.843
 2991SOL    HW2 9873   6.335   4.351   5.946
 2992SOL     OW 9874   2.820   5.549   5.447
 2992SOL    HW1 9875   2.886   5.532   5.374
 2992SOL    HW2 9876   2.759   5.623   5.419
 2993SOL     OW 9877   0.821   5.363   0.872
 2993SOL    HW1 9878   0.912   5.336   0.904
 2993SOL    HW2 9879   0.751   5.311   0.921
 2994SOL     OW 9880   3.802   6.691   6.753
 2994SOL    HW1 9881   3.752   6.613   6.789
 2994SOL    HW2 9882   3.899   6.668   6.745
 2995SOL     OW 9883   2.840   2.584   6.611
 2995SOL    HW1 9884   2.859   2.679   6.636
 2995SOL    HW2 9885   2.776   2.582   6.534
 2996SOL     OW 9886   2.622   0.411   3.595
 2996SOL    HW1 9887   2.683   0.484   3.564
 2996SOL    HW2 9888   2.658   0.322   3.565
 2997SOL     OW 9889   5.673   0.958   2.510
 2997SOL    HW1 9890   5.633   0.867   2.519
 2997SOL    HW2 9891   5.746   0.956   2.441
 2998SOL     OW 9892   4.230   0.133   3.992
 2998SOL    HW1 9893   4.320   0.178   3.994
 2998SOL    HW2 9894   4.238   0.046   3.944
 2999SOL     OW 9895   2.923   5.103   4.632
 2999SOL    HW1 9896   2.926   5.058   4.721
 2999SOL    HW2 9897   2.864   5.184   4.638
 3000SOL     OW 9898   2.380   3.589   6.985
 3000SOL    HW1 9899   2.339   3.523   0.020
 3000SOL    HW2 9900   2.309   3.649   6.947
 3001SOL     OW 9901   5.465   6.501   5.923
 3001SOL    HW1 9902   5.455   6.477   5.827
 3001SOL    HW2 9903   5.548   6.459   5.960
 3002SOL     OW 9904   3.832   0.759   6.402
 3002SOL    HW1 9905   3.906   0.717   6.455
 3002SOL    HW2 9906   3.820   0.854   6.430
 3003SOL     OW 9907   2.196   7.022   0.037
 3003SOL    HW1 9908   2.159   0.065   0.098
 3003SOL    HW2 9909   2.154   6.934   0.058
 3004SOL     OW 9910   1.492   4.385   3.494
 3004SOL    HW1 9911   1.583   4.365   3.457
 3004SOL    HW2 9912   1.496   4.469   3.549
 3005SOL     OW 9913   3.532   2.553   0.222
 3005SOL    HW1 9914   3.552   2.646   0.251
 3005SOL    HW2 9915   3.529   2.549   0.122
 3006SOL     OW 9916   5.403   2.211   5.763
 3006SOL    HW1 9917   5.385   2.118   5.794
 3006SOL    HW2 9918   5.480   2.250   5.814
 3007SOL     OW 9919   5.886   5.412   1.013
 3007SOL    HW1 9920   5.791   5.438   0.995
 3007SOL    HW2 9921   5.928   5.481   1.072
 3008SOL     OW 9922   3.373   1.808   6.615
 3008SOL    HW1 9923   3.382   1.710   6.629
 3008SOL    HW2 9924   3.356   1.853   6.703
 3009SOL     OW 9925   0.663   0.884   2.897
 3009SOL    HW1 9926   0.727   0.927   2.833
 3009SOL    HW2 9927   0.624   0.955   2.957
 3010SOL     OW 9928   3.271   6.032   3.006
 3010SOL    HW1 9929   3.196   5.972   2.981
 3010SOL    HW2 9930   3.258   6.121   2.963
 3011SOL     OW 9931   5.200   1.388   1.289
 3011SOL    HW1 9932   5.148   1.337   1.220
 3011SOL    HW2 9933   5.287   1.342   1.305
 3012SOL     OW 9934   1.020   3.929   5.577
 3012SOL    HW1 9935   1.026   3.830   5.570
 3012SOL    HW2 9936   1.073   3.971   5.503
 3013SOL     OW 9937   5.485   5.667   5.049
 3013SOL    HW1 9938   5.413   5.638   5.113
 3013SOL    HW2 9939   5.493   5.767   5.053
 3014SOL     OW 9940   5.172   2.261   4.878
 3014SOL    HW1 9941   5.144   2.357   4.875
 3014SOL    HW2 9942   5.252   2.252   4.935
 3015SOL     OW 9943   3.356   2.362   0.313
 3015SOL    HW1 9944   3.342   2.314   0.226
 3015SOL    HW2 9945   3.411   2.444   0.297
 3016SOL     OW 9946   2.829   6.346   4.216
 3016SOL    HW1 9947   2.817   6.443   4.239
 3016SOL    HW2 9948   2.749   6.315   4.165
 3017SOL     OW 9949   6.889   5.332   1.955
 3017SOL    HW1 9950   6.809   5.327   1.896
 3017SOL    HW2 9951   6.873   5.397   2.029
 3018SOL     OW 9952   3.073   6.216   5.906
 3018SOL    HW1 9953   3.024   6.130   5.916
 3018SOL    HW2 9954   3.082   6.260   5.995
 3019SOL     OW 9955   0.850   0.024   6.709
 3019SOL    HW1 9956   0.912   7.025   6.635
 3019SOL    HW2 9957   0.897   0.083   6.774
 3020SOL     OW 9958   4.058   3.098   1.945
 3020SOL    HW1 9959   3.979   3.046   1.913
 3020SOL    HW2 9960   4.130   3.035   1.975
 3021SOL     OW 9961   3.184   0.164   6.866
 3021SOL    HW1 9962   3.093   0.152   6.907
 3021SOL    HW2 9963   3.249   0.102   6.910
 3022SOL     OW 9964   3.740   5.276   4.251
 3022SOL    HW1 9965   3.831   5.261   4.212
 3022SOL    HW2 9966   3.681   5.199   4.228
 3023SOL     OW 9967   4.082   0.569   2.482
 3023SOL    HW1 9968   4.027   0.488   2.498
 3023SOL    HW2 9969   4.097   0.617   2.568
 3024SOL     OW 9970   3.942   6.518   5.575
 3024SOL    HW1 9971   3.880   6.471   5.513
 3024SOL    HW2 9972   3.961   6.461   5.655
 3025SOL     OW 9973   3.199   1.290   0.739
 3025SOL    HW1 9974   3.149   1.207   0.764
 3025SOL    HW2 9975   3.246   1.326   0.819
 3026SOL     OW 9976   1.404   0.818   0.605
 3026SOL    HW1 9977   1.360   0.772   0.682
 3026SOL    HW2 9978   1.483   0.764   0.575
 3027SOL     OW 9979   3.811   0.644   2.721
 3027SOL    HW1 9980   3.754   0.621   2.800
 3027SOL    HW2 9981   3.754   0.660   2.641
 3028SOL     OW 9982   1.045   4.632   5.455
 3028SOL    HW1 9983   1.091   4.559   5.404
 3028SOL    HW2 9984   1.051   4.613   5.553
 3029SOL     OW 9985   0.118   2.611   4.359
 3029SOL    HW1 9986   0.208   2.615   4.316
 3029SOL    HW2 9987   0.091   2.704   4.386
 3030SOL     OW 9988   0.602   3.139   6.142
 3030SOL    HW1 9989   0.548   3.130   6.059
 3030SOL    HW2 9990   0.545   3.120   6.222
 3031SOL     OW 9991   0.436   3.191   0.411
 3031SOL    HW1 9992   0.423   3.223   0.318
 3031SOL    HW2 9993   0.528   3.216   0.442
 3032SOL     OW 9994   3.775   6.806   1.144
 3032SOL    HW1 9995   3.677   6.788   1.140
 3032SOL    HW2 9996   3.824   6.732   1.099
 3033SOL     OW 9997   6.682   1.934   1.830
 3033SOL    HW1 9998   6.607   1.895   1.885
 3033SOL    HW2 9999   6.758   1.959   1.890
 3034SOL     OW10000   1.367   5.828   3.024
 3034SOL    HW110001   1.347   5.901   2.960
 3034SOL    HW210002   1.420   5.863   3.101
 3035SOL     OW10003   0.057   3.209   6.997
 3035SOL    HW110004   0.106   3.178   6.916
 3035SOL    HW210005   0.074   3.145   0.045
 3036SOL     OW10006   1.727   2.115   6.258
 3036SOL    HW110007   1.723   2.028   6.308
 3036SOL    HW210008   1.724   2.097   6.160
 3037SOL     OW10009   6.684   6.015   5.183
 3037SOL    HW110010   6.664   6.103   5.225
 3037SOL    HW210011   6.669   5.942   5.249
 3038SOL     OW10012   6.086   6.293   6.401
 3038SOL    HW110013   6.036   6.373   6.432
 3038SOL    HW210014   6.112   6.305   6.305
 3039SOL     OW10015   6.865   3.984   1.334
 3039SOL    HW110016   6.876   4.043   1.414
 3039SOL    HW210017   6.924   4.016   1.260
 3040SOL     OW10018   3.917   3.482   6.323
 3040SOL    HW110019   3.841   3.519   6.377
 3040SOL    HW210020   3.910   3.383   6.318
 3041SOL     OW10021   2.210   3.083   4.137
 3041SOL    HW110022   2.174   3.105   4.228
 3041SOL    HW210023   2.226   3.167   4.086
 3042SOL     OW10024   4.474   6.673   2.098
 3042SOL    HW110025   4.435   6.586   2.070
 3042SOL    HW210026   4.558   6.690   2.047
 3043SOL     OW10027   1.357   5.569   1.602
 3043SOL    HW110028   1.375   5.590   1.698
 3043SOL    HW210029   1.427   5.505   1.568
 3044SOL     OW10030   3.586   3.778   5.745
 3044SOL    HW110031   3.517   3.788   5.674
 3044SOL    HW210032   3.595   3.681   5.769
 3045SOL     OW10033   4.627   0.640   2.996
 3045SOL    HW110034   4.666   0.732   3.004
 3045SOL    HW210035   4.566   0.636   2.917
 3046SOL     OW10036   1.988   1.031   6.260
 3046SOL    HW110037   2.079   1.033   6.220
 3046SOL    HW210038   1.928   0.974   6.204
 3047SOL     OW10039   5.681   0.372   2.463
 3047SOL    HW110040   5.649   0.293   2.409
 3047SOL    HW210041   5.767   0.349   2.507
 3048SOL     OW10042   4.057   2.413   1.633
 3048SOL    HW110043   4.079   2.487   1.568
 3048SOL    HW210044   4.111   2.332   1.609
 3049SOL     OW10045   0.603   7.011   2.132
 3049SOL    HW110046   0.616   0.072   2.085
 3049SOL    HW210047   0.685   6.991   2.186
 3050SOL     OW10048   2.779   1.375   2.278
 3050SOL    HW110049   2.875   1.366   2.250
 3050SOL    HW210050   2.721   1.374   2.197
 3051SOL     OW10051   2.075   4.111   6.873
 3051SOL    HW110052   2.048   4.060   6.954
 3051SOL    HW210053   2.023   4.197   6.868
 3052SOL     OW10054   5.558   0.008   2.023
 3052SOL    HW110055   5.514   0.071   1.959
 3052SOL    HW210056   5.608   6.965   1.972
 3053SOL     OW10057   6.706   1.729   0.021
 3053SOL    HW110058   6.738   1.806   6.993
 3053SOL    HW210059   6.759   1.647   7.024
 3054SOL     OW10060   6.534   1.914   0.366
 3054SOL    HW110061   6.473   1.912   0.286
 3054SOL    HW210062   6.551   1.820   0.397
 3055SOL     OW10063   5.443   6.926   3.694
 3055SOL    HW110064   5.390   6.863   3.751
 3055SOL    HW210065   5.524   6.957   3.745
 3056SOL     OW10066   5.844   1.052   4.971
 3056SOL    HW110067   5.785   1.118   5.016
 3056SOL    HW210068   5.939   1.067   4.999
 3057SOL     OW10069   3.920   6.088   3.136
 3057SOL    HW110070   3.911   6.121   3.230
 3057SOL    HW210071   3.995   6.135   3.090
 3058SOL     OW10072   6.923   5.733   1.074
 3058SOL    HW110073   6.928   5.647   1.023
 3058SOL    HW210074   6.998   5.793   1.044
 3059SOL     OW10075   2.522   2.529   4.505
 3059SOL    HW110076   2.562   2.587   4.576
 3059SOL    HW210077   2.437   2.489   4.539
 3060SOL     OW10078   0.194   5.242   0.737
 3060SOL    HW110079   0.127   5.228   0.664
 3060SOL    HW210080   0.268   5.175   0.727
 3061SOL     OW10081   6.537   6.815   5.430
 3061SOL    HW110082   6.587   6.758   5.364
 3061SOL    HW210083   6.597   6.887   5.464
 3062SOL     OW10084   1.516   6.754   6.897
 3062SOL    HW110085   1.592   6.690   6.907
 3062SOL    HW210086   1.430   6.703   6.892
 3063SOL     OW10087   2.619   5.781   1.610
 3063SOL    HW110088   2.671   5.720   1.670
 3063SOL    HW210089   2.601   5.735   1.523
 3064SOL     OW10090   5.410   4.428   3.243
 3064SOL    HW110091   5.379   4.512   3.289
 3064SOL    HW210092   5.495   4.447   3.193
 3065SOL     OW10093   2.143   0.785   0.177
 3065SOL    HW110094   2.133   0.876   0.136
 3065SOL    HW210095   2.238   0.771   0.203
 3066SOL     OW10096   5.484   4.942   0.794
 3066SOL    HW110097   5.578   4.920   0.766
 3066SOL    HW210098   5.486   4.993   0.880
 3067SOL     OW10099   4.123   1.913   5.459
 3067SOL    HW110100   4.035   1.875   5.487
 3067SOL    HW210101   4.122   1.930   5.360
 3068SOL     OW10102   6.437   6.683   1.838
 3068SOL    HW110103   6.338   6.672   1.836
 3068SOL    HW210104   6.471   6.666   1.931
 3069SOL     OW10105   6.549   6.361   1.830
 3069SOL    HW110106   6.595   6.274   1.815
 3069SOL    HW210107   6.592   6.432   1.774
 3070SOL     OW10108   1.561   1.234   1.147
 3070SOL    HW110109   1.582   1.331   1.160
 3070SOL    HW210110   1.477   1.211   1.197
 3071SOL     OW10111   6.570   6.463   2.657
 3071SOL    HW110112   6.564   6.561   2.640
 3071SOL    HW210113   6.634   6.446   2.732
 3072SOL     OW10114   1.993   6.891   6.604
 3072SOL    HW110115   1.956   6.895   6.512
 3072SOL    HW210116   1.970   6.803   6.646
 3073SOL     OW10117   5.828   2.880   4.691
 3073SOL    HW110118   5.917   2.926   4.698
 3073SOL    HW210119   5.834   2.807   4.624
 3074SOL     OW10120   6.277   3.353   0.894
 3074SOL    HW110121   6.235   3.443   0.881
 3074SOL    HW210122   6.222   3.283   0.848
 3075SOL     OW10123   2.457   5.803   1.829
 3075SOL    HW110124   2.445   5.900   1.849
 3075SOL    HW210125   2.528   5.791   1.760
 3076SOL     OW10126   6.593   0.165   4.612
 3076SOL    HW110127   6.576   0.072   4.646
 3076SOL    HW210128   6.692   0.181   4.607
 3077SOL     OW10129   4.753   6.087   2.312
 3077SOL    HW110130   4.810   6.006   2.296
 3077SOL    HW210131   4.719   6.086   2.405
 3078SOL     OW10132   0.721   3.397   2.315
 3078SOL    HW110133   0.699   3.301   2.328
 3078SOL    HW210134   0.700   3.447   2.399
 3079SOL     OW10135   2.198   2.160   3.652
 3079SOL    HW110136   2.147   2.134   3.734
 3079SOL    HW210137   2.210   2.079   3.594
 3080SOL     OW10138   4.774   4.028   3.512
 3080SOL    HW110139   4.752   4.124   3.491
 3080SOL    HW210140   4.753   4.009   3.608
 3081SOL     OW10141   0.187   2.366   5.780
 3081SOL    HW110142   0.212   2.409   5.693
 3081SOL    HW210143   0.093   2.390   5.803
 3082SOL     OW10144   2.760   6.618   4.243
 3082SOL    HW110145   2.844   6.640   4.293
 3082SOL    HW210146   2.780   6.617   4.145
 3083SOL     OW10147   4.112   6.211   3.718
 3083SOL    HW110148   4.056   6.294   3.716
 3083SOL    HW210149   4.181   6.215   3.647
 3084SOL     OW10150   5.684   3.970   4.877
 3084SOL    HW110151   5.660   3.932   4.788
 3084SOL    HW210152   5.779   3.945   4.900
 3085SOL     OW10153   6.719   4.752   1.365
 3085SOL    HW110154   6.762   4.833   1.406
 3085SOL    HW210155   6.667   4.704   1.435
 3086SOL     OW10156   4.307   1.656   1.730
 3086SOL    HW110157   4.366   1.736   1.722
 3086SOL    HW210158   4.360   1.577   1.761
 3087SOL     OW10159   6.993   5.619   3.685
 3087SOL    HW110160   6.992   5.542   3.749
 3087SOL    HW210161   6.974   5.703   3.734
 3088SOL     OW10162   2.017   4.328   5.274
 3088SOL    HW110163   2.049   4.251   5.219
 3088SOL    HW210164   2.021   4.411   5.218
 3089SOL     OW10165   1.399   3.323   6.719
 3089SOL    HW110166   1.436   3.353   6.806
 3089SOL    HW210167   1.333   3.249   6.734
 3090SOL     OW10168   1.809   2.193   1.892
 3090SOL    HW110169   1.847   2.188   1.800
 3090SOL    HW210170   1.868   2.143   1.955
 3091SOL     OW10171   1.715   1.018   1.234
 3091SOL    HW110172   1.647   0.959   1.277
 3091SOL    HW210173   1.669   1.099   1.198
 3092SOL     OW10174   4.469   0.282   0.739
 3092SOL    HW110175   4.474   0.269   0.839
 3092SOL    HW210176   4.480   0.194   0.694
 3093SOL     OW10177   5.119   6.391   5.300
 3093SOL    HW110178   5.190   6.459   5.285
 3093SOL    HW210179   5.154   6.318   5.359
 3094SOL     OW10180   2.936   6.707   4.436
 3094SOL    HW110181   2.910   6.662   4.522
 3094SOL    HW210182   3.001   6.781   4.456
 3095SOL     OW10183   2.206   5.426   5.488
 3095SOL    HW110184   2.300   5.419   5.522
 3095SOL    HW210185   2.190   5.354   5.420
 3096SOL     OW10186   1.922   6.293   5.055
 3096SOL    HW110187   1.825   6.277   5.033
 3096SOL    HW210188   1.950   6.380   5.015
 3097SOL     OW10189   6.208   2.542   0.677
 3097SOL    HW110190   6.273   2.505   0.610
 3097SOL    HW210191   6.229   2.504   0.768
 3098SOL     OW10192   2.936   3.038   0.810
 3098SOL    HW110193   2.946   3.029   0.909
 3098SOL    HW210194   2.868   3.108   0.789
 3099SOL     OW10195   0.447   6.485   2.792
 3099SOL    HW110196   0.525   6.423   2.782
 3099SOL    HW210197   0.473   6.577   2.763
 3100SOL     OW10198   6.903   6.635   4.815
 3100SOL    HW110199   6.828   6.647   4.880
 3100SOL    HW210200   6.948   6.548   4.831
 3101SOL     OW10201   4.876   6.966   6.092
 3101SOL    HW110202   4.911   0.032   6.104
 3101SOL    HW210203   4.779   6.970   6.069
 3102SOL     OW10204   0.465   5.154   2.252
 3102SOL    HW110205   0.556   5.152   2.209
 3102SOL    HW210206   0.461   5.084   2.323
 3103SOL     OW10207   3.790   0.313   2.184
 3103SOL    HW110208   3.831   0.255   2.254
 3103SOL    HW210209   3.857   0.380   2.153
 3104SOL     OW10210   5.312   6.656   5.170
 3104SOL    HW110211   5.283   6.570   5.129
 3104SOL    HW210212   5.271   6.732   5.121
 3105SOL     OW10213   6.060   4.505   2.106
 3105SOL    HW110214   6.066   4.405   2.097
 3105SOL    HW210215   5.964   4.533   2.108
 3106SOL     OW10216   6.603   2.071   3.071
 3106SOL    HW110217   6.680   2.085   3.133
 3106SOL    HW210218   6.637   2.063   2.977
 3107SOL     OW10219   4.259   0.913   4.620
 3107SOL    HW110220   4.314   0.991   4.590
 3107SOL    HW210221   4.316   0.832   4.625
 3108SOL     OW10222   1.084   6.879   4.132
 3108SOL    HW110223   1.033   6.848   4.212
 3108SOL    HW210224   1.176   6.907   4.159
 3109SOL     OW10225   5.539   6.434   2.727
 3109SOL    HW110226   5.491   6.426   2.815
 3109SOL    HW210227   5.477   6.474   2.659
 3110SOL     OW10228   1.682   2.117   2.913
 3110SOL    HW110229   1.694   2.019   2.924
 3110SOL    HW210230   1.588   2.142   2.938
 3111SOL     OW10231   6.368   6.136   3.831
 3111SOL    HW110232   6.270   6.141   3.816
 3111SOL    HW210233   6.398   6.041   3.830
 3112SOL     OW10234   4.460   2.806   6.473
 3112SOL    HW110235   4.402   2.843   6.400
 3112SOL    HW210236   4.462   2.706   6.466
 3113SOL     OW10237   2.104   6.070   3.450
 3113SOL    HW110238   2.094   5.973   3.428
 3113SOL    HW210239   2.173   6.081   3.521
 3114SOL     OW10240   4.347   2.039   0.717
 3114SOL    HW110241   4.307   1.960   0.764
 3114SOL    HW210242   4.443   2.019   0.695
 3115SOL     OW10243   4.268   3.312   6.108
 3115SOL    HW110244   4.350   3.310   6.050
 3115SOL    HW210245   4.206   3.382   6.074
 3116SOL     OW10246   0.257   2.923   7.004
 3116SOL    HW110247   0.340   2.869   6.989
 3116SOL    HW210248   0.194   2.910   6.927
 3117SOL     OW10249   4.233   3.728   5.144
 3117SOL    HW110250   4.279   3.644   5.116
 3117SOL    HW210251   4.184   3.767   5.066
 3118SOL     OW10252   0.284   4.687   1.618
 3118SOL    HW110253   0.375   4.657   1.646
 3118SOL    HW210254   0.251   4.629   1.544
 3119SOL     OW10255   1.740   3.698   5.616
 3119SOL    HW110256   1.804   3.764   5.655
 3119SOL    HW210257   1.784   3.608   5.609
 3120SOL     OW10258   3.261   6.595   4.870
 3120SOL    HW110259   3.256   6.640   4.959
 3120SOL    HW210260   3.173   6.552   4.850
 3121SOL     OW10261   6.805   1.229   3.566
 3121SOL    HW110262   6.804   1.135   3.600
 3121SOL    HW210263   6.879   1.239   3.499
 3122SOL     OW10264   3.346   6.779   6.144
 3122SOL    HW110265   3.306   6.840   6.076
 3122SOL    HW210266   3.374   6.693   6.101
 3123SOL     OW10267   4.246   1.783   3.975
 3123SOL    HW110268   4.160   1.748   4.012
 3123SOL    HW210269   4.310   1.800   4.050
 3124SOL     OW10270   3.832   6.937   4.575
 3124SOL    HW110271   3.797   6.874   4.506
 3124SOL    HW210272   3.792   6.915   4.664
 3125SOL     OW10273   6.541   2.189   5.148
 3125SOL    HW110274   6.456   2.229   5.183
 3125SOL    HW210275   6.547   2.206   5.050
 3126SOL     OW10276   4.300   4.814   6.392
 3126SOL    HW110277   4.220   4.754   6.386
 3126SOL    HW210278   4.338   4.811   6.484
 3127SOL     OW10279   1.031   3.367   3.954
 3127SOL    HW110280   1.080   3.351   3.868
 3127SOL    HW210281   1.000   3.279   3.991
 3128SOL     OW10282   2.390   0.587   6.767
 3128SOL    HW110283   2.478   0.585   6.816
 3128SOL    HW210284   2.358   0.681   6.760
 3129SOL     OW10285   0.335   3.721   6.594
 3129SOL    HW110286   0.278   3.773   6.530
 3129SOL    HW210287   0.346   3.774   6.678
 3130SOL     OW10288   1.907   4.097   1.076
 3130SOL    HW110289   1.843   4.086   1.152
 3130SOL    HW210290   2.000   4.107   1.111
 3131SOL     OW10291   6.994   2.604   1.294
 3131SOL    HW110292   6.979   2.630   1.199
 3131SOL    HW210293   0.042   2.660   1.332
 3132SOL     OW10294   4.365   5.802   5.849
 3132SOL    HW110295   4.356   5.804   5.949
 3132SOL    HW210296   4.444   5.747   5.824
 3133SOL     OW10297   3.671   2.151   3.918
 3133SOL    HW110298   3.576   2.125   3.932
 3133SOL    HW210299   3.685   2.179   3.823
 3134SOL     OW10300   5.089   4.410   1.158
 3134SOL    HW110301   5.125   4.499   1.130
 3134SOL    HW210302   5.126   4.386   1.248
 3135SOL     OW10303   5.535   0.434   5.552
 3135SOL    HW110304   5.465   0.367   5.526
 3135SOL    HW210305   5.620   0.414   5.503
 3136SOL     OW10306   5.645   0.539   0.648
 3136SOL    HW110307   5.659   0.578   0.739
 3136SOL    HW210308   5.618   0.612   0.584
 3137SOL     OW10309   6.292   0.701   3.430
 3137SOL    HW110310   6.228   0.683   3.355
 3137SOL    HW210311   6.263   0.782   3.480
 3138SOL     OW10312   6.454   3.561   4.128
 3138SOL    HW110313   6.384   3.593   4.192
 3138SOL    HW210314   6.545   3.585   4.163
 3139SOL     OW10315   5.174   6.574   0.345
 3139SOL    HW110316   5.107   6.535   0.281
 3139SOL    HW210317   5.128   6.636   0.408
 3140SOL     OW10318   5.906   6.962   6.457
 3140SOL    HW110319   5.982   6.918   6.505
 3140SOL    HW210320   5.857   7.022   6.521
 3141SOL     OW10321   0.292   6.101   6.200
 3141SOL    HW110322   0.384   6.062   6.211
 3141SOL    HW210323   0.298   6.183   6.143
 3142SOL     OW10324   3.553   0.013   1.469
 3142SOL    HW110325   3.458   7.017   1.452
 3142SOL    HW210326   3.596   6.966   1.522
 3143SOL     OW10327   6.826   1.408   6.528
 3143SOL    HW110328   6.795   1.503   6.523
 3143SOL    HW210329   6.754   1.352   6.570
 3144SOL     OW10330   4.247   4.441   1.399
 3144SOL    HW110331   4.257   4.390   1.484
 3144SOL    HW210332   4.256   4.539   1.417
 3145SOL     OW10333   1.927   5.853   1.445
 3145SOL    HW110334   1.854   5.815   1.390
 3145SOL    HW210335   2.009   5.867   1.389
 3146SOL     OW10336   1.358   6.861   3.013
 3146SOL    HW110337   1.413   6.827   2.937
 3146SOL    HW210338   1.401   6.944   3.051
 3147SOL     OW10339   3.109   4.941   0.760
 3147SOL    HW110340   3.182   4.876   0.742
 3147SOL    HW210341   3.047   4.903   0.828
 3148SOL     OW10342   5.099   5.988   4.717
 3148SOL    HW110343   5.116   6.081   4.685
 3148SOL    HW210344   5.184   5.948   4.752
 3149SOL     OW10345   2.549   1.436   6.289
 3149SOL    HW110346   2.472   1.376   6.267
 3149SOL    HW210347   2.552   1.453   6.388
 3150SOL     OW10348   6.811   6.202   4.088
 3150SOL    HW110349   6.739   6.186   4.156
 3150SOL    HW210350   6.769   6.231   4.001
 3151SOL     OW10351   4.501   1.568   6.245
 3151SOL    HW110352   4.531   1.582   6.340
 3151SOL    HW210353   4.459   1.653   6.212
 3152SOL     OW10354   1.461   6.070   0.214
 3152SOL    HW110355   1.481   6.164   0.185
 3152SOL    HW210356   1.471   6.063   0.313
 3153SOL     OW10357   6.423   4.826   1.984
 3153SOL    HW110358   6.379   4.738   1.998
 3153SOL    HW210359   6.489   4.819   1.909
 3154SOL     OW10360   6.364   0.744   6.859
 3154SOL    HW110361   6.341   0.832   6.817
 3154SOL    HW210362   6.320   0.737   6.948
 3155SOL     OW10363   6.589   4.563   1.500
 3155SOL    HW110364   6.520   4.576   1.428
 3155SOL    HW210365   6.557   4.496   1.565
 3156SOL     OW10366   3.347   3.342   3.419
 3156SOL    HW110367   3.284   3.269   3.393
 3156SOL    HW210368   3.432   3.333   3.367
 3157SOL     OW10369   2.219   2.977   4.835
 3157SOL    HW110370   2.306   2.981   4.884
 3157SOL    HW210371   2.144   2.995   4.899
 3158SOL     OW10372   4.524   0.344   3.018
 3158SOL    HW110373   4.617   0.339   2.981
 3158SOL    HW210374   4.458   0.333   2.943
 3159SOL     OW10375   5.281   1.187   0.097
 3159SOL    HW110376   5.181   1.191   0.100
 3159SOL    HW210377   5.310   1.123   0.026
 3160SOL     OW10378   0.348   5.817   5.066
 3160SOL    HW110379   0.423   5.861   5.116
 3160SOL    HW210380   0.278   5.787   5.130
 3161SOL     OW10381   1.718   2.001   3.438
 3161SOL    HW110382   1.648   2.060   3.478
 3161SOL    HW210383   1.675   1.919   3.400
 3162SOL     OW10384   1.388   6.395   1.875
 3162SOL    HW110385   1.402   6.433   1.783
 3162SOL    HW210386   1.437   6.308   1.882
 3163SOL     OW10387   3.804   2.018   6.433
 3163SOL    HW110388   3.748   2.087   6.388
 3163SOL    HW210389   3.861   2.061   6.504
 3164SOL     OW10390   4.701   4.275   1.476
 3164SOL    HW110391   4.795   4.244   1.460
 3164SOL    HW210392   4.660   4.300   1.388
 3165SOL     OW10393   0.843   5.920   0.660
 3165SOL    HW110394   0.765   5.983   0.669
 3165SOL    HW210395   0.913   5.945   0.728
 3166SOL     OW10396   4.647   1.497   5.704
 3166SOL    HW110397   4.677   1.549   5.623
 3166SOL    HW210398   4.589   1.421   5.675
 3167SOL     OW10399   7.005   3.527   1.802
 3167SOL    HW110400   0.053   3.468   1.772
 3167SOL    HW210401   0.004   3.573   1.887
 3168SOL     OW10402   4.587   2.516   6.872
 3168SOL    HW110403   4.618   2.439   6.928
 3168SOL    HW210404   4.488   2.524   6.878
 3169SOL     OW10405   1.671   3.236   4.955
 3169SOL    HW110406   1.691   3.333   4.965
 3169SOL    HW210407   1.645   3.217   4.860
 3170SOL     OW10408   3.908   0.900   1.248
 3170SOL    HW110409   3.938   0.808   1.225
 3170SOL    HW210410   3.922   0.960   1.170
 3171SOL     OW10411   0.452   6.410   1.443
 3171SOL    HW110412   0.443   6.401   1.344
 3171SOL    HW210413   0.362   6.412   1.485
 3172SOL     OW10414   0.331   5.170   6.225
 3172SOL    HW110415   0.343   5.071   6.233
 3172SOL    HW210416   0.367   5.201   6.137
 3173SOL     OW10417   3.204   2.346   0.744
 3173SOL    HW110418   3.167   2.313   0.831
 3173SOL    HW210419   3.236   2.440   0.756
 3174SOL     OW10420   3.154   2.899   6.509
 3174SOL    HW110421   3.158   2.845   6.425
 3174SOL    HW210422   3.219   2.863   6.575
 3175SOL     OW10423   6.693   6.677   0.534
 3175SOL    HW110424   6.763   6.749   0.528
 3175SOL    HW210425   6.710   6.623   0.616
 3176SOL     OW10426   1.818   4.834   4.951
 3176SOL    HW110427   1.822   4.929   4.979
 3176SOL    HW210428   1.729   4.795   4.976
 3177SOL     OW10429   4.672   4.492   4.461
 3177SOL    HW110430   4.696   4.584   4.428
 3177SOL    HW210431   4.598   4.499   4.528
 3178SOL     OW10432   6.306   2.175   0.633
 3178SOL    HW110433   6.336   2.229   0.554
 3178SOL    HW210434   6.353   2.087   0.632
 3179SOL     OW10435   2.030   2.727   2.158
 3179SOL    HW110436   2.018   2.820   2.124
 3179SOL    HW210437   2.125   2.714   2.187
 3180SOL     OW10438   4.612   0.744   6.864
 3180SOL    HW110439   4.662   0.685   6.927
 3180SOL    HW210440   4.521   0.765   6.901
 3181SOL     OW10441   1.218   1.133   2.828
 3181SOL    HW110442   1.156   1.171   2.759
 3181SOL    HW210443   1.164   1.099   2.905
 3182SOL     OW10444   2.389   1.919   4.826
 3182SOL    HW110445   2.367   2.014   4.847
 3182SOL    HW210446   2.314   1.877   4.775
 3183SOL     OW10447   4.356   3.929   1.543
 3183SOL    HW110448   4.271   3.977   1.522
 3183SOL    HW210449   4.428   3.995   1.566
 3184SOL     OW10450   1.326   2.682   2.815
 3184SOL    HW110451   1.401   2.704   2.752
 3184SOL    HW210452   1.246   2.736   2.791
 3185SOL     OW10453   5.928   6.377   0.129
 3185SOL    HW110454   5.911   6.342   0.221
 3185SOL    HW210455   5.843   6.374   0.076
 3186SOL     OW10456   3.868   2.134   2.359
 3186SOL    HW110457   3.864   2.105   2.264
 3186SOL    HW210458   3.963   2.151   2.385
 3187SOL     OW10459   4.738   3.849   0.769
 3187SOL    HW110460   4.734   3.947   0.787
 3187SOL    HW210461   4.731   3.832   0.671
 3188SOL     OW10462   3.800   6.388   5.184
 3188SOL    HW110463   3.761   6.469   5.229
 3188SOL    HW210464   3.829   6.322   5.253
 3189SOL     OW10465   1.885   1.464   1.605
 3189SOL    HW110466   1.845   1.480   1.515
 3189SOL    HW210467   1.982   1.490   1.603
 3190SOL     OW10468   0.144   6.168   1.287
 3190SOL    HW110469   0.145   6.142   1.384
 3190SOL    HW210470   0.233   6.205   1.262
 3191SOL     OW10471   4.089   6.770   0.563
 3191SOL    HW110472   4.170   6.793   0.617
 3191SOL    HW210473   4.009   6.817   0.600
 3192SOL     OW10474   0.025   2.378   0.836
 3192SOL    HW110475   0.092   2.451   0.820
 3192SOL    HW210476   0.038   2.306   0.768
 3193SOL     OW10477   4.273   1.600   5.960
 3193SOL    HW110478   4.188   1.553   5.984
 3193SOL    HW210479   4.273   1.692   6.001
 3194SOL     OW10480   0.555   3.482   6.227
 3194SOL    HW110481   0.461   3.479   6.259
 3194SOL    HW210482   0.557   3.465   6.129
 3195SOL     OW10483   2.750   2.150   2.874
 3195SOL    HW110484   2.840   2.109   2.889
 3195SOL    HW210485   2.704   2.162   2.962
 3196SOL     OW10486   0.020   0.663   5.203
 3196SOL    HW110487   0.040   0.573   5.241
 3196SOL    HW210488   0.052   0.667   5.108
 3197SOL     OW10489   1.371   6.031   3.269
 3197SOL    HW110490   1.371   5.951   3.329
 3197SOL    HW210491   1.293   6.089   3.290
 3198SOL     OW10492   6.463   2.129   5.823
 3198SOL    HW110493   6.552   2.087   5.804
 3198SOL    HW210494   6.430   2.098   5.913
 3199SOL     OW10495   4.783   2.786   2.076
 3199SOL    HW110496   4.737   2.713   2.025
 3199SOL    HW210497   4.776   2.872   2.025
 3200SOL     OW10498   6.836   2.731   2.163
 3200SOL    HW110499   6.827   2.720   2.064
 3200SOL    HW210500   6.760   2.686   2.209
 3201SOL     OW10501   5.378   4.445   4.799
 3201SOL    HW110502   5.356   4.381   4.725
 3201SOL    HW210503   5.449   4.406   4.857
 3202SOL     OW10504   1.303   4.626   2.286
 3202SOL    HW110505   1.342   4.716   2.304
 3202SOL    HW210506   1.375   4.557   2.292
 3203SOL     OW10507   6.058   2.433   6.908
 3203SOL    HW110508   6.143   2.381   6.901
 3203SOL    HW210509   6.036   2.472   6.818
 3204SOL     OW10510   4.935   6.376   1.875
 3204SOL    HW110511   4.987   6.367   1.960
 3204SOL    HW210512   4.925   6.473   1.853
 3205SOL     OW10513   0.250   3.974   6.771
 3205SOL    HW110514   0.228   4.045   6.837
 3205SOL    HW210515   0.309   4.011   6.699
 3206SOL     OW10516   0.126   6.508   6.089
 3206SOL    HW110517   0.135   6.559   6.175
 3206SOL    HW210518   0.061   6.556   6.029
 3207SOL     OW10519   0.354   1.215   5.803
 3207SOL    HW110520   0.347   1.116   5.818
 3207SOL    HW210521   0.265   1.252   5.778
 3208SOL     OW10522   4.875   6.164   5.566
 3208SOL    HW110523   4.871   6.240   5.501
 3208SOL    HW210524   4.785   6.122   5.574
 3209SOL     OW10525   3.475   5.504   3.001
 3209SOL    HW110526   3.485   5.572   3.073
 3209SOL    HW210527   3.549   5.516   2.934
 3210SOL     OW10528   0.868   4.324   1.805
 3210SOL    HW110529   0.918   4.323   1.892
 3210SOL    HW210530   0.825   4.413   1.792
 3211SOL     OW10531   2.849   3.292   0.989
 3211SOL    HW110532   2.881   3.212   1.039
 3211SOL    HW210533   2.786   3.264   0.916
 3212SOL     OW10534   3.246   1.292   0.080
 3212SOL    HW110535   3.193   1.247   0.152
 3212SOL    HW210536   3.343   1.268   0.090
 3213SOL     OW10537   6.437   5.902   2.728
 3213SOL    HW110538   6.501   5.830   2.753
 3213SOL    HW210539   6.464   5.988   2.771
 3214SOL     OW10540   4.919   5.356   0.321
 3214SOL    HW110541   5.001   5.367   0.265
 3214SOL    HW210542   4.939   5.386   0.415
 3215SOL     OW10543   0.284   2.864   0.910
 3215SOL    HW110544   0.330   2.794   0.964
 3215SOL    HW210545   0.333   2.876   0.823
 3216SOL     OW10546   5.509   5.298   1.905
 3216SOL    HW110547   5.475   5.354   1.980
 3216SOL    HW210548   5.441   5.296   1.831
 3217SOL     OW10549   0.121   5.390   2.759
 3217SOL    HW110550   0.191   5.332   2.800
 3217SOL    HW210551   0.162   5.476   2.730
 3218SOL     OW10552   3.989   6.441   3.655
 3218SOL    HW110553   3.902   6.489   3.665
 3218SOL    HW210554   4.027   6.459   3.564
 3219SOL     OW10555   6.988   1.898   3.722
 3219SOL    HW110556   0.057   1.880   3.699
 3219SOL    HW210557   6.931   1.825   3.687
 3220SOL     OW10558   0.029   5.990   5.861
 3220SOL    HW110559   6.980   6.050   5.836
 3220SOL    HW210560   0.091   5.980   5.783
 3221SOL     OW10561   3.077   0.336   1.701
 3221SOL    HW110562   2.988   0.379   1.686
 3221SOL    HW210563   3.065   0.253   1.754
 3222SOL     OW10564   4.559   1.744   3.224
 3222SOL    HW110565   4.495   1.762   3.149
 3222SOL    HW210566   4.606   1.657   3.207
 3223SOL     OW10567   1.906   5.146   6.517
 3223SOL    HW110568   1.881   5.053   6.542
 3223SOL    HW210569   2.002   5.162   6.541
 3224SOL     OW10570   4.248   4.357   6.777
 3224SOL    HW110571   4.153   4.335   6.754
 3224SOL    HW210572   4.252   4.449   6.816
 3225SOL     OW10573   4.474   3.123   5.361
 3225SOL    HW110574   4.542   3.075   5.306
 3225SOL    HW210575   4.500   3.219   5.370
 3226SOL     OW10576   1.238   1.661   4.614
 3226SOL    HW110577   1.166   1.730   4.606
 3226SOL    HW210578   1.234   1.620   4.705
 3227SOL     OW10579   2.981   2.403   6.371
 3227SOL    HW110580   3.059   2.458   6.402
 3227SOL    HW210581   3.009   2.308   6.363
 3228SOL     OW10582   5.376   3.585   3.487
 3228SOL    HW110583   5.290   3.550   3.452
 3228SOL    HW210584   5.446   3.514   3.481
 3229SOL     OW10585   3.895   1.778   5.381
 3229SOL    HW110586   3.817   1.723   5.410
 3229SOL    HW210587   3.950   1.726   5.315
 3230SOL     OW10588   1.229   3.102   3.933
 3230SOL    HW110589   1.276   3.025   3.889
 3230SOL    HW210590   1.221   3.177   3.868
 3231SOL     OW10591   2.585   0.121   2.063
 3231SOL    HW110592   2.635   0.207   2.064
 3231SOL    HW210593   2.549   0.102   2.154
 3232SOL     OW10594   4.154   4.919   3.952
 3232SOL    HW110595   4.148   4.868   3.866
 3232SOL    HW210596   4.238   4.972   3.954
 3233SOL     OW10597   1.607   2.936   1.305
 3233SOL    HW110598   1.602   2.870   1.231
 3233SOL    HW210599   1.516   2.953   1.342
 3234SOL     OW10600   0.148   2.224   0.634
 3234SOL    HW110601   0.062   2.188   0.598
 3234SOL    HW210602   0.179   2.168   0.711
 3235SOL     OW10603   4.574   6.863   1.329
 3235SOL    HW110604   4.605   6.814   1.248
 3235SOL    HW210605   4.641   6.934   1.353
 3236SOL     OW10606   1.561   3.410   0.633
 3236SOL    HW110607   1.492   3.344   0.603
 3236SOL    HW210608   1.652   3.373   0.614
 3237SOL     OW10609   5.845   1.242   3.728
 3237SOL    HW110610   5.814   1.262   3.635
 3237SOL    HW210611   5.816   1.315   3.790
 3238SOL     OW10612   0.560   4.869   0.441
 3238SOL    HW110613   0.627   4.940   0.417
 3238SOL    HW210614   0.473   4.913   0.466
 3239SOL     OW10615   5.618   1.586   0.470
 3239SOL    HW110616   5.561   1.660   0.432
 3239SOL    HW210617   5.630   1.515   0.401
 3240SOL     OW10618   0.966   5.709   5.246
 3240SOL    HW110619   0.947   5.714   5.344
 3240SOL    HW210620   1.039   5.774   5.223
 3241SOL     OW10621   4.894   1.081   4.347
 3241SOL    HW110622   4.901   1.026   4.264
 3241SOL    HW210623   4.983   1.084   4.393
 3242SOL     OW10624   2.936   4.704   1.507
 3242SOL    HW110625   2.983   4.637   1.564
 3242SOL    HW210626   3.001   4.745   1.443
 3243SOL     OW10627   5.995   4.692   0.136
 3243SOL    HW110628   6.054   4.742   0.073
 3243SOL    HW210629   5.953   4.615   0.088
 3244SOL     OW10630   4.946   5.970   0.570
 3244SOL    HW110631   4.857   5.932   0.545
 3244SOL    HW210632   4.940   6.010   0.662
 3245SOL     OW10633   5.127   2.329   5.781
 3245SOL    HW110634   5.129   2.340   5.682
 3245SOL    HW210635   5.183   2.250   5.806
 3246SOL     OW10636   6.033   0.827   3.024
 3246SOL    HW110637   5.973   0.819   3.103
 3246SOL    HW210638   6.078   0.915   3.024
 3247SOL     OW10639   6.420   5.148   3.777
 3247SOL    HW110640   6.463   5.058   3.771
 3247SOL    HW210641   6.371   5.156   3.864
 3248SOL     OW10642   5.864   3.553   1.754
 3248SOL    HW110643   5.948   3.536   1.806
 3248SOL    HW210644   5.883   3.620   1.682
 3249SOL     OW10645   3.744   3.660   5.107
 3249SOL    HW110646   3.675   3.592   5.130
 3249SOL    HW210647   3.759   3.659   5.008
 3250SOL     OW10648   5.444   0.803   2.507
 3250SOL    HW110649   5.385   0.876   2.472
 3250SOL    HW210650   5.398   0.756   2.582
 3251SOL     OW10651   4.110   1.365   2.513
 3251SOL    HW110652   4.210   1.357   2.514
 3251SOL    HW210653   4.080   1.414   2.595
 3252SOL     OW10654   2.477   1.611   2.249
 3252SOL    HW110655   2.564   1.658   2.258
 3252SOL    HW210656   2.491   1.513   2.257
 3253SOL     OW10657   5.350   3.045   2.861
 3253SOL    HW110658   5.446   3.019   2.877
 3253SOL    HW210659   5.347   3.126   2.803
 3254SOL     OW10660   4.125   5.759   5.430
 3254SOL    HW110661   4.194   5.687   5.436
 3254SOL    HW210662   4.034   5.720   5.444
 3255SOL     OW10663   4.669   6.054   1.410
 3255SOL    HW110664   4.643   6.094   1.322
 3255SOL    HW210665   4.704   6.126   1.470
 3256SOL     OW10666   5.569   0.292   6.837
 3256SOL    HW110667   5.556   0.272   6.934
 3256SOL    HW210668   5.541   0.214   6.781
 3257SOL     OW10669   1.407   2.223   1.249
 3257SOL    HW110670   1.494   2.267   1.228
 3257SOL    HW210671   1.387   2.154   1.180
 3258SOL     OW10672   3.924   5.323   2.027
 3258SOL    HW110673   3.841   5.376   2.009
 3258SOL    HW210674   3.999   5.386   2.050
 3259SOL     OW10675   5.027   6.243   4.012
 3259SOL    HW110676   4.946   6.188   3.994
 3259SOL    HW210677   5.097   6.223   3.943
 3260SOL     OW10678   2.296   1.873   1.830
 3260SOL    HW110679   2.207   1.852   1.791
 3260SOL    HW210680   2.306   1.972   1.841
 3261SOL     OW10681   4.448   5.976   0.697
 3261SOL    HW110682   4.501   6.016   0.621
 3261SOL    HW210683   4.356   6.015   0.697
 3262SOL     OW10684   3.613   2.013   2.373
 3262SOL    HW110685   3.692   2.074   2.369
 3262SOL    HW210686   3.558   2.024   2.290
 3263SOL     OW10687   4.197   0.452   3.968
 3263SOL    HW110688   4.221   0.394   3.890
 3263SOL    HW210689   4.117   0.506   3.945
 3264SOL     OW10690   1.637   5.181   0.721
 3264SOL    HW110691   1.610   5.221   0.809
 3264SOL    HW210692   1.645   5.082   0.732
 3265SOL     OW10693   4.437   1.673   5.764
 3265SOL    HW110694   4.393   1.626   5.840
 3265SOL    HW210695   4.514   1.618   5.731
 3266SOL     OW10696   1.117   2.448   0.354
 3266SOL    HW110697   1.200   2.422   0.404
 3266SOL    HW210698   1.085   2.537   0.387
 3267SOL     OW10699   3.702   2.371   0.360
 3267SOL    HW110700   3.637   2.431   0.313
 3267SOL    HW210701   3.664   2.278   0.365
 3268SOL     OW10702   1.185   3.787   6.480
 3268SOL    HW110703   1.106   3.816   6.535
 3268SOL    HW210704   1.155   3.720   6.413
 3269SOL     OW10705   4.333   5.308   1.506
 3269SOL    HW110706   4.319   5.314   1.605
 3269SOL    HW210707   4.304   5.218   1.474
 3270SOL     OW10708   1.298   4.749   5.350
 3270SOL    HW110709   1.361   4.723   5.424
 3270SOL    HW210710   1.211   4.702   5.363
 3271SOL     OW10711   5.473   3.149   3.207
 3271SOL    HW110712   5.386   3.106   3.186
 3271SOL    HW210713   5.472   3.245   3.178
 3272SOL     OW10714   3.681   4.113   0.227
 3272SOL    HW110715   3.694   4.164   0.142
 3272SOL    HW210716   3.588   4.077   0.231
 3273SOL     OW10717   0.886   6.579   2.020
 3273SOL    HW110718   0.866   6.649   2.089
 3273SOL    HW210719   0.834   6.496   2.042
 3274SOL     OW10720   3.939   1.989   0.701
 3274SOL    HW110721   3.850   2.025   0.732
 3274SOL    HW210722   3.933   1.889   0.691
 3275SOL     OW10723   1.063   0.814   6.583
 3275SOL    HW110724   1.106   0.901   6.607
 3275SOL    HW210725   1.088   0.745   6.651
 3276SOL     OW10726   3.209   5.222   6.822
 3276SOL    HW110727   3.186   5.206   6.918
 3276SOL    HW210728   3.288   5.166   6.797
 3277SOL     OW10729   5.216   6.563   6.919
 3277SOL    HW110730   5.285   6.559   6.992
 3277SOL    HW210731   5.207   6.657   6.886
 3278SOL     OW10732   6.473   1.122   5.897
 3278SOL    HW110733   6.508   1.193   5.957
 3278SOL    HW210734   6.438   1.046   5.952
 3279SOL     OW10735   0.148   1.284   0.886
 3279SOL    HW110736   0.087   1.205   0.891
 3279SOL    HW210737   0.123   1.340   0.807
 3280SOL     OW10738   3.173   5.157   5.971
 3280SOL    HW110739   3.262   5.171   6.015
 3280SOL    HW210740   3.185   5.153   5.872
 3281SOL     OW10741   2.225   5.340   0.911
 3281SOL    HW110742   2.280   5.347   0.827
 3281SOL    HW210743   2.138   5.296   0.890
 3282SOL     OW10744   2.059   5.433   4.385
 3282SOL    HW110745   2.083   5.342   4.417
 3282SOL    HW210746   2.083   5.442   4.288
 3283SOL     OW10747   2.965   1.036   1.402
 3283SOL    HW110748   2.924   1.127   1.408
 3283SOL    HW210749   2.978   1.012   1.306
 3284SOL     OW10750   6.129   6.590   6.767
 3284SOL    HW110751   6.131   6.491   6.781
 3284SOL    HW210752   6.110   6.636   6.854
 3285SOL     OW10753   6.026   2.563   3.616
 3285SOL    HW110754   5.966   2.617   3.675
 3285SOL    HW210755   6.069   2.623   3.549
 3286SOL     OW10756   4.086   3.385   3.701
 3286SOL    HW110757   4.049   3.470   3.739
 3286SOL    HW210758   4.092   3.316   3.773
 3287SOL     OW10759   1.508   6.096   0.502
 3287SOL    HW110760   1.594   6.046   0.495
 3287SOL    HW210761   1.447   6.051   0.568
 3288SOL     OW10762   1.038   4.874   6.847
 3288SOL    HW110763   1.134   4.853   6.862
 3288SOL    HW210764   0.988   4.790   6.826
 3289SOL     OW10765   1.889   7.024   5.667
 3289SOL    HW110766   1.827   0.013   5.744
 3289SOL    HW210767   1.969   0.057   5.677
 3290SOL     OW10768   0.320   0.011   2.251
 3290SOL    HW110769   0.413   0.007   2.214
 3290SOL    HW210770   0.273   6.952   2.232
 3291SOL     OW10771   1.569   6.129   6.565
 3291SOL    HW110772   1.667   6.146   6.565
 3291SOL    HW210773   1.552   6.030   6.561
 3292SOL     OW10774   0.288   0.817   6.823
 3292SOL    HW110775   0.364   0.820   6.758
 3292SOL    HW210776   0.227   0.894   6.808
 3293SOL     OW10777   6.437   3.475   2.862
 3293SOL    HW110778   6.429   3.563   2.909
 3293SOL    HW210779   6.520   3.473   2.807
 3294SOL     OW10780   0.270   0.424   5.912
 3294SOL    HW110781   0.279   0.412   5.813
 3294SOL    HW210782   0.229   0.513   5.932
 3295SOL     OW10783   1.469   2.457   1.773
 3295SOL    HW110784   1.390   2.518   1.786
 3295SOL    HW210785   1.515   2.444   1.860
 3296SOL     OW10786   2.051   6.361   1.293
 3296SOL    HW110787   1.983   6.405   1.236
 3296SOL    HW210788   2.047   6.398   1.386
 3297SOL     OW10789   2.892   0.502   5.284
 3297SOL    HW110790   2.955   0.574   5.314
 3297SOL    HW210791   2.928   0.413   5.310
 3298SOL     OW10792   6.187   2.091   3.793
 3298SOL    HW110793   6.093   2.060   3.774
 3298SOL    HW210794   6.251   2.034   3.742
 3299SOL     OW10795   2.271   6.251   3.274
 3299SOL    HW110796   2.265   6.333   3.218
 3299SOL    HW210797   2.183   6.203   3.272
 3300SOL     OW10798   0.475   0.794   5.549
 3300SOL    HW110799   0.379   0.765   5.550
 3300SOL    HW210800   0.484   0.876   5.493
 3301SOL     OW10801   2.184   3.745   3.320
 3301SOL    HW110802   2.172   3.734   3.221
 3301SOL    HW210803   2.178   3.655   3.364
 3302SOL     OW10804   1.670   5.836   4.409
 3302SOL    HW110805   1.585   5.817   4.458
 3302SOL    HW210806   1.709   5.750   4.376
 3303SOL     OW10807   3.899   3.058   1.570
 3303SOL    HW110808   3.929   2.975   1.618
 3303SOL    HW210809   3.828   3.034   1.505
 3304SOL     OW10810   1.838   5.159   4.204
 3304SOL    HW110811   1.923   5.196   4.241
 3304SOL    HW210812   1.762   5.188   4.262
 3305SOL     OW10813   2.967   1.325   2.879
 3305SOL    HW110814   3.012   1.286   2.960
 3305SOL    HW210815   2.961   1.424   2.889
 3306SOL     OW10816   2.427   5.123   3.603
 3306SOL    HW110817   2.527   5.127   3.609
 3306SOL    HW210818   2.396   5.180   3.527
 3307SOL     OW10819   0.306   5.668   6.781
 3307SOL    HW110820   0.215   5.628   6.779
 3307SOL    HW210821   0.375   5.596   6.788
 3308SOL     OW10822   4.760   6.186   0.288
 3308SOL    HW110823   4.759   6.265   0.228
 3308SOL    HW210824   4.853   6.172   0.324
 3309SOL     OW10825   0.991   5.435   1.764
 3309SOL    HW110826   0.970   5.491   1.684
 3309SOL    HW210827   0.986   5.339   1.739
 3310SOL     OW10828   6.935   4.474   4.613
 3310SOL    HW110829   6.934   4.428   4.524
 3310SOL    HW210830   7.026   4.466   4.654
 3311SOL     OW10831   2.444   4.469   1.700
 3311SOL    HW110832   2.455   4.475   1.799
 3311SOL    HW210833   2.529   4.498   1.655
 3312SOL     OW10834   3.655   4.484   6.365
 3312SOL    HW110835   3.590   4.559   6.357
 3312SOL    HW210836   3.616   4.401   6.324
 3313SOL     OW10837   6.632   5.005   2.629
 3313SOL    HW110838   6.635   5.037   2.724
 3313SOL    HW210839   6.565   4.931   2.621
 3314SOL     OW10840   1.608   2.115   4.878
 3314SOL    HW110841   1.661   2.049   4.826
 3314SOL    HW210842   1.655   2.203   4.877
 3315SOL     OW10843   6.701   3.232   4.232
 3315SOL    HW110844   6.718   3.304   4.300
 3315SOL    HW210845   6.775   3.164   4.236
 3316SOL     OW10846   3.620   1.562   5.984
 3316SOL    HW110847   3.629   1.580   5.887
 3316SOL    HW210848   3.530   1.593   6.016
 3317SOL     OW10849   4.905   2.953   1.782
 3317SOL    HW110850   4.837   2.997   1.841
 3317SOL    HW210851   4.952   3.022   1.728
 3318SOL     OW10852   3.134   7.002   0.128
 3318SOL    HW110853   3.091   6.961   0.209
 3318SOL    HW210854   3.064   0.023   0.075
 3319SOL     OW10855   6.175   6.945   4.091
 3319SOL    HW110856   6.135   6.856   4.066
 3319SOL    HW210857   6.117   7.018   4.054
 3320SOL     OW10858   5.063   1.122   6.000
 3320SOL    HW110859   5.073   1.041   5.941
 3320SOL    HW210860   4.986   1.177   5.968
 3321SOL     OW10861   3.599   2.260   1.550
 3321SOL    HW110862   3.519   2.200   1.548
 3321SOL    HW210863   3.623   2.281   1.645
 3322SOL     OW10864   5.131   3.235   1.782
 3322SOL    HW110865   5.079   3.287   1.714
 3322SOL    HW210866   5.160   3.148   1.742
 3323SOL     OW10867   1.979   3.973   0.060
 3323SOL    HW110868   1.893   3.988   0.109
 3323SOL    HW210869   1.963   3.910   7.011
 3324SOL     OW10870   0.767   3.797   6.624
 3324SOL    HW110871   0.709   3.761   6.551
 3324SOL    HW210872   0.862   3.777   6.604
 3325SOL     OW10873   2.705   3.557   6.441
 3325SOL    HW110874   2.674   3.488   6.507
 3325SOL    HW210875   2.695   3.648   6.481
 3326SOL     OW10876   5.255   1.512   1.880
 3326SOL    HW110877   5.236   1.414   1.874
 3326SOL    HW210878   5.244   1.541   1.975
 3327SOL     OW10879   3.016   6.122   1.344
 3327SOL    HW110880   3.088   6.063   1.307
 3327SOL    HW210881   3.021   6.122   1.444
 3328SOL     OW10882   4.433   2.116   2.829
 3328SOL    HW110883   4.388   2.187   2.777
 3328SOL    HW210884   4.518   2.152   2.869
 3329SOL     OW10885   4.991   0.165   5.460
 3329SOL    HW110886   4.898   0.192   5.435
 3329SOL    HW210887   5.029   0.231   5.525
 3330SOL     OW10888   5.702   6.611   1.811
 3330SOL    HW110889   5.732   6.575   1.899
 3330SOL    HW210890   5.606   6.640   1.818
 3331SOL     OW10891   0.828   3.101   2.221
 3331SOL    HW110892   0.805   3.011   2.258
 3331SOL    HW210893   0.925   3.120   2.238
 3332SOL     OW10894   6.692   4.575   0.103
 3332SOL    HW110895   6.726   4.482   0.088
 3332SOL    HW210896   6.592   4.573   0.103
 3333SOL     OW10897   3.019   3.394   6.763
 3333SOL    HW110898   3.085   3.429   6.830
 3333SOL    HW210899   3.067   3.339   6.695
 3334SOL     OW10900   2.099   3.288   2.220
 3334SOL    HW110901   2.158   3.340   2.158
 3334SOL    HW210902   2.155   3.238   2.286
 3335SOL     OW10903   5.001   6.257   6.366
 3335SOL    HW110904   5.075   6.245   6.431
 3335SOL    HW210905   4.940   6.330   6.398
 3336SOL     OW10906   2.286   6.708   4.337
 3336SOL    HW110907   2.320   6.739   4.426
 3336SOL    HW210908   2.352   6.647   4.295
 3337SOL     OW10909   2.929   4.052   1.135
 3337SOL    HW110910   2.921   4.142   1.176
 3337SOL    HW210911   2.904   3.982   1.202
 3338SOL     OW10912   6.920   2.543   1.569
 3338SOL    HW110913   7.002   2.593   1.595
 3338SOL    HW210914   6.926   2.516   1.473
 3339SOL     OW10915   1.171   6.916   6.730
 3339SOL    HW110916   1.270   6.928   6.741
 3339SOL    HW210917   1.150   6.818   6.726
 3340SOL     OW10918   3.898   1.203   4.180
 3340SOL    HW110919   3.800   1.197   4.201
 3340SOL    HW210920   3.921   1.136   4.109
 3341SOL     OW10921   1.908   4.300   4.044
 3341SOL    HW110922   1.952   4.210   4.048
 3341SOL    HW210923   1.951   4.361   4.110
 3342SOL     OW10924   0.805   0.697   3.193
 3342SOL    HW110925   0.823   0.634   3.118
 3342SOL    HW210926   0.753   0.775   3.159
 3343SOL     OW10927   5.738   4.817   6.396
 3343SOL    HW110928   5.750   4.873   6.478
 3343SOL    HW210929   5.647   4.777   6.396
 3344SOL     OW10930   6.428   3.267   4.158
 3344SOL    HW110931   6.435   3.366   4.140
 3344SOL    HW210932   6.517   3.232   4.186
 3345SOL     OW10933   0.757   4.382   6.296
 3345SOL    HW110934   0.761   4.477   6.327
 3345SOL    HW210935   0.839   4.361   6.242
 3346SOL     OW10936   1.133   1.069   6.726
 3346SOL    HW110937   1.111   1.150   6.672
 3346SOL    HW210938   1.231   1.066   6.743
 3347SOL     OW10939   0.901   3.062   6.010
 3347SOL    HW110940   0.851   3.095   5.930
 3347SOL    HW210941   0.863   3.102   6.093
 3348SOL     OW10942   4.012   3.550   4.938
 3348SOL    HW110943   4.013   3.467   4.882
 3348SOL    HW210944   4.017   3.524   5.035
 3349SOL     OW10945   2.108   4.750   2.977
 3349SOL    HW110946   2.175   4.742   3.052
 3349SOL    HW210947   2.136   4.691   2.901
 3350SOL     OW10948   6.922   2.815   6.126
 3350SOL    HW110949   7.000   2.826   6.064
 3350SOL    HW210950   6.861   2.744   6.091
 3351SOL     OW10951   4.768   0.983   1.971
 3351SOL    HW110952   4.843   0.922   1.997
 3351SOL    HW210953   4.756   1.052   2.043
 3352SOL     OW10954   5.907   2.770   1.110
 3352SOL    HW110955   5.888   2.840   1.179
 3352SOL    HW210956   5.821   2.736   1.072
 3353SOL     OW10957   2.635   6.209   1.053
 3353SOL    HW110958   2.672   6.284   0.999
 3353SOL    HW210959   2.583   6.245   1.131
 3354SOL     OW10960   4.508   2.655   5.326
 3354SOL    HW110961   4.600   2.694   5.333
 3354SOL    HW210962   4.464   2.656   5.416
 3355SOL     OW10963   2.220   1.573   6.089
 3355SOL    HW110964   2.293   1.641   6.080
 3355SOL    HW210965   2.259   1.488   6.124
 3356SOL     OW10966   1.459   5.900   6.070
 3356SOL    HW110967   1.458   5.902   5.970
 3356SOL    HW210968   1.506   5.817   6.101
 3357SOL     OW10969   3.458   3.540   2.203
 3357SOL    HW110970   3.471   3.636   2.228
 3357SOL    HW210971   3.465   3.483   2.286
 3358SOL     OW10972   4.708   1.752   2.881
 3358SOL    HW110973   4.775   1.822   2.855
 3358SOL    HW210974   4.623   1.796   2.908
 3359SOL     OW10975   6.853   5.816   2.997
 3359SOL    HW110976   6.768   5.763   2.991
 3359SOL    HW210977   6.852   5.889   2.929
 3360SOL     OW10978   0.610   2.461   6.110
 3360SOL    HW110979   0.558   2.378   6.088
 3360SOL    HW210980   0.663   2.490   6.031
 3361SOL     OW10981   0.802   5.880   4.485
 3361SOL    HW110982   0.807   5.870   4.584
 3361SOL    HW210983   0.834   5.796   4.441
 3362SOL     OW10984   3.601   1.765   2.514
 3362SOL    HW110985   3.513   1.718   2.511
 3362SOL    HW210986   3.596   1.849   2.460
 3363SOL     OW10987   6.803   2.549   1.878
 3363SOL    HW110988   6.749   2.598   1.809
 3363SOL    HW210989   6.821   2.456   1.846
 3364SOL     OW10990   2.686   4.624   3.269
 3364SOL    HW110991   2.664   4.621   3.366
 3364SOL    HW210992   2.782   4.650   3.257
 3365SOL     OW10993   0.234   3.407   4.829
 3365SOL    HW110994   0.247   3.501   4.797
 3365SOL    HW210995   0.176   3.408   4.911
 3366SOL     OW10996   5.799   5.182   4.024
 3366SOL    HW110997   5.819   5.112   3.956
 3366SOL    HW210998   5.806   5.143   4.116
 3367SOL     OW10999   3.357   3.807   2.958
 3367SOL    HW111000   3.386   3.726   2.907
 3367SOL    HW211001   3.293   3.860   2.902
 3368SOL     OW11002   0.923   5.469   6.618
 3368SOL    HW111003   0.968   5.467   6.529
 3368SOL    HW211004   0.990   5.484   6.690
 3369SOL     OW11005   4.700   1.762   1.106
 3369SOL    HW111006   4.771   1.826   1.136
 3369SOL    HW211007   4.723   1.670   1.138
 3370SOL     OW11008   6.006   6.225   1.705
 3370SOL    HW111009   5.970   6.132   1.696
 3370SOL    HW211010   5.933   6.291   1.689
 3371SOL     OW11011   2.063   3.536   1.748
 3371SOL    HW111012   2.156   3.527   1.783
 3371SOL    HW211013   2.000   3.553   1.823
 3372SOL     OW11014   0.348   1.830   6.879
 3372SOL    HW111015   0.362   1.928   6.870
 3372SOL    HW211016   0.254   1.806   6.856
 3373SOL     OW11017   0.383   2.238   4.099
 3373SOL    HW111018   0.295   2.247   4.052
 3373SOL    HW211019   0.369   2.246   4.197
 3374SOL     OW11020   1.151   0.106   3.797
 3374SOL    HW111021   1.132   0.150   3.885
 3374SOL    HW211022   1.241   0.063   3.800
 3375SOL     OW11023   0.161   4.421   0.876
 3375SOL    HW111024   0.069   4.455   0.896
 3375SOL    HW211025   0.228   4.495   0.889
 3376SOL     OW11026   3.229   3.022   4.474
 3376SOL    HW111027   3.207   3.098   4.535
 3376SOL    HW211028   3.223   3.052   4.379
 3377SOL     OW11029   6.669   5.203   5.749
 3377SOL    HW111030   6.647   5.259   5.829
 3377SOL    HW211031   6.634   5.110   5.763
 3378SOL     OW11032   1.275   6.061   6.962
 3378SOL    HW111033   1.285   5.968   6.997
 3378SOL    HW211034   1.342   6.121   7.006
 3379SOL     OW11035   0.878   2.204   4.495
 3379SOL    HW111036   0.939   2.228   4.420
 3379SOL    HW211037   0.875   2.280   4.561
 3380SOL     OW11038   4.587   5.994   5.517
 3380SOL    HW111039   4.547   6.068   5.571
 3380SOL    HW211040   4.598   5.913   5.575
 3381SOL     OW11041   6.602   2.624   1.386
 3381SOL    HW111042   6.634   2.530   1.375
 3381SOL    HW211043   6.628   2.678   1.307
 3382SOL     OW11044   0.085   2.868   6.781
 3382SOL    HW111045   0.057   2.806   6.708
 3382SOL    HW211046   0.103   2.959   6.743
 3383SOL     OW11047   3.430   5.007   0.910
 3383SOL    HW111048   3.458   5.066   0.986
 3383SOL    HW211049   3.378   5.061   0.843
 3384SOL     OW11050   2.556   3.760   1.020
 3384SOL    HW111051   2.534   3.849   1.060
 3384SOL    HW211052   2.610   3.774   0.936
 3385SOL     OW11053   6.442   3.449   4.757
 3385SOL    HW111054   6.523   3.446   4.700
 3385SOL    HW211055   6.361   3.427   4.702
 3386SOL     OW11056   5.479   4.160   6.934
 3386SOL    HW111057   5.465   4.205   7.022
 3386SOL    HW211058   5.516   4.068   6.950
 3387SOL     OW11059   4.937   0.332   3.306
 3387SOL    HW111060   4.883   0.374   3.234
 3387SOL    HW211061   5.007   0.273   3.265
 3388SOL     OW11062   5.294   3.340   2.823
 3388SOL    HW111063   5.251   3.363   2.911
 3388SOL    HW211064   5.324   3.424   2.778
 3389SOL     OW11065   6.900   5.578   6.200
 3389SOL    HW111066   6.853   5.664   6.221
 3389SOL    HW211067   6.955   5.550   6.278
 3390SOL     OW11068   4.912   6.687   6.328
 3390SOL    HW111069   4.987   6.647   6.275
 3390SOL    HW211070   4.857   6.746   6.268
 3391SOL     OW11071   4.759   2.489   3.469
 3391SOL    HW111072   4.844   2.462   3.423
 3391SOL    HW211073   4.778   2.565   3.531
 3392SOL     OW11074   3.530   6.798   4.455
 3392SOL    HW111075   3.540   6.736   4.533
 3392SOL    HW211076   3.441   6.781   4.411
 3393SOL     OW11077   5.978   6.085   0.798
 3393SOL    HW111078   6.024   6.012   0.849
 3393SOL    HW211079   5.992   6.172   0.845
 3394SOL     OW11080   4.916   3.678   0.886
 3394SOL    HW111081   5.007   3.711   0.912
 3394SOL    HW211082   4.864   3.752   0.845
 3395SOL     OW11083   5.119   1.883   2.865
 3395SOL    HW111084   5.141   1.834   2.950
 3395SOL    HW211085   5.191   1.950   2.846
 3396SOL     OW11086   5.726   0.830   3.713
 3396SOL    HW111087   5.788   0.866   3.643
 3396SOL    HW211088   5.744   0.874   3.800
 3397SOL     OW11089   3.602   5.129   6.252
 3397SOL    HW111090   3.523   5.117   6.313
 3397SOL    HW211091   3.661   5.201   6.288
 3398SOL     OW11092   1.362   0.046   5.225
 3398SOL    HW111093   1.318   7.007   5.163
 3398SOL    HW211094   1.309   0.131   5.227
 3399SOL     OW11095   5.757   5.310   3.364
 3399SOL    HW111096   5.705   5.291   3.447
 3399SOL    HW211097   5.700   5.292   3.283
 3400SOL     OW11098   5.623   3.639   7.015
 3400SOL    HW111099   5.569   3.644   6.930
 3400SOL    HW211100   5.615   3.547   0.027
 3401SOL     OW11101   6.122   4.113   6.924
 3401SOL    HW111102   6.127   4.014   6.915
 3401SOL    HW211103   6.106   4.137   7.019
 3402SOL     OW11104   5.747   5.610   0.045
 3402SOL    HW111105   5.687   5.538   0.080
 3402SOL    HW211106   5.785   5.662   0.121
 3403SOL     OW11107   4.872   5.338   6.940
 3403SOL    HW111108   4.926   5.413   6.901
 3403SOL    HW211109   4.933   5.264   6.968
 3404SOL     OW11110   5.067   2.677   6.915
 3404SOL    HW111111   5.092   2.715   6.826
 3404SOL    HW211112   4.969   2.659   6.917
 3405SOL     OW11113   6.020   4.380   6.606
 3405SOL    HW111114   6.085   4.330   6.548
 3405SOL    HW211115   6.023   4.477   6.583
 3406SOL     OW11116   1.444   3.326   2.199
 3406SOL    HW111117   1.451   3.374   2.287
 3406SOL    HW211118   1.469   3.388   2.125
 3407SOL     OW11119   1.855   4.502   0.104
 3407SOL    HW111120   1.895   4.543   0.022
 3407SOL    HW211121   1.786   4.565   0.142
 3408SOL     OW11122   4.964   3.141   4.926
 3408SOL    HW111123   4.956   3.191   4.840
 3408SOL    HW211124   5.006   3.200   4.995
 3409SOL     OW11125   3.661   6.393   0.495
 3409SOL    HW111126   3.581   6.454   0.488
 3409SOL    HW211127   3.667   6.357   0.588
 3410SOL     OW11128   6.139   6.288   2.205
 3410SOL    HW111129   6.220   6.296   2.264
 3410SOL    HW211130   6.160   6.227   2.129
 3411SOL     OW11131   0.736   3.012   0.683
 3411SOL    HW111132   0.752   2.949   0.607
 3411SOL    HW211133   0.638   3.014   0.703
 3412SOL     OW11134   5.284   3.504   1.405
 3412SOL    HW111135   5.332   3.483   1.490
 3412SOL    HW211136   5.238   3.592   1.414
 3413SOL     OW11137   6.472   1.630   6.811
 3413SOL    HW111138   6.477   1.666   6.718
 3413SOL    HW211139   6.432   1.699   6.872
 3414SOL     OW11140   3.217   2.098   5.910
 3414SOL    HW111141   3.217   2.035   5.832
 3414SOL    HW211142   3.207   2.192   5.877
 3415SOL     OW11143   2.686   2.456   4.290
 3415SOL    HW111144   2.635   2.468   4.375
 3415SOL    HW211145   2.649   2.516   4.220
 3416SOL     OW11146   5.748   0.205   0.286
 3416SOL    HW111147   5.733   0.106   0.292
 3416SOL    HW211148   5.826   0.224   0.227
 3417SOL     OW11149   0.086   6.482   3.734
 3417SOL    HW111150   0.160   6.524   3.681
 3417SOL    HW211151   0.005   6.470   3.677
 3418SOL     OW11152   4.109   5.979   3.422
 3418SOL    HW111153   4.190   6.037   3.435
 3418SOL    HW211154   4.032   6.036   3.395
 3419SOL     OW11155   3.486   5.071   5.996
 3419SOL    HW111156   3.529   5.110   6.077
 3419SOL    HW211157   3.464   4.975   6.013
 3420SOL     OW11158   5.393   3.445   4.562
 3420SOL    HW111159   5.354   3.414   4.649
 3420SOL    HW211160   5.368   3.381   4.489
 3421SOL     OW11161   5.361   1.700   3.320
 3421SOL    HW111162   5.363   1.745   3.409
 3421SOL    HW211163   5.455   1.688   3.287
 3422SOL     OW11164   2.373   0.624   0.315
 3422SOL    HW111165   2.280   0.601   0.341
 3422SOL    HW211166   2.432   0.620   0.396
 3423SOL     OW11167   0.362   4.614   6.293
 3423SOL    HW111168   0.395   4.539   6.236
 3423SOL    HW211169   0.264   4.626   6.279
 3424SOL     OW11170   2.928   0.229   1.196
 3424SOL    HW111171   2.849   0.189   1.243
 3424SOL    HW211172   3.012   0.191   1.234
 3425SOL     OW11173   4.919   4.430   2.215
 3425SOL    HW111174   4.872   4.515   2.191
 3425SOL    HW211175   4.887   4.356   2.155
 3426SOL     OW11176   5.184   2.635   1.197
 3426SOL    HW111177   5.275   2.593   1.201
 3426SOL    HW211178   5.121   2.576   1.147
 3427SOL     OW11179   0.765   2.302   1.951
 3427SOL    HW111180   0.725   2.340   2.035
 3427SOL    HW211181   0.856   2.267   1.971
 3428SOL     OW11182   4.458   4.130   0.202
 3428SOL    HW111183   4.459   4.213   0.147
 3428SOL    HW211184   4.548   4.086   0.199
 3429SOL     OW11185   0.429   1.352   1.006
 3429SOL    HW111186   0.470   1.441   1.027
 3429SOL    HW211187   0.346   1.366   0.952
 3430SOL     OW11188   2.491   5.285   5.308
 3430SOL    HW111189   2.395   5.261   5.319
 3430SOL    HW211190   2.548   5.207   5.334
 3431SOL     OW11191   1.278   5.969   1.592
 3431SOL    HW111192   1.213   5.920   1.535
 3431SOL    HW211193   1.272   5.936   1.686
 3432SOL     OW11194   2.571   4.669   6.866
 3432SOL    HW111195   2.611   4.640   6.779
 3432SOL    HW211196   2.565   4.768   6.868
 3433SOL     OW11197   1.216   1.583   5.760
 3433SOL    HW111198   1.266   1.668   5.773
 3433SOL    HW211199   1.278   1.511   5.728
 3434SOL     OW11200   3.937   1.849   1.501
 3434SOL    HW111201   4.001   1.829   1.575
 3434SOL    HW211202   3.940   1.776   1.432
 3435SOL     OW11203   1.992   1.226   0.688
 3435SOL    HW111204   2.067   1.202   0.751
 3435SOL    HW211205   1.910   1.247   0.741
 3436SOL     OW11206   3.259   5.723   0.534
 3436SOL    HW111207   3.293   5.655   0.599
 3436SOL    HW211208   3.191   5.680   0.474
 3437SOL     OW11209   2.707   6.209   5.881
 3437SOL    HW111210   2.747   6.240   5.795
 3437SOL    HW211211   2.637   6.140   5.862
 3438SOL     OW11212   0.792   3.801   1.513
 3438SOL    HW111213   0.738   3.717   1.516
 3438SOL    HW211214   0.802   3.837   1.606
 3439SOL     OW11215   3.194   5.930   4.210
 3439SOL    HW111216   3.153   6.017   4.240
 3439SOL    HW211217   3.126   5.857   4.218
 3440SOL     OW11218   4.026   3.164   2.796
 3440SOL    HW111219   4.005   3.261   2.781
 3440SOL    HW211220   4.083   3.130   2.721
 3441SOL     OW11221   0.329   5.929   6.687
 3441SOL    HW111222   0.282   5.977   6.761
 3441SOL    HW211223   0.327   5.830   6.705
 3442SOL     OW11224   2.599   3.804   1.332
 3442SOL    HW111225   2.532   3.731   1.316
 3442SOL    HW211226   2.551   3.891   1.339
 3443SOL     OW11227   3.406   6.367   1.852
 3443SOL    HW111228   3.426   6.462   1.829
 3443SOL    HW211229   3.308   6.350   1.842
 3444SOL     OW11230   4.714   5.604   1.018
 3444SOL    HW111231   4.715   5.509   1.047
 3444SOL    HW211232   4.653   5.614   0.939
 3445SOL     OW11233   6.343   5.251   3.546
 3445SOL    HW111234   6.253   5.282   3.577
 3445SOL    HW211235   6.398   5.226   3.626
 3446SOL     OW11236   5.711   0.609   1.677
 3446SOL    HW111237   5.765   0.591   1.760
 3446SOL    HW211238   5.614   0.597   1.698
 3447SOL     OW11239   5.322   7.020   0.672
 3447SOL    HW111240   5.307   0.079   0.721
 3447SOL    HW211241   5.278   7.026   0.582
 3448SOL     OW11242   3.422   6.383   6.318
 3448SOL    HW111243   3.357   6.441   6.366
 3448SOL    HW211244   3.515   6.402   6.351
 3449SOL     OW11245   5.932   5.218   4.465
 3449SOL    HW111246   5.991   5.225   4.545
 3449SOL    HW211247   5.847   5.269   4.481
 3450SOL     OW11248   0.785   1.404   6.456
 3450SOL    HW111249   0.755   1.431   6.364
 3450SOL    HW211250   0.731   1.453   6.524
 3451SOL     OW11251   2.047   6.242   6.965
 3451SOL    HW111252   2.076   6.210   0.028
 3451SOL    HW211253   2.088   6.184   6.894
 3452SOL     OW11254   5.877   0.224   6.184
 3452SOL    HW111255   5.932   0.144   6.210
 3452SOL    HW211256   5.783   0.212   6.217
 3453SOL     OW11257   5.918   5.704   6.236
 3453SOL    HW111258   5.996   5.734   6.181
 3453SOL    HW211259   5.915   5.604   6.237
 3454SOL     OW11260   1.018   4.065   5.002
 3454SOL    HW111261   0.992   4.067   5.098
 3454SOL    HW211262   1.043   4.157   4.972
 3455SOL     OW11263   2.672   1.569   4.410
 3455SOL    HW111264   2.696   1.578   4.506
 3455SOL    HW211265   2.740   1.512   4.364
 3456SOL     OW11266   4.684   5.239   2.148
 3456SOL    HW111267   4.621   5.294   2.094
 3456SOL    HW211268   4.771   5.288   2.159
 3457SOL     OW11269   4.188   5.879   4.441
 3457SOL    HW111270   4.202   5.806   4.508
 3457SOL    HW211271   4.095   5.915   4.450
 3458SOL     OW11272   4.526   1.724   2.467
 3458SOL    HW111273   4.467   1.687   2.539
 3458SOL    HW211274   4.469   1.759   2.392
 3459SOL     OW11275   5.151   1.734   3.126
 3459SOL    HW111276   5.072   1.774   3.173
 3459SOL    HW211277   5.227   1.724   3.190
 3460SOL     OW11278   2.760   1.934   6.221
 3460SOL    HW111279   2.793   1.858   6.278
 3460SOL    HW211280   2.669   1.961   6.252
 3461SOL     OW11281   5.264   3.947   6.863
 3461SOL    HW111282   5.219   4.032   6.891
 3461SOL    HW211283   5.276   3.888   6.943
 3462SOL     OW11284   0.579   4.088   5.120
 3462SOL    HW111285   0.583   4.156   5.047
 3462SOL    HW211286   0.491   4.040   5.116
 3463SOL     OW11287   0.877   4.308   0.919
 3463SOL    HW111288   0.972   4.303   0.888
 3463SOL    HW211289   0.817   4.269   0.849
 3464SOL     OW11290   0.603   4.685   6.389
 3464SOL    HW111291   0.624   4.782   6.402
 3464SOL    HW211292   0.511   4.675   6.352
 3465SOL     OW11293   2.395   2.562   2.077
 3465SOL    HW111294   2.426   2.506   2.153
 3465SOL    HW211295   2.454   2.643   2.069
 3466SOL     OW11296   0.007   5.503   6.412
 3466SOL    HW111297   0.056   5.589   6.401
 3466SOL    HW211298   0.070   5.431   6.441
 3467SOL     OW11299   1.332   2.419   6.890
 3467SOL    HW111300   1.286   2.398   6.976
 3467SOL    HW211301   1.418   2.369   6.885
 3468SOL     OW11302   3.866   5.892   2.735
 3468SOL    HW111303   3.829   5.976   2.775
 3468SOL    HW211304   3.914   5.839   2.805
 3469SOL     OW11305   5.693   1.386   3.522
 3469SOL    HW111306   5.613   1.378   3.581
 3469SOL    HW211307   5.714   1.482   3.506
 3470SOL     OW11308   7.024   4.507   1.301
 3470SOL    HW111309   6.932   4.478   1.274
 3470SOL    HW211310   0.033   4.573   1.235
 3471SOL     OW11311   4.005   5.550   4.580
 3471SOL    HW111312   4.094   5.569   4.620
 3471SOL    HW211313   3.959   5.479   4.634
 3472SOL     OW11314   2.758   0.716   3.813
 3472SOL    HW111315   2.852   0.685   3.825
 3472SOL    HW211316   2.756   0.790   3.745
 3473SOL     OW11317   6.012   1.471   5.988
 3473SOL    HW111318   5.930   1.415   6.004
 3473SOL    HW211319   6.026   1.482   5.890
 3474SOL     OW11320   3.339   5.132   1.718
 3474SOL    HW111321   3.312   5.229   1.718
 3474SOL    HW211322   3.281   5.081   1.655
 3475SOL     OW11323   1.300   6.555   4.146
 3475SOL    HW111324   1.220   6.497   4.161
 3475SOL    HW211325   1.366   6.541   4.220
 3476SOL     OW11326   3.680   1.203   3.933
 3476SOL    HW111327   3.730   1.225   3.849
 3476SOL    HW211328   3.670   1.104   3.941
 3477SOL     OW11329   2.676   5.732   2.191
 3477SOL    HW111330   2.587   5.776   2.207
 3477SOL    HW211331   2.745   5.774   2.249
 3478SOL     OW11332   3.095   5.901   5.671
 3478SOL    HW111333   3.164   5.840   5.632
 3478SOL    HW211334   3.020   5.911   5.605
 3479SOL     OW11335   0.582   0.556   3.363
 3479SOL    HW111336   0.537   0.520   3.281
 3479SOL    HW211337   0.635   0.637   3.338
 3480SOL     OW11338   6.644   0.425   4.461
 3480SOL    HW111339   6.699   0.509   4.462
 3480SOL    HW211340   6.705   0.346   4.475
 3481SOL     OW11341   4.624   6.848   6.725
 3481SOL    HW111342   4.679   6.844   6.642
 3481SOL    HW211343   4.633   6.939   6.767
 3482SOL     OW11344   5.382   1.096   0.921
 3482SOL    HW111345   5.354   1.013   0.873
 3482SOL    HW211346   5.417   1.072   1.011
 3483SOL     OW11347   3.000   0.842   1.189
 3483SOL    HW111348   2.944   0.768   1.227
 3483SOL    HW211349   3.045   0.810   1.106
 3484SOL     OW11350   2.768   3.338   1.637
 3484SOL    HW111351   2.795   3.348   1.541
 3484SOL    HW211352   2.849   3.324   1.693
 3485SOL     OW11353   1.326   0.824   4.746
 3485SOL    HW111354   1.310   0.805   4.650
 3485SOL    HW211355   1.273   0.905   4.774
 3486SOL     OW11356   3.116   1.939   2.389
 3486SOL    HW111357   3.196   1.950   2.330
 3486SOL    HW211358   3.036   1.979   2.345
 3487SOL     OW11359   5.844   1.698   6.072
 3487SOL    HW111360   5.908   1.628   6.044
 3487SOL    HW211361   5.841   1.771   6.003
 3488SOL     OW11362   5.745   3.375   4.072
 3488SOL    HW111363   5.809   3.422   4.131
 3488SOL    HW211364   5.778   3.282   4.054
 3489SOL     OW11365   2.975   6.948   0.343
 3489SOL    HW111366   3.001   6.958   0.439
 3489SOL    HW211367   2.878   6.927   0.336
 3490SOL     OW11368   4.733   4.436   0.052
 3490SOL    HW111369   4.735   4.518   7.022
 3490SOL    HW211370   4.789   4.450   0.133
 3491SOL     OW11371   6.458   3.107   5.093
 3491SOL    HW111372   6.517   3.136   5.018
 3491SOL    HW211373   6.425   3.188   5.141
 3492SOL     OW11374   0.632   5.563   0.301
 3492SOL    HW111375   0.584   5.650   0.312
 3492SOL    HW211376   0.589   5.509   0.229
 3493SOL     OW11377   6.570   5.187   6.984
 3493SOL    HW111378   6.670   5.188   6.975
 3493SOL    HW211379   6.537   5.093   6.970
 3494SOL     OW11380   3.765   0.420   0.833
 3494SOL    HW111381   3.780   0.333   0.786
 3494SOL    HW211382   3.851   0.453   0.870
 3495SOL     OW11383   4.234   4.931   2.458
 3495SOL    HW111384   4.304   4.865   2.427
 3495SOL    HW211385   4.159   4.932   2.392
 3496SOL     OW11386   0.748   2.757   1.241
 3496SOL    HW111387   0.693   2.677   1.216
 3496SOL    HW211388   0.721   2.789   1.332
 3497SOL     OW11389   3.660   0.299   2.866
 3497SOL    HW111390   3.636   0.393   2.892
 3497SOL    HW211391   3.601   0.269   2.792
 3498SOL     OW11392   2.799   2.552   1.033
 3498SOL    HW111393   2.824   2.475   1.092
 3498SOL    HW211394   2.876   2.616   1.028
 3499SOL     OW11395   5.399   2.881   4.358
 3499SOL    HW111396   5.414   2.957   4.294
 3499SOL    HW211397   5.415   2.913   4.452
 3500SOL     OW11398   0.188   4.244   5.701
 3500SOL    HW111399   0.245   4.306   5.755
 3500SOL    HW211400   0.150   4.173   5.760
 3501SOL     OW11401   0.490   5.314   4.471
 3501SOL    HW111402   0.516   5.410   4.463
 3501SOL    HW211403   0.473   5.276   4.380
 3502SOL     OW11404   6.865   2.122   2.448
 3502SOL    HW111405   6.877   2.186   2.524
 3502SOL    HW211406   6.869   2.172   2.362
 3503SOL     OW11407   5.485   5.425   5.350
 3503SOL    HW111408   5.565   5.485   5.353
 3503SOL    HW211409   5.404   5.476   5.379
 3504SOL     OW11410   2.628   2.861   1.380
 3504SOL    HW111411   2.699   2.846   1.448
 3504SOL    HW211412   2.583   2.949   1.397
 3505SOL     OW11413   6.111   5.148   5.211
 3505SOL    HW111414   6.190   5.089   5.228
 3505SOL    HW211415   6.098   5.208   5.290
 3506SOL     OW11416   3.827   5.944   4.720
 3506SOL    HW111417   3.799   5.849   4.707
 3506SOL    HW211418   3.746   6.002   4.719
 3507SOL     OW11419   1.397   0.931   6.533
 3507SOL    HW111420   1.439   0.846   6.565
 3507SOL    HW211421   1.359   0.917   6.442
 3508SOL     OW11422   4.222   2.481   6.175
 3508SOL    HW111423   4.314   2.512   6.199
 3508SOL    HW211424   4.229   2.395   6.124
 3509SOL     OW11425   5.550   5.527   6.705
 3509SOL    HW111426   5.630   5.584   6.724
 3509SOL    HW211427   5.557   5.442   6.756
 3510SOL     OW11428   1.671   2.782   1.607
 3510SOL    HW111429   1.609   2.816   1.536
 3510SOL    HW211430   1.642   2.819   1.696
 3511SOL     OW11431   1.295   3.728   6.872
 3511SOL    HW111432   1.206   3.711   6.829
 3511SOL    HW211433   1.363   3.749   6.801
 3512SOL     OW11434   0.938   4.626   1.032
 3512SOL    HW111435   1.006   4.683   1.080
 3512SOL    HW211436   0.971   4.531   1.030
 3513SOL     OW11437   5.688   4.218   0.891
 3513SOL    HW111438   5.717   4.231   0.796
 3513SOL    HW211439   5.764   4.240   0.952
 3514SOL     OW11440   0.772   0.872   1.944
 3514SOL    HW111441   0.793   0.964   1.977
 3514SOL    HW211442   0.804   0.862   1.850
 3515SOL     OW11443   3.915   6.158   2.274
 3515SOL    HW111444   3.907   6.166   2.174
 3515SOL    HW211445   3.826   6.177   2.316
 3516SOL     OW11446   4.020   0.926   1.496
 3516SOL    HW111447   3.964   0.934   1.413
 3516SOL    HW211448   4.116   0.916   1.470
 3517SOL     OW11449   0.466   1.660   0.024
 3517SOL    HW111450   0.429   1.736   6.997
 3517SOL    HW211451   0.462   1.683   0.121
 3518SOL     OW11452   5.023   4.325   5.174
 3518SOL    HW111453   5.057   4.321   5.080
 3518SOL    HW211454   5.005   4.232   5.207
 3519SOL     OW11455   1.379   0.509   6.639
 3519SOL    HW111456   1.363   0.418   6.601
 3519SOL    HW211457   1.401   0.500   6.737
 3520SOL     OW11458   3.691   4.297   1.306
 3520SOL    HW111459   3.598   4.268   1.330
 3520SOL    HW211460   3.728   4.235   1.237
 3521SOL     OW11461   5.725   2.903   1.888
 3521SOL    HW111462   5.667   2.926   1.966
 3521SOL    HW211463   5.706   2.809   1.859
 3522SOL     OW11464   3.166   5.530   1.923
 3522SOL    HW111465   3.210   5.577   1.847
 3522SOL    HW211466   3.106   5.459   1.887
 3523SOL     OW11467   3.142   4.859   5.530
 3523SOL    HW111468   3.076   4.820   5.594
 3523SOL    HW211469   3.140   4.959   5.536
 3524SOL     OW11470   2.294   0.271   1.441
 3524SOL    HW111471   2.387   0.236   1.436
 3524SOL    HW211472   2.293   0.368   1.417
 3525SOL     OW11473   1.094   3.668   1.787
 3525SOL    HW111474   1.088   3.611   1.705
 3525SOL    HW211475   1.006   3.668   1.834
 3526SOL     OW11476   1.357   0.758   4.006
 3526SOL    HW111477   1.318   0.667   3.992
 3526SOL    HW211478   1.290   0.817   4.050
 3527SOL     OW11479   5.082   2.815   5.192
 3527SOL    HW111480   5.109   2.721   5.212
 3527SOL    HW211481   5.057   2.861   5.277
 3528SOL     OW11482   0.909   6.317   3.380
 3528SOL    HW111483   0.830   6.316   3.319
 3528SOL    HW211484   0.958   6.404   3.370
 3529SOL     OW11485   3.496   0.056   5.656
 3529SOL    HW111486   3.537   0.114   5.585
 3529SOL    HW211487   3.439   7.013   5.612
 3530SOL     OW11488   1.729   5.134   2.494
 3530SOL    HW111489   1.728   5.205   2.565
 3530SOL    HW211490   1.794   5.062   2.519
 3531SOL     OW11491   5.074   3.915   0.749
 3531SOL    HW111492   5.008   3.885   0.680
 3531SOL    HW211493   5.135   3.983   0.708
 3532SOL     OW11494   3.196   0.765   0.487
 3532SOL    HW111495   3.244   0.681   0.464
 3532SOL    HW211496   3.235   0.841   0.435
 3533SOL     OW11497   1.360   2.138   3.233
 3533SOL    HW111498   1.374   2.090   3.319
 3533SOL    HW211499   1.358   2.237   3.250
 3534SOL     OW11500   5.487   1.425   5.674
 3534SOL    HW111501   5.526   1.397   5.762
 3534SOL    HW211502   5.412   1.489   5.690
 3535SOL     OW11503   0.006   6.247   1.040
 3535SOL    HW111504   0.035   6.320   0.978
 3535SOL    HW211505   0.068   6.242   1.118
 3536SOL     OW11506   2.162   3.395   3.729
 3536SOL    HW111507   2.187   3.369   3.822
 3536SOL    HW211508   2.080   3.452   3.732
 3537SOL     OW11509   2.102   4.291   0.801
 3537SOL    HW111510   2.061   4.324   0.887
 3537SOL    HW211511   2.032   4.246   0.747
 3538SOL     OW11512   3.059   1.121   3.882
 3538SOL    HW111513   3.094   1.113   3.788
 3538SOL    HW211514   2.964   1.151   3.880
 3539SOL     OW11515   5.953   3.391   6.072
 3539SOL    HW111516   6.034   3.344   6.037
 3539SOL    HW211517   5.937   3.474   6.019
 3540SOL     OW11518   2.394   2.193   6.068
 3540SOL    HW111519   2.458   2.176   5.993
 3540SOL    HW211520   2.444   2.199   6.154
 3541SOL     OW11521   2.572   3.046   0.092
 3541SOL    HW111522   2.668   3.062   0.070
 3541SOL    HW211523   2.532   3.130   0.130
 3542SOL     OW11524   5.403   2.167   0.415
 3542SOL    HW111525   5.431   2.161   0.511
 3542SOL    HW211526   5.484   2.184   0.358
 3543SOL     OW11527   1.224   3.592   3.244
 3543SOL    HW111528   1.314   3.612   3.282
 3543SOL    HW211529   1.213   3.638   3.156
 3544SOL     OW11530   2.352   4.548   6.758
 3544SOL    HW111531   2.307   4.458   6.753
 3544SOL    HW211532   2.421   4.546   6.830
 3545SOL     OW11533   3.871   4.573   0.719
 3545SOL    HW111534   3.893   4.521   0.801
 3545SOL    HW211535   3.772   4.583   0.712
 3546SOL     OW11536   6.455   4.653   3.481
 3546SOL    HW111537   6.529   4.719   3.470
 3546SOL    HW211538   6.421   4.626   3.390
 3547SOL     OW11539   6.637   4.031   4.837
 3547SOL    HW111540   6.568   4.103   4.836
 3547SOL    HW211541   6.594   3.945   4.864
 3548SOL     OW11542   5.698   0.669   5.304
 3548SOL    HW111543   5.789   0.706   5.281
 3548SOL    HW211544   5.709   0.580   5.349
 3549SOL     OW11545   1.544   5.001   5.848
 3549SOL    HW111546   1.633   5.014   5.804
 3549SOL    HW211547   1.557   4.979   5.945
 3550SOL     OW11548   5.580   2.613   4.830
 3550SOL    HW111549   5.645   2.579   4.899
 3550SOL    HW211550   5.630   2.664   4.760
 3551SOL     OW11551   3.206   2.033   5.106
 3551SOL    HW111552   3.287   2.024   5.048
 3551SOL    HW211553   3.178   2.129   5.111
 3552SOL     OW11554   5.668   5.175   2.159
 3552SOL    HW111555   5.665   5.199   2.256
 3552SOL    HW211556   5.591   5.219   2.111
 3553SOL     OW11557   3.600   5.379   6.060
 3553SOL    HW111558   3.688   5.420   6.035
 3553SOL    HW211559   3.544   5.368   5.978
 3554SOL     OW11560   4.259   3.417   0.410
 3554SOL    HW111561   4.159   3.412   0.407
 3554SOL    HW211562   4.295   3.413   0.316
 3555SOL     OW11563   1.583   2.320   4.288
 3555SOL    HW111564   1.643   2.393   4.322
 3555SOL    HW211565   1.617   2.288   4.200
 3556SOL     OW11566   3.867   1.280   3.660
 3556SOL    HW111567   3.943   1.336   3.694
 3556SOL    HW211568   3.884   1.255   3.565
 3557SOL     OW11569   1.068   0.619   3.250
 3557SOL    HW111570   1.056   0.521   3.233
 3557SOL    HW211571   0.979   0.663   3.258
 3558SOL     OW11572   2.640   4.854   0.899
 3558SOL    HW111573   2.633   4.925   0.829
 3558SOL    HW211574   2.552   4.846   0.947
 3559SOL     OW11575   1.976   6.448   4.210
 3559SOL    HW111576   2.035   6.479   4.136
 3559SOL    HW211577   2.025   6.457   4.297
 3560SOL     OW11578   2.083   5.145   3.432
 3560SOL    HW111579   2.055   5.052   3.455
 3560SOL    HW211580   2.019   5.184   3.365
 3561SOL     OW11581   5.081   5.140   6.090
 3561SOL    HW111582   4.999   5.117   6.038
 3561SOL    HW211583   5.161   5.099   6.047
 3562SOL     OW11584   3.687   1.999   4.655
 3562SOL    HW111585   3.603   2.052   4.667
 3562SOL    HW211586   3.666   1.902   4.661
 3563SOL     OW11587   6.068   2.095   6.205
 3563SOL    HW111588   5.973   2.074   6.181
 3563SOL    HW211589   6.084   2.193   6.196
 3564SOL     OW11590   0.590   5.080   3.102
 3564SOL    HW111591   0.491   5.080   3.097
 3564SOL    HW211592   0.628   5.115   3.016
 3565SOL     OW11593   3.413   4.883   2.539
 3565SOL    HW111594   3.409   4.787   2.510
 3565SOL    HW211595   3.399   4.889   2.638
 3566SOL     OW11596   6.228   0.891   5.714
 3566SOL    HW111597   6.300   0.959   5.704
 3566SOL    HW211598   6.253   0.825   5.786
 3567SOL     OW11599   0.083   2.544   6.030
 3567SOL    HW111600   0.000   2.488   6.039
 3567SOL    HW211601   0.077   2.597   5.945
 3568SOL     OW11602   6.132   3.777   5.368
 3568SOL    HW111603   6.139   3.769   5.269
 3568SOL    HW211604   6.200   3.842   5.401
 3569SOL     OW11605   3.168   1.782   5.217
 3569SOL    HW111606   3.181   1.717   5.142
 3569SOL    HW211607   3.177   1.875   5.182
 3570SOL     OW11608   4.788   0.534   6.337
 3570SOL    HW111609   4.739   0.475   6.273
 3570SOL    HW211610   4.879   0.554   6.300
 3571SOL     OW11611   0.238   5.314   0.086
 3571SOL    HW111612   0.163   5.353   0.033
 3571SOL    HW211613   0.322   5.367   0.072
 3572SOL     OW11614   5.369   3.960   3.852
 3572SOL    HW111615   5.317   4.034   3.896
 3572SOL    HW211616   5.314   3.921   3.778
 3573SOL     OW11617   0.169   4.613   3.920
 3573SOL    HW111618   0.185   4.552   3.997
 3573SOL    HW211619   0.179   4.708   3.950
 3574SOL     OW11620   0.632   4.594   0.508
 3574SOL    HW111621   0.652   4.542   0.424
 3574SOL    HW211622   0.629   4.691   0.487
 3575SOL     OW11623   5.369   4.699   3.357
 3575SOL    HW111624   5.453   4.754   3.363
 3575SOL    HW211625   5.309   4.721   3.434
 3576SOL     OW11626   2.040   1.704   5.505
 3576SOL    HW111627   1.990   1.623   5.534
 3576SOL    HW211628   2.128   1.708   5.554
 3577SOL     OW11629   0.911   3.469   5.913
 3577SOL    HW111630   0.980   3.538   5.937
 3577SOL    HW211631   0.894   3.409   5.991
 3578SOL     OW11632   4.064   3.023   0.620
 3578SOL    HW111633   4.132   3.077   0.570
 3578SOL    HW211634   3.972   3.057   0.598
 3579SOL     OW11635   0.029   4.182   4.589
 3579SOL    HW111636   0.091   4.259   4.605
 3579SOL    HW211637   7.004   4.162   4.672
 3580SOL     OW11638   6.134   1.357   0.940
 3580SOL    HW111639   6.057   1.412   0.909
 3580SOL    HW211640   6.214   1.416   0.951
 3581SOL     OW11641   6.444   6.916   3.971
 3581SOL    HW111642   6.379   6.928   4.046
 3581SOL    HW211643   6.493   7.002   3.955
 3582SOL     OW11644   0.899   1.745   6.014
 3582SOL    HW111645   0.994   1.721   6.033
 3582SOL    HW211646   0.863   1.684   5.943
 3583SOL     OW11647   0.923   3.464   6.538
 3583SOL    HW111648   0.896   3.505   6.625
 3583SOL    HW211649   1.004   3.407   6.552
 3584SOL     OW11650   6.069   5.555   0.051
 3584SOL    HW111651   6.051   5.651   0.071
 3584SOL    HW211652   6.016   5.497   0.112
 3585SOL     OW11653   3.672   5.534   5.063
 3585SOL    HW111654   3.679   5.614   5.003
 3585SOL    HW211655   3.636   5.457   5.011
 3586SOL     OW11656   6.871   1.951   5.398
 3586SOL    HW111657   6.875   1.897   5.482
 3586SOL    HW211658   6.902   1.896   5.321
 3587SOL     OW11659   2.402   4.846   0.214
 3587SOL    HW111660   2.315   4.884   0.185
 3587SOL    HW211661   2.415   4.756   0.171
 3588SOL     OW11662   0.780   2.675   4.938
 3588SOL    HW111663   0.699   2.715   4.981
 3588SOL    HW211664   0.861   2.701   4.990
 3589SOL     OW11665   3.750   1.928   4.045
 3589SOL    HW111666   3.712   2.006   3.994
 3589SOL    HW211667   3.826   1.959   4.102
 3590SOL     OW11668   0.120   3.981   5.833
 3590SOL    HW111669   0.182   3.911   5.799
 3590SOL    HW211670   0.030   3.940   5.852
 3591SOL     OW11671   4.787   3.716   6.293
 3591SOL    HW111672   4.880   3.700   6.261
 3591SOL    HW211673   4.733   3.632   6.280
 3592SOL     OW11674   6.126   4.273   3.071
 3592SOL    HW111675   6.054   4.251   3.137
 3592SOL    HW211676   6.185   4.192   3.058
 3593SOL     OW11677   2.415   5.842   4.498
 3593SOL    HW111678   2.484   5.775   4.471
 3593SOL    HW211679   2.331   5.795   4.524
 3594SOL     OW11680   3.673   0.580   2.476
 3594SOL    HW111681   3.731   0.622   2.406
 3594SOL    HW211682   3.591   0.636   2.489
 3595SOL     OW11683   2.420   5.386   6.118
 3595SOL    HW111684   2.512   5.408   6.084
 3595SOL    HW211685   2.428   5.336   6.205
 3596SOL     OW11686   6.217   2.421   2.866
 3596SOL    HW111687   6.265   2.444   2.781
 3596SOL    HW211688   6.285   2.402   2.938
 3597SOL     OW11689   2.456   6.740   4.997
 3597SOL    HW111690   2.552   6.767   5.003
 3597SOL    HW211691   2.400   6.818   4.968
 3598SOL     OW11692   1.347   6.522   5.997
 3598SOL    HW111693   1.348   6.534   5.898
 3598SOL    HW211694   1.264   6.563   6.035
 3599SOL     OW11695   0.495   2.167   5.414
 3599SOL    HW111696   0.457   2.229   5.345
 3599SOL    HW211697   0.439   2.171   5.497
 3600SOL     OW11698   0.941   3.205   0.237
 3600SOL    HW111699   1.013   3.240   0.178
 3600SOL    HW211700   0.854   3.251   0.215
 3601SOL     OW11701   6.513   4.303   0.552
 3601SOL    HW111702   6.605   4.343   0.550
 3601SOL    HW211703   6.504   4.236   0.479
 3602SOL     OW11704   1.536   1.607   0.827
 3602SOL    HW111705   1.460   1.632   0.766
 3602SOL    HW211706   1.586   1.689   0.854
 3603SOL     OW11707   3.386   6.414   3.768
 3603SOL    HW111708   3.470   6.416   3.821
 3603SOL    HW211709   3.327   6.341   3.801
 3604SOL     OW11710   6.677   4.767   4.126
 3604SOL    HW111711   6.617   4.838   4.089
 3604SOL    HW211712   6.741   4.738   4.056
 3605SOL     OW11713   5.304   4.472   5.509
 3605SOL    HW111714   5.230   4.444   5.570
 3605SOL    HW211715   5.286   4.437   5.417
 3606SOL     OW11716   6.970   5.378   5.200
 3606SOL    HW111717   0.030   5.418   5.171
 3606SOL    HW211718   6.964   5.284   5.166
 3607SOL     OW11719   5.247   6.531   1.066
 3607SOL    HW111720   5.270   6.534   0.969
 3607SOL    HW211721   5.253   6.437   1.099
 3608SOL     OW11722   6.593   1.885   2.280
 3608SOL    HW111723   6.667   1.838   2.232
 3608SOL    HW211724   6.586   1.852   2.374
 3609SOL     OW11725   0.670   0.237   3.914
 3609SOL    HW111726   0.655   0.138   3.922
 3609SOL    HW211727   0.584   0.285   3.932
 3610SOL     OW11728   1.081   0.690   5.542
 3610SOL    HW111729   1.180   0.685   5.556
 3610SOL    HW211730   1.061   0.733   5.454
 3611SOL     OW11731   3.714   5.905   5.678
 3611SOL    HW111732   3.683   5.820   5.636
 3611SOL    HW211733   3.652   5.929   5.753
 3612SOL     OW11734   6.303   0.129   5.643
 3612SOL    HW111735   6.387   0.125   5.698
 3612SOL    HW211736   6.226   0.150   5.703
 3613SOL     OW11737   4.789   5.196   1.528
 3613SOL    HW111738   4.716   5.171   1.465
 3613SOL    HW211739   4.877   5.162   1.494
 3614SOL     OW11740   3.785   3.280   2.590
 3614SOL    HW111741   3.718   3.229   2.644
 3614SOL    HW211742   3.745   3.366   2.558
 3615SOL     OW11743   5.094   6.190   0.155
 3615SOL    HW111744   5.045   6.114   0.112
 3615SOL    HW211745   5.063   6.200   0.249
 3616SOL     OW11746   6.814   2.230   6.213
 3616SOL    HW111747   6.911   2.249   6.231
 3616SOL    HW211748   6.777   2.175   6.287
 3617SOL     OW11749   5.027   0.800   6.685
 3617SOL    HW111750   4.953   0.738   6.710
 3617SOL    HW211751   5.042   0.796   6.586
 3618SOL     OW11752   2.113   1.573   4.983
 3618SOL    HW111753   2.021   1.613   4.982
 3618SOL    HW211754   2.168   1.616   4.912
 3619SOL     OW11755   6.420   3.193   3.866
 3619SOL    HW111756   6.421   3.226   3.960
 3619SOL    HW211757   6.508   3.152   3.843
 3620SOL     OW11758   6.186   5.959   6.120
 3620SOL    HW111759   6.231   6.040   6.083
 3620SOL    HW211760   6.116   5.987   6.186
 3621SOL     OW11761   2.887   2.539   5.944
 3621SOL    HW111762   2.883   2.440   5.926
 3621SOL    HW211763   2.939   2.584   5.871
 3622SOL     OW11764   2.020   2.543   3.615
 3622SOL    HW111765   1.963   2.462   3.626
 3622SOL    HW211766   1.967   2.625   3.638
 3623SOL     OW11767   6.079   6.157   3.809
 3623SOL    HW111768   6.069   6.084   3.876
 3623SOL    HW211769   5.991   6.174   3.765
 3624SOL     OW11770   1.166   6.926   2.387
 3624SOL    HW111771   1.219   6.876   2.318
 3624SOL    HW211772   1.119   7.002   2.344
 3625SOL     OW11773   5.535   3.559   6.744
 3625SOL    HW111774   5.492   3.538   6.656
 3625SOL    HW211775   5.627   3.520   6.746
 3626SOL     OW11776   1.405   3.799   5.432
 3626SOL    HW111777   1.469   3.789   5.508
 3626SOL    HW211778   1.346   3.718   5.426
 3627SOL     OW11779   3.637   3.016   3.203
 3627SOL    HW111780   3.727   2.992   3.167
 3627SOL    HW211781   3.648   3.053   3.296
 3628SOL     OW11782   1.513   7.017   1.543
 3628SOL    HW111783   1.499   6.922   1.572
 3628SOL    HW211784   1.545   7.018   1.448
 3629SOL     OW11785   6.023   1.969   4.599
 3629SOL    HW111786   6.087   1.969   4.676
 3629SOL    HW211787   6.003   1.874   4.573
 3630SOL     OW11788   5.012   2.697   3.330
 3630SOL    HW111789   5.042   2.759   3.402
 3630SOL    HW211790   5.087   2.681   3.266
 3631SOL     OW11791   2.183   0.199   3.689
 3631SOL    HW111792   2.201   0.195   3.787
 3631SOL    HW211793   2.244   0.266   3.646
 3632SOL     OW11794   4.689   6.930   0.669
 3632SOL    HW111795   4.598   6.893   0.689
 3632SOL    HW211796   4.757   6.858   0.679
 3633SOL     OW11797   2.978   1.795   5.762
 3633SOL    HW111798   2.969   1.762   5.668
 3633SOL    HW211799   3.059   1.853   5.769
 3634SOL     OW11800   0.870   5.461   4.466
 3634SOL    HW111801   0.907   5.369   4.483
 3634SOL    HW211802   0.830   5.497   4.551
 3635SOL     OW11803   2.669   6.677   6.458
 3635SOL    HW111804   2.703   6.589   6.426
 3635SOL    HW211805   2.724   6.750   6.418
 3636SOL     OW11806   0.576   5.612   6.511
 3636SOL    HW111807   0.666   5.585   6.475
 3636SOL    HW211808   0.525   5.659   6.439
 3637SOL     OW11809   5.616   2.082   1.546
 3637SOL    HW111810   5.697   2.111   1.496
 3637SOL    HW211811   5.602   2.143   1.624
 3638SOL     OW11812   0.243   4.790   4.776
 3638SOL    HW111813   0.231   4.802   4.677
 3638SOL    HW211814   0.334   4.822   4.802
 3639SOL     OW11815   3.358   4.655   1.415
 3639SOL    HW111816   3.455   4.673   1.395
 3639SOL    HW211817   3.345   4.558   1.431
 3640SOL     OW11818   3.415   0.725   6.975
 3640SOL    HW111819   3.507   0.698   6.949
 3640SOL    HW211820   3.352   0.649   6.962
 3641SOL     OW11821   4.897   3.163   4.128
 3641SOL    HW111822   4.945   3.245   4.159
 3641SOL    HW211823   4.902   3.156   4.029
 3642SOL     OW11824   4.643   0.875   0.321
 3642SOL    HW111825   4.556   0.828   0.304
 3642SOL    HW211826   4.626   0.960   0.370
 3643SOL     OW11827   3.295   5.636   4.670
 3643SOL    HW111828   3.288   5.655   4.572
 3643SOL    HW211829   3.248   5.550   4.691
 3644SOL     OW11830   6.208   1.499   1.640
 3644SOL    HW111831   6.126   1.556   1.652
 3644SOL    HW211832   6.289   1.550   1.668
 3645SOL     OW11833   0.022   2.470   3.921
 3645SOL    HW111834   0.003   2.503   4.013
 3645SOL    HW211835   6.971   2.491   3.861
 3646SOL     OW11836   6.508   4.059   7.002
 3646SOL    HW111837   6.551   4.057   0.066
 3646SOL    HW211838   6.571   4.102   6.937
 3647SOL     OW11839   1.959   3.376   6.982
 3647SOL    HW111840   2.026   3.394   6.911
 3647SOL    HW211841   1.880   3.329   6.941
 3648SOL     OW11842   3.348   4.892   3.059
 3648SOL    HW111843   3.258   4.849   3.057
 3648SOL    HW211844   3.345   4.972   3.118
 3649SOL     OW11845   5.190   3.199   2.181
 3649SOL    HW111846   5.257   3.169   2.114
 3649SOL    HW211847   5.100   3.164   2.156
 3650SOL     OW11848   0.663   4.305   0.691
 3650SOL    HW111849   0.577   4.268   0.727
 3650SOL    HW211850   0.647   4.397   0.655
 3651SOL     OW11851   0.693   6.965   3.952
 3651SOL    HW111852   0.775   6.921   3.914
 3651SOL    HW211853   0.685   6.942   4.049
 3652SOL     OW11854   6.150   6.196   2.986
 3652SOL    HW111855   6.055   6.226   2.979
 3652SOL    HW211856   6.163   6.114   2.932
 3653SOL     OW11857   0.783   1.673   4.615
 3653SOL    HW111858   0.791   1.769   4.589
 3653SOL    HW211859   0.794   1.664   4.714
 3654SOL     OW11860   2.769   5.688   0.342
 3654SOL    HW111861   2.806   5.718   0.254
 3654SOL    HW211862   2.734   5.595   0.334
 3655SOL     OW11863   2.566   6.901   3.562
 3655SOL    HW111864   2.520   6.968   3.620
 3655SOL    HW211865   2.501   6.830   3.536
 3656SOL     OW11866   0.878   3.909   1.929
 3656SOL    HW111867   0.902   3.834   1.992
 3656SOL    HW211868   0.782   3.931   1.939
 3657SOL     OW11869   5.043   5.206   6.624
 3657SOL    HW111870   5.078   5.114   6.604
 3657SOL    HW211871   5.088   5.273   6.565
 3658SOL     OW11872   1.752   6.326   4.305
 3658SOL    HW111873   1.833   6.377   4.275
 3658SOL    HW211874   1.762   6.229   4.280
 3659SOL     OW11875   2.341   3.209   5.574
 3659SOL    HW111876   2.397   3.164   5.504
 3659SOL    HW211877   2.268   3.146   5.603
 3660SOL     OW11878   4.446   0.560   2.753
 3660SOL    HW111879   4.368   0.506   2.785
 3660SOL    HW211880   4.416   0.654   2.734
 3661SOL     OW11881   4.813   1.526   6.344
 3661SOL    HW111882   4.816   1.426   6.341
 3661SOL    HW211883   4.799   1.556   6.438
 3662SOL     OW11884   3.963   0.827   3.767
 3662SOL    HW111885   3.903   0.747   3.770
 3662SOL    HW211886   4.053   0.799   3.734
 3663SOL     OW11887   1.337   2.069   0.527
 3663SOL    HW111888   1.351   2.143   0.461
 3663SOL    HW211889   1.425   2.025   0.545
 3664SOL     OW11890   4.902   1.677   1.988
 3664SOL    HW111891   4.844   1.687   2.069
 3664SOL    HW211892   4.866   1.604   1.930
 3665SOL     OW11893   1.955   6.324   5.339
 3665SOL    HW111894   1.995   6.334   5.247
 3665SOL    HW211895   1.857   6.310   5.331
 3666SOL     OW11896   1.726   3.877   3.194
 3666SOL    HW111897   1.750   3.788   3.157
 3666SOL    HW211898   1.765   3.949   3.136
 3667SOL     OW11899   0.123   0.825   1.202
 3667SOL    HW111900   0.033   0.836   1.161
 3667SOL    HW211901   0.118   0.847   1.300
 3668SOL     OW11902   1.313   1.082   2.336
 3668SOL    HW111903   1.364   1.153   2.384
 3668SOL    HW211904   1.375   1.031   2.275
 3669SOL     OW11905   5.464   1.427   3.687
 3669SOL    HW111906   5.392   1.404   3.753
 3669SOL    HW211907   5.438   1.393   3.596
 3670SOL     OW11908   2.000   4.374   0.289
 3670SOL    HW111909   2.090   4.414   0.269
 3670SOL    HW211910   1.931   4.416   0.231
 3671SOL     OW11911   5.986   0.414   4.125
 3671SOL    HW111912   6.000   0.317   4.103
 3671SOL    HW211913   5.949   0.422   4.218
 3672SOL     OW11914   5.647   2.274   1.738
 3672SOL    HW111915   5.625   2.231   1.826
 3672SOL    HW211916   5.735   2.320   1.744
 3673SOL     OW11917   4.504   0.156   6.564
 3673SOL    HW111918   4.531   0.246   6.599
 3673SOL    HW211919   4.422   0.125   6.613
 3674SOL     OW11920   0.341   6.944   4.887
 3674SOL    HW111921   0.367   7.017   4.823
 3674SOL    HW211922   0.296   6.983   4.967
 3675SOL     OW11923   1.398   3.157   5.075
 3675SOL    HW111924   1.352   3.131   4.990
 3675SOL    HW211925   1.495   3.172   5.057
 3676SOL     OW11926   5.141   4.343   4.929
 3676SOL    HW111927   5.097   4.305   4.848
 3676SOL    HW211928   5.211   4.409   4.902
 3677SOL     OW11929   2.220   6.309   2.891
 3677SOL    HW111930   2.170   6.222   2.895
 3677SOL    HW211931   2.303   6.297   2.837
 3678SOL     OW11932   0.251   2.984   4.523
 3678SOL    HW111933   0.263   3.081   4.544
 3678SOL    HW211934   0.222   2.973   4.429
 3679SOL     OW11935   1.626   0.557   2.946
 3679SOL    HW111936   1.596   0.651   2.964
 3679SOL    HW211937   1.561   0.493   2.987
 3680SOL     OW11938   5.653   1.916   3.373
 3680SOL    HW111939   5.721   1.985   3.395
 3680SOL    HW211940   5.572   1.928   3.431
 3681SOL     OW11941   0.613   0.441   5.123
 3681SOL    HW111942   0.607   0.469   5.219
 3681SOL    HW211943   0.576   0.349   5.113
 3682SOL     OW11944   5.272   2.499   6.651
 3682SOL    HW111945   5.213   2.579   6.664
 3682SOL    HW211946   5.288   2.455   6.739
 3683SOL     OW11947   6.937   0.026   3.295
 3683SOL    HW111948   6.925   0.016   3.394
 3683SOL    HW211949   6.872   0.092   3.259
 3684SOL     OW11950   1.592   4.953   6.645
 3684SOL    HW111951   1.645   4.872   6.670
 3684SOL    HW211952   1.512   4.924   6.592
 3685SOL     OW11953   6.675   6.009   5.906
 3685SOL    HW111954   6.693   6.016   6.004
 3685SOL    HW211955   6.741   6.065   5.856
 3686SOL     OW11956   5.873   6.303   2.976
 3686SOL    HW111957   5.882   6.325   3.074
 3686SOL    HW211958   5.795   6.242   2.963
 3687SOL     OW11959   4.033   6.341   5.757
 3687SOL    HW111960   4.007   6.253   5.717
 3687SOL    HW211961   4.133   6.346   5.766
 3688SOL     OW11962   6.521   3.553   6.608
 3688SOL    HW111963   6.516   3.502   6.694
 3688SOL    HW211964   6.481   3.497   6.534
 3689SOL     OW11965   1.954   0.886   6.763
 3689SOL    HW111966   1.856   0.870   6.777
 3689SOL    HW211967   1.985   0.836   6.683
 3690SOL     OW11968   4.687   6.706   0.372
 3690SOL    HW111969   4.591   6.676   0.380
 3690SOL    HW211970   4.733   6.692   0.459
 3691SOL     OW11971   3.041   2.611   0.279
 3691SOL    HW111972   2.991   2.638   0.361
 3691SOL    HW211973   2.998   2.652   0.198
 3692SOL     OW11974   0.620   5.736   4.996
 3692SOL    HW111975   0.522   5.726   5.010
 3692SOL    HW211976   0.648   5.830   5.016
 3693SOL     OW11977   2.026   2.849   3.056
 3693SOL    HW111978   1.970   2.902   3.119
 3693SOL    HW211979   2.005   2.875   2.962
 3694SOL     OW11980   1.567   5.278   3.230
 3694SOL    HW111981   1.580   5.180   3.212
 3694SOL    HW211982   1.518   5.290   3.316
 3695SOL     OW11983   0.031   2.728   2.337
 3695SOL    HW111984   7.009   2.723   2.250
 3695SOL    HW211985   0.100   2.656   2.341
 3696SOL     OW11986   3.233   5.585   5.046
 3696SOL    HW111987   3.219   5.530   4.964
 3696SOL    HW211988   3.331   5.600   5.059
 3697SOL     OW11989   0.042   6.525   3.335
 3697SOL    HW111990   6.989   6.568   3.378
 3697SOL    HW211991   0.058   6.567   3.246
 3698SOL     OW11992   2.088   0.462   4.537
 3698SOL    HW111993   2.130   0.384   4.491
 3698SOL    HW211994   2.147   0.494   4.611
 3699SOL     OW11995   0.620   3.257   3.400
 3699SOL    HW111996   0.560   3.187   3.361
 3699SOL    HW211997   0.602   3.345   3.356
 3700SOL     OW11998   0.254   0.020   5.143
 3700SOL    HW111999   0.256   0.060   5.235
 3700SOL    HW212000   0.159   0.014   5.112
 3701SOL     OW12001   1.476   0.334   3.816
 3701SOL    HW112002   1.524   0.307   3.899
 3701SOL    HW212003   1.478   0.434   3.807
 3702SOL     OW12004   5.794   6.510   2.804
 3702SOL    HW112005   5.700   6.515   2.770
 3702SOL    HW212006   5.805   6.428   2.860
 3703SOL     OW12007   4.537   1.730   6.492
 3703SOL    HW112008   4.586   1.815   6.509
 3703SOL    HW212009   4.463   1.719   6.559
 3704SOL     OW12010   3.834   1.502   1.481
 3704SOL    HW112011   3.769   1.560   1.431
 3704SOL    HW212012   3.855   1.544   1.569
 3705SOL     OW12013   4.750   5.928   3.719
 3705SOL    HW112014   4.685   5.857   3.691
 3705SOL    HW212015   4.815   5.889   3.785
 3706SOL     OW12016   1.625   4.138   5.561
 3706SOL    HW112017   1.576   4.088   5.632
 3706SOL    HW212018   1.670   4.073   5.499
 3707SOL     OW12019   5.410   4.105   5.572
 3707SOL    HW112020   5.475   4.131   5.501
 3707SOL    HW212021   5.318   4.103   5.532
 3708SOL     OW12022   6.733   0.937   6.086
 3708SOL    HW112023   6.795   0.867   6.121
 3708SOL    HW212024   6.690   0.906   6.002
 3709SOL     OW12025   3.432   1.057   0.814
 3709SOL    HW112026   3.467   1.068   0.721
 3709SOL    HW212027   3.334   1.077   0.816
 3710SOL     OW12028   6.876   5.862   6.914
 3710SOL    HW112029   6.937   5.915   6.855
 3710SOL    HW212030   6.930   5.809   6.979
 3711SOL     OW12031   0.825   0.075   3.340
 3711SOL    HW112032   0.898   0.009   3.326
 3711SOL    HW212033   0.741   0.028   3.366
 3712SOL     OW12034   0.154   6.192   0.042
 3712SOL    HW112035   0.107   6.278   0.023
 3712SOL    HW212036   0.251   6.210   0.060
 3713SOL     OW12037   1.671   6.250   4.961
 3713SOL    HW112038   1.577   6.217   4.958
 3713SOL    HW212039   1.679   6.335   4.909
 3714SOL     OW12040   4.574   5.887   5.276
 3714SOL    HW112041   4.573   5.942   5.360
 3714SOL    HW212042   4.559   5.791   5.299
 3715SOL     OW12043   5.559   3.829   2.678
 3715SOL    HW112044   5.526   3.867   2.591
 3715SOL    HW212045   5.656   3.805   2.668
 3716SOL     OW12046   5.997   6.461   5.357
 3716SOL    HW112047   6.076   6.513   5.388
 3716SOL    HW212048   6.000   6.369   5.395
 3717SOL     OW12049   5.460   5.922   6.478
 3717SOL    HW112050   5.467   6.019   6.456
 3717SOL    HW212051   5.541   5.893   6.528
 3718SOL     OW12052   1.587   0.609   7.019
 3718SOL    HW112053   1.642   0.681   6.977
 3718SOL    HW212054   1.492   0.616   6.988
 3719SOL     OW12055   5.429   4.535   0.941
 3719SOL    HW112056   5.345   4.482   0.930
 3719SOL    HW212057   5.469   4.553   0.852
 3720SOL     OW12058   6.413   2.330   6.308
 3720SOL    HW112059   6.366   2.307   6.393
 3720SOL    HW212060   6.345   2.349   6.237
 3721SOL     OW12061   5.002   4.375   1.871
 3721SOL    HW112062   5.011   4.296   1.811
 3721SOL    HW212063   4.907   4.405   1.873
 3722SOL     OW12064   6.392   6.144   1.261
 3722SOL    HW112065   6.318   6.208   1.239
 3722SOL    HW212066   6.433   6.169   1.349
 3723SOL     OW12067   6.534   6.496   2.060
 3723SOL    HW112068   6.545   6.427   1.989
 3723SOL    HW212069   6.558   6.457   2.149
 3724SOL     OW12070   1.923   4.418   5.865
 3724SOL    HW112071   1.870   4.334   5.867
 3724SOL    HW212072   1.891   4.480   5.937
 3725SOL     OW12073   6.049   5.265   0.843
 3725SOL    HW112074   5.968   5.314   0.876
 3725SOL    HW212075   6.083   5.204   0.914
 3726SOL     OW12076   6.367   4.693   0.601
 3726SOL    HW112077   6.332   4.619   0.659
 3726SOL    HW212078   6.417   4.759   0.658
 3727SOL     OW12079   6.922   1.819   5.658
 3727SOL    HW112080   6.883   1.882   5.724
 3727SOL    HW212081   7.022   1.821   5.664
 3728SOL     OW12082   0.842   4.402   6.869
 3728SOL    HW112083   0.938   4.377   6.854
 3728SOL    HW212084   0.805   4.443   6.786
 3729SOL     OW12085   0.875   2.098   3.273
 3729SOL    HW112086   0.934   2.162   3.322
 3729SOL    HW212087   0.786   2.093   3.318
 3730SOL     OW12088   2.639   5.319   6.534
 3730SOL    HW112089   2.654   5.339   6.631
 3730SOL    HW212090   2.682   5.231   6.511
 3731SOL     OW12091   5.425   0.368   0.931
 3731SOL    HW112092   5.451   0.275   0.958
 3731SOL    HW212093   5.391   0.366   0.837
 3732SOL     OW12094   2.477   1.961   5.881
 3732SOL    HW112095   2.539   1.973   5.803
 3732SOL    HW212096   2.383   1.971   5.850
 3733SOL     OW12097   1.215   3.244   2.010
 3733SOL    HW112098   1.248   3.273   1.920
 3733SOL    HW212099   1.291   3.206   2.063
 3734SOL     OW12100   4.833   1.196   2.168
 3734SOL    HW112101   4.928   1.213   2.143
 3734SOL    HW212102   4.802   1.266   2.233
 3735SOL     OW12103   2.780   0.992   3.623
 3735SOL    HW112104   2.726   0.994   3.540
 3735SOL    HW212105   2.856   0.927   3.613
 3736SOL     OW12106   6.639   2.279   0.339
 3736SOL    HW112107   6.677   2.205   0.394
 3736SOL    HW212108   6.552   2.249   0.298
 3737SOL     OW12109   4.578   6.997   3.328
 3737SOL    HW112110   4.620   6.907   3.345
 3737SOL    HW212111   4.624   0.039   3.385
 3738SOL     OW12112   0.159   5.987   2.080
 3738SOL    HW112113   0.180   5.959   1.987
 3738SOL    HW212114   0.245   6.004   2.130
 3739SOL     OW12115   2.405   4.780   1.765
 3739SOL    HW112116   2.460   4.707   1.806
 3739SOL    HW212117   2.321   4.741   1.729
 3740SOL     OW12118   5.684   0.440   0.396
 3740SOL    HW112119   5.708   0.352   0.357
 3740SOL    HW212120   5.646   0.427   0.488
 3741SOL     OW12121   5.367   3.036   1.409
 3741SOL    HW112122   5.452   3.083   1.385
 3741SOL    HW212123   5.298   3.056   1.339
 3742SOL     OW12124   2.431   2.255   6.738
 3742SOL    HW112125   2.520   2.225   6.703
 3742SOL    HW212126   2.382   2.176   6.776
 3743SOL     OW12127   5.056   2.872   0.959
 3743SOL    HW112128   4.968   2.825   0.954
 3743SOL    HW212129   5.079   2.910   0.870
 3744SOL     OW12130   0.470   6.059   2.796
 3744SOL    HW112131   0.527   6.044   2.877
 3744SOL    HW212132   0.494   5.993   2.725
 3745SOL     OW12133   3.837   5.087   1.833
 3745SOL    HW112134   3.771   5.022   1.794
 3745SOL    HW212135   3.792   5.176   1.845
 3746SOL     OW12136   5.661   1.182   2.998
 3746SOL    HW112137   5.567   1.215   2.987
 3746SOL    HW212138   5.682   1.117   2.925
 3747SOL     OW12139   2.715   0.048   5.501
 3747SOL    HW112140   2.770   0.128   5.523
 3747SOL    HW212141   2.629   0.050   5.553
 3748SOL     OW12142   5.720   0.188   1.709
 3748SOL    HW112143   5.759   0.235   1.789
 3748SOL    HW212144   5.789   0.127   1.670
 3749SOL     OW12145   1.778   6.225   3.772
 3749SOL    HW112146   1.793   6.169   3.854
 3749SOL    HW212147   1.767   6.320   3.799
 3750SOL     OW12148   1.328   4.010   0.617
 3750SOL    HW112149   1.405   3.965   0.572
 3750SOL    HW212150   1.267   3.941   0.656
 3751SOL     OW12151   6.755   3.518   2.035
 3751SOL    HW112152   6.814   3.450   1.991
 3751SOL    HW212153   6.811   3.594   2.068
 3752SOL     OW12154   5.423   0.731   6.472
 3752SOL    HW112155   5.416   0.816   6.525
 3752SOL    HW212156   5.428   0.653   6.534
 3753SOL     OW12157   6.652   0.652   5.573
 3753SOL    HW112158   6.708   0.573   5.596
 3753SOL    HW212159   6.598   0.632   5.491
 3754SOL     OW12160   1.753   0.328   1.332
 3754SOL    HW112161   1.740   0.275   1.248
 3754SOL    HW212162   1.799   0.271   1.400
 3755SOL     OW12163   4.939   5.642   5.235
 3755SOL    HW112164   4.995   5.716   5.198
 3755SOL    HW212165   4.984   5.602   5.315
 3756SOL     OW12166   2.997   5.244   6.293
 3756SOL    HW112167   2.925   5.210   6.354
 3756SOL    HW212168   2.959   5.314   6.232
 3757SOL     OW12169   6.239   5.158   2.014
 3757SOL    HW112170   6.207   5.088   1.950
 3757SOL    HW212171   6.286   5.231   1.964
 3758SOL     OW12172   2.307   1.693   4.587
 3758SOL    HW112173   2.218   1.696   4.632
 3758SOL    HW212174   2.320   1.603   4.544
 3759SOL     OW12175   4.086   0.120   5.938
 3759SOL    HW112176   4.145   0.041   5.926
 3759SOL    HW212177   4.117   0.174   6.016
 3760SOL     OW12178   0.792   1.730   4.228
 3760SOL    HW112179   0.868   1.785   4.194
 3760SOL    HW212180   0.775   1.654   4.165
 3761SOL     OW12181   6.638   1.261   5.574
 3761SOL    HW112182   6.711   1.246   5.641
 3761SOL    HW212183   6.554   1.216   5.604
 3762SOL     OW12184   1.434   4.396   1.582
 3762SOL    HW112185   1.468   4.346   1.503
 3762SOL    HW212186   1.473   4.488   1.583
 3763SOL     OW12187   0.509   3.574   6.971
 3763SOL    HW112188   0.549   3.630   0.017
 3763SOL    HW212189   0.440   3.514   7.009
 3764SOL     OW12190   1.238   6.823   2.147
 3764SOL    HW112191   1.222   6.736   2.100
 3764SOL    HW212192   1.205   6.898   2.091
 3765SOL     OW12193   5.758   1.142   0.990
 3765SOL    HW112194   5.841   1.136   1.045
 3765SOL    HW212195   5.711   1.229   1.008
 3766SOL     OW12196   1.855   2.456   4.171
 3766SOL    HW112197   1.920   2.396   4.217
 3766SOL    HW212198   1.798   2.502   4.238
 3767SOL     OW12199   3.295   4.561   0.136
 3767SOL    HW112200   3.314   4.602   0.225
 3767SOL    HW212201   3.215   4.501   0.144
 3768SOL     OW12202   0.854   6.805   4.575
 3768SOL    HW112203   0.870   6.707   4.567
 3768SOL    HW212204   0.861   6.833   4.671
 3769SOL     OW12205   5.892   5.358   5.134
 3769SOL    HW112206   5.876   5.454   5.111
 3769SOL    HW212207   5.951   5.352   5.215
 3770SOL     OW12208   0.826   0.644   6.898
 3770SOL    HW112209   0.874   0.596   6.971
 3770SOL    HW212210   0.735   0.671   6.930
 3771SOL     OW12211   5.270   4.145   0.324
 3771SOL    HW112212   5.194   4.201   0.355
 3771SOL    HW212213   5.355   4.179   0.364
 3772SOL     OW12214   0.476   0.353   0.400
 3772SOL    HW112215   0.417   0.274   0.388
 3772SOL    HW212216   0.422   0.431   0.433
 3773SOL     OW12217   6.064   3.346   5.659
 3773SOL    HW112218   6.098   3.283   5.730
 3773SOL    HW212219   6.142   3.394   5.619
 3774SOL     OW12220   5.612   5.608   1.736
 3774SOL    HW112221   5.614   5.684   1.801
 3774SOL    HW212222   5.521   5.603   1.695
 3775SOL     OW12223   5.071   5.332   2.859
 3775SOL    HW112224   5.116   5.386   2.787
 3775SOL    HW212225   5.081   5.235   2.839
 3776SOL     OW12226   3.600   2.618   6.956
 3776SOL    HW112227   3.682   2.657   6.997
 3776SOL    HW212228   3.525   2.684   6.963
 3777SOL     OW12229   2.921   4.761   3.306
 3777SOL    HW112230   2.924   4.758   3.406
 3777SOL    HW212231   2.975   4.839   3.274
 3778SOL     OW12232   2.630   5.413   3.134
 3778SOL    HW112233   2.676   5.346   3.192
 3778SOL    HW212234   2.565   5.366   3.074
 3779SOL     OW12235   0.797   4.618   1.298
 3779SOL    HW112236   0.883   4.637   1.250
 3779SOL    HW212237   0.732   4.577   1.234
 3780SOL     OW12238   6.457   4.253   4.852
 3780SOL    HW112239   6.474   4.350   4.836
 3780SOL    HW212240   6.390   4.220   4.785
 3781SOL     OW12241   0.649   7.009   3.674
 3781SOL    HW112242   0.648   0.018   3.767
 3781SOL    HW212243   0.706   0.042   3.616
 3782SOL     OW12244   2.832   0.312   2.772
 3782SOL    HW112245   2.877   0.227   2.747
 3782SOL    HW212246   2.743   0.317   2.727
 3783SOL     OW12247   5.945   5.578   4.224
 3783SOL    HW112248   5.939   5.553   4.128
 3783SOL    HW212249   6.011   5.651   4.236
 3784SOL     OW12250   5.193   3.116   3.074
 3784SOL    HW112251   5.251   3.113   2.993
 3784SOL    HW212252   5.097   3.113   3.046
 3785SOL     OW12253   1.504   3.150   5.470
 3785SOL    HW112254   1.533   3.062   5.509
 3785SOL    HW212255   1.540   3.225   5.525
 3786SOL     OW12256   2.129   3.917   3.014
 3786SOL    HW112257   2.117   3.833   3.067
 3786SOL    HW212258   2.128   3.895   2.917
 3787SOL     OW12259   5.855   0.921   1.961
 3787SOL    HW112260   5.832   0.896   2.056
 3787SOL    HW212261   5.771   0.920   1.906
 3788SOL     OW12262   0.029   4.640   4.889
 3788SOL    HW112263   0.041   4.618   4.986
 3788SOL    HW212264   0.109   4.689   4.856
 3789SOL     OW12265   0.044   3.617   3.959
 3789SOL    HW112266   0.075   3.575   3.873
 3789SOL    HW212267   7.025   3.703   3.940
 3790SOL     OW12268   1.065   5.221   6.016
 3790SOL    HW112269   1.130   5.167   6.069
 3790SOL    HW212270   0.976   5.176   6.016
 3791SOL     OW12271   4.618   1.977   6.586
 3791SOL    HW112272   4.711   1.995   6.617
 3791SOL    HW212273   4.557   1.972   6.664
 3792SOL     OW12274   1.382   1.907   3.444
 3792SOL    HW112275   1.292   1.877   3.413
 3792SOL    HW212276   1.452   1.846   3.405
 3793SOL     OW12277   4.249   6.640   1.721
 3793SOL    HW112278   4.207   6.664   1.633
 3793SOL    HW212279   4.348   6.635   1.710
 3794SOL     OW12280   2.656   2.859   1.747
 3794SOL    HW112281   2.577   2.919   1.759
 3794SOL    HW212282   2.624   2.764   1.741
 3795SOL     OW12283   4.824   5.831   1.080
 3795SOL    HW112284   4.861   5.813   1.171
 3795SOL    HW212285   4.771   5.752   1.049
 3796SOL     OW12286   4.586   1.974   2.372
 3796SOL    HW112287   4.616   1.896   2.427
 3796SOL    HW212288   4.498   1.953   2.328
 3797SOL     OW12289   0.570   3.503   2.927
 3797SOL    HW112290   0.537   3.577   2.986
 3797SOL    HW212291   0.662   3.476   2.955
 3798SOL     OW12292   2.313   6.236   2.412
 3798SOL    HW112293   2.377   6.311   2.399
 3798SOL    HW212294   2.235   6.247   2.351
 3799SOL     OW12295   6.644   2.995   3.675
 3799SOL    HW112296   6.666   2.957   3.586
 3799SOL    HW212297   6.585   2.931   3.725
 3800SOL     OW12298   5.709   1.443   3.875
 3800SOL    HW112299   5.632   1.455   3.812
 3800SOL    HW212300   5.751   1.531   3.894
 3801SOL     OW12301   6.185   6.622   1.781
 3801SOL    HW112302   6.109   6.671   1.825
 3801SOL    HW212303   6.158   6.593   1.689
 3802SOL     OW12304   1.193   1.866   1.507
 3802SOL    HW112305   1.126   1.810   1.556
 3802SOL    HW212306   1.251   1.807   1.451
 3803SOL     OW12307   4.132   3.544   2.972
 3803SOL    HW112308   4.129   3.639   2.940
 3803SOL    HW212309   4.185   3.489   2.908
 3804SOL     OW12310   4.378   0.992   3.603
 3804SOL    HW112311   4.393   0.900   3.640
 3804SOL    HW212312   4.457   1.020   3.549
 3805SOL     OW12313   1.967   3.077   1.767
 3805SOL    HW112314   2.047   3.136   1.768
 3805SOL    HW212315   1.966   3.024   1.682
 3806SOL     OW12316   3.549   3.849   5.263
 3806SOL    HW112317   3.531   3.807   5.175
 3806SOL    HW212318   3.645   3.840   5.286
 3807SOL     OW12319   1.851   5.434   2.888
 3807SOL    HW112320   1.926   5.453   2.952
 3807SOL    HW212321   1.804   5.519   2.864
 3808SOL     OW12322   3.950   1.454   0.088
 3808SOL    HW112323   4.046   1.427   0.096
 3808SOL    HW212324   3.943   1.554   0.091
 3809SOL     OW12325   5.702   2.722   1.564
 3809SOL    HW112326   5.625   2.746   1.505
 3809SOL    HW212327   5.759   2.653   1.518
 3810SOL     OW12328   6.079   2.909   3.792
 3810SOL    HW112329   6.009   2.903   3.722
 3810SOL    HW212330   6.036   2.917   3.882
 3811SOL     OW12331   0.141   6.350   4.603
 3811SOL    HW112332   0.208   6.276   4.604
 3811SOL    HW212333   0.178   6.428   4.551
 3812SOL     OW12334   4.182   5.101   5.256
 3812SOL    HW112335   4.098   5.079   5.305
 3812SOL    HW212336   4.160   5.155   5.175
 3813SOL     OW12337   5.542   3.879   0.104
 3813SOL    HW112338   5.610   3.812   0.073
 3813SOL    HW212339   5.456   3.832   0.124
 3814SOL     OW12340   6.553   0.204   4.963
 3814SOL    HW112341   6.641   0.161   4.942
 3814SOL    HW212342   6.489   0.136   4.998
 3815SOL     OW12343   4.027   1.956   0.984
 3815SOL    HW112344   4.036   1.857   0.974
 3815SOL    HW212345   3.992   1.995   0.898
 3816SOL     OW12346   1.299   4.911   6.506
 3816SOL    HW112347   1.208   4.922   6.545
 3816SOL    HW212348   1.291   4.894   6.408
 3817SOL     OW12349   4.919   3.381   2.225
 3817SOL    HW112350   4.924   3.476   2.195
 3817SOL    HW212351   4.954   3.321   2.153
 3818SOL     OW12352   6.416   1.178   6.988
 3818SOL    HW112353   6.489   1.134   6.936
 3818SOL    HW212354   6.417   1.143   0.055
 3819SOL     OW12355   5.895   5.442   2.839
 3819SOL    HW112356   5.808   5.461   2.885
 3819SOL    HW212357   5.938   5.362   2.882
 3820SOL     OW12358   5.262   7.015   4.013
 3820SOL    HW112359   5.314   0.068   4.042
 3820SOL    HW212360   5.219   6.971   4.092
 3821SOL     OW12361   1.548   0.726   2.060
 3821SOL    HW112362   1.457   0.707   2.098
 3821SOL    HW212363   1.548   0.707   1.962
 3822SOL     OW12364   2.298   6.400   0.387
 3822SOL    HW112365   2.272   6.344   0.466
 3822SOL    HW212366   2.310   6.342   0.307
 3823SOL     OW12367   3.325   3.784   6.087
 3823SOL    HW112368   3.291   3.720   6.018
 3823SOL    HW212369   3.372   3.860   6.042
 3824SOL     OW12370   0.427   2.532   0.412
 3824SOL    HW112371   0.502   2.495   0.357
 3824SOL    HW212372   0.345   2.477   0.398
 3825SOL     OW12373   0.799   4.923   0.081
 3825SOL    HW112374   0.800   5.016   0.118
 3825SOL    HW212375   0.876   4.912   0.018
 3826SOL     OW12376   1.211   3.591   0.480
 3826SOL    HW112377   1.228   3.614   0.384
 3826SOL    HW212378   1.178   3.497   0.486
 3827SOL     OW12379   1.139   0.869   1.698
 3827SOL    HW112380   1.225   0.902   1.659
 3827SOL    HW212381   1.077   0.946   1.713
 3828SOL     OW12382   3.353   3.239   3.765
 3828SOL    HW112383   3.412   3.301   3.713
 3828SOL    HW212384   3.409   3.167   3.805
 3829SOL     OW12385   0.836   4.771   2.525
 3829SOL    HW112386   0.933   4.786   2.505
 3829SOL    HW212387   0.791   4.732   2.444
 3830SOL     OW12388   1.133   0.846   5.291
 3830SOL    HW112389   1.102   0.791   5.213
 3830SOL    HW212390   1.232   0.837   5.301
 3831SOL     OW12391   4.798   2.236   2.709
 3831SOL    HW112392   4.889   2.276   2.716
 3831SOL    HW212393   4.749   2.250   2.795
 3832SOL     OW12394   6.658   0.592   2.997
 3832SOL    HW112395   6.606   0.519   3.039
 3832SOL    HW212396   6.725   0.553   2.933
 3833SOL     OW12397   0.591   5.954   6.626
 3833SOL    HW112398   0.636   5.920   6.708
 3833SOL    HW212399   0.492   5.952   6.638
 3834SOL     OW12400   3.481   4.183   0.635
 3834SOL    HW112401   3.404   4.217   0.581
 3834SOL    HW212402   3.449   4.116   0.702
 3835SOL     OW12403   3.970   6.032   4.490
 3835SOL    HW112404   3.941   5.982   4.572
 3835SOL    HW212405   3.891   6.079   4.450
 3836SOL     OW12406   0.159   4.865   6.060
 3836SOL    HW112407   0.225   4.894   5.990
 3836SOL    HW212408   0.076   4.919   6.052
 3837SOL     OW12409   4.669   4.467   6.353
 3837SOL    HW112410   4.631   4.425   6.435
 3837SOL    HW212411   4.764   4.493   6.370
 3838SOL     OW12412   0.888   3.029   3.753
 3838SOL    HW112413   0.894   3.094   3.829
 3838SOL    HW212414   0.954   3.054   3.682
 3839SOL     OW12415   5.506   1.910   3.130
 3839SOL    HW112416   5.569   1.893   3.206
 3839SOL    HW212417   5.452   1.828   3.112
 3840SOL     OW12418   3.053   1.652   6.606
 3840SOL    HW112419   3.018   1.740   6.636
 3840SOL    HW212420   3.113   1.665   6.527
 3841SOL     OW12421   0.208   3.419   4.414
 3841SOL    HW112422   0.134   3.418   4.347
 3841SOL    HW212423   0.273   3.346   4.393
 3842SOL     OW12424   1.806   2.554   2.172
 3842SOL    HW112425   1.829   2.458   2.184
 3842SOL    HW212426   1.890   2.608   2.166
 3843SOL     OW12427   5.295   4.352   2.823
 3843SOL    HW112428   5.286   4.446   2.856
 3843SOL    HW212429   5.322   4.292   2.898
 3844SOL     OW12430   0.956   2.561   5.340
 3844SOL    HW112431   0.986   2.513   5.422
 3844SOL    HW212432   0.989   2.513   5.258
 3845SOL     OW12433   3.606   4.408   5.929
 3845SOL    HW112434   3.529   4.350   5.957
 3845SOL    HW212435   3.615   4.407   5.830
 3846SOL     OW12436   6.874   4.963   3.267
 3846SOL    HW112437   6.864   4.939   3.363
 3846SOL    HW212438   6.815   4.904   3.211
 3847SOL     OW12439   5.067   2.910   4.426
 3847SOL    HW112440   5.080   2.813   4.447
 3847SOL    HW212441   5.155   2.957   4.432
 3848SOL     OW12442   4.453   4.593   2.665
 3848SOL    HW112443   4.366   4.605   2.713
 3848SOL    HW212444   4.440   4.607   2.567
 3849SOL     OW12445   0.752   1.671   5.769
 3849SOL    HW112446   0.832   1.641   5.718
 3849SOL    HW212447   0.727   1.764   5.741
 3850SOL     OW12448   2.349   3.706   1.723
 3850SOL    HW112449   2.323   3.647   1.800
 3850SOL    HW212450   2.447   3.694   1.704
 3851SOL     OW12451   1.137   4.335   2.653
 3851SOL    HW112452   1.086   4.325   2.739
 3851SOL    HW212453   1.080   4.306   2.577
 3852SOL     OW12454   4.152   6.338   3.961
 3852SOL    HW112455   4.238   6.385   3.979
 3852SOL    HW212456   4.164   6.269   3.890
 3853SOL     OW12457   0.682   4.153   3.700
 3853SOL    HW112458   0.600   4.209   3.715
 3853SOL    HW212459   0.752   4.178   3.768
 3854SOL     OW12460   1.694   1.957   2.621
 3854SOL    HW112461   1.653   1.991   2.706
 3854SOL    HW212462   1.785   1.996   2.610
 3855SOL     OW12463   5.315   6.407   6.128
 3855SOL    HW112464   5.288   6.442   6.218
 3855SOL    HW212465   5.368   6.476   6.080
 3856SOL     OW12466   6.603   0.573   6.043
 3856SOL    HW112467   6.602   0.495   5.980
 3856SOL    HW212468   6.634   0.543   6.133
 3857SOL     OW12469   0.710   6.025   6.944
 3857SOL    HW112470   0.611   6.037   6.950
 3857SOL    HW212471   0.754   6.114   6.936
 3858SOL     OW12472   2.456   1.096   5.770
 3858SOL    HW112473   2.507   1.182   5.768
 3858SOL    HW212474   2.366   1.111   5.729
 3859SOL     OW12475   5.383   1.187   2.180
 3859SOL    HW112476   5.419   1.189   2.273
 3859SOL    HW212477   5.454   1.215   2.116
 3860SOL     OW12478   2.292   1.409   4.523
 3860SOL    HW112479   2.234   1.365   4.592
 3860SOL    HW212480   2.245   1.409   4.435
 3861SOL     OW12481   4.354   5.289   3.182
 3861SOL    HW112482   4.332   5.357   3.112
 3861SOL    HW212483   4.408   5.216   3.141
 3862SOL     OW12484   0.513   0.637   4.980
 3862SOL    HW112485   0.532   0.567   5.048
 3862SOL    HW212486   0.465   0.714   5.023
 3863SOL     OW12487   5.498   2.513   0.081
 3863SOL    HW112488   5.528   2.549   0.170
 3863SOL    HW212489   5.578   2.499   0.023
 3864SOL     OW12490   2.390   1.129   5.343
 3864SOL    HW112491   2.422   1.189   5.270
 3864SOL    HW212492   2.335   1.182   5.408
 3865SOL     OW12493   3.721   0.976   0.421
 3865SOL    HW112494   3.800   0.969   0.482
 3865SOL    HW212495   3.736   0.920   0.339
 3866SOL     OW12496   3.187   0.278   0.818
 3866SOL    HW112497   3.161   0.292   0.914
 3866SOL    HW212498   3.273   0.328   0.800
 3867SOL     OW12499   0.589   5.076   4.047
 3867SOL    HW112500   0.685   5.069   4.020
 3867SOL    HW212501   0.536   5.003   4.003
 3868SOL     OW12502   3.049   6.644   0.356
 3868SOL    HW112503   2.989   6.581   0.407
 3868SOL    HW212504   2.998   6.683   0.279
 3869SOL     OW12505   6.241   3.945   4.845
 3869SOL    HW112506   6.237   4.026   4.788
 3869SOL    HW212507   6.264   3.865   4.790
 3870SOL     OW12508   6.318   5.918   0.200
 3870SOL    HW112509   6.239   5.881   0.152
 3870SOL    HW212510   6.307   5.901   0.298
 3871SOL     OW12511   3.424   0.498   2.631
 3871SOL    HW112512   3.379   0.410   2.646
 3871SOL    HW212513   3.357   0.572   2.641
 3872SOL     OW12514   3.709   2.944   3.796
 3872SOL    HW112515   3.632   2.941   3.732
 3872SOL    HW212516   3.677   2.920   3.888
 3873SOL     OW12517   6.883   2.945   1.199
 3873SOL    HW112518   6.908   3.032   1.241
 3873SOL    HW212519   6.959   2.913   1.142
 3874SOL     OW12520   4.431   6.152   6.732
 3874SOL    HW112521   4.353   6.215   6.729
 3874SOL    HW212522   4.515   6.203   6.710
 3875SOL     OW12523   2.119   3.233   2.516
 3875SOL    HW112524   2.027   3.247   2.480
 3875SOL    HW212525   2.153   3.319   2.554
 3876SOL     OW12526   3.675   5.748   1.217
 3876SOL    HW112527   3.610   5.809   1.171
 3876SOL    HW212528   3.766   5.788   1.213
 3877SOL     OW12529   5.829   2.696   0.499
 3877SOL    HW112530   5.919   2.684   0.540
 3877SOL    HW212531   5.762   2.718   0.570
 3878SOL     OW12532   3.173   0.242   4.295
 3878SOL    HW112533   3.202   0.169   4.233
 3878SOL    HW212534   3.253   0.282   4.339
 3879SOL     OW12535   5.636   5.349   1.275
 3879SOL    HW112536   5.637   5.396   1.187
 3879SOL    HW212537   5.543   5.350   1.312
 3880SOL     OW12538   5.401   4.693   4.720
 3880SOL    HW112539   5.482   4.698   4.662
 3880SOL    HW212540   5.371   4.598   4.727
 3881SOL     OW12541   1.243   3.303   1.723
 3881SOL    HW112542   1.341   3.288   1.708
 3881SOL    HW212543   1.193   3.285   1.638
 3882SOL     OW12544   1.553   0.973   5.561
 3882SOL    HW112545   1.542   0.933   5.652
 3882SOL    HW212546   1.642   1.020   5.557
 3883SOL     OW12547   4.097   0.880   3.212
 3883SOL    HW112548   4.117   0.898   3.308
 3883SOL    HW212549   4.135   0.953   3.155
 3884SOL     OW12550   0.417   5.449   3.250
 3884SOL    HW112551   0.326   5.452   3.209
 3884SOL    HW212552   0.432   5.360   3.293
 3885SOL     OW12553   6.539   0.190   2.736
 3885SOL    HW112554   6.469   0.195   2.664
 3885SOL    HW212555   6.499   0.151   2.819
 3886SOL     OW12556   5.860   6.120   4.860
 3886SOL    HW112557   5.954   6.099   4.833
 3886SOL    HW212558   5.797   6.055   4.817
 3887SOL     OW12559   0.208   0.641   6.309
 3887SOL    HW112560   0.228   0.700   6.231
 3887SOL    HW212561   0.137   0.575   6.283
 3888SOL     OW12562   6.765   7.020   4.899
 3888SOL    HW112563   6.725   6.935   4.932
 3888SOL    HW212564   6.823   7.001   4.820
 3889SOL     OW12565   0.057   3.398   6.494
 3889SOL    HW112566   6.988   3.386   6.522
 3889SOL    HW212567   0.082   3.326   6.429
 3890SOL     OW12568   5.708   5.460   3.039
 3890SOL    HW112569   5.647   5.391   2.999
 3890SOL    HW212570   5.660   5.548   3.045
 3891SOL     OW12571   5.602   4.593   4.975
 3891SOL    HW112572   5.689   4.643   4.974
 3891SOL    HW212573   5.531   4.650   4.933
 3892SOL     OW12574   0.231   2.250   1.515
 3892SOL    HW112575   0.321   2.238   1.558
 3892SOL    HW212576   0.231   2.333   1.460
 3893SOL     OW12577   4.619   4.030   1.273
 3893SOL    HW112578   4.588   3.936   1.285
 3893SOL    HW212579   4.717   4.036   1.293
 3894SOL     OW12580   3.599   1.645   1.378
 3894SOL    HW112581   3.558   1.594   1.454
 3894SOL    HW212582   3.580   1.597   1.293
 3895SOL     OW12583   1.691   0.670   5.666
 3895SOL    HW112584   1.628   0.737   5.705
 3895SOL    HW212585   1.652   0.578   5.672
 3896SOL     OW12586   0.041   0.458   6.174
 3896SOL    HW112587   0.061   0.362   6.155
 3896SOL    HW212588   0.034   0.509   6.088
 3897SOL     OW12589   3.484   5.714   2.547
 3897SOL    HW112590   3.474   5.786   2.615
 3897SOL    HW212591   3.458   5.626   2.587
 3898SOL     OW12592   3.303   3.827   4.950
 3898SOL    HW112593   3.233   3.897   4.959
 3898SOL    HW212594   3.260   3.737   4.948
 3899SOL     OW12595   5.695   0.071   4.866
 3899SOL    HW112596   5.623   0.016   4.909
 3899SOL    HW212597   5.778   0.016   4.858
 3900SOL     OW12598   4.919   3.036   3.854
 3900SOL    HW112599   4.999   2.976   3.851
 3900SOL    HW212600   4.892   3.061   3.761
 3901SOL     OW12601   3.028   0.571   5.658
 3901SOL    HW112602   2.991   0.534   5.743
 3901SOL    HW212603   3.128   0.568   5.661
 3902SOL     OW12604   5.587   3.641   2.298
 3902SOL    HW112605   5.565   3.626   2.201
 3902SOL    HW212606   5.586   3.739   2.317
 3903SOL     OW12607   4.490   5.774   0.239
 3903SOL    HW112608   4.546   5.847   0.200
 3903SOL    HW212609   4.456   5.715   0.166
 3904SOL     OW12610   2.227   0.509   4.982
 3904SOL    HW112611   2.249   0.493   5.079
 3904SOL    HW212612   2.158   0.581   4.975
 3905SOL     OW12613   6.771   6.887   5.751
 3905SOL    HW112614   6.762   6.794   5.716
 3905SOL    HW212615   6.766   6.885   5.851
 3906SOL     OW12616   3.935   5.351   5.382
 3906SOL    HW112617   4.024   5.357   5.427
 3906SOL    HW212618   3.905   5.255   5.382
 3907SOL     OW12619   5.819   6.980   5.214
 3907SOL    HW112620   5.848   0.034   5.163
 3907SOL    HW212621   5.762   7.007   5.291
 3908SOL     OW12622   0.910   0.808   0.414
 3908SOL    HW112623   0.964   0.833   0.334
 3908SOL    HW212624   0.835   0.748   0.386
 3909SOL     OW12625   0.501   5.187   5.546
 3909SOL    HW112626   0.534   5.269   5.499
 3909SOL    HW212627   0.544   5.181   5.636
 3910SOL     OW12628   3.404   3.739   1.870
 3910SOL    HW112629   3.352   3.800   1.811
 3910SOL    HW212630   3.343   3.675   1.915
 3911SOL     OW12631   4.213   1.323   0.096
 3911SOL    HW112632   4.207   1.302   7.025
 3911SOL    HW212633   4.244   1.242   0.145
 3912SOL     OW12634   3.356   0.679   6.494
 3912SOL    HW112635   3.323   0.615   6.424
 3912SOL    HW212636   3.440   0.643   6.535
 3913SOL     OW12637   2.234   5.900   6.147
 3913SOL    HW112638   2.274   5.989   6.169
 3913SOL    HW212639   2.264   5.873   6.055
 3914SOL     OW12640   4.015   1.245   1.184
 3914SOL    HW112641   4.056   1.328   1.222
 3914SOL    HW212642   4.082   1.199   1.125
 3915SOL     OW12643   3.565   6.219   1.677
 3915SOL    HW112644   3.494   6.275   1.720
 3915SOL    HW212645   3.590   6.258   1.589
 3916SOL     OW12646   1.712   5.921   3.142
 3916SOL    HW112647   1.658   6.005   3.146
 3916SOL    HW212648   1.797   5.940   3.093
 3917SOL     OW12649   1.265   4.845   6.234
 3917SOL    HW112650   1.242   4.780   6.307
 3917SOL    HW212651   1.234   4.808   6.146
 3918SOL     OW12652   5.540   6.989   2.686
 3918SOL    HW112653   5.519   6.892   2.696
 3918SOL    HW212654   5.563   0.001   2.776
 3919SOL     OW12655   2.900   6.164   6.958
 3919SOL    HW112656   2.961   6.124   6.890
 3919SOL    HW212657   2.944   6.243   7.001
 3920SOL     OW12658   2.564   2.740   6.577
 3920SOL    HW112659   2.583   2.707   6.484
 3920SOL    HW212660   2.605   2.830   6.590
 3921SOL     OW12661   0.059   2.996   0.857
 3921SOL    HW112662   0.139   2.955   0.900
 3921SOL    HW212663   0.041   2.951   0.769
 3922SOL     OW12664   5.741   4.424   1.501
 3922SOL    HW112665   5.753   4.478   1.585
 3922SOL    HW212666   5.827   4.424   1.449
 3923SOL     OW12667   6.823   1.863   0.342
 3923SOL    HW112668   6.827   1.822   0.433
 3923SOL    HW212669   6.732   1.901   0.328
 3924SOL     OW12670   0.057   5.694   3.146
 3924SOL    HW112671   0.127   5.761   3.120
 3924SOL    HW212672   7.000   5.712   3.093
 3925SOL     OW12673   3.692   4.111   1.061
 3925SOL    HW112674   3.621   4.044   1.040
 3925SOL    HW212675   3.696   4.180   0.988
 3926SOL     OW12676   6.284   5.710   2.575
 3926SOL    HW112677   6.370   5.680   2.535
 3926SOL    HW212678   6.301   5.785   2.640
 3927SOL     OW12679   6.923   3.845   3.947
 3927SOL    HW112680   6.829   3.879   3.951
 3927SOL    HW212681   6.977   3.889   4.020
 3928SOL     OW12682   2.864   5.388   4.887
 3928SOL    HW112683   2.809   5.334   4.823
 3928SOL    HW212684   2.918   5.326   4.944
 3929SOL     OW12685   0.320   1.976   6.125
 3929SOL    HW112686   0.320   1.876   6.114
 3929SOL    HW212687   0.290   2.019   6.041
 3930SOL     OW12688   1.849   1.714   3.835
 3930SOL    HW112689   1.816   1.805   3.810
 3930SOL    HW212690   1.942   1.701   3.800
 3931SOL     OW12691   2.052   1.900   2.868
 3931SOL    HW112692   1.998   1.962   2.811
 3931SOL    HW212693   2.101   1.952   2.937
 3932SOL     OW12694   1.350   3.720   2.686
 3932SOL    HW112695   1.255   3.730   2.656
 3932SOL    HW212696   1.354   3.656   2.763
 3933SOL     OW12697   2.286   0.086   6.367
 3933SOL    HW112698   2.366   0.100   6.308
 3933SOL    HW212699   2.275   7.015   6.384
 3934SOL     OW12700   0.244   1.140   1.160
 3934SOL    HW112701   0.254   1.206   1.086
 3934SOL    HW212702   0.232   1.048   1.122
 3935SOL     OW12703   2.003   0.266   5.916
 3935SOL    HW112704   1.970   0.175   5.941
 3935SOL    HW212705   2.080   0.291   5.975
 3936SOL     OW12706   0.249   5.033   5.627
 3936SOL    HW112707   0.149   5.040   5.633
 3936SOL    HW212708   0.286   5.118   5.589
 3937SOL     OW12709   0.458   0.465   2.168
 3937SOL    HW112710   0.392   0.392   2.148
 3937SOL    HW212711   0.473   0.470   2.266
 3938SOL     OW12712   6.830   2.526   3.777
 3938SOL    HW112713   6.860   2.508   3.683
 3938SOL    HW212714   6.731   2.514   3.783
 3939SOL     OW12715   3.110   1.721   2.101
 3939SOL    HW112716   3.205   1.717   2.130
 3939SOL    HW212717   3.102   1.772   2.015
 3940SOL     OW12718   4.094   5.019   2.172
 3940SOL    HW112719   4.053   5.022   2.263
 3940SOL    HW212720   4.191   4.996   2.180
 3941SOL     OW12721   5.169   1.742   6.318
 3941SOL    HW112722   5.146   1.720   6.223
 3941SOL    HW212723   5.214   1.664   6.361
 3942SOL     OW12724   0.357   0.115   5.442
 3942SOL    HW112725   0.448   0.127   5.481
 3942SOL    HW212726   0.322   0.024   5.466
 3943SOL     OW12727   0.850   3.540   2.633
 3943SOL    HW112728   0.752   3.523   2.642
 3943SOL    HW212729   0.895   3.459   2.595
 3944SOL     OW12730   5.747   3.977   5.519
 3944SOL    HW112731   5.700   4.026   5.445
 3944SOL    HW212732   5.703   3.999   5.606
 3945SOL     OW12733   0.993   2.193   2.066
 3945SOL    HW112734   1.002   2.102   2.025
 3945SOL    HW212735   1.002   2.185   2.165
 3946SOL     OW12736   6.158   4.590   5.840
 3946SOL    HW112737   6.162   4.656   5.915
 3946SOL    HW212738   6.083   4.615   5.778
 3947SOL     OW12739   5.914   5.268   1.895
 3947SOL    HW112740   5.962   5.198   1.841
 3947SOL    HW212741   5.951   5.269   1.988
 3948SOL     OW12742   1.358   4.859   1.263
 3948SOL    HW112743   1.400   4.906   1.185
 3948SOL    HW212744   1.373   4.761   1.255
 3949SOL     OW12745   5.505   0.847   2.844
 3949SOL    HW112746   5.560   0.910   2.790
 3949SOL    HW212747   5.559   0.813   2.921
 3950SOL     OW12748   3.175   3.701   1.477
 3950SOL    HW112749   3.150   3.694   1.574
 3950SOL    HW212750   3.246   3.769   1.465
 3951SOL     OW12751   0.309   6.911   0.426
 3951SOL    HW112752   0.274   6.982   0.365
 3951SOL    HW212753   0.281   6.931   0.520
 3952SOL     OW12754   6.994   4.196   4.183
 3952SOL    HW112755   0.059   4.158   4.167
 3952SOL    HW212756   6.943   4.196   4.097
 3953SOL     OW12757   3.098   4.525   1.125
 3953SOL    HW112758   3.181   4.480   1.090
 3953SOL    HW212759   3.056   4.579   1.053
 3954SOL     OW12760   6.074   5.386   5.386
 3954SOL    HW112761   6.056   5.466   5.443
 3954SOL    HW212762   6.163   5.348   5.409
 3955SOL     OW12763   3.925   6.332   6.756
 3955SOL    HW112764   4.018   6.297   6.762
 3955SOL    HW212765   3.927   6.432   6.749
 3956SOL     OW12766   0.709   2.103   3.005
 3956SOL    HW112767   0.809   2.098   3.007
 3956SOL    HW212768   0.677   2.152   3.086
 3957SOL     OW12769   5.005   6.732   3.463
 3957SOL    HW112770   4.972   6.638   3.472
 3957SOL    HW212771   5.103   6.734   3.482
 3958SOL     OW12772   5.634   0.134   6.243
 3958SOL    HW112773   5.582   0.145   6.158
 3958SOL    HW212774   5.633   0.037   6.270
 3959SOL     OW12775   3.509   6.644   0.917
 3959SOL    HW112776   3.482   6.564   0.970
 3959SOL    HW212777   3.519   6.723   0.978
 3960SOL     OW12778   4.793   1.607   6.622
 3960SOL    HW112779   4.736   1.653   6.690
 3960SOL    HW212780   4.870   1.666   6.598
 3961SOL     OW12781   5.611   2.742   2.093
 3961SOL    HW112782   5.576   2.686   2.018
 3961SOL    HW212783   5.708   2.723   2.106
 3962SOL     OW12784   2.123   5.157   6.721
 3962SOL    HW112785   2.195   5.147   6.790
 3962SOL    HW212786   2.057   5.082   6.731
 3963SOL     OW12787   4.591   4.432   3.983
 3963SOL    HW112788   4.508   4.431   3.927
 3963SOL    HW212789   4.566   4.429   4.080
 3964SOL     OW12790   4.835   4.790   3.626
 3964SOL    HW112791   4.771   4.767   3.553
 3964SOL    HW212792   4.827   4.723   3.700
 3965SOL     OW12793   4.216   2.905   5.809
 3965SOL    HW112794   4.182   2.957   5.887
 3965SOL    HW212795   4.153   2.831   5.787
 3966SOL     OW12796   6.175   5.532   0.599
 3966SOL    HW112797   6.200   5.464   0.667
 3966SOL    HW212798   6.076   5.545   0.599
 3967SOL     OW12799   1.741   4.279   2.846
 3967SOL    HW112800   1.669   4.225   2.801
 3967SOL    HW212801   1.829   4.234   2.832
 3968SOL     OW12802   6.607   0.139   1.133
 3968SOL    HW112803   6.706   0.133   1.117
 3968SOL    HW212804   6.572   0.224   1.094
 3969SOL     OW12805   1.373   3.495   2.404
 3969SOL    HW112806   1.372   3.592   2.380
 3969SOL    HW212807   1.317   3.480   2.485
 3970SOL     OW12808   5.345   5.622   4.040
 3970SOL    HW112809   5.383   5.530   4.048
 3970SOL    HW212810   5.306   5.650   4.127
 3971SOL     OW12811   2.405   5.041   1.829
 3971SOL    HW112812   2.409   4.949   1.793
 3971SOL    HW212813   2.445   5.105   1.764
 3972SOL     OW12814   1.822   5.369   0.634
 3972SOL    HW112815   1.742   5.310   0.645
 3972SOL    HW212816   1.813   5.422   0.549
 3973SOL     OW12817   1.246   4.296   5.770
 3973SOL    HW112818   1.264   4.365   5.700
 3973SOL    HW212819   1.152   4.264   5.761
 3974SOL     OW12820   0.808   0.341   4.753
 3974SOL    HW112821   0.750   0.408   4.707
 3974SOL    HW212822   0.834   0.376   4.843
 3975SOL     OW12823   5.325   0.445   6.246
 3975SOL    HW112824   5.406   0.503   6.241
 3975SOL    HW212825   5.335   0.380   6.321
 3976SOL     OW12826   1.284   5.293   1.320
 3976SOL    HW112827   1.221   5.271   1.395
 3976SOL    HW212828   1.271   5.228   1.246
 3977SOL     OW12829   3.273   4.755   5.329
 3977SOL    HW112830   3.228   4.667   5.334
 3977SOL    HW212831   3.244   4.812   5.407
 3978SOL     OW12832   5.245   0.053   4.605
 3978SOL    HW112833   5.299   0.129   4.641
 3978SOL    HW212834   5.153   0.085   4.582
 3979SOL     OW12835   2.883   5.936   1.843
 3979SOL    HW112836   2.979   5.964   1.837
 3979SOL    HW212837   2.867   5.859   1.781
 3980SOL     OW12838   0.510   5.347   6.624
 3980SOL    HW112839   0.410   5.347   6.636
 3980SOL    HW212840   0.536   5.423   6.565
 3981SOL     OW12841   1.772   1.786   6.116
 3981SOL    HW112842   1.796   1.834   6.200
 3981SOL    HW212843   1.843   1.719   6.094
 3982SOL     OW12844   2.187   0.841   4.148
 3982SOL    HW112845   2.153   0.837   4.242
 3982SOL    HW212846   2.281   0.876   4.148
 3983SOL     OW12847   4.425   5.020   4.047
 3983SOL    HW112848   4.468   5.044   4.133
 3983SOL    HW212849   4.445   4.924   4.025
 3984SOL     OW12850   1.248   0.757   3.027
 3984SOL    HW112851   1.185   0.699   3.078
 3984SOL    HW212852   1.274   0.712   2.942
 3985SOL     OW12853   4.078   4.673   6.373
 3985SOL    HW112854   4.094   4.576   6.359
 3985SOL    HW212855   4.025   4.710   6.297
 3986SOL     OW12856   6.535   2.268   2.615
 3986SOL    HW112857   6.632   2.277   2.640
 3986SOL    HW212858   6.506   2.173   2.628
 3987SOL     OW12859   3.231   5.550   3.837
 3987SOL    HW112860   3.185   5.490   3.771
 3987SOL    HW212861   3.329   5.550   3.819
 3988SOL     OW12862   3.776   3.530   6.636
 3988SOL    HW112863   3.834   3.450   6.618
 3988SOL    HW212864   3.799   3.602   6.571
 3989SOL     OW12865   6.457   1.679   0.085
 3989SOL    HW112866   6.430   1.770   0.117
 3989SOL    HW212867   6.553   1.681   0.057
 3990SOL     OW12868   5.563   2.214   3.334
 3990SOL    HW112869   5.658   2.238   3.312
 3990SOL    HW212870   5.544   2.120   3.303
 3991SOL     OW12871   5.640   1.238   2.010
 3991SOL    HW112872   5.598   1.160   1.964
 3991SOL    HW212873   5.670   1.305   1.942
 3992SOL     OW12874   3.767   2.212   6.998
 3992SOL    HW112875   3.712   2.244   6.921
 3992SOL    HW212876   3.706   2.175   0.042
 3993SOL     OW12877   0.315   2.569   3.263
 3993SOL    HW112878   0.315   2.521   3.175
 3993SOL    HW212879   0.408   2.601   3.284
 3994SOL     OW12880   0.543   1.212   6.622
 3994SOL    HW112881   0.584   1.267   6.695
 3994SOL    HW212882   0.608   1.142   6.593
 3995SOL     OW12883   1.464   3.774   4.176
 3995SOL    HW112884   1.511   3.842   4.120
 3995SOL    HW212885   1.383   3.741   4.127
 3996SOL     OW12886   0.788   1.222   4.384
 3996SOL    HW112887   0.753   1.315   4.392
 3996SOL    HW212888   0.830   1.211   4.294
 3997SOL     OW12889   5.138   2.629   3.741
 3997SOL    HW112890   5.199   2.577   3.801
 3997SOL    HW212891   5.098   2.568   3.673
 3998SOL     OW12892   4.099   1.152   2.303
 3998SOL    HW112893   4.143   1.138   2.214
 3998SOL    HW212894   4.128   1.240   2.340
 3999SOL     OW12895   5.653   3.348   3.789
 3999SOL    HW112896   5.721   3.356   3.863
 3999SOL    HW212897   5.604   3.434   3.780
 4000SOL     OW12898   3.056   4.816   3.058
 4000SOL    HW112899   2.991   4.761   3.111
 4000SOL    HW212900   3.018   4.833   2.967
 4001SOL     OW12901   2.332   2.190   4.262
 4001SOL    HW112902   2.264   2.132   4.306
 4001SOL    HW212903   2.418   2.140   4.254
 4002SOL     OW12904   2.978   2.461   0.564
 4002SOL    HW112905   3.020   2.418   0.644
 4002SOL    HW212906   2.958   2.557   0.584
 4003SOL     OW12907   3.008   6.544   4.874
 4003SOL    HW112908   2.936   6.526   4.807
 4003SOL    HW212909   2.967   6.554   4.965
 4004SOL     OW12910   6.076   1.876   4.182
 4004SOL    HW112911   6.146   1.868   4.252
 4004SOL    HW212912   6.101   1.819   4.104
 4005SOL     OW12913   5.620   5.511   1.048
 4005SOL    HW112914   5.628   5.576   1.123
 4005SOL    HW212915   5.628   5.559   0.961
 4006SOL     OW12916   4.084   5.175   2.575
 4006SOL    HW112917   4.162   5.111   2.577
 4006SOL    HW212918   4.056   5.195   2.669
 4007SOL     OW12919   1.097   2.904   1.523
 4007SOL    HW112920   1.113   2.805   1.531
 4007SOL    HW212921   1.143   2.951   1.598
 4008SOL     OW12922   3.524   2.061   4.290
 4008SOL    HW112923   3.506   1.999   4.213
 4008SOL    HW212924   3.440   2.109   4.314
 4009SOL     OW12925   4.912   3.154   0.364
 4009SOL    HW112926   4.952   3.240   0.331
 4009SOL    HW212927   4.813   3.155   0.347
 4010SOL     OW12928   2.304   3.415   1.464
 4010SOL    HW112929   2.336   3.363   1.544
 4010SOL    HW212930   2.207   3.438   1.476
 4011SOL     OW12931   0.794   0.864   1.185
 4011SOL    HW112932   0.842   0.843   1.269
 4011SOL    HW212933   0.853   0.919   1.125
 4012SOL     OW12934   4.307   5.252   1.986
 4012SOL    HW112935   4.267   5.176   1.934
 4012SOL    HW212936   4.260   5.337   1.962
 4013SOL     OW12937   3.347   0.164   0.253
 4013SOL    HW112938   3.278   0.110   0.204
 4013SOL    HW212939   3.374   0.243   0.197
 4014SOL     OW12940   4.210   5.819   3.205
 4014SOL    HW112941   4.154   5.739   3.225
 4014SOL    HW212942   4.169   5.900   3.248
 4015SOL     OW12943   4.323   5.818   6.134
 4015SOL    HW112944   4.321   5.719   6.146
 4015SOL    HW212945   4.414   5.852   6.156
 4016SOL     OW12946   2.002   5.704   6.253
 4016SOL    HW112947   2.036   5.658   6.335
 4016SOL    HW212948   2.041   5.660   6.172
 4017SOL     OW12949   0.344   6.296   0.731
 4017SOL    HW112950   0.425   6.355   0.732
 4017SOL    HW212951   0.343   6.243   0.646
 4018SOL     OW12952   5.366   6.843   2.461
 4018SOL    HW112953   5.448   6.877   2.414
 4018SOL    HW212954   5.337   6.910   2.529
 4019SOL     OW12955   5.886   3.515   3.027
 4019SOL    HW112956   5.975   3.486   3.061
 4019SOL    HW212957   5.875   3.488   2.932
 4020SOL     OW12958   5.561   2.445   5.294
 4020SOL    HW112959   5.502   2.407   5.366
 4020SOL    HW212960   5.508   2.455   5.210
 4021SOL     OW12961   2.844   3.324   5.445
 4021SOL    HW112962   2.855   3.419   5.474
 4021SOL    HW212963   2.755   3.291   5.474
 4022SOL     OW12964   4.537   0.476   0.370
 4022SOL    HW112965   4.530   0.499   0.273
 4022SOL    HW212966   4.456   0.426   0.399
 4023SOL     OW12967   6.713   1.686   5.322
 4023SOL    HW112968   6.662   1.650   5.401
 4023SOL    HW212969   6.670   1.770   5.290
 4024SOL     OW12970   3.229   5.153   3.904
 4024SOL    HW112971   3.246   5.149   4.002
 4024SOL    HW212972   3.316   5.162   3.855
 4025SOL     OW12973   1.045   6.319   4.448
 4025SOL    HW112974   0.974   6.248   4.444
 4025SOL    HW212975   1.080   6.335   4.355
 4026SOL     OW12976   6.019   5.950   3.995
 4026SOL    HW112977   6.109   5.908   4.009
 4026SOL    HW212978   5.952   5.879   3.974
 4027SOL     OW12979   3.318   4.079   2.160
 4027SOL    HW112980   3.293   4.096   2.064
 4027SOL    HW212981   3.281   3.992   2.189
 4028SOL     OW12982   1.483   2.138   3.827
 4028SOL    HW112983   1.455   2.042   3.826
 4028SOL    HW212984   1.435   2.186   3.900
 4029SOL     OW12985   2.508   4.307   6.691
 4029SOL    HW112986   2.409   4.311   6.702
 4029SOL    HW212987   2.531   4.305   6.593
 4030SOL     OW12988   1.454   1.810   6.295
 4030SOL    HW112989   1.541   1.840   6.333
 4030SOL    HW212990   1.450   1.711   6.293
 4031SOL     OW12991   4.387   6.068   2.864
 4031SOL    HW112992   4.467   6.105   2.911
 4031SOL    HW212993   4.368   5.976   2.897
 4032SOL     OW12994   6.089   0.365   2.753
 4032SOL    HW112995   6.077   0.313   2.668
 4032SOL    HW212996   6.120   0.457   2.731
 4033SOL     OW12997   3.049   3.134   3.222
 4033SOL    HW112998   2.964   3.172   3.186
 4033SOL    HW212999   3.110   3.110   3.147
 4034SOL     OW13000   6.173   1.788   4.989
 4034SOL    HW113001   6.082   1.757   4.963
 4034SOL    HW213002   6.173   1.811   5.086
 4035SOL     OW13003   7.016   3.235   0.760
 4035SOL    HW113004   7.017   3.143   0.799
 4035SOL    HW213005   0.083   3.270   0.756
 4036SOL     OW13006   5.556   6.944   3.071
 4036SOL    HW113007   5.616   7.021   3.049
 4036SOL    HW213008   5.584   6.864   3.018
 4037SOL     OW13009   1.613   2.002   0.532
 4037SOL    HW113010   1.610   1.903   0.517
 4037SOL    HW213011   1.630   2.049   0.445
 4038SOL     OW13012   4.951   4.653   1.778
 4038SOL    HW113013   5.014   4.589   1.823
 4038SOL    HW213014   4.857   4.630   1.802
 4039SOL     OW13015   5.062   5.182   1.414
 4039SOL    HW113016   5.106   5.126   1.484
 4039SOL    HW213017   5.132   5.221   1.355
 4040SOL     OW13018   2.901   0.055   6.579
 4040SOL    HW113019   2.915   7.003   6.638
 4040SOL    HW213020   2.970   0.055   6.507
 4041SOL     OW13021   1.518   5.765   1.790
 4041SOL    HW113022   1.575   5.705   1.845
 4041SOL    HW213023   1.576   5.821   1.730
 4042SOL     OW13024   6.339   4.453   3.002
 4042SOL    HW113025   6.412   4.385   3.010
 4042SOL    HW213026   6.255   4.415   3.040
 4043SOL     OW13027   5.336   2.235   4.598
 4043SOL    HW113028   5.255   2.201   4.551
 4043SOL    HW213029   5.329   2.214   4.696
 4044SOL     OW13030   4.788   0.718   4.386
 4044SOL    HW113031   4.777   0.751   4.479
 4044SOL    HW213032   4.816   0.794   4.327
 4045SOL     OW13033   2.834   4.451   6.358
 4045SOL    HW113034   2.930   4.426   6.347
 4045SOL    HW213035   2.779   4.367   6.366
 4046SOL     OW13036   0.874   1.801   3.534
 4046SOL    HW113037   0.942   1.872   3.514
 4046SOL    HW213038   0.835   1.767   3.448
 4047SOL     OW13039   3.132   2.670   1.258
 4047SOL    HW113040   3.184   2.597   1.215
 4047SOL    HW213041   3.065   2.631   1.321
 4048SOL     OW13042   5.586   1.574   1.896
 4048SOL    HW113043   5.497   1.571   1.852
 4048SOL    HW213044   5.576   1.608   1.990
 4049SOL     OW13045   6.460   6.127   6.812
 4049SOL    HW113046   6.417   6.150   6.900
 4049SOL    HW213047   6.505   6.038   6.819
 4050SOL     OW13048   1.809   6.361   0.385
 4050SOL    HW113049   1.710   6.370   0.386
 4050SOL    HW213050   1.849   6.431   0.445
 4051SOL     OW13051   4.011   3.275   0.075
 4051SOL    HW113052   3.936   3.323   0.120
 4051SOL    HW213053   4.007   3.292   7.003
 4052SOL     OW13054   1.083   0.556   1.406
 4052SOL    HW113055   1.039   0.635   1.450
 4052SOL    HW213056   1.155   0.587   1.345
 4053SOL     OW13057   3.072   4.940   3.899
 4053SOL    HW113058   2.989   4.994   3.912
 4053SOL    HW213059   3.151   5.002   3.892
 4054SOL     OW13060   1.444   2.597   1.375
 4054SOL    HW113061   1.385   2.665   1.331
 4054SOL    HW213062   1.386   2.528   1.420
 4055SOL     OW13063   2.795   3.851   5.596
 4055SOL    HW113064   2.729   3.865   5.523
 4055SOL    HW213065   2.748   3.857   5.685
 4056SOL     OW13066   4.272   2.757   6.775
 4056SOL    HW113067   4.210   2.708   6.714
 4056SOL    HW213068   4.348   2.795   6.722
 4057SOL     OW13069   5.300   2.911   6.850
 4057SOL    HW113070   5.313   2.994   6.905
 4057SOL    HW213071   5.278   2.937   6.756
 4058SOL     OW13072   1.385   1.617   4.395
 4058SOL    HW113073   1.340   1.631   4.484
 4058SOL    HW213074   1.330   1.556   4.339
 4059SOL     OW13075   1.971   2.458   3.052
 4059SOL    HW113076   2.034   2.461   3.130
 4059SOL    HW213077   1.886   2.505   3.076
 4060SOL     OW13078   4.368   5.462   5.213
 4060SOL    HW113079   4.279   5.425   5.237
 4060SOL    HW213080   4.419   5.394   5.159
 4061SOL     OW13081   3.381   4.750   1.679
 4061SOL    HW113082   3.451   4.719   1.743
 4061SOL    HW213083   3.406   4.721   1.586
 4062SOL     OW13084   3.586   1.635   3.205
 4062SOL    HW113085   3.503   1.620   3.259
 4062SOL    HW213086   3.575   1.718   3.150
 4063SOL     OW13087   4.862   6.828   5.085
 4063SOL    HW113088   4.872   6.873   4.997
 4063SOL    HW213089   4.889   6.891   5.158
 4064SOL     OW13090   1.549   6.939   3.433
 4064SOL    HW113091   1.564   6.918   3.336
 4064SOL    HW213092   1.604   7.019   3.458
 4065SOL     OW13093   1.592   6.454   0.125
 4065SOL    HW113094   1.587   6.445   0.225
 4065SOL    HW213095   1.685   6.477   0.099
 4066SOL     OW13096   5.021   5.056   2.459
 4066SOL    HW113097   4.940   5.091   2.507
 4066SOL    HW213098   5.004   4.961   2.431
 4067SOL     OW13099   5.846   3.281   2.376
 4067SOL    HW113100   5.835   3.198   2.321
 4067SOL    HW213101   5.823   3.261   2.471
 4068SOL     OW13102   4.239   0.447   4.644
 4068SOL    HW113103   4.283   0.377   4.587
 4068SOL    HW213104   4.142   0.453   4.620
 4069SOL     OW13105   3.967   3.597   6.830
 4069SOL    HW113106   3.929   3.670   6.887
 4069SOL    HW213107   3.896   3.563   6.768
 4070SOL     OW13108   1.109   3.702   2.528
 4070SOL    HW113109   1.107   3.702   2.428
 4070SOL    HW213110   1.055   3.626   2.563
 4071SOL     OW13111   1.112   1.149   4.888
 4071SOL    HW113112   1.181   1.206   4.843
 4071SOL    HW213113   1.157   1.072   4.934
 4072SOL     OW13114   1.084   6.401   3.603
 4072SOL    HW113115   1.089   6.472   3.532
 4072SOL    HW213116   1.097   6.442   3.693
 4073SOL     OW13117   2.597   5.450   5.907
 4073SOL    HW113118   2.582   5.353   5.890
 4073SOL    HW213119   2.634   5.493   5.824
 4074SOL     OW13120   1.037   2.766   2.364
 4074SOL    HW113121   1.041   2.670   2.395
 4074SOL    HW213122   1.082   2.774   2.275
 4075SOL     OW13123   4.896   2.512   2.924
 4075SOL    HW113124   4.921   2.415   2.915
 4075SOL    HW213125   4.972   2.569   2.892
 4076SOL     OW13126   2.672   4.141   5.690
 4076SOL    HW113127   2.675   4.073   5.764
 4076SOL    HW213128   2.577   4.160   5.665
 4077SOL     OW13129   3.165   6.528   0.667
 4077SOL    HW113130   3.233   6.455   0.669
 4077SOL    HW213131   3.102   6.513   0.591
 4078SOL     OW13132   6.641   5.375   1.819
 4078SOL    HW113133   6.599   5.436   1.752
 4078SOL    HW213134   6.640   5.418   1.909
 4079SOL     OW13135   1.275   1.100   3.380
 4079SOL    HW113136   1.280   1.192   3.341
 4079SOL    HW213137   1.360   1.080   3.429
 4080SOL     OW13138   2.639   2.801   0.112
 4080SOL    HW113139   2.592   2.745   0.044
 4080SOL    HW213140   2.584   2.882   0.133
 4081SOL     OW13141   1.765   1.216   4.358
 4081SOL    HW113142   1.712   1.269   4.424
 4081SOL    HW213143   1.704   1.169   4.295
 4082SOL     OW13144   1.722   1.855   0.077
 4082SOL    HW113145   1.663   1.780   0.049
 4082SOL    HW213146   1.779   1.827   0.154
 4083SOL     OW13147   5.792   3.959   3.693
 4083SOL    HW113148   5.750   3.868   3.693
 4083SOL    HW213149   5.879   3.956   3.742
 4084SOL     OW13150   5.055   3.241   3.400
 4084SOL    HW113151   5.106   3.165   3.361
 4084SOL    HW213152   4.984   3.270   3.336
 4085SOL     OW13153   2.691   5.248   0.516
 4085SOL    HW113154   2.643   5.310   0.453
 4085SOL    HW213155   2.712   5.163   0.468
 4086SOL     OW13156   0.730   4.820   0.726
 4086SOL    HW113157   0.806   4.773   0.772
 4086SOL    HW213158   0.680   4.755   0.669
 4087SOL     OW13159   2.209   1.180   2.373
 4087SOL    HW113160   2.110   1.169   2.365
 4087SOL    HW213161   2.230   1.268   2.416
 4088SOL     OW13162   6.384   1.147   5.647
 4088SOL    HW113163   6.418   1.130   5.740
 4088SOL    HW213164   6.319   1.222   5.649
 4089SOL     OW13165   6.818   5.489   4.218
 4089SOL    HW113166   6.721   5.467   4.204
 4089SOL    HW213167   6.848   5.554   4.147
 4090SOL     OW13168   1.841   5.680   5.278
 4090SOL    HW113169   1.884   5.766   5.251
 4090SOL    HW213170   1.897   5.604   5.247
 4091SOL     OW13171   0.924   5.497   6.996
 4091SOL    HW113172   1.009   5.503   6.943
 4091SOL    HW213173   0.905   5.586   0.010
 4092SOL     OW13174   5.579   2.925   3.984
 4092SOL    HW113175   5.585   2.893   3.890
 4092SOL    HW213176   5.553   2.849   4.044
 4093SOL     OW13177   5.484   6.437   1.670
 4093SOL    HW113178   5.430   6.388   1.738
 4093SOL    HW213179   5.531   6.514   1.714
 4094SOL     OW13180   1.089   4.231   6.952
 4094SOL    HW113181   1.173   4.177   6.965
 4094SOL    HW213182   1.113   4.328   6.944
 4095SOL     OW13183   0.610   3.162   0.097
 4095SOL    HW113184   0.512   3.148   0.087
 4095SOL    HW213185   0.627   3.250   0.142
 4096SOL     OW13186   2.570   1.012   6.303
 4096SOL    HW113187   2.655   1.060   6.324
 4096SOL    HW213188   2.562   1.000   6.204
 4097SOL     OW13189   5.871   4.842   5.454
 4097SOL    HW113190   5.780   4.872   5.427
 4097SOL    HW213191   5.920   4.917   5.497
 4098SOL     OW13192   1.956   3.126   1.143
 4098SOL    HW113193   1.889   3.143   1.071
 4098SOL    HW213194   1.911   3.132   1.232
 4099SOL     OW13195   3.201   4.729   0.343
 4099SOL    HW113196   3.287   4.778   0.358
 4099SOL    HW213197   3.202   4.644   0.395
 4100SOL     OW13198   1.449   1.129   3.982
 4100SOL    HW113199   1.530   1.070   3.981
 4100SOL    HW213200   1.371   1.077   4.018
 4101SOL     OW13201   0.017   1.376   6.353
 4101SOL    HW113202   0.065   1.292   6.329
 4101SOL    HW213203   6.995   1.364   6.439
 4102SOL     OW13204   2.176   0.609   0.498
 4102SOL    HW113205   2.085   0.632   0.531
 4102SOL    HW213206   2.241   0.678   0.529
 4103SOL     OW13207   0.094   6.699   1.895
 4103SOL    HW113208   0.050   6.627   1.842
 4103SOL    HW213209   0.193   6.688   1.891
 4104SOL     OW13210   0.483   5.106   3.689
 4104SOL    HW113211   0.562   5.104   3.629
 4104SOL    HW213212   0.478   5.021   3.741
 4105SOL     OW13213   5.030   0.657   2.245
 4105SOL    HW113214   5.006   0.595   2.319
 4105SOL    HW213215   5.065   0.605   2.167
 4106SOL     OW13216   0.643   2.166   3.436
 4106SOL    HW113217   0.578   2.156   3.512
 4106SOL    HW213218   0.730   2.201   3.471
 4107SOL     OW13219   1.135   5.806   0.174
 4107SOL    HW113220   1.227   5.807   0.136
 4107SOL    HW213221   1.140   5.820   0.273
 4108SOL     OW13222   7.016   5.133   4.597
 4108SOL    HW113223   0.055   5.208   4.591
 4108SOL    HW213224   6.923   5.170   4.587
 4109SOL     OW13225   5.563   6.722   4.368
 4109SOL    HW113226   5.531   6.804   4.417
 4109SOL    HW213227   5.586   6.746   4.274
 4110SOL     OW13228   3.911   3.159   6.317
 4110SOL    HW113229   3.926   3.067   6.353
 4110SOL    HW213230   3.890   3.154   6.220
 4111SOL     OW13231   6.322   5.053   6.717
 4111SOL    HW113232   6.381   5.031   6.639
 4111SOL    HW213233   6.343   5.145   6.749
 4112SOL     OW13234   4.583   0.121   4.226
 4112SOL    HW113235   4.670   0.129   4.177
 4112SOL    HW213236   4.508   0.132   4.161
 4113SOL     OW13237   4.858   5.598   4.807
 4113SOL    HW113238   4.831   5.563   4.897
 4113SOL    HW213239   4.885   5.694   4.816
 4114SOL     OW13240   6.943   1.792   3.399
 4114SOL    HW113241   6.948   1.774   3.301
 4114SOL    HW213242   0.007   1.779   3.440
 4115SOL     OW13243   3.101   4.852   3.531
 4115SOL    HW113244   3.075   4.922   3.464
 4115SOL    HW213245   3.026   4.839   3.596
 4116SOL     OW13246   4.522   2.201   3.670
 4116SOL    HW113247   4.486   2.112   3.696
 4116SOL    HW213248   4.595   2.227   3.733
 4117SOL     OW13249   1.441   2.470   3.371
 4117SOL    HW113250   1.420   2.522   3.289
 4117SOL    HW213251   1.540   2.455   3.377
 4118SOL     OW13252   5.520   6.464   6.446
 4118SOL    HW113253   5.421   6.452   6.445
 4118SOL    HW213254   5.548   6.500   6.535
 4119SOL     OW13255   3.286   1.153   3.323
 4119SOL    HW113256   3.358   1.085   3.320
 4119SOL    HW213257   3.312   1.227   3.386
 4120SOL     OW13258   3.550   1.444   6.283
 4120SOL    HW113259   3.611   1.445   6.363
 4120SOL    HW213260   3.603   1.461   6.200
 4121SOL     OW13261   6.344   0.454   2.938
 4121SOL    HW113262   6.345   0.524   2.866
 4121SOL    HW213263   6.385   0.370   2.903
 4122SOL     OW13264   2.039   6.472   4.872
 4122SOL    HW113265   2.030   6.483   4.773
 4122SOL    HW213266   2.134   6.485   4.899
 4123SOL     OW13267   4.014   5.202   4.043
 4123SOL    HW113268   4.026   5.121   3.986
 4123SOL    HW213269   4.044   5.283   3.993
 4124SOL     OW13270   6.758   6.829   1.204
 4124SOL    HW113271   6.739   6.837   1.107
 4124SOL    HW213272   6.836   6.886   1.228
 4125SOL     OW13273   4.611   2.550   2.675
 4125SOL    HW113274   4.551   2.495   2.733
 4125SOL    HW213275   4.641   2.495   2.597
 4126SOL     OW13276   2.106   3.497   2.587
 4126SOL    HW113277   2.129   3.564   2.515
 4126SOL    HW213278   2.014   3.517   2.622
 4127SOL     OW13279   5.255   2.590   5.229
 4127SOL    HW113280   5.291   2.610   5.319
 4127SOL    HW213281   5.329   2.555   5.170
 4128SOL     OW13282   0.880   3.325   1.291
 4128SOL    HW113283   0.965   3.285   1.255
 4128SOL    HW213284   0.857   3.407   1.239
 4129SOL     OW13285   3.356   1.235   0.400
 4129SOL    HW113286   3.374   1.257   0.496
 4129SOL    HW213287   3.263   1.263   0.376
 4130SOL     OW13288   6.073   1.878   0.298
 4130SOL    HW113289   6.076   1.786   0.337
 4130SOL    HW213290   5.979   1.900   0.273
 4131SOL     OW13291   0.136   1.423   2.970
 4131SOL    HW113292   0.138   1.412   2.871
 4131SOL    HW213293   0.230   1.432   3.004
 4132SOL     OW13294   5.431   4.013   4.724
 4132SOL    HW113295   5.383   3.952   4.661
 4132SOL    HW213296   5.433   3.972   4.815
 4133SOL     OW13297   4.077   6.255   1.649
 4133SOL    HW113298   4.009   6.300   1.707
 4133SOL    HW213299   4.031   6.204   1.577
 4134SOL     OW13300   2.513   3.764   0.593
 4134SOL    HW113301   2.528   3.680   0.541
 4134SOL    HW213302   2.429   3.755   0.647
 4135SOL     OW13303   0.254   2.559   2.337
 4135SOL    HW113304   0.285   2.475   2.293
 4135SOL    HW213305   0.320   2.586   2.407
 4136SOL     OW13306   0.944   3.809   2.305
 4136SOL    HW113307   0.932   3.777   2.211
 4136SOL    HW213308   0.976   3.903   2.304
 4137SOL     OW13309   1.723   3.432   0.114
 4137SOL    HW113310   1.818   3.445   0.083
 4137SOL    HW213311   1.664   3.418   0.035
 4138SOL     OW13312   3.503   5.011   1.473
 4138SOL    HW113313   3.521   4.993   1.570
 4138SOL    HW213314   3.589   5.004   1.422
 4139SOL     OW13315   1.485   1.578   3.815
 4139SOL    HW113316   1.510   1.557   3.720
 4139SOL    HW213317   1.428   1.505   3.851
 4140SOL     OW13318   3.415   1.894   4.018
 4140SOL    HW113319   3.374   1.813   4.061
 4140SOL    HW213320   3.483   1.865   3.951
 4141SOL     OW13321   5.504   0.102   0.992
 4141SOL    HW113322   5.593   0.090   0.949
 4141SOL    HW213323   5.466   0.012   1.017
 4142SOL     OW13324   6.001   3.847   1.774
 4142SOL    HW113325   6.017   3.934   1.819
 4142SOL    HW213326   6.085   3.792   1.776
 4143SOL     OW13327   5.912   2.511   0.261
 4143SOL    HW113328   5.898   2.605   0.228
 4143SOL    HW213329   5.954   2.514   0.351
 4144SOL     OW13330   4.888   1.411   0.273
 4144SOL    HW113331   4.974   1.461   0.259
 4144SOL    HW213332   4.811   1.466   0.241
 4145SOL     OW13333   0.844   6.247   0.214
 4145SOL    HW113334   0.941   6.266   0.199
 4145SOL    HW213335   0.829   6.149   0.216
 4146SOL     OW13336   6.855   0.739   3.757
 4146SOL    HW113337   6.827   0.777   3.845
 4146SOL    HW213338   6.894   0.648   3.771
 4147SOL     OW13339   4.868   4.774   6.523
 4147SOL    HW113340   4.923   4.783   6.440
 4147SOL    HW213341   4.772   4.760   6.498
 4148SOL     OW13342   2.647   0.480   5.465
 4148SOL    HW113343   2.721   0.495   5.400
 4148SOL    HW213344   2.616   0.569   5.501
 4149SOL     OW13345   0.440   3.286   1.371
 4149SOL    HW113346   0.393   3.228   1.438
 4149SOL    HW213347   0.537   3.292   1.394
 4150SOL     OW13348   6.955   1.764   5.192
 4150SOL    HW113349   7.026   1.697   5.173
 4150SOL    HW213350   6.866   1.728   5.163
 4151SOL     OW13351   2.800   5.987   6.161
 4151SOL    HW113352   2.752   5.900   6.173
 4151SOL    HW213353   2.866   5.979   6.086
 4152SOL     OW13354   4.086   5.432   1.388
 4152SOL    HW113355   4.161   5.464   1.330
 4152SOL    HW213356   4.121   5.370   1.457
 4153SOL     OW13357   5.996   5.125   1.404
 4153SOL    HW113358   5.970   5.084   1.316
 4153SOL    HW213359   5.976   5.223   1.402
 4154SOL     OW13360   0.170   6.229   3.867
 4154SOL    HW113361   0.138   6.321   3.843
 4154SOL    HW213362   0.121   6.198   3.949
 4155SOL     OW13363   0.089   1.686   0.774
 4155SOL    HW113364   0.143   1.631   0.838
 4155SOL    HW213365   0.144   1.762   0.740
 4156SOL     OW13366   6.256   5.538   4.725
 4156SOL    HW113367   6.272   5.494   4.813
 4156SOL    HW213368   6.310   5.622   4.719
 4157SOL     OW13369   5.316   6.210   3.502
 4157SOL    HW113370   5.228   6.162   3.501
 4157SOL    HW213371   5.389   6.144   3.522
 4158SOL     OW13372   0.615   3.085   2.045
 4158SOL    HW113373   0.638   3.042   1.957
 4158SOL    HW213374   0.698   3.092   2.101
 4159SOL     OW13375   2.068   2.744   3.405
 4159SOL    HW113376   2.160   2.782   3.413
 4159SOL    HW213377   2.062   2.660   3.460
 4160SOL     OW13378   5.713   6.473   0.002
 4160SOL    HW113379   5.682   6.526   0.081
 4160SOL    HW213380   5.649   6.484   6.953
 4161SOL     OW13381   1.718   2.131   1.498
 4161SOL    HW113382   1.709   2.221   1.541
 4161SOL    HW213383   1.678   2.134   1.406
 4162SOL     OW13384   6.322   5.929   0.470
 4162SOL    HW113385   6.241   5.899   0.522
 4162SOL    HW213386   6.378   5.989   0.527
 4163SOL     OW13387   5.563   0.997   3.194
 4163SOL    HW113388   5.554   1.055   3.275
 4163SOL    HW213389   5.605   1.050   3.120
 4164SOL     OW13390   1.443   0.072   4.457
 4164SOL    HW113391   1.495   0.003   4.507
 4164SOL    HW213392   1.349   0.075   4.492
 4165SOL     OW13393   5.018   0.345   5.653
 4165SOL    HW113394   4.976   0.435   5.646
 4165SOL    HW213395   5.110   0.354   5.692
 4166SOL     OW13396   5.042   1.129   1.681
 4166SOL    HW113397   4.955   1.081   1.669
 4166SOL    HW213398   5.032   1.224   1.650
 4167SOL     OW13399   3.368   4.845   6.999
 4167SOL    HW113400   3.431   4.767   6.999
 4167SOL    HW213401   3.391   4.906   6.922
 4168SOL     OW13402   0.157   3.814   0.841
 4168SOL    HW113403   0.097   3.734   0.835
 4168SOL    HW213404   0.133   3.867   0.923
 4169SOL     OW13405   6.131   4.759   4.899
 4169SOL    HW113406   6.150   4.711   4.814
 4169SOL    HW213407   6.059   4.712   4.949
 4170SOL     OW13408   5.123   3.243   5.147
 4170SOL    HW113409   5.085   3.153   5.125
 4170SOL    HW213410   5.050   3.306   5.171
 4171SOL     OW13411   6.715   5.068   1.037
 4171SOL    HW113412   6.720   5.159   0.997
 4171SOL    HW213413   6.790   5.012   1.002
 4172SOL     OW13414   2.345   2.384   0.300
 4172SOL    HW113415   2.375   2.418   0.211
 4172SOL    HW213416   2.419   2.334   0.344
 4173SOL     OW13417   5.403   3.461   5.008
 4173SOL    HW113418   5.347   3.500   5.081
 4173SOL    HW213419   5.347   3.401   4.951
 4174SOL     OW13420   4.708   1.701   2.231
 4174SOL    HW113421   4.745   1.730   2.320
 4174SOL    HW213422   4.691   1.781   2.174
 4175SOL     OW13423   2.074   4.523   4.643
 4175SOL    HW113424   2.139   4.477   4.584
 4175SOL    HW213425   2.041   4.459   4.712
 4176SOL     OW13426   4.142   6.845   1.234
 4176SOL    HW113427   4.216   6.897   1.276
 4176SOL    HW213428   4.146   6.750   1.265
 4177SOL     OW13429   5.773   4.883   5.769
 4177SOL    HW113430   5.826   4.886   5.684
 4177SOL    HW213431   5.694   4.824   5.757
 4178SOL     OW13432   4.041   6.960   3.385
 4178SOL    HW113433   4.085   6.880   3.427
 4178SOL    HW213434   4.104   0.011   3.387
 4179SOL     OW13435   5.123   3.824   3.268
 4179SOL    HW113436   5.069   3.745   3.297
 4179SOL    HW213437   5.158   3.809   3.176
 4180SOL     OW13438   4.858   2.508   0.634
 4180SOL    HW113439   4.884   2.567   0.558
 4180SOL    HW213440   4.775   2.542   0.676
 4181SOL     OW13441   4.125   0.702   6.776
 4181SOL    HW113442   4.083   0.624   6.821
 4181SOL    HW213443   4.222   0.682   6.760
 4182SOL     OW13444   0.319   5.527   3.552
 4182SOL    HW113445   0.329   5.624   3.575
 4182SOL    HW213446   0.259   5.518   3.472
 4183SOL     OW13447   2.663   1.625   0.322
 4183SOL    HW113448   2.674   1.622   0.421
 4183SOL    HW213449   2.600   1.699   0.298
 4184SOL     OW13450   3.081   6.834   2.237
 4184SOL    HW113451   3.130   6.818   2.322
 4184SOL    HW213452   3.022   6.915   2.247
 4185SOL     OW13453   0.665   4.631   3.238
 4185SOL    HW113454   0.706   4.702   3.181
 4185SOL    HW213455   0.737   4.571   3.274
 4186SOL     OW13456   2.316   4.988   6.854
 4186SOL    HW113457   2.314   4.962   6.758
 4186SOL    HW213458   2.249   4.935   6.905
 4187SOL     OW13459   2.649   3.205   5.620
 4187SOL    HW113460   2.704   3.144   5.678
 4187SOL    HW213461   2.596   3.150   5.556
 4188SOL     OW13462   5.318   0.478   5.204
 4188SOL    HW113463   5.327   0.517   5.296
 4188SOL    HW213464   5.236   0.421   5.200
 4189SOL     OW13465   3.069   4.972   4.367
 4189SOL    HW113466   3.004   5.003   4.437
 4189SOL    HW213467   3.020   4.924   4.294
 4190SOL     OW13468   0.946   0.174   0.950
 4190SOL    HW113469   0.952   0.272   0.970
 4190SOL    HW213470   0.854   0.141   0.971
 4191SOL     OW13471   5.023   4.558   4.300
 4191SOL    HW113472   4.961   4.622   4.347
 4191SOL    HW213473   5.043   4.593   4.209
 4192SOL     OW13474   0.381   1.708   3.049
 4192SOL    HW113475   0.478   1.726   3.031
 4192SOL    HW213476   0.349   1.765   3.124
 4193SOL     OW13477   6.325   0.225   1.102
 4193SOL    HW113478   6.361   0.263   1.017
 4193SOL    HW213479   6.345   0.287   1.178
 4194SOL     OW13480   4.716   0.246   4.575
 4194SOL    HW113481   4.666   0.183   4.516
 4194SOL    HW213482   4.736   0.330   4.525
 4195SOL     OW13483   3.904   5.498   1.611
 4195SOL    HW113484   3.929   5.414   1.659
 4195SOL    HW213485   3.959   5.506   1.528
 4196SOL     OW13486   6.317   2.874   2.617
 4196SOL    HW113487   6.296   2.967   2.589
 4196SOL    HW213488   6.250   2.843   2.684
 4197SOL     OW13489   4.759   5.422   5.972
 4197SOL    HW113490   4.667   5.459   5.955
 4197SOL    HW213491   4.781   5.432   6.069
 4198SOL     OW13492   5.898   1.767   0.744
 4198SOL    HW113493   5.948   1.827   0.807
 4198SOL    HW213494   5.802   1.795   0.741
 4199SOL     OW13495   0.930   2.589   6.182
 4199SOL    HW113496   0.921   2.677   6.135
 4199SOL    HW213497   0.899   2.516   6.121
 4200SOL     OW13498   3.104   0.069   6.095
 4200SOL    HW113499   3.118   7.010   6.045
 4200SOL    HW213500   3.038   0.126   6.047
 4201SOL     OW13501   5.582   6.972   3.451
 4201SOL    HW113502   5.558   6.931   3.539
 4201SOL    HW213503   5.498   6.991   3.399
 4202SOL     OW13504   3.084   5.583   6.242
 4202SOL    HW113505   3.160   5.540   6.292
 4202SOL    HW213506   3.012   5.608   6.306
 4203SOL     OW13507   4.361   3.890   0.333
 4203SOL    HW113508   4.369   3.903   0.431
 4203SOL    HW213509   4.400   3.968   0.285
 4204SOL     OW13510   4.086   3.664   4.255
 4204SOL    HW113511   4.142   3.593   4.298
 4204SOL    HW213512   4.098   3.661   4.156
 4205SOL     OW13513   4.457   6.517   4.262
 4205SOL    HW113514   4.539   6.574   4.262
 4205SOL    HW213515   4.440   6.482   4.354
 4206SOL     OW13516   6.268   1.101   5.259
 4206SOL    HW113517   6.362   1.098   5.292
 4206SOL    HW213518   6.209   1.137   5.331
 4207SOL     OW13519   2.219   2.369   1.993
 4207SOL    HW113520   2.282   2.426   2.046
 4207SOL    HW213521   2.167   2.426   1.929
 4208SOL     OW13522   7.021   3.806   5.223
 4208SOL    HW113523   6.980   3.758   5.145
 4208SOL    HW213524   7.003   3.904   5.214
 4209SOL     OW13525   0.032   6.488   4.244
 4209SOL    HW113526   0.060   6.547   4.169
 4209SOL    HW213527   6.967   6.514   4.274
 4210SOL     OW13528   3.833   3.858   2.365
 4210SOL    HW113529   3.922   3.859   2.320
 4210SOL    HW213530   3.771   3.798   2.314
 4211SOL     OW13531   3.447   0.814   5.940
 4211SOL    HW113532   3.517   0.758   5.984
 4211SOL    HW213533   3.402   0.870   6.010
 4212SOL     OW13534   6.428   2.262   2.931
 4212SOL    HW113535   6.356   2.199   2.900
 4212SOL    HW213536   6.486   2.216   2.997
 4213SOL     OW13537   2.333   0.330   2.578
 4213SOL    HW113538   2.275   0.276   2.640
 4213SOL    HW213539   2.288   0.417   2.559
 4214SOL     OW13540   1.199   5.777   5.602
 4214SOL    HW113541   1.232   5.684   5.583
 4214SOL    HW213542   1.253   5.843   5.549
 4215SOL     OW13543   4.544   6.978   6.090
 4215SOL    HW113544   4.524   0.017   6.162
 4215SOL    HW213545   4.462   6.964   6.033
 4216SOL     OW13546   1.654   0.906   3.286
 4216SOL    HW113547   1.733   0.846   3.297
 4216SOL    HW213548   1.589   0.864   3.222
 4217SOL     OW13549   1.067   1.013   3.056
 4217SOL    HW113550   1.115   0.926   3.048
 4217SOL    HW213551   1.054   1.035   3.153
 4218SOL     OW13552   3.522   1.246   1.747
 4218SOL    HW113553   3.586   1.192   1.801
 4218SOL    HW213554   3.519   1.210   1.653
 4219SOL     OW13555   3.946   5.983   4.037
 4219SOL    HW113556   3.995   6.046   4.099
 4219SOL    HW213557   3.942   6.023   3.946
 4220SOL     OW13558   6.567   3.196   3.331
 4220SOL    HW113559   6.508   3.129   3.376
 4220SOL    HW213560   6.528   3.221   3.242
 4221SOL     OW13561   6.226   5.594   6.333
 4221SOL    HW113562   6.170   5.533   6.389
 4221SOL    HW213563   6.322   5.566   6.339
 4222SOL     OW13564   0.428   1.491   1.850
 4222SOL    HW113565   0.518   1.455   1.830
 4222SOL    HW213566   0.425   1.524   1.945
 4223SOL     OW13567   3.494   3.486   0.061
 4223SOL    HW113568   3.490   3.394   0.099
 4223SOL    HW213569   3.472   3.484   6.990
 4224SOL     OW13570   5.382   4.411   4.119
 4224SOL    HW113571   5.399   4.436   4.215
 4224SOL    HW213572   5.468   4.392   4.074
 4225SOL     OW13573   2.529   2.310   5.299
 4225SOL    HW113574   2.502   2.399   5.336
 4225SOL    HW213575   2.545   2.317   5.201
 4226SOL     OW13576   0.527   6.752   2.779
 4226SOL    HW113577   0.455   6.798   2.830
 4226SOL    HW213578   0.598   6.818   2.754
 4227SOL     OW13579   3.649   5.311   1.324
 4227SOL    HW113580   3.621   5.290   1.417
 4227SOL    HW213581   3.748   5.302   1.316
 4228SOL     OW13582   1.262   5.316   5.036
 4228SOL    HW113583   1.304   5.248   5.096
 4228SOL    HW213584   1.233   5.395   5.090
 4229SOL     OW13585   4.747   6.373   5.907
 4229SOL    HW113586   4.780   6.337   5.994
 4229SOL    HW213587   4.821   6.371   5.840
 4230SOL     OW13588   0.305   5.620   2.681
 4230SOL    HW113589   0.263   5.688   2.742
 4230SOL    HW213590   0.281   5.642   2.587
 4231SOL     OW13591   5.636   6.738   5.812
 4231SOL    HW113592   5.628   6.645   5.850
 4231SOL    HW213593   5.584   6.802   5.869
 4232SOL     OW13594   6.972   4.623   3.492
 4232SOL    HW113595   0.024   4.598   3.436
 4232SOL    HW213596   6.958   4.722   3.489
 4233SOL     OW13597   6.609   6.962   6.002
 4233SOL    HW113598   6.692   6.909   6.021
 4233SOL    HW213599   6.529   6.902   6.005
 4234SOL     OW13600   2.639   5.807   4.843
 4234SOL    HW113601   2.630   5.872   4.767
 4234SOL    HW213602   2.664   5.856   4.926
 4235SOL     OW13603   5.418   4.317   5.877
 4235SOL    HW113604   5.423   4.301   5.976
 4235SOL    HW213605   5.510   4.328   5.840
 4236SOL     OW13606   6.409   3.706   2.072
 4236SOL    HW113607   6.335   3.702   2.004
 4236SOL    HW213608   6.407   3.624   2.129
 4237SOL     OW13609   5.588   5.850   3.437
 4237SOL    HW113610   5.617   5.874   3.344
 4237SOL    HW213611   5.635   5.766   3.465
 4238SOL     OW13612   2.117   6.348   2.266
 4238SOL    HW113613   2.046   6.343   2.336
 4238SOL    HW213614   2.126   6.443   2.234
 4239SOL     OW13615   5.164   0.983   2.591
 4239SOL    HW113616   5.178   1.044   2.669
 4239SOL    HW213617   5.071   0.947   2.593
 4240SOL     OW13618   2.450   5.976   0.434
 4240SOL    HW113619   2.500   6.059   0.457
 4240SOL    HW213620   2.401   5.944   0.515
 4241SOL     OW13621   5.996   1.084   0.205
 4241SOL    HW113622   6.006   1.179   0.177
 4241SOL    HW213623   6.014   1.076   0.303
 4242SOL     OW13624   3.331   1.644   4.095
 4242SOL    HW113625   3.240   1.601   4.095
 4242SOL    HW213626   3.394   1.587   4.043
 4243SOL     OW13627   6.476   3.093   2.489
 4243SOL    HW113628   6.488   3.076   2.391
 4243SOL    HW213629   6.381   3.119   2.508
 4244SOL     OW13630   4.242   4.278   1.654
 4244SOL    HW113631   4.302   4.263   1.733
 4244SOL    HW213632   4.172   4.344   1.678
 4245SOL     OW13633   6.787   1.132   6.272
 4245SOL    HW113634   6.758   1.075   6.195
 4245SOL    HW213635   6.727   1.211   6.280
 4246SOL     OW13636   6.938   4.233   3.273
 4246SOL    HW113637   7.026   4.203   3.308
 4246SOL    HW213638   6.952   4.303   3.202
 4247SOL     OW13639   2.623   6.137   3.819
 4247SOL    HW113640   2.585   6.187   3.740
 4247SOL    HW213641   2.720   6.158   3.827
 4248SOL     OW13642   3.797   1.582   3.376
 4248SOL    HW113643   3.721   1.606   3.315
 4248SOL    HW213644   3.767   1.514   3.442
 4249SOL     OW13645   5.967   2.451   4.360
 4249SOL    HW113646   6.053   2.482   4.318
 4249SOL    HW213647   5.975   2.356   4.387
 4250SOL     OW13648   6.387   4.576   2.784
 4250SOL    HW113649   6.309   4.542   2.732
 4250SOL    HW213650   6.389   4.532   2.874
 4251SOL     OW13651   5.490   4.546   1.415
 4251SOL    HW113652   5.503   4.595   1.501
 4251SOL    HW213653   5.569   4.487   1.397
 4252SOL     OW13654   5.647   6.205   6.022
 4252SOL    HW113655   5.565   6.167   5.979
 4252SOL    HW213656   5.644   6.187   6.120
 4253SOL     OW13657   3.650   6.400   0.761
 4253SOL    HW113658   3.555   6.392   0.791
 4253SOL    HW213659   3.687   6.488   0.790
 4254SOL     OW13660   0.789   3.190   1.730
 4254SOL    HW113661   0.808   3.094   1.706
 4254SOL    HW213662   0.758   3.194   1.825
 4255SOL     OW13663   6.675   4.217   3.584
 4255SOL    HW113664   6.659   4.316   3.585
 4255SOL    HW213665   6.725   4.191   3.666
 4256SOL     OW13666   2.345   6.576   6.958
 4256SOL    HW113667   2.289   6.537   6.884
 4256SOL    HW213668   2.285   6.621   7.024
 4257SOL     OW13669   2.659   0.517   4.489
 4257SOL    HW113670   2.703   0.510   4.400
 4257SOL    HW213671   2.580   0.456   4.492
 4258SOL     OW13672   5.024   6.524   0.827
 4258SOL    HW113673   5.070   6.613   0.836
 4258SOL    HW213674   5.092   6.451   0.824
 4259SOL     OW13675   2.791   0.991   0.738
 4259SOL    HW113676   2.805   0.894   0.759
 4259SOL    HW213677   2.708   1.002   0.684
 4260SOL     OW13678   4.966   0.312   0.767
 4260SOL    HW113679   5.050   0.261   0.783
 4260SOL    HW213680   4.903   0.256   0.713
 4261SOL     OW13681   1.863   6.970   1.933
 4261SOL    HW113682   1.821   6.987   1.844
 4261SOL    HW213683   1.948   7.021   1.940
 4262SOL     OW13684   1.075   4.617   5.715
 4262SOL    HW113685   1.051   4.563   5.796
 4262SOL    HW213686   1.074   4.714   5.738
 4263SOL     OW13687   2.623   6.116   3.520
 4263SOL    HW113688   2.706   6.124   3.464
 4263SOL    HW213689   2.579   6.028   3.502
 4264SOL     OW13690   0.332   2.595   2.985
 4264SOL    HW113691   0.260   2.527   2.968
 4264SOL    HW213692   0.290   2.680   3.018
 4265SOL     OW13693   5.607   1.636   0.951
 4265SOL    HW113694   5.595   1.704   0.878
 4265SOL    HW213695   5.546   1.659   1.027
 4266SOL     OW13696   1.965   5.326   0.255
 4266SOL    HW113697   2.063   5.339   0.241
 4266SOL    HW213698   1.914   5.399   0.209
 4267SOL     OW13699   1.640   3.476   4.748
 4267SOL    HW113700   1.573   3.423   4.696
 4267SOL    HW213701   1.724   3.487   4.695
 4268SOL     OW13702   1.446   6.153   6.139
 4268SOL    HW113703   1.436   6.059   6.108
 4268SOL    HW213704   1.533   6.165   6.186
 4269SOL     OW13705   2.358   1.013   1.821
 4269SOL    HW113706   2.329   1.006   1.725
 4269SOL    HW213707   2.456   1.034   1.824
 4270SOL     OW13708   4.124   3.575   4.005
 4270SOL    HW113709   4.214   3.545   3.973
 4270SOL    HW213710   4.067   3.599   3.927
 4271SOL     OW13711   6.939   0.787   6.782
 4271SOL    HW113712   7.001   0.711   6.762
 4271SOL    HW213713   6.844   0.753   6.781
 4272SOL     OW13714   6.312   2.837   4.532
 4272SOL    HW113715   6.276   2.845   4.439
 4272SOL    HW213716   6.405   2.875   4.534
 4273SOL     OW13717   4.080   6.884   4.353
 4273SOL    HW113718   4.174   6.855   4.340
 4273SOL    HW213719   4.078   6.967   4.408
 4274SOL     OW13720   1.073   6.290   1.566
 4274SOL    HW113721   1.064   6.220   1.496
 4274SOL    HW213722   1.149   6.351   1.543
 4275SOL     OW13723   6.564   0.713   3.927
 4275SOL    HW113724   6.527   0.787   3.983
 4275SOL    HW213725   6.504   0.697   3.849
 4276SOL     OW13726   1.945   4.923   3.126
 4276SOL    HW113727   1.887   4.981   3.068
 4276SOL    HW213728   1.980   4.847   3.073
 4277SOL     OW13729   6.216   4.254   4.178
 4277SOL    HW113730   6.301   4.304   4.166
 4277SOL    HW213731   6.162   4.296   4.251
 4278SOL     OW13732   0.149   0.365   4.415
 4278SOL    HW113733   0.057   0.403   4.402
 4278SOL    HW213734   0.209   0.394   4.341
 4279SOL     OW13735   2.965   0.829   4.413
 4279SOL    HW113736   2.947   0.809   4.317
 4279SOL    HW213737   2.978   0.743   4.464
 4280SOL     OW13738   4.706   0.376   6.124
 4280SOL    HW113739   4.686   0.293   6.072
 4280SOL    HW213740   4.746   0.445   6.062
 4281SOL     OW13741   0.599   4.818   3.580
 4281SOL    HW113742   0.564   4.861   3.663
 4281SOL    HW213743   0.534   4.832   3.505
 4282SOL     OW13744   3.366   4.297   6.021
 4282SOL    HW113745   3.365   4.251   6.109
 4282SOL    HW213746   3.344   4.231   5.948
 4283SOL     OW13747   1.424   0.775   3.523
 4283SOL    HW113748   1.376   0.792   3.609
 4283SOL    HW213749   1.497   0.842   3.512
 4284SOL     OW13750   4.268   4.687   1.497
 4284SOL    HW113751   4.301   4.700   1.591
 4284SOL    HW213752   4.180   4.734   1.486
 4285SOL     OW13753   0.630   0.621   6.034
 4285SOL    HW113754   0.631   0.543   6.097
 4285SOL    HW213755   0.647   0.589   5.941
 4286SOL     OW13756   4.468   6.076   5.990
 4286SOL    HW113757   4.376   6.110   6.009
 4286SOL    HW213758   4.474   5.979   6.011
 4287SOL     OW13759   5.649   2.377   6.373
 4287SOL    HW113760   5.693   2.447   6.428
 4287SOL    HW213761   5.610   2.419   6.291
 4288SOL     OW13762   0.748   6.000   3.642
 4288SOL    HW113763   0.682   6.064   3.682
 4288SOL    HW213764   0.838   6.044   3.638
 4289SOL     OW13765   6.645   2.823   0.426
 4289SOL    HW113766   6.581   2.899   0.413
 4289SOL    HW213767   6.687   2.830   0.517
 4290SOL     OW13768   1.471   6.836   2.751
 4290SOL    HW113769   1.562   6.876   2.745
 4290SOL    HW213770   1.470   6.747   2.706
 4291SOL     OW13771   4.264   3.243   1.267
 4291SOL    HW113772   4.321   3.187   1.207
 4291SOL    HW213773   4.293   3.338   1.261
 4292SOL     OW13774   6.073   3.893   0.333
 4292SOL    HW113775   6.000   3.922   0.395
 4292SOL    HW213776   6.068   3.794   0.320
 4293SOL     OW13777   2.221   3.122   0.309
 4293SOL    HW113778   2.302   3.144   0.255
 4293SOL    HW213779   2.139   3.144   0.256
 4294SOL     OW13780   2.630   3.019   6.685
 4294SOL    HW113781   2.610   3.023   6.783
 4294SOL    HW213782   2.600   3.104   6.642
 4295SOL     OW13783   3.997   5.499   4.050
 4295SOL    HW113784   4.024   5.513   4.145
 4295SOL    HW213785   4.075   5.464   3.998
 4296SOL     OW13786   4.017   0.593   0.290
 4296SOL    HW113787   4.024   0.693   0.294
 4296SOL    HW213788   4.022   0.555   0.383
 4297SOL     OW13789   5.149   0.999   6.847
 4297SOL    HW113790   5.139   0.952   6.935
 4297SOL    HW213791   5.123   0.938   6.773
 4298SOL     OW13792   3.890   5.205   0.438
 4298SOL    HW113793   3.865   5.172   0.529
 4298SOL    HW213794   3.858   5.299   0.427
 4299SOL     OW13795   0.563   2.783   6.453
 4299SOL    HW113796   0.596   2.874   6.478
 4299SOL    HW213797   0.640   2.720   6.446
 4300SOL     OW13798   4.240   0.344   6.707
 4300SOL    HW113799   4.228   0.251   6.673
 4300SOL    HW213800   4.295   0.396   6.643
 4301SOL     OW13801   4.173   1.183   1.425
 4301SOL    HW113802   4.100   1.176   1.493
 4301SOL    HW213803   4.134   1.174   1.333
 4302SOL     OW13804   1.358   6.842   6.053
 4302SOL    HW113805   1.343   6.775   6.126
 4302SOL    HW213806   1.415   6.802   5.982
 4303SOL     OW13807   6.908   4.708   4.458
 4303SOL    HW113808   6.884   4.647   4.382
 4303SOL    HW213809   6.906   4.657   4.544
 4304SOL     OW13810   3.031   3.849   3.211
 4304SOL    HW113811   3.084   3.929   3.182
 4304SOL    HW213812   2.994   3.803   3.131
 4305SOL     OW13813   6.443   0.379   4.779
 4305SOL    HW113814   6.479   0.338   4.695
 4305SOL    HW213815   6.466   0.321   4.857
 4306SOL     OW13816   5.803   3.675   6.504
 4306SOL    HW113817   5.744   3.595   6.489
 4306SOL    HW213818   5.767   3.729   6.580
 4307SOL     OW13819   3.801   4.110   6.335
 4307SOL    HW113820   3.892   4.111   6.375
 4307SOL    HW213821   3.742   4.048   6.387
 4308SOL     OW13822   6.088   5.510   6.782
 4308SOL    HW113823   6.115   5.605   6.764
 4308SOL    HW213824   6.072   5.498   6.880
 4309SOL     OW13825   0.998   1.283   0.116
 4309SOL    HW113826   0.905   1.251   0.095
 4309SOL    HW213827   1.064   1.217   0.080
 4310SOL     OW13828   1.187   2.932   2.542
 4310SOL    HW113829   1.151   2.860   2.483
 4310SOL    HW213830   1.285   2.920   2.554
 4311SOL     OW13831   2.120   6.048   2.919
 4311SOL    HW113832   2.102   5.960   2.876
 4311SOL    HW213833   2.065   6.056   3.002
 4312SOL     OW13834   1.480   4.901   0.767
 4312SOL    HW113835   1.517   4.855   0.687
 4312SOL    HW213836   1.380   4.898   0.765
 4313SOL     OW13837   5.214   1.233   1.866
 4313SOL    HW113838   5.203   1.190   1.956
 4313SOL    HW213839   5.148   1.194   1.803
 4314SOL     OW13840   6.145   0.687   4.336
 4314SOL    HW113841   6.237   0.676   4.299
 4314SOL    HW213842   6.082   0.710   4.261
 4315SOL     OW13843   1.855   6.924   1.479
 4315SOL    HW113844   1.790   6.919   1.403
 4315SOL    HW213845   1.899   6.834   1.491
 4316SOL     OW13846   5.091   0.192   1.857
 4316SOL    HW113847   5.139   0.256   1.797
 4316SOL    HW213848   5.002   0.169   1.817
 4317SOL     OW13849   4.651   1.661   4.427
 4317SOL    HW113850   4.700   1.627   4.346
 4317SOL    HW213851   4.628   1.585   4.487
 4318SOL     OW13852   0.357   3.591   4.659
 4318SOL    HW113853   0.412   3.537   4.595
 4318SOL    HW213854   0.417   3.655   4.708
 4319SOL     OW13855   2.074   2.736   0.943
 4319SOL    HW113856   2.147   2.805   0.948
 4319SOL    HW213857   1.998   2.772   0.889
 4320SOL     OW13858   6.332   5.676   1.391
 4320SOL    HW113859   6.306   5.669   1.295
 4320SOL    HW213860   6.280   5.750   1.434
 4321SOL     OW13861   6.755   6.631   5.676
 4321SOL    HW113862   6.785   6.601   5.766
 4321SOL    HW213863   6.831   6.622   5.611
 4322SOL     OW13864   6.556   2.695   6.526
 4322SOL    HW113865   6.602   2.677   6.613
 4322SOL    HW213866   6.623   2.692   6.452
 4323SOL     OW13867   4.716   3.444   0.932
 4323SOL    HW113868   4.722   3.542   0.953
 4323SOL    HW213869   4.796   3.417   0.878
 4324SOL     OW13870   5.527   4.596   6.699
 4324SOL    HW113871   5.561   4.524   6.760
 4324SOL    HW213872   5.598   4.621   6.633
 4325SOL     OW13873   2.214   1.204   1.647
 4325SOL    HW113874   2.175   1.195   1.738
 4325SOL    HW213875   2.266   1.290   1.641
 4326SOL     OW13876   4.806   4.937   5.105
 4326SOL    HW113877   4.786   4.872   5.179
 4326SOL    HW213878   4.755   4.911   5.023
 4327SOL     OW13879   6.133   6.109   1.991
 4327SOL    HW113880   6.183   6.026   1.965
 4327SOL    HW213881   6.157   6.183   1.928
 4328SOL     OW13882   4.673   3.738   5.357
 4328SOL    HW113883   4.574   3.747   5.344
 4328SOL    HW213884   4.712   3.685   5.282
 4329SOL     OW13885   4.219   1.405   5.720
 4329SOL    HW113886   4.233   1.465   5.798
 4329SOL    HW213887   4.308   1.383   5.679
 4330SOL     OW13888   2.530   0.466   5.041
 4330SOL    HW113889   2.440   0.474   4.997
 4330SOL    HW213890   2.558   0.555   5.076
 4331SOL     OW13891   5.370   2.018   1.417
 4331SOL    HW113892   5.341   1.967   1.498
 4331SOL    HW213893   5.459   2.060   1.435
 4332SOL     OW13894   5.108   4.421   2.404
 4332SOL    HW113895   5.022   4.423   2.352
 4332SOL    HW213896   5.088   4.421   2.502
 4333SOL     OW13897   3.629   0.356   5.022
 4333SOL    HW113898   3.532   0.338   5.006
 4333SOL    HW213899   3.681   0.342   4.938
 4334SOL     OW13900   1.567   2.952   2.656
 4334SOL    HW113901   1.625   2.997   2.588
 4334SOL    HW213902   1.572   3.003   2.742
 4335SOL     OW13903   3.798   3.521   2.472
 4335SOL    HW113904   3.873   3.467   2.435
 4335SOL    HW213905   3.834   3.593   2.531
 4336SOL     OW13906   2.179   6.422   6.775
 4336SOL    HW113907   2.114   6.357   6.815
 4336SOL    HW213908   2.133   6.477   6.705
 4337SOL     OW13909   0.443   4.241   0.855
 4337SOL    HW113910   0.442   4.319   0.918
 4337SOL    HW213911   0.494   4.165   0.896
 4338SOL     OW13912   5.788   5.605   5.028
 4338SOL    HW113913   5.868   5.639   4.979
 4338SOL    HW213914   5.714   5.671   5.022
 4339SOL     OW13915   5.803   3.305   5.278
 4339SOL    HW113916   5.886   3.282   5.328
 4339SOL    HW213917   5.809   3.270   5.184
 4340SOL     OW13918   6.735   3.547   1.121
 4340SOL    HW113919   6.783   3.505   1.044
 4340SOL    HW213920   6.642   3.512   1.126
 4341SOL     OW13921   0.719   6.013   1.961
 4341SOL    HW113922   0.682   5.945   2.024
 4341SOL    HW213923   0.795   5.973   1.910
 4342SOL     OW13924   6.077   3.791   4.479
 4342SOL    HW113925   6.165   3.769   4.437
 4342SOL    HW213926   6.064   3.890   4.478
 4343SOL     OW13927   2.588   5.739   5.414
 4343SOL    HW113928   2.539   5.672   5.357
 4343SOL    HW213929   2.555   5.831   5.393
 4344SOL     OW13930   1.180   5.041   2.472
 4344SOL    HW113931   1.214   5.029   2.565
 4344SOL    HW213932   1.158   5.137   2.456
 4345SOL     OW13933   3.079   3.346   5.257
 4345SOL    HW113934   3.101   3.249   5.257
 4345SOL    HW213935   3.001   3.363   5.319
 4346SOL     OW13936   1.729   3.087   2.460
 4346SOL    HW113937   1.714   3.022   2.386
 4346SOL    HW213938   1.804   3.149   2.434
 4347SOL     OW13939   6.563   0.043   3.004
 4347SOL    HW113940   6.655   0.053   2.964
 4347SOL    HW213941   6.570   7.017   3.088
 4348SOL     OW13942   6.786   4.541   3.207
 4348SOL    HW113943   6.883   4.562   3.213
 4348SOL    HW213944   6.769   4.484   3.126
 4349SOL     OW13945   6.951   1.639   2.743
 4349SOL    HW113946   6.900   1.574   2.799
 4349SOL    HW213947   6.976   1.719   2.798
 4350SOL     OW13948   4.933   1.489   3.838
 4350SOL    HW113949   4.858   1.539   3.881
 4350SOL    HW213950   4.904   1.457   3.748
 4351SOL     OW13951   2.106   5.393   1.178
 4351SOL    HW113952   2.118   5.363   1.083
 4351SOL    HW213953   2.053   5.325   1.228
 4352SOL     OW13954   0.579   3.151   2.540
 4352SOL    HW113955   0.513   3.170   2.613
 4352SOL    HW213956   0.531   3.119   2.459
 4353SOL     OW13957   3.929   3.306   6.565
 4353SOL    HW113958   3.899   3.261   6.480
 4353SOL    HW213959   4.027   3.323   6.560
 4354SOL     OW13960   2.319   6.985   5.739
 4354SOL    HW113961   2.413   6.961   5.762
 4354SOL    HW213962   2.270   6.904   5.710
 4355SOL     OW13963   2.791   0.264   2.279
 4355SOL    HW113964   2.853   0.277   2.356
 4355SOL    HW213965   2.722   0.336   2.279
 4356SOL     OW13966   5.136   4.108   0.926
 4356SOL    HW113967   5.084   4.028   0.895
 4356SOL    HW213968   5.078   4.164   0.985
 4357SOL     OW13969   6.586   1.064   0.554
 4357SOL    HW113970   6.536   1.020   0.628
 4357SOL    HW213971   6.621   0.994   0.491
 4358SOL     OW13972   0.629   6.274   0.060
 4358SOL    HW113973   0.713   6.281   0.114
 4358SOL    HW213974   0.633   6.341   7.012
 4359SOL     OW13975   2.275   2.048   6.834
 4359SOL    HW113976   2.306   1.960   6.797
 4359SOL    HW213977   2.180   2.064   6.808
 4360SOL     OW13978   1.501   2.128   3.532
 4360SOL    HW113979   1.453   2.041   3.521
 4360SOL    HW213980   1.492   2.159   3.627
 4361SOL     OW13981   2.493   3.510   0.939
 4361SOL    HW113982   2.448   3.463   1.015
 4361SOL    HW213983   2.506   3.606   0.962
 4362SOL     OW13984   5.971   5.528   3.168
 4362SOL    HW113985   5.974   5.557   3.263
 4362SOL    HW213986   5.876   5.521   3.138
 4363SOL     OW13987   5.050   2.914   0.324
 4363SOL    HW113988   5.057   2.898   0.226
 4363SOL    HW213989   4.993   2.994   0.341
 4364SOL     OW13990   2.966   3.313   4.841
 4364SOL    HW113991   2.948   3.393   4.897
 4364SOL    HW213992   2.994   3.237   4.899
 4365SOL     OW13993   2.249   1.614   1.771
 4365SOL    HW113994   2.326   1.564   1.732
 4365SOL    HW213995   2.283   1.695   1.821
 4366SOL     OW13996   6.198   6.909   0.174
 4366SOL    HW113997   6.197   6.817   0.214
 4366SOL    HW213998   6.109   6.952   0.190
 4367SOL     OW13999   2.189   4.705   4.864
 4367SOL    HW114000   2.249   4.655   4.801
 4367SOL    HW214001   2.096   4.670   4.856
 4368SOL     OW14002   4.072   4.238   1.051
 4368SOL    HW114003   4.083   4.208   1.146
 4368SOL    HW214004   4.162   4.252   1.010
 4369SOL     OW14005   4.257   5.476   2.966
 4369SOL    HW114006   4.161   5.499   2.956
 4369SOL    HW214007   4.307   5.505   2.884
 4370SOL     OW14008   4.399   5.104   2.611
 4370SOL    HW114009   4.368   5.053   2.532
 4370SOL    HW214010   4.494   5.133   2.597
 4371SOL     OW14011   1.047   2.240   1.584
 4371SOL    HW114012   1.093   2.250   1.672
 4371SOL    HW214013   0.970   2.177   1.593
 4372SOL     OW14014   3.544   1.327   2.635
 4372SOL    HW114015   3.494   1.408   2.665
 4372SOL    HW214016   3.622   1.355   2.578
 4373SOL     OW14017   6.464   2.353   6.634
 4373SOL    HW114018   6.414   2.430   6.593
 4373SOL    HW214019   6.562   2.369   6.626
 4374SOL     OW14020   1.689   1.805   1.988
 4374SOL    HW114021   1.776   1.854   1.994
 4374SOL    HW214022   1.636   1.823   2.071
 4375SOL     OW14023   4.088   0.139   2.813
 4375SOL    HW114024   4.123   0.060   2.864
 4375SOL    HW214025   4.162   0.204   2.799
 4376SOL     OW14026   0.125   6.591   1.164
 4376SOL    HW114027   0.192   6.666   1.167
 4376SOL    HW214028   0.050   6.617   1.103
 4377SOL     OW14029   5.221   4.402   0.864
 4377SOL    HW114030   5.237   4.304   0.855
 4377SOL    HW214031   5.124   4.421   0.856
 4378SOL     OW14032   2.327   2.168   2.788
 4378SOL    HW114033   2.377   2.101   2.844
 4378SOL    HW214034   2.391   2.237   2.755
 4379SOL     OW14035   1.844   1.572   2.653
 4379SOL    HW114036   1.857   1.637   2.579
 4379SOL    HW214037   1.932   1.550   2.694
 4380SOL     OW14038   0.850   6.971   2.249
 4380SOL    HW114039   0.893   0.034   2.246
 4380SOL    HW214040   0.830   6.947   2.344
 4381SOL     OW14041   0.818   5.553   5.065
 4381SOL    HW114042   0.871   5.578   5.146
 4381SOL    HW214043   0.751   5.625   5.045
 4382SOL     OW14044   0.209   2.892   4.951
 4382SOL    HW114045   0.246   2.825   5.015
 4382SOL    HW214046   0.112   2.907   4.971
 4383SOL     OW14047   0.665   3.030   6.554
 4383SOL    HW114048   0.642   3.128   6.556
 4383SOL    HW214049   0.638   2.988   6.640
 4384SOL     OW14050   5.390   0.522   4.845
 4384SOL    HW114051   5.461   0.514   4.775
 4384SOL    HW214052   5.425   0.573   4.923
 4385SOL     OW14053   5.669   2.196   5.184
 4385SOL    HW114054   5.647   2.292   5.201
 4385SOL    HW214055   5.768   2.183   5.193
 4386SOL     OW14056   1.811   3.966   5.683
 4386SOL    HW114057   1.800   4.052   5.634
 4386SOL    HW214058   1.909   3.946   5.692
 4387SOL     OW14059   6.848   2.295   1.706
 4387SOL    HW114060   6.889   2.371   1.656
 4387SOL    HW214061   6.907   2.214   1.696
 4388SOL     OW14062   4.441   2.203   5.891
 4388SOL    HW114063   4.378   2.189   5.967
 4388SOL    HW214064   4.501   2.124   5.881
 4389SOL     OW14065   6.484   3.410   1.067
 4389SOL    HW114066   6.408   3.366   1.020
 4389SOL    HW214067   6.482   3.508   1.048
 4390SOL     OW14068   3.923   0.205   1.239
 4390SOL    HW114069   3.824   0.212   1.248
 4390SOL    HW214070   3.957   0.128   1.294
 4391SOL     OW14071   2.525   5.591   6.844
 4391SOL    HW114072   2.437   5.568   6.884
 4391SOL    HW214073   2.515   5.603   6.745
 4392SOL     OW14074   6.491   3.559   5.006
 4392SOL    HW114075   6.485   3.522   4.914
 4392SOL    HW214076   6.487   3.484   5.073
 4393SOL     OW14077   6.267   0.992   2.708
 4393SOL    HW114078   6.275   0.982   2.609
 4393SOL    HW214079   6.198   1.060   2.729
 4394SOL     OW14080   6.524   5.144   2.442
 4394SOL    HW114081   6.570   5.101   2.519
 4394SOL    HW214082   6.469   5.076   2.393
 4395SOL     OW14083   1.645   6.901   2.104
 4395SOL    HW114084   1.710   6.954   2.050
 4395SOL    HW214085   1.557   6.897   2.056
 4396SOL     OW14086   2.566   2.041   4.244
 4396SOL    HW114087   2.613   1.992   4.317
 4396SOL    HW214088   2.625   2.113   4.208
 4397SOL     OW14089   1.310   2.161   4.036
 4397SOL    HW114090   1.235   2.226   4.046
 4397SOL    HW214091   1.343   2.134   4.127
 4398SOL     OW14092   0.545   3.825   6.111
 4398SOL    HW114093   0.526   3.881   6.030
 4398SOL    HW214094   0.503   3.869   6.192
 4399SOL     OW14095   2.774   0.213   3.101
 4399SOL    HW114096   2.711   0.138   3.084
 4399SOL    HW214097   2.823   0.235   3.016
 4400SOL     OW14098   2.772   6.748   5.370
 4400SOL    HW114099   2.774   6.744   5.470
 4400SOL    HW214100   2.713   6.823   5.341
 4401SOL     OW14101   2.600   6.953   5.972
 4401SOL    HW114102   2.611   0.001   5.905
 4401SOL    HW214103   2.506   6.952   6.005
 4402SOL     OW14104   1.684   0.811   2.307
 4402SOL    HW114105   1.669   0.764   2.220
 4402SOL    HW214106   1.774   0.854   2.307
 4403SOL     OW14107   1.050   0.904   0.621
 4403SOL    HW114108   0.990   0.874   0.547
 4403SOL    HW214109   1.088   0.824   0.668
 4404SOL     OW14110   1.649   6.105   5.771
 4404SOL    HW114111   1.557   6.089   5.807
 4404SOL    HW214112   1.701   6.019   5.774
 4405SOL     OW14113   1.713   4.138   2.142
 4405SOL    HW114114   1.692   4.169   2.049
 4405SOL    HW214115   1.767   4.207   2.190
 4406SOL     OW14116   0.600   3.057   1.016
 4406SOL    HW114117   0.675   3.122   1.010
 4406SOL    HW214118   0.634   2.965   0.999
 4407SOL     OW14119   6.383   5.652   0.928
 4407SOL    HW114120   6.322   5.674   0.852
 4407SOL    HW214121   6.478   5.654   0.896
 4408SOL     OW14122   2.630   0.445   1.125
 4408SOL    HW114123   2.657   0.349   1.132
 4408SOL    HW214124   2.616   0.483   1.216
 4409SOL     OW14125   4.570   1.466   2.185
 4409SOL    HW114126   4.513   1.510   2.116
 4409SOL    HW214127   4.641   1.530   2.215
 4410SOL     OW14128   1.365   4.738   0.208
 4410SOL    HW114129   1.276   4.696   0.221
 4410SOL    HW214130   1.373   4.819   0.265
 4411SOL     OW14131   3.946   4.165   5.447
 4411SOL    HW114132   4.027   4.166   5.388
 4411SOL    HW214133   3.869   4.126   5.396
 4412SOL     OW14134   4.418   6.369   4.043
 4412SOL    HW114135   4.449   6.409   4.129
 4412SOL    HW214136   4.441   6.272   4.041
 4413SOL     OW14137   5.665   4.648   4.658
 4413SOL    HW114138   5.697   4.553   4.667
 4413SOL    HW214139   5.722   4.707   4.715
 4414SOL     OW14140   3.482   5.624   1.357
 4414SOL    HW114141   3.557   5.645   1.293
 4414SOL    HW214142   3.516   5.562   1.428
 4415SOL     OW14143   4.883   2.705   0.446
 4415SOL    HW114144   4.921   2.766   0.376
 4415SOL    HW214145   4.786   2.727   0.460
 4416SOL     OW14146   3.893   1.740   3.877
 4416SOL    HW114147   3.851   1.809   3.936
 4416SOL    HW214148   3.945   1.786   3.805
 4417SOL     OW14149   5.523   3.968   4.090
 4417SOL    HW114150   5.609   3.924   4.116
 4417SOL    HW214151   5.539   4.028   4.011
 4418SOL     OW14152   6.030   1.798   2.154
 4418SOL    HW114153   6.045   1.870   2.222
 4418SOL    HW214154   5.957   1.827   2.091
 4419SOL     OW14155   5.638   6.662   6.259
 4419SOL    HW114156   5.599   6.571   6.272
 4419SOL    HW214157   5.734   6.654   6.231
 4420SOL     OW14158   4.630   1.213   1.901
 4420SOL    HW114159   4.671   1.130   1.862
 4420SOL    HW214160   4.602   1.195   1.995
 4421SOL     OW14161   1.652   1.666   4.622
 4421SOL    HW114162   1.601   1.746   4.591
 4421SOL    HW214163   1.608   1.629   4.704
 4422SOL     OW14164   1.356   4.036   7.008
 4422SOL    HW114165   1.438   3.985   0.006
 4422SOL    HW214166   1.324   4.005   6.918
 4423SOL     OW14167   0.275   3.497   5.282
 4423SOL    HW114168   0.185   3.486   5.325
 4423SOL    HW214169   0.286   3.591   5.251
 4424SOL     OW14170   5.486   0.922   4.554
 4424SOL    HW114171   5.436   0.908   4.640
 4424SOL    HW214172   5.560   0.855   4.548
 4425SOL     OW14173   2.663   4.351   0.372
 4425SOL    HW114174   2.711   4.436   0.393
 4425SOL    HW214175   2.723   4.291   0.319
 4426SOL     OW14176   0.774   1.163   4.101
 4426SOL    HW114177   0.725   1.143   4.016
 4426SOL    HW214178   0.861   1.114   4.101
 4427SOL     OW14179   6.736   6.153   2.055
 4427SOL    HW114180   6.650   6.109   2.031
 4427SOL    HW214181   6.796   6.087   2.101
 4428SOL     OW14182   3.767   1.012   3.687
 4428SOL    HW114183   3.848   0.956   3.701
 4428SOL    HW214184   3.794   1.108   3.677
 4429SOL     OW14185   2.901   0.023   2.206
 4429SOL    HW114186   2.849   7.011   2.130
 4429SOL    HW214187   2.865   0.114   2.228
 4430SOL     OW14188   4.770   4.773   5.334
 4430SOL    HW114189   4.822   4.800   5.415
 4430SOL    HW214190   4.782   4.675   5.318
 4431SOL     OW14191   2.985   1.241   2.531
 4431SOL    HW114192   2.960   1.250   2.627
 4431SOL    HW214193   3.000   1.145   2.509
 4432SOL     OW14194   2.876   3.401   5.893
 4432SOL    HW114195   2.869   3.472   5.822
 4432SOL    HW214196   2.786   3.386   5.934
 4433SOL     OW14197   5.584   1.566   4.311
 4433SOL    HW114198   5.580   1.490   4.377
 4433SOL    HW214199   5.515   1.553   4.241
 4434SOL     OW14200   5.422   1.338   2.907
 4434SOL    HW114201   5.409   1.314   3.003
 4434SOL    HW214202   5.377   1.426   2.888
 4435SOL     OW14203   4.840   3.752   1.183
 4435SOL    HW114204   4.790   3.680   1.231
 4435SOL    HW214205   4.900   3.710   1.115
 4436SOL     OW14206   4.325   0.738   1.244
 4436SOL    HW114207   4.347   0.654   1.193
 4436SOL    HW214208   4.227   0.741   1.261
 4437SOL     OW14209   0.654   2.893   2.757
 4437SOL    HW114210   0.670   2.796   2.740
 4437SOL    HW214211   0.733   2.946   2.727
 4438SOL     OW14212   4.911   0.272   6.501
 4438SOL    HW114213   4.926   0.284   6.403
 4438SOL    HW214214   4.847   0.342   6.534
 4439SOL     OW14215   0.053   3.947   2.014
 4439SOL    HW114216   0.095   3.958   2.104
 4439SOL    HW214217   0.013   4.034   1.985
 4440SOL     OW14218   2.707   4.551   0.805
 4440SOL    HW114219   2.713   4.626   0.740
 4440SOL    HW214220   2.629   4.566   0.866
 4441SOL     OW14221   0.451   1.690   2.039
 4441SOL    HW114222   0.378   1.736   1.988
 4441SOL    HW214223   0.460   1.732   2.129
 4442SOL     OW14224   2.108   4.825   4.086
 4442SOL    HW114225   2.105   4.908   4.030
 4442SOL    HW214226   2.024   4.817   4.138
 4443SOL     OW14227   1.280   3.424   6.049
 4443SOL    HW114228   1.224   3.489   5.998
 4443SOL    HW214229   1.270   3.333   6.008
 4444SOL     OW14230   3.310   4.443   5.661
 4444SOL    HW114231   3.282   4.539   5.666
 4444SOL    HW214232   3.410   4.437   5.665
 4445SOL     OW14233   1.794   6.493   6.522
 4445SOL    HW114234   1.775   6.442   6.606
 4445SOL    HW214235   1.723   6.563   6.509
 4446SOL     OW14236   5.117   1.576   1.447
 4446SOL    HW114237   5.202   1.622   1.469
 4446SOL    HW214238   5.137   1.491   1.399
 4447SOL     OW14239   4.968   4.837   6.263
 4447SOL    HW114240   4.887   4.821   6.206
 4447SOL    HW214241   5.050   4.838   6.206
 4448SOL     OW14242   2.398   4.377   1.430
 4448SOL    HW114243   2.427   4.400   1.523
 4448SOL    HW214244   2.301   4.351   1.430
 4449SOL     OW14245   5.063   1.155   6.291
 4449SOL    HW114246   5.139   1.201   6.337
 4449SOL    HW214247   5.094   1.117   6.204
 4450SOL     OW14248   3.748   2.640   5.818
 4450SOL    HW114249   3.683   2.626   5.744
 4450SOL    HW214250   3.829   2.584   5.802
 4451SOL     OW14251   5.363   4.477   3.715
 4451SOL    HW114252   5.282   4.526   3.685
 4451SOL    HW214253   5.425   4.464   3.637
 4452SOL     OW14254   5.679   5.778   4.502
 4452SOL    HW114255   5.692   5.839   4.423
 4452SOL    HW214256   5.582   5.767   4.520
 4453SOL     OW14257   1.284   2.788   1.278
 4453SOL    HW114258   1.284   2.887   1.292
 4453SOL    HW214259   1.280   2.768   1.180
 4454SOL     OW14260   1.308   1.952   6.962
 4454SOL    HW114261   1.270   1.939   6.870
 4454SOL    HW214262   1.238   1.989   7.022
 4455SOL     OW14263   5.120   6.052   5.658
 4455SOL    HW114264   5.109   5.976   5.722
 4455SOL    HW214265   5.031   6.081   5.625
 4456SOL     OW14266   2.659   6.354   2.808
 4456SOL    HW114267   2.584   6.364   2.743
 4456SOL    HW214268   2.623   6.327   2.898
 4457SOL     OW14269   3.727   1.518   2.842
 4457SOL    HW114270   3.697   1.424   2.832
 4457SOL    HW214271   3.717   1.547   2.937
 4458SOL     OW14272   1.686   2.652   0.325
 4458SOL    HW114273   1.720   2.746   0.317
 4458SOL    HW214274   1.710   2.601   0.243
 4459SOL     OW14275   4.104   2.272   4.175
 4459SOL    HW114276   4.004   2.265   4.167
 4459SOL    HW214277   4.130   2.264   4.271
 4460SOL     OW14278   1.499   2.947   6.676
 4460SOL    HW114279   1.568   2.874   6.673
 4460SOL    HW214280   1.412   2.911   6.643
 4461SOL     OW14281   1.936   0.735   0.992
 4461SOL    HW114282   1.964   0.706   1.083
 4461SOL    HW214283   1.932   0.835   0.989
 4462SOL     OW14284   6.314   4.582   1.980
 4462SOL    HW114285   6.231   4.581   2.036
 4462SOL    HW214286   6.324   4.494   1.934
 4463SOL     OW14287   4.599   1.121   0.447
 4463SOL    HW114288   4.503   1.118   0.477
 4463SOL    HW214289   4.658   1.096   0.524
 4464SOL     OW14290   0.096   5.750   0.584
 4464SOL    HW114291   0.016   5.736   0.526
 4464SOL    HW214292   0.102   5.847   0.610
 4465SOL     OW14293   3.839   4.895   1.015
 4465SOL    HW114294   3.838   4.988   0.979
 4465SOL    HW214295   3.748   4.855   1.007
 4466SOL     OW14296   1.200   1.586   2.985
 4466SOL    HW114297   1.278   1.528   2.958
 4466SOL    HW214298   1.187   1.657   2.916
 4467SOL     OW14299   1.531   5.759   2.643
 4467SOL    HW114300   1.562   5.847   2.680
 4467SOL    HW214301   1.589   5.734   2.565
 4468SOL     OW14302   1.801   3.981   0.514
 4468SOL    HW114303   1.835   3.911   0.452
 4468SOL    HW214304   1.858   3.982   0.597
 4469SOL     OW14305   3.063   0.728   1.901
 4469SOL    HW114306   3.062   0.636   1.940
 4469SOL    HW214307   3.155   0.767   1.910
 4470SOL     OW14308   0.356   1.948   2.188
 4470SOL    HW114309   0.343   1.969   2.285
 4470SOL    HW214310   0.452   1.961   2.164
 4471SOL     OW14311   1.142   2.407   6.552
 4471SOL    HW114312   1.155   2.442   6.459
 4471SOL    HW214313   1.229   2.375   6.589
 4472SOL     OW14314   0.978   3.363   1.854
 4472SOL    HW114315   1.072   3.369   1.818
 4472SOL    HW214316   0.929   3.290   1.805
 4473SOL     OW14317   5.779   3.094   4.067
 4473SOL    HW114318   5.864   3.043   4.079
 4473SOL    HW214319   5.708   3.032   4.034
 4474SOL     OW14320   2.390   0.237   2.285
 4474SOL    HW114321   2.354   0.265   2.374
 4474SOL    HW214322   2.449   0.309   2.249
 4475SOL     OW14323   1.044   4.347   2.003
 4475SOL    HW114324   1.099   4.263   2.002
 4475SOL    HW214325   1.103   4.425   2.024
 4476SOL     OW14326   5.838   0.810   3.275
 4476SOL    HW114327   5.830   0.735   3.340
 4476SOL    HW214328   5.764   0.805   3.209
 4477SOL     OW14329   1.646   0.285   5.326
 4477SOL    HW114330   1.598   0.358   5.376
 4477SOL    HW214331   1.720   0.326   5.273
 4478SOL     OW14332   3.221   0.245   2.040
 4478SOL    HW114333   3.241   0.150   2.062
 4478SOL    HW214334   3.191   0.293   2.122
 4479SOL     OW14335   0.582   2.388   0.783
 4479SOL    HW114336   0.542   2.373   0.873
 4479SOL    HW214337   0.519   2.356   0.712
 4480SOL     OW14338   0.406   4.541   5.114
 4480SOL    HW114339   0.363   4.475   5.176
 4480SOL    HW214340   0.395   4.511   5.020
 4481SOL     OW14341   3.265   5.624   4.393
 4481SOL    HW114342   3.190   5.668   4.343
 4481SOL    HW214343   3.351   5.644   4.347
 4482SOL     OW14344   1.983   3.220   5.348
 4482SOL    HW114345   1.994   3.275   5.265
 4482SOL    HW214346   1.896   3.171   5.344
 4483SOL     OW14347   6.347   2.495   2.328
 4483SOL    HW114348   6.291   2.431   2.275
 4483SOL    HW214349   6.360   2.579   2.275
 4484SOL     OW14350   3.245   2.196   6.880
 4484SOL    HW114351   3.149   2.224   6.882
 4484SOL    HW214352   3.287   2.227   6.795
 4485SOL     OW14353   5.676   2.478   4.336
 4485SOL    HW114354   5.765   2.442   4.308
 4485SOL    HW214355   5.657   2.449   4.430
 4486SOL     OW14356   6.520   5.578   5.397
 4486SOL    HW114357   6.477   5.489   5.386
 4486SOL    HW214358   6.619   5.567   5.405
 4487SOL     OW14359   2.874   2.888   6.278
 4487SOL    HW114360   2.816   2.823   6.229
 4487SOL    HW214361   2.825   2.922   6.359
 4488SOL     OW14362   0.402   3.646   5.950
 4488SOL    HW114363   0.438   3.598   5.871
 4488SOL    HW214364   0.476   3.695   5.996
 4489SOL     OW14365   5.197   5.525   5.063
 4489SOL    HW114366   5.194   5.522   4.963
 4489SOL    HW214367   5.146   5.605   5.095
 4490SOL     OW14368   5.684   2.002   2.197
 4490SOL    HW114369   5.720   2.063   2.268
 4490SOL    HW214370   5.602   1.956   2.231
 4491SOL     OW14371   0.217   3.447   3.675
 4491SOL    HW114372   0.220   3.359   3.723
 4491SOL    HW214373   0.125   3.461   3.639
 4492SOL     OW14374   5.754   4.505   2.491
 4492SOL    HW114375   5.681   4.458   2.542
 4492SOL    HW214376   5.776   4.453   2.408
 4493SOL     OW14377   5.108   5.495   4.800
 4493SOL    HW114378   5.023   5.547   4.794
 4493SOL    HW214379   5.090   5.399   4.779
 4494SOL     OW14380   0.637   0.948   6.867
 4494SOL    HW114381   0.659   1.042   6.839
 4494SOL    HW214382   0.615   0.893   6.786
 4495SOL     OW14383   4.008   0.214   3.748
 4495SOL    HW114384   4.053   0.201   3.836
 4495SOL    HW214385   3.920   0.166   3.748
 4496SOL     OW14386   5.532   6.633   1.235
 4496SOL    HW114387   5.568   6.669   1.322
 4496SOL    HW214388   5.446   6.586   1.252
 4497SOL     OW14389   4.541   2.363   6.441
 4497SOL    HW114390   4.542   2.404   6.350
 4497SOL    HW214391   4.588   2.422   6.506
 4498SOL     OW14392   6.864   3.655   0.287
 4498SOL    HW114393   6.878   3.669   0.189
 4498SOL    HW214394   6.849   3.558   0.306
 4499SOL     OW14395   5.953   3.523   4.194
 4499SOL    HW114396   5.894   3.571   4.259
 4499SOL    HW214397   5.960   3.577   4.109
 4500SOL     OW14398   3.452   3.389   4.727
 4500SOL    HW114399   3.475   3.317   4.793
 4500SOL    HW214400   3.488   3.476   4.761
 4501SOL     OW14401   6.923   3.634   2.955
 4501SOL    HW114402   6.874   3.721   2.957
 4501SOL    HW214403   7.019   3.651   2.931
 4502SOL     OW14404   0.470   2.740   7.008
 4502SOL    HW114405   0.427   2.719   0.070
 4502SOL    HW214406   0.550   2.681   6.995
 4503SOL     OW14407   3.539   6.834   1.781
 4503SOL    HW114408   3.475   6.911   1.780
 4503SOL    HW214409   3.488   6.749   1.797
 4504SOL     OW14410   0.288   0.889   4.733
 4504SOL    HW114411   0.235   0.947   4.673
 4504SOL    HW214412   0.266   0.793   4.716
 4505SOL     OW14413   6.200   5.153   2.324
 4505SOL    HW114414   6.277   5.170   2.385
 4505SOL    HW214415   6.232   5.151   2.229
 4506SOL     OW14416   4.776   2.951   3.462
 4506SOL    HW114417   4.781   2.904   3.374
 4506SOL    HW214418   4.694   3.009   3.463
 4507SOL     OW14419   6.270   4.367   3.804
 4507SOL    HW114420   6.297   4.374   3.708
 4507SOL    HW214421   6.239   4.457   3.836
 4508SOL     OW14422   1.280   5.115   6.914
 4508SOL    HW114423   1.370   5.149   6.888
 4508SOL    HW214424   1.231   5.085   6.832
 4509SOL     OW14425   4.923   2.064   3.037
 4509SOL    HW114426   4.957   2.153   3.005
 4509SOL    HW214427   4.835   2.077   3.082
 4510SOL     OW14428   4.355   2.205   4.106
 4510SOL    HW114429   4.375   2.291   4.059
 4510SOL    HW214430   4.270   2.213   4.157
 4511SOL     OW14431   5.897   3.794   6.276
 4511SOL    HW114432   5.842   3.876   6.261
 4511SOL    HW214433   5.850   3.734   6.341
 4512SOL     OW14434   2.482   1.075   6.056
 4512SOL    HW114435   2.474   1.019   5.973
 4512SOL    HW214436   2.542   1.153   6.037
 4513SOL     OW14437   0.382   4.908   6.281
 4513SOL    HW114438   0.330   4.824   6.263
 4513SOL    HW214439   0.412   4.909   6.377
 4514SOL     OW14440   3.174   2.208   6.177
 4514SOL    HW114441   3.192   2.166   6.088
 4514SOL    HW214442   3.181   2.307   6.169
 4515SOL     OW14443   5.944   1.798   5.432
 4515SOL    HW114444   5.963   1.890   5.468
 4515SOL    HW214445   5.942   1.732   5.507
 4516SOL     OW14446   2.663   0.027   6.964
 4516SOL    HW114447   2.643   6.959   6.990
 4516SOL    HW214448   2.638   0.042   6.869
 4517SOL     OW14449   4.923   6.629   6.760
 4517SOL    HW114450   4.916   6.718   6.715
 4517SOL    HW214451   4.900   6.639   6.857
 4518SOL     OW14452   6.808   0.298   2.475
 4518SOL    HW114453   6.811   0.384   2.425
 4518SOL    HW214454   6.758   0.230   2.420
 4519SOL     OW14455   5.946   0.072   1.142
 4519SOL    HW114456   5.856   0.105   1.172
 4519SOL    HW214457   5.976   0.126   1.063
 4520SOL     OW14458   3.948   6.411   6.050
 4520SOL    HW114459   3.985   6.318   6.062
 4520SOL    HW214460   3.980   6.449   5.964
 4521SOL     OW14461   5.931   2.063   5.468
 4521SOL    HW114462   5.838   2.061   5.503
 4521SOL    HW214463   5.983   2.134   5.515
 4522SOL     OW14464   5.596   5.260   3.604
 4522SOL    HW114465   5.528   5.331   3.584
 4522SOL    HW214466   5.550   5.173   3.622
 4523SOL     OW14467   1.119   4.342   0.251
 4523SOL    HW114468   1.148   4.271   0.186
 4523SOL    HW214469   1.169   4.331   0.337
 4524SOL     OW14470   6.440   3.046   2.198
 4524SOL    HW114471   6.451   3.050   2.099
 4524SOL    HW214472   6.356   3.093   2.224
 4525SOL     OW14473   4.747   2.408   5.560
 4525SOL    HW114474   4.732   2.456   5.646
 4525SOL    HW214475   4.776   2.473   5.490
 4526SOL     OW14476   6.801   0.423   6.235
 4526SOL    HW114477   6.777   0.326   6.228
 4526SOL    HW214478   6.887   0.440   6.186
 4527SOL     OW14479   6.851   1.060   2.850
 4527SOL    HW114480   6.921   1.111   2.899
 4527SOL    HW214481   6.894   1.003   2.780
 4528SOL     OW14482   4.755   0.331   6.896
 4528SOL    HW114483   4.820   0.258   6.914
 4528SOL    HW214484   4.801   0.419   6.902
 4529SOL     OW14485   2.025   0.702   4.977
 4529SOL    HW114486   1.954   0.720   4.909
 4529SOL    HW214487   1.990   0.639   5.046
 4530SOL     OW14488   2.367   5.330   4.145
 4530SOL    HW114489   2.350   5.242   4.189
 4530SOL    HW214490   2.465   5.345   4.136
 4531SOL     OW14491   0.705   3.106   5.524
 4531SOL    HW114492   0.765   3.027   5.510
 4531SOL    HW214493   0.610   3.077   5.522
 4532SOL     OW14494   6.499   1.498   2.261
 4532SOL    HW114495   6.527   1.565   2.330
 4532SOL    HW214496   6.533   1.526   2.172
 4533SOL     OW14497   1.804   0.916   2.705
 4533SOL    HW114498   1.748   0.988   2.746
 4533SOL    HW214499   1.751   0.831   2.699
 4534SOL     OW14500   5.658   4.496   5.291
 4534SOL    HW114501   5.618   4.573   5.242
 4534SOL    HW214502   5.633   4.502   5.388
 4535SOL     OW14503   3.285   0.633   2.101
 4535SOL    HW114504   3.256   0.728   2.110
 4535SOL    HW214505   3.317   0.599   2.189
 4536SOL     OW14506   4.277   1.658   4.637
 4536SOL    HW114507   4.362   1.609   4.653
 4536SOL    HW214508   4.265   1.675   4.539
 4537SOL     OW14509   4.118   3.741   1.037
 4537SOL    HW114510   4.096   3.761   1.132
 4537SOL    HW214511   4.039   3.697   0.994
 4538SOL     OW14512   2.198   0.570   2.489
 4538SOL    HW114513   2.120   0.627   2.513
 4538SOL    HW214514   2.251   0.615   2.417
 4539SOL     OW14515   3.415   6.338   4.852
 4539SOL    HW114516   3.511   6.355   4.874
 4539SOL    HW214517   3.368   6.426   4.840
 4540SOL     OW14518   2.321   2.453   0.007
 4540SOL    HW114519   2.322   2.353   0.000
 4540SOL    HW214520   2.386   2.491   6.967
 4541SOL     OW14521   5.571   1.875   6.405
 4541SOL    HW114522   5.541   1.902   6.313
 4541SOL    HW214523   5.576   1.775   6.410
 4542SOL     OW14524   0.547   2.339   1.310
 4542SOL    HW114525   0.570   2.245   1.334
 4542SOL    HW214526   0.538   2.394   1.393
 4543SOL     OW14527   5.059   2.438   1.073
 4543SOL    HW114528   5.117   2.357   1.081
 4543SOL    HW214529   4.971   2.420   1.118
 4544SOL     OW14530   3.198   5.677   6.650
 4544SOL    HW114531   3.282   5.640   6.690
 4544SOL    HW214532   3.195   5.776   6.664
 4545SOL     OW14533   6.177   3.179   4.262
 4545SOL    HW114534   6.151   3.270   4.296
 4545SOL    HW214535   6.268   3.184   4.222
 4546SOL     OW14536   2.377   0.534   4.259
 4546SOL    HW114537   2.424   0.504   4.175
 4546SOL    HW214538   2.394   0.631   4.274
 4547SOL     OW14539   6.403   1.923   0.598
 4547SOL    HW114540   6.439   1.929   0.505
 4547SOL    HW214541   6.319   1.868   0.598
 4548SOL     OW14542   1.927   2.282   3.323
 4548SOL    HW114543   1.885   2.223   3.254
 4548SOL    HW214544   1.987   2.348   3.278
 4549SOL     OW14545   5.311   4.114   2.656
 4549SOL    HW114546   5.265   4.090   2.570
 4549SOL    HW214547   5.277   4.202   2.689
 4550SOL     OW14548   1.341   4.939   3.163
 4550SOL    HW114549   1.426   4.915   3.117
 4550SOL    HW214550   1.360   4.963   3.258
 4551SOL     OW14551   0.622   3.356   4.549
 4551SOL    HW114552   0.655   3.300   4.473
 4551SOL    HW214553   0.691   3.358   4.622
 4552SOL     OW14554   5.280   1.953   1.179
 4552SOL    HW114555   5.276   2.036   1.122
 4552SOL    HW214556   5.333   1.971   1.261
 4553SOL     OW14557   4.797   4.149   0.413
 4553SOL    HW114558   4.809   4.059   0.454
 4553SOL    HW214559   4.700   4.171   0.409
 4554SOL     OW14560   6.828   0.042   2.623
 4554SOL    HW114561   6.740   7.024   2.610
 4554SOL    HW214562   6.822   0.137   2.593
 4555SOL     OW14563   1.851   1.815   5.679
 4555SOL    HW114564   1.894   1.880   5.742
 4555SOL    HW214565   1.906   1.808   5.596
 4556SOL     OW14566   5.384   3.929   4.979
 4556SOL    HW114567   5.385   3.862   5.053
 4556SOL    HW214568   5.387   4.021   5.017
 4557SOL     OW14569   4.460   5.605   4.388
 4557SOL    HW114570   4.431   5.701   4.389
 4557SOL    HW214571   4.548   5.597   4.435
 4558SOL     OW14572   0.172   4.455   4.677
 4558SOL    HW114573   0.235   4.516   4.628
 4558SOL    HW214574   0.202   4.448   4.773
 4559SOL     OW14575   0.185   3.516   2.457
 4559SOL    HW114576   0.165   3.418   2.456
 4559SOL    HW214577   0.108   3.567   2.418
 4560SOL     OW14578   5.707   3.387   1.039
 4560SOL    HW114579   5.639   3.429   1.099
 4560SOL    HW214580   5.661   3.337   0.966
 4561SOL     OW14581   3.279   2.134   3.375
 4561SOL    HW114582   3.240   2.152   3.285
 4561SOL    HW214583   3.217   2.165   3.446
 4562SOL     OW14584   1.853   6.965   6.827
 4562SOL    HW114585   1.833   6.873   6.860
 4562SOL    HW214586   1.909   6.959   6.744
 4563SOL     OW14587   0.127   2.742   1.439
 4563SOL    HW114588   0.121   2.823   1.497
 4563SOL    HW214589   0.211   2.746   1.385
 4564SOL     OW14590   0.123   6.328   1.990
 4564SOL    HW114591   0.164   6.416   1.969
 4564SOL    HW214592   0.122   6.314   2.090
 4565SOL     OW14593   1.511   0.586   4.359
 4565SOL    HW114594   1.515   0.494   4.399
 4565SOL    HW214595   1.539   0.581   4.263
 4566SOL     OW14596   0.466   3.164   0.779
 4566SOL    HW114597   0.523   3.154   0.861
 4566SOL    HW214598   0.451   3.073   0.739
 4567SOL     OW14599   6.622   1.259   6.619
 4567SOL    HW114600   6.548   1.324   6.631
 4567SOL    HW214601   6.610   1.182   6.683
 4568SOL     OW14602   2.028   3.819   5.678
 4568SOL    HW114603   2.017   3.813   5.579
 4568SOL    HW214604   2.117   3.859   5.699
 4569SOL     OW14605   2.602   0.722   3.230
 4569SOL    HW114606   2.644   0.708   3.320
 4569SOL    HW214607   2.674   0.735   3.162
 4570SOL     OW14608   6.989   6.432   2.232
 4570SOL    HW114609   6.933   6.509   2.200
 4570SOL    HW214610   0.031   6.465   2.297
 4571SOL     OW14611   4.304   3.745   6.247
 4571SOL    HW114612   4.329   3.779   6.338
 4571SOL    HW214613   4.381   3.757   6.185
 4572SOL     OW14614   1.687   0.760   6.458
 4572SOL    HW114615   1.749   0.834   6.486
 4572SOL    HW214616   1.730   0.705   6.387
 4573SOL     OW14617   6.798   0.220   0.746
 4573SOL    HW114618   6.841   0.214   0.837
 4573SOL    HW214619   6.699   0.217   0.756
 4574SOL     OW14620   5.769   4.225   0.642
 4574SOL    HW114621   5.815   4.300   0.595
 4574SOL    HW214622   5.837   4.158   0.673
 4575SOL     OW14623   5.845   0.333   5.685
 4575SOL    HW114624   5.935   0.365   5.657
 4575SOL    HW214625   5.789   0.412   5.713
 4576SOL     OW14626   3.585   5.672   5.606
 4576SOL    HW114627   3.530   5.670   5.523
 4576SOL    HW214628   3.611   5.578   5.630
 4577SOL     OW14629   1.096   2.333   4.058
 4577SOL    HW114630   1.076   2.338   4.156
 4577SOL    HW214631   1.026   2.278   4.012
 4578SOL     OW14632   0.748   2.326   5.360
 4578SOL    HW114633   0.680   2.254   5.375
 4578SOL    HW214634   0.751   2.349   5.263
 4579SOL     OW14635   4.217   0.318   3.104
 4579SOL    HW114636   4.305   0.336   3.147
 4579SOL    HW214637   4.145   0.319   3.174
 4580SOL     OW14638   5.484   3.892   0.870
 4580SOL    HW114639   5.425   3.912   0.791
 4580SOL    HW214640   5.570   3.943   0.860
 4581SOL     OW14641   1.711   6.085   2.230
 4581SOL    HW114642   1.793   6.073   2.287
 4581SOL    HW214643   1.652   6.155   2.271
 4582SOL     OW14644   4.288   0.678   4.773
 4582SOL    HW114645   4.292   0.598   4.713
 4582SOL    HW214646   4.214   0.665   4.840
 4583SOL     OW14647   3.043   1.935   6.963
 4583SOL    HW114648   3.100   1.924   0.018
 4583SOL    HW214649   2.956   1.887   6.976
 4584SOL     OW14650   1.631   4.980   5.287
 4584SOL    HW114651   1.541   5.013   5.317
 4584SOL    HW214652   1.663   4.908   5.348
 4585SOL     OW14653   1.545   5.619   2.993
 4585SOL    HW114654   1.516   5.530   2.958
 4585SOL    HW214655   1.465   5.681   2.996
 4586SOL     OW14656   3.949   4.612   1.131
 4586SOL    HW114657   3.910   4.696   1.092
 4586SOL    HW214658   3.927   4.534   1.071
 4587SOL     OW14659   3.263   3.995   3.489
 4587SOL    HW114660   3.260   4.060   3.564
 4587SOL    HW214661   3.230   3.906   3.521
 4588SOL     OW14662   2.601   3.528   5.337
 4588SOL    HW114663   2.506   3.521   5.307
 4588SOL    HW214664   2.605   3.523   5.437
 4589SOL     OW14665   6.117   0.880   1.723
 4589SOL    HW114666   6.063   0.961   1.746
 4589SOL    HW214667   6.061   0.817   1.669
 4590SOL     OW14668   4.454   5.661   1.435
 4590SOL    HW114669   4.469   5.712   1.519
 4590SOL    HW214670   4.534   5.605   1.414
 4591SOL     OW14671   1.833   0.673   4.728
 4591SOL    HW114672   1.735   0.690   4.723
 4591SOL    HW214673   1.858   0.601   4.664
 4592SOL     OW14674   2.974   1.486   3.313
 4592SOL    HW114675   3.042   1.436   3.260
 4592SOL    HW214676   2.984   1.464   3.410
 4593SOL     OW14677   4.874   6.329   2.369
 4593SOL    HW114678   4.799   6.263   2.356
 4593SOL    HW214679   4.958   6.291   2.330
 4594SOL     OW14680   2.810   1.172   3.113
 4594SOL    HW114681   2.904   1.190   3.141
 4594SOL    HW214682   2.757   1.257   3.118
 4595SOL     OW14683   5.038   3.146   5.761
 4595SOL    HW114684   4.992   3.167   5.848
 4595SOL    HW214685   5.030   3.225   5.700
 4596SOL     OW14686   6.590   1.074   2.843
 4596SOL    HW114687   6.686   1.058   2.867
 4596SOL    HW214688   6.575   1.045   2.749
 4597SOL     OW14689   3.433   5.650   6.835
 4597SOL    HW114690   3.488   5.585   6.887
 4597SOL    HW214691   3.476   5.740   6.836
 4598SOL     OW14692   1.257   5.746   1.031
 4598SOL    HW114693   1.267   5.808   0.954
 4598SOL    HW214694   1.169   5.699   1.025
 4599SOL     OW14695   1.617   4.971   0.485
 4599SOL    HW114696   1.532   5.025   0.487
 4599SOL    HW214697   1.681   5.007   0.551
 4600SOL     OW14698   0.514   5.976   5.206
 4600SOL    HW114699   0.476   5.940   5.291
 4600SOL    HW214700   0.547   6.069   5.222
 4601SOL     OW14701   1.446   1.411   5.138
 4601SOL    HW114702   1.528   1.468   5.144
 4601SOL    HW214703   1.373   1.452   5.192
 4602SOL     OW14704   3.381   6.636   0.131
 4602SOL    HW114705   3.475   6.605   0.143
 4602SOL    HW214706   3.362   6.647   0.033
 4603SOL     OW14707   3.888   5.983   1.185
 4603SOL    HW114708   3.817   6.027   1.240
 4603SOL    HW214709   3.976   5.993   1.232
 4604SOL     OW14710   4.486   0.466   0.054
 4604SOL    HW114711   4.412   0.493   7.018
 4604SOL    HW214712   4.528   0.382   0.021
 4605SOL     OW14713   1.226   5.721   2.477
 4605SOL    HW114714   1.229   5.637   2.423
 4605SOL    HW214715   1.269   5.704   2.566
 4606SOL     OW14716   0.392   6.618   2.200
 4606SOL    HW114717   0.327   6.692   2.184
 4606SOL    HW214718   0.343   6.538   2.234
 4607SOL     OW14719   2.243   3.070   3.131
 4607SOL    HW114720   2.205   3.057   3.223
 4607SOL    HW214721   2.290   2.986   3.102
 4608SOL     OW14722   0.294   5.407   3.775
 4608SOL    HW114723   0.288   5.484   3.712
 4608SOL    HW214724   0.345   5.333   3.732
 4609SOL     OW14725   5.059   5.138   7.009
 4609SOL    HW114726   5.116   5.067   6.968
 4609SOL    HW214727   4.991   5.096   0.042
 4610SOL     OW14728   5.250   1.397   0.335
 4610SOL    HW114729   5.243   1.496   0.327
 4610SOL    HW214730   5.276   1.358   0.246
 4611SOL     OW14731   0.743   6.693   6.207
 4611SOL    HW114732   0.667   6.630   6.190
 4611SOL    HW214733   0.828   6.654   6.172
 4612SOL     OW14734   1.912   6.355   0.741
 4612SOL    HW114735   1.913   6.438   0.797
 4612SOL    HW214736   1.985   6.360   0.673
 4613SOL     OW14737   1.252   5.515   2.297
 4613SOL    HW114738   1.156   5.525   2.271
 4613SOL    HW214739   1.309   5.521   2.215
 4614SOL     OW14740   5.642   3.488   3.478
 4614SOL    HW114741   5.694   3.541   3.411
 4614SOL    HW214742   5.628   3.395   3.444
 4615SOL     OW14743   1.438   1.376   0.246
 4615SOL    HW114744   1.392   1.385   0.334
 4615SOL    HW214745   1.524   1.427   0.248
 4616SOL     OW14746   6.880   1.130   4.513
 4616SOL    HW114747   6.804   1.089   4.562
 4616SOL    HW214748   6.872   1.230   4.517
 4617SOL     OW14749   0.948   1.841   2.962
 4617SOL    HW114750   1.004   1.916   2.996
 4617SOL    HW214751   0.986   1.808   2.875
 4618SOL     OW14752   2.516   3.058   5.437
 4618SOL    HW114753   2.525   2.981   5.499
 4618SOL    HW214754   2.527   3.027   5.343
 4619SOL     OW14755   2.999   6.099   3.636
 4619SOL    HW114756   3.057   6.017   3.638
 4619SOL    HW214757   3.000   6.144   3.725
 4620SOL     OW14758   1.181   5.279   0.715
 4620SOL    HW114759   1.271   5.320   0.735
 4620SOL    HW214760   1.132   5.338   0.651
 4621SOL     OW14761   4.614   0.566   2.434
 4621SOL    HW114762   4.549   0.491   2.421
 4621SOL    HW214763   4.584   0.645   2.381
 4622SOL     OW14764   4.067   5.353   0.747
 4622SOL    HW114765   3.971   5.347   0.775
 4622SOL    HW214766   4.074   5.416   0.669
 4623SOL     OW14767   5.087   6.103   1.993
 4623SOL    HW114768   5.156   6.054   1.940
 4623SOL    HW214769   4.996   6.078   1.960
 4624SOL     OW14770   3.225   6.869   2.755
 4624SOL    HW114771   3.259   6.911   2.839
 4624SOL    HW214772   3.126   6.883   2.749
 4625SOL     OW14773   1.947   4.851   1.502
 4625SOL    HW114774   1.913   4.761   1.530
 4625SOL    HW214775   1.883   4.892   1.437
 4626SOL     OW14776   4.647   3.879   1.751
 4626SOL    HW114777   4.642   3.961   1.693
 4626SOL    HW214778   4.622   3.799   1.697
 4627SOL     OW14779   2.082   5.194   4.911
 4627SOL    HW114780   2.073   5.108   4.861
 4627SOL    HW214781   1.993   5.240   4.915
 4628SOL     OW14782   4.633   4.436   4.835
 4628SOL    HW114783   4.725   4.471   4.824
 4628SOL    HW214784   4.572   4.479   4.768
 4629SOL     OW14785   2.825   5.647   5.740
 4629SOL    HW114786   2.828   5.612   5.647
 4629SOL    HW214787   2.899   5.606   5.794
 4630SOL     OW14788   1.927   6.060   2.388
 4630SOL    HW114789   1.990   6.053   2.311
 4630SOL    HW214790   1.939   5.982   2.449
 4631SOL     OW14791   1.008   5.847   3.174
 4631SOL    HW114792   1.019   5.934   3.222
 4631SOL    HW214793   1.010   5.862   3.075
 4632SOL     OW14794   2.285   4.128   2.877
 4632SOL    HW114795   2.287   4.217   2.923
 4632SOL    HW214796   2.287   4.055   2.946
 4633SOL     OW14797   6.053   0.588   4.582
 4633SOL    HW114798   6.111   0.526   4.636
 4633SOL    HW214799   6.093   0.602   4.492
 4634SOL     OW14800   2.917   3.853   4.860
 4634SOL    HW114801   2.983   3.927   4.848
 4634SOL    HW214802   2.872   3.863   4.949
 4635SOL     OW14803   4.558   4.117   1.638
 4635SOL    HW114804   4.612   4.177   1.579
 4635SOL    HW214805   4.521   4.169   1.715
 4636SOL     OW14806   2.238   4.542   0.372
 4636SOL    HW114807   2.219   4.500   0.460
 4636SOL    HW214808   2.313   4.608   0.381
 4637SOL     OW14809   0.651   6.831   1.042
 4637SOL    HW114810   0.616   6.849   0.950
 4637SOL    HW214811   0.645   6.733   1.061
 4638SOL     OW14812   4.068   5.093   0.029
 4638SOL    HW114813   4.003   5.112   6.981
 4638SOL    HW214814   4.017   5.070   0.112
 4639SOL     OW14815   3.495   3.023   6.779
 4639SOL    HW114816   3.476   3.121   6.774
 4639SOL    HW214817   3.585   3.008   6.820
 4640SOL     OW14818   5.091   4.230   4.650
 4640SOL    HW114819   5.092   4.167   4.728
 4640SOL    HW214820   5.185   4.249   4.621
 4641SOL     OW14821   2.700   0.658   4.733
 4641SOL    HW114822   2.771   0.611   4.786
 4641SOL    HW214823   2.691   0.613   4.644
 4642SOL     OW14824   1.111   6.954   3.051
 4642SOL    HW114825   1.208   6.933   3.041
 4642SOL    HW214826   1.082   6.934   3.145
 4643SOL     OW14827   6.663   2.082   0.525
 4643SOL    HW114828   6.622   2.011   0.468
 4643SOL    HW214829   6.617   2.084   0.614
 4644SOL     OW14830   0.592   0.194   5.559
 4644SOL    HW114831   0.610   0.280   5.607
 4644SOL    HW214832   0.679   0.146   5.545
 4645SOL     OW14833   1.272   0.667   4.444
 4645SOL    HW114834   1.224   0.580   4.435
 4645SOL    HW214835   1.365   0.657   4.408
 4646SOL     OW14836   2.565   5.596   3.326
 4646SOL    HW114837   2.491   5.654   3.293
 4646SOL    HW214838   2.579   5.520   3.263
 4647SOL     OW14839   1.647   0.340   2.793
 4647SOL    HW114840   1.648   0.344   2.693
 4647SOL    HW214841   1.650   0.432   2.830
 4648SOL     OW14842   3.580   0.546   2.852
 4648SOL    HW114843   3.513   0.605   2.897
 4648SOL    HW214844   3.546   0.520   2.761
 4649SOL     OW14845   5.792   0.881   0.351
 4649SOL    HW114846   5.835   0.967   0.381
 4649SOL    HW214847   5.858   0.828   0.298
 4650SOL     OW14848   4.928   5.615   2.070
 4650SOL    HW114849   4.981   5.568   2.000
 4650SOL    HW214850   4.887   5.549   2.132
 4651SOL     OW14851   6.407   3.340   6.227
 4651SOL    HW114852   6.351   3.266   6.265
 4651SOL    HW214853   6.350   3.420   6.212
 4652SOL     OW14854   6.319   6.290   4.808
 4652SOL    HW114855   6.357   6.376   4.842
 4652SOL    HW214856   6.263   6.309   4.727
 4653SOL     OW14857   5.765   5.920   1.030
 4653SOL    HW114858   5.680   5.893   0.986
 4653SOL    HW214859   5.843   5.888   0.976
 4654SOL     OW14860   0.940   5.919   6.208
 4654SOL    HW114861   0.917   5.881   6.297
 4654SOL    HW214862   1.039   5.926   6.199
 4655SOL     OW14863   6.063   3.530   0.805
 4655SOL    HW114864   6.037   3.552   0.899
 4655SOL    HW214865   5.981   3.514   0.751
 4656SOL     OW14866   1.373   0.930   1.563
 4656SOL    HW114867   1.385   1.026   1.538
 4656SOL    HW214868   1.425   0.872   1.500
 4657SOL     OW14869   4.533   5.847   1.636
 4657SOL    HW114870   4.464   5.889   1.693
 4657SOL    HW214871   4.574   5.916   1.576
 4658SOL     OW14872   3.031   0.217   4.606
 4658SOL    HW114873   2.934   0.223   4.585
 4658SOL    HW214874   3.043   0.187   4.701
 4659SOL     OW14875   2.727   4.674   6.243
 4659SOL    HW114876   2.822   4.695   6.217
 4659SOL    HW214877   2.726   4.592   6.299
 4660SOL     OW14878   1.076   5.998   4.662
 4660SOL    HW114879   1.085   5.967   4.567
 4660SOL    HW214880   1.156   6.053   4.685
 4661SOL     OW14881   3.275   4.869   6.480
 4661SOL    HW114882   3.196   4.870   6.419
 4661SOL    HW214883   3.244   4.870   6.575
 4662SOL     OW14884   2.595   0.146   5.825
 4662SOL    HW114885   2.561   0.191   5.743
 4662SOL    HW214886   2.691   0.171   5.840
 4663SOL     OW14887   0.538   0.854   1.548
 4663SOL    HW114888   0.502   0.947   1.547
 4663SOL    HW214889   0.467   0.790   1.518
 4664SOL     OW14890   1.387   0.974   0.360
 4664SOL    HW114891   1.399   0.904   0.431
 4664SOL    HW214892   1.290   0.983   0.338
 4665SOL     OW14893   3.583   6.900   6.144
 4665SOL    HW114894   3.578   6.972   6.076
 4665SOL    HW214895   3.491   6.870   6.168
 4666SOL     OW14896   2.352   2.779   7.001
 4666SOL    HW114897   2.290   2.853   6.978
 4666SOL    HW214898   2.369   2.723   6.919
 4667SOL     OW14899   6.602   3.697   1.882
 4667SOL    HW114900   6.686   3.657   1.919
 4667SOL    HW214901   6.532   3.699   1.954
 4668SOL     OW14902   5.195   1.414   3.859
 4668SOL    HW114903   5.199   1.351   3.936
 4668SOL    HW214904   5.101   1.444   3.845
 4669SOL     OW14905   4.540   6.145   0.493
 4669SOL    HW114906   4.556   6.211   0.566
 4669SOL    HW214907   4.616   6.146   0.429
 4670SOL     OW14908   1.411   2.566   6.286
 4670SOL    HW114909   1.312   2.566   6.297
 4670SOL    HW214910   1.450   2.485   6.331
 4671SOL     OW14911   1.099   3.176   6.338
 4671SOL    HW114912   1.019   3.200   6.283
 4671SOL    HW214913   1.134   3.257   6.384
 4672SOL     OW14914   2.649   4.924   6.084
 4672SOL    HW114915   2.645   4.843   6.142
 4672SOL    HW214916   2.556   4.953   6.059
 4673SOL     OW14917   5.181   6.995   1.515
 4673SOL    HW114918   5.203   0.060   1.482
 4673SOL    HW214919   5.126   6.947   1.446
 4674SOL     OW14920   5.006   1.178   0.102
 4674SOL    HW114921   4.965   1.090   0.078
 4674SOL    HW214922   4.935   1.239   0.136
 4675SOL     OW14923   2.571   1.143   0.157
 4675SOL    HW114924   2.643   1.129   0.089
 4675SOL    HW214925   2.613   1.161   0.246
 4676SOL     OW14926   6.831   6.587   4.325
 4676SOL    HW114927   6.809   6.653   4.254
 4676SOL    HW214928   6.817   6.628   4.415
 4677SOL     OW14929   2.498   0.745   0.071
 4677SOL    HW114930   2.462   0.715   0.159
 4677SOL    HW214931   2.594   0.767   0.080
 4678SOL     OW14932   2.153   4.542   2.806
 4678SOL    HW114933   2.187   4.483   2.732
 4678SOL    HW214934   2.056   4.526   2.819
 4679SOL     OW14935   3.578   1.547   0.182
 4679SOL    HW114936   3.559   1.449   0.178
 4679SOL    HW214937   3.520   1.589   0.253
 4680SOL     OW14938   1.820   0.794   1.875
 4680SOL    HW114939   1.724   0.781   1.853
 4680SOL    HW214940   1.832   0.884   1.917
 4681SOL     OW14941   6.196   5.680   6.073
 4681SOL    HW114942   6.222   5.626   6.154
 4681SOL    HW214943   6.184   5.775   6.099
 4682SOL     OW14944   4.060   4.110   6.441
 4682SOL    HW114945   4.127   4.167   6.393
 4682SOL    HW214946   4.040   4.150   6.530
 4683SOL     OW14947   4.627   4.389   2.560
 4683SOL    HW114948   4.573   4.455   2.613
 4683SOL    HW214949   4.589   4.380   2.468
 4684SOL     OW14950   7.027   1.803   4.590
 4684SOL    HW114951   0.022   1.861   4.668
 4684SOL    HW214952   6.928   1.790   4.584
 4685SOL     OW14953   0.402   6.279   5.040
 4685SOL    HW114954   0.411   6.273   5.139
 4685SOL    HW214955   0.465   6.347   5.004
 4686SOL     OW14956   5.446   5.667   0.514
 4686SOL    HW114957   5.461   5.717   0.429
 4686SOL    HW214958   5.486   5.575   0.507
 4687SOL     OW14959   6.690   5.161   5.467
 4687SOL    HW114960   6.628   5.086   5.445
 4687SOL    HW214961   6.692   5.175   5.566
 4688SOL     OW14962   6.558   3.741   5.538
 4688SOL    HW114963   6.627   3.768   5.605
 4688SOL    HW214964   6.548   3.813   5.469
 4689SOL     OW14965   5.925   0.732   0.191
 4689SOL    HW114966   6.012   0.714   0.145
 4689SOL    HW214967   5.850   0.687   0.141
 4690SOL     OW14968   1.342   0.888   0.029
 4690SOL    HW114969   1.422   0.928   0.075
 4690SOL    HW214970   1.268   0.955   0.026
 4691SOL     OW14971   3.060   4.825   2.127
 4691SOL    HW114972   3.005   4.769   2.066
 4691SOL    HW214973   3.023   4.917   2.131
 4692SOL     OW14974   6.897   5.552   2.400
 4692SOL    HW114975   6.932   5.641   2.428
 4692SOL    HW214976   6.919   5.484   2.471
 4693SOL     OW14977   0.861   0.917   3.537
 4693SOL    HW114978   0.846   0.825   3.500
 4693SOL    HW214979   0.778   0.972   3.525
 4694SOL     OW14980   2.897   0.713   0.214
 4694SOL    HW114981   2.804   0.685   0.191
 4694SOL    HW214982   2.917   0.689   0.309
 4695SOL     OW14983   2.511   3.081   1.505
 4695SOL    HW114984   2.491   3.148   1.577
 4695SOL    HW214985   2.441   3.086   1.434
 4696SOL     OW14986   0.293   4.468   5.892
 4696SOL    HW114987   0.375   4.485   5.837
 4696SOL    HW214988   0.231   4.546   5.884
 4697SOL     OW14989   2.131   2.971   0.544
 4697SOL    HW114990   2.194   2.974   0.466
 4697SOL    HW214991   2.054   3.033   0.528
 4698SOL     OW14992   3.682   6.134   2.692
 4698SOL    HW114993   3.647   6.207   2.633
 4698SOL    HW214994   3.624   6.053   2.682
 4699SOL     OW14995   1.078   6.218   2.120
 4699SOL    HW114996   1.019   6.293   2.150
 4699SOL    HW214997   1.057   6.136   2.172
 4700SOL     OW14998   6.351   1.577   2.632
 4700SOL    HW114999   6.415   1.512   2.674
 4700SOL    HW215000   6.259   1.538   2.632
 4701SOL     OW15001   2.157   2.463   0.899
 4701SOL    HW115002   2.176   2.561   0.906
 4701SOL    HW215003   2.108   2.433   0.980
 4702SOL     OW15004   5.892   4.678   6.807
 4702SOL    HW115005   5.929   4.634   6.725
 4702SOL    HW215006   5.830   4.751   6.781
 4703SOL     OW15007   1.257   2.624   1.822
 4703SOL    HW115008   1.193   2.641   1.897
 4703SOL    HW215009   1.211   2.639   1.735
 4704SOL     OW15010   1.113   6.741   0.023
 4704SOL    HW115011   1.093   6.837   0.003
 4704SOL    HW215012   1.164   6.735   0.109
 4705SOL     OW15013   3.557   3.108   2.310
 4705SOL    HW115014   3.485   3.146   2.253
 4705SOL    HW215015   3.583   3.018   2.276
 4706SOL     OW15016   3.779   6.354   6.332
 4706SOL    HW115017   3.764   6.270   6.280
 4706SOL    HW215018   3.791   6.431   6.269
 4707SOL     OW15019   2.690   5.703   0.784
 4707SOL    HW115020   2.621   5.711   0.711
 4707SOL    HW215021   2.660   5.634   0.850
 4708SOL     OW15022   1.156   2.564   6.330
 4708SOL    HW115023   1.159   2.639   6.396
 4708SOL    HW215024   1.069   2.567   6.280
 4709SOL     OW15025   4.147   5.922   5.657
 4709SOL    HW115026   4.223   5.896   5.716
 4709SOL    HW215027   4.137   5.855   5.584
 4710SOL     OW15028   3.813   1.027   6.028
 4710SOL    HW115029   3.738   1.071   6.078
 4710SOL    HW215030   3.826   0.934   6.062
 4711SOL     OW15031   5.562   0.614   2.093
 4711SOL    HW115032   5.609   0.532   2.060
 4711SOL    HW215033   5.563   0.685   2.022
 4712SOL     OW15034   3.275   3.936   0.233
 4712SOL    HW115035   3.175   3.946   0.241
 4712SOL    HW215036   3.313   3.915   0.323
 4713SOL     OW15037   3.198   3.640   1.050
 4713SOL    HW115038   3.251   3.721   1.074
 4713SOL    HW215039   3.189   3.581   1.130
 4714SOL     OW15040   1.592   2.212   6.754
 4714SOL    HW115041   1.589   2.124   6.802
 4714SOL    HW215042   1.672   2.264   6.784
 4715SOL     OW15043   6.684   3.178   1.957
 4715SOL    HW115044   6.735   3.188   1.871
 4715SOL    HW215045   6.602   3.235   1.954
 4716SOL     OW15046   4.583   6.479   6.276
 4716SOL    HW115047   4.608   6.575   6.264
 4716SOL    HW215048   4.624   6.425   6.203
 4717SOL     OW15049   0.264   6.608   3.457
 4717SOL    HW115050   0.186   6.569   3.408
 4717SOL    HW215051   0.236   6.693   3.503
 4718SOL     OW15052   5.222   1.965   0.280
 4718SOL    HW115053   5.158   2.010   0.341
 4718SOL    HW215054   5.298   2.026   0.260
 4719SOL     OW15055   5.296   3.127   2.428
 4719SOL    HW115056   5.387   3.092   2.403
 4719SOL    HW215057   5.244   3.146   2.346
 4720SOL     OW15058   1.927   5.872   5.550
 4720SOL    HW115059   1.964   5.780   5.540
 4720SOL    HW215060   1.871   5.877   5.633
 4721SOL     OW15061   6.659   2.779   1.172
 4721SOL    HW115062   6.574   2.830   1.187
 4721SOL    HW215063   6.737   2.837   1.197
 4722SOL     OW15064   1.149   5.751   6.845
 4722SOL    HW115065   1.115   5.775   6.754
 4722SOL    HW215066   1.081   5.776   6.914
 4723SOL     OW15067   1.935   4.515   6.157
 4723SOL    HW115068   1.983   4.560   6.232
 4723SOL    HW215069   1.874   4.444   6.194
 4724SOL     OW15070   5.050   6.128   3.014
 4724SOL    HW115071   5.108   6.204   3.045
 4724SOL    HW215072   5.052   6.055   3.082
 4725SOL     OW15073   6.572   6.707   2.426
 4725SOL    HW115074   6.487   6.711   2.374
 4725SOL    HW215075   6.580   6.789   2.483
 4726SOL     OW15076   2.045   3.134   6.449
 4726SOL    HW115077   1.959   3.091   6.419
 4726SOL    HW215078   2.031   3.175   6.539
 4727SOL     OW15079   0.859   6.283   6.856
 4727SOL    HW115080   0.854   6.335   6.942
 4727SOL    HW215081   0.819   6.336   6.782
 4728SOL     OW15082   5.364   0.692   0.205
 4728SOL    HW115083   5.282   0.741   0.237
 4728SOL    HW215084   5.441   0.713   0.265
 4729SOL     OW15085   2.598   1.707   1.879
 4729SOL    HW115086   2.523   1.653   1.842
 4729SOL    HW215087   2.653   1.651   1.940
 4730SOL     OW15088   3.024   5.843   4.895
 4730SOL    HW115089   2.997   5.846   4.799
 4730SOL    HW215090   3.119   5.811   4.903
 4731SOL     OW15091   4.367   0.510   6.095
 4731SOL    HW115092   4.448   0.509   6.036
 4731SOL    HW215093   4.362   0.596   6.145
 4732SOL     OW15094   0.384   3.974   5.279
 4732SOL    HW115095   0.334   3.975   5.366
 4732SOL    HW215096   0.482   3.969   5.297
 4733SOL     OW15097   1.556   4.078   3.780
 4733SOL    HW115098   1.649   4.115   3.785
 4733SOL    HW215099   1.492   4.153   3.768
 4734SOL     OW15100   5.128   2.749   6.612
 4734SOL    HW115101   5.150   2.842   6.640
 4734SOL    HW215102   5.145   2.739   6.514
 4735SOL     OW15103   0.893   6.271   3.995
 4735SOL    HW115104   0.808   6.276   4.048
 4735SOL    HW215105   0.925   6.176   3.993
 4736SOL     OW15106   0.120   1.577   6.674
 4736SOL    HW115107   0.044   1.513   6.683
 4736SOL    HW215108   0.088   1.669   6.696
 4737SOL     OW15109   1.391   4.890   2.294
 4737SOL    HW115110   1.460   4.953   2.259
 4737SOL    HW215111   1.311   4.941   2.324
 4738SOL     OW15112   6.728   6.086   2.598
 4738SOL    HW115113   6.751   6.150   2.525
 4738SOL    HW215114   6.809   6.069   2.654
 4739SOL     OW15115   5.002   6.636   3.192
 4739SOL    HW115116   4.943   6.555   3.201
 4739SOL    HW215117   5.008   6.682   3.280
 4740SOL     OW15118   0.896   1.623   0.743
 4740SOL    HW115119   0.852   1.612   0.654
 4740SOL    HW215120   0.992   1.647   0.730
 4741SOL     OW15121   3.768   2.763   1.215
 4741SOL    HW115122   3.671   2.743   1.227
 4741SOL    HW215123   3.794   2.749   1.120
 4742SOL     OW15124   2.612   6.248   5.081
 4742SOL    HW115125   2.520   6.278   5.104
 4742SOL    HW215126   2.645   6.297   5.000
 4743SOL     OW15127   1.997   4.346   3.059
 4743SOL    HW115128   1.979   4.439   3.090
 4743SOL    HW215129   2.095   4.331   3.052
 4744SOL     OW15130   2.344   4.741   0.856
 4744SOL    HW115131   2.348   4.648   0.819
 4744SOL    HW215132   2.320   4.805   0.783
 4745SOL     OW15133   3.105   4.362   6.356
 4745SOL    HW115134   3.130   4.275   6.314
 4745SOL    HW215135   3.156   4.373   6.442
 4746SOL     OW15136   4.581   6.173   3.572
 4746SOL    HW115137   4.550   6.206   3.661
 4746SOL    HW215138   4.537   6.085   3.553
 4747SOL     OW15139   1.312   3.542   0.018
 4747SOL    HW115140   1.296   3.617   6.982
 4747SOL    HW215141   1.326   3.578   0.110
 4748SOL     OW15142   1.760   6.058   1.126
 4748SOL    HW115143   1.707   5.975   1.114
 4748SOL    HW215144   1.818   6.072   1.045
 4749SOL     OW15145   2.604   6.429   6.101
 4749SOL    HW115146   2.557   6.444   6.188
 4749SOL    HW215147   2.675   6.360   6.112
 4750SOL     OW15148   6.782   3.434   5.147
 4750SOL    HW115149   6.727   3.511   5.178
 4750SOL    HW215150   6.731   3.380   5.080
 4751SOL     OW15151   4.366   2.397   2.743
 4751SOL    HW115152   4.431   2.354   2.680
 4751SOL    HW215153   4.296   2.445   2.691
 4752SOL     OW15154   4.469   1.197   0.036
 4752SOL    HW115155   4.394   1.217   6.999
 4752SOL    HW215156   4.556   1.224   7.021
 4753SOL     OW15157   0.966   0.631   4.086
 4753SOL    HW115158   1.061   0.607   4.064
 4753SOL    HW215159   0.912   0.547   4.094
 4754SOL     OW15160   5.791   4.119   4.586
 4754SOL    HW115161   5.820   4.181   4.659
 4754SOL    HW215162   5.866   4.056   4.564
 4755SOL     OW15163   2.559   1.116   0.575
 4755SOL    HW115164   2.603   1.112   0.485
 4755SOL    HW215165   2.486   1.184   0.572
 4756SOL     OW15166   5.660   3.622   5.945
 4756SOL    HW115167   5.641   3.524   5.939
 4756SOL    HW215168   5.758   3.637   5.933
 4757SOL     OW15169   2.225   2.402   1.318
 4757SOL    HW115170   2.145   2.433   1.267
 4757SOL    HW215171   2.201   2.320   1.370
 4758SOL     OW15172   1.569   6.609   2.991
 4758SOL    HW115173   1.660   6.600   3.032
 4758SOL    HW215174   1.512   6.532   3.017
 4759SOL     OW15175   0.683   4.919   6.417
 4759SOL    HW115176   0.718   4.996   6.365
 4759SOL    HW215177   0.661   4.948   6.510
 4760SOL     OW15178   2.329   1.934   0.526
 4760SOL    HW115179   2.265   1.970   0.593
 4760SOL    HW215180   2.380   2.009   0.484
 4761SOL     OW15181   1.156   6.869   0.459
 4761SOL    HW115182   1.156   6.954   0.511
 4761SOL    HW215183   1.061   6.836   0.449
 4762SOL     OW15184   1.154   5.282   2.408
 4762SOL    HW115185   1.130   5.339   2.486
 4762SOL    HW215186   1.210   5.335   2.344
 4763SOL     OW15187   5.076   0.462   2.671
 4763SOL    HW115188   5.016   0.442   2.593
 4763SOL    HW215189   5.162   0.499   2.638
 4764SOL     OW15190   4.402   3.713   5.367
 4764SOL    HW115191   4.341   3.742   5.292
 4764SOL    HW215192   4.360   3.636   5.415
 4765SOL     OW15193   3.247   1.238   5.322
 4765SOL    HW115194   3.337   1.197   5.336
 4765SOL    HW215195   3.256   1.322   5.268
 4766SOL     OW15196   5.714   5.799   4.016
 4766SOL    HW115197   5.765   5.717   3.992
 4766SOL    HW215198   5.629   5.803   3.963
 4767SOL     OW15199   3.276   4.916   5.001
 4767SOL    HW115200   3.238   4.895   5.091
 4767SOL    HW215201   3.227   4.864   4.931
 4768SOL     OW15202   3.618   2.609   6.315
 4768SOL    HW115203   3.552   2.606   6.390
 4768SOL    HW215204   3.704   2.567   6.345
 4769SOL     OW15205   4.614   5.528   0.666
 4769SOL    HW115206   4.558   5.560   0.590
 4769SOL    HW215207   4.566   5.455   0.714
 4770SOL     OW15208   0.563   2.225   4.381
 4770SOL    HW115209   0.649   2.179   4.360
 4770SOL    HW215210   0.572   2.323   4.365
 4771SOL     OW15211   3.043   6.630   6.078
 4771SOL    HW115212   3.062   6.533   6.096
 4771SOL    HW215213   2.948   6.640   6.049
 4772SOL     OW15214   3.647   4.737   0.297
 4772SOL    HW115215   3.621   4.641   0.307
 4772SOL    HW215216   3.731   4.754   0.347
 4773SOL     OW15217   0.644   5.210   5.775
 4773SOL    HW115218   0.700   5.293   5.772
 4773SOL    HW215219   0.702   5.131   5.754
 4774SOL     OW15220   1.505   3.704   1.113
 4774SOL    HW115221   1.532   3.690   1.018
 4774SOL    HW215222   1.417   3.661   1.131
 4775SOL     OW15223   5.082   5.841   3.490
 4775SOL    HW115224   5.010   5.773   3.499
 4775SOL    HW215225   5.168   5.796   3.464
 4776SOL     OW15226   0.665   1.016   4.959
 4776SOL    HW115227   0.634   1.101   4.917
 4776SOL    HW215228   0.607   0.994   5.037
 4777SOL     OW15229   1.926   5.130   0.427
 4777SOL    HW115230   1.831   5.108   0.405
 4777SOL    HW215231   1.951   5.216   0.383
 4778SOL     OW15232   6.679   2.420   4.472
 4778SOL    HW115233   6.589   2.377   4.463
 4778SOL    HW215234   6.684   2.500   4.412
 4779SOL     OW15235   5.409   0.371   3.776
 4779SOL    HW115236   5.322   0.421   3.777
 4779SOL    HW215237   5.393   0.279   3.739
 4780SOL     OW15238   6.219   2.736   6.655
 4780SOL    HW115239   6.267   2.724   6.568
 4780SOL    HW215240   6.273   2.795   6.715
 4781SOL     OW15241   2.978   5.367   1.801
 4781SOL    HW115242   2.981   5.289   1.863
 4781SOL    HW215243   2.910   5.350   1.730
 4782SOL     OW15244   6.337   5.311   6.845
 4782SOL    HW115245   6.432   5.334   6.864
 4782SOL    HW215246   6.287   5.395   6.823
 4783SOL     OW15247   5.415   3.379   6.553
 4783SOL    HW115248   5.460   3.303   6.601
 4783SOL    HW215249   5.319   3.382   6.579
 4784SOL     OW15250   6.257   1.949   6.372
 4784SOL    HW115251   6.171   1.961   6.322
 4784SOL    HW215252   6.273   2.029   6.430
 4785SOL     OW15253   0.020   6.255   2.890
 4785SOL    HW115254   0.104   6.289   2.848
 4785SOL    HW215255   7.005   6.329   2.944
 4786SOL     OW15256   2.572   6.827   0.064
 4786SOL    HW115257   2.493   6.766   0.074
 4786SOL    HW215258   2.653   6.773   0.041
 4787SOL     OW15259   3.546   1.872   3.092
 4787SOL    HW115260   3.571   1.878   2.996
 4787SOL    HW215261   3.572   1.957   3.139
 4788SOL     OW15262   0.162   6.500   0.795
 4788SOL    HW115263   0.210   6.425   0.749
 4788SOL    HW215264   0.229   6.558   0.842
 4789SOL     OW15265   5.005   1.416   1.653
 4789SOL    HW115266   4.957   1.472   1.720
 4789SOL    HW215267   5.064   1.474   1.597
 4790SOL     OW15268   5.923   1.644   5.649
 4790SOL    HW115269   5.897   1.553   5.680
 4790SOL    HW215270   6.010   1.670   5.691
 4791SOL     OW15271   0.129   2.680   1.764
 4791SOL    HW115272   0.103   2.621   1.840
 4791SOL    HW215273   0.128   2.776   1.793
 4792SOL     OW15274   2.319   4.381   4.551
 4792SOL    HW115275   2.363   4.451   4.607
 4792SOL    HW215276   2.279   4.311   4.610
 4793SOL     OW15277   1.286   3.544   5.622
 4793SOL    HW115278   1.344   3.502   5.553
 4793SOL    HW215279   1.318   3.518   5.713
 4794SOL     OW15280   4.442   0.221   4.444
 4794SOL    HW115281   4.376   0.284   4.402
 4794SOL    HW215282   4.505   0.187   4.374
 4795SOL     OW15283   6.633   1.254   4.349
 4795SOL    HW115284   6.722   1.284   4.314
 4795SOL    HW215285   6.646   1.176   4.410
 4796SOL     OW15286   4.014   0.596   6.049
 4796SOL    HW115287   3.984   0.514   6.002
 4796SOL    HW215288   4.028   0.575   6.146
 4797SOL     OW15289   0.536   6.525   4.406
 4797SOL    HW115290   0.522   6.597   4.474
 4797SOL    HW215291   0.627   6.535   4.366
 4798SOL     OW15292   6.988   5.031   5.994
 4798SOL    HW115293   6.899   5.004   6.030
 4798SOL    HW215294   6.976   5.068   5.901
 4799SOL     OW15295   4.491   1.314   0.788
 4799SOL    HW115296   4.575   1.363   0.813
 4799SOL    HW215297   4.504   1.216   0.805
 4800SOL     OW15298   2.280   3.416   6.536
 4800SOL    HW115299   2.246   3.374   6.452
 4800SOL    HW215300   2.321   3.505   6.514
 4801SOL     OW15301   3.134   2.431   0.077
 4801SOL    HW115302   3.189   2.352   0.105
 4801SOL    HW215303   3.080   2.464   0.155
 4802SOL     OW15304   0.334   6.609   1.872
 4802SOL    HW115305   0.380   6.525   1.899
 4802SOL    HW215306   0.369   6.640   1.784
 4803SOL     OW15307   0.611   3.884   0.724
 4803SOL    HW115308   0.608   3.930   0.635
 4803SOL    HW215309   0.525   3.835   0.738
 4804SOL     OW15310   6.640   6.592   1.688
 4804SOL    HW115311   6.698   6.635   1.619
 4804SOL    HW215312   6.616   6.658   1.759
 4805SOL     OW15313   6.085   1.444   2.455
 4805SOL    HW115314   6.134   1.504   2.392
 4805SOL    HW215315   5.986   1.458   2.444
 4806SOL     OW15316   0.997   4.229   2.919
 4806SOL    HW115317   1.033   4.140   2.891
 4806SOL    HW215318   1.061   4.271   2.984
 4807SOL     OW15319   0.654   4.717   5.867
 4807SOL    HW115320   0.603   4.659   5.804
 4807SOL    HW215321   0.683   4.801   5.820
 4808SOL     OW15322   4.449   5.536   0.986
 4808SOL    HW115323   4.454   5.621   0.933
 4808SOL    HW215324   4.470   5.458   0.928
 4809SOL     OW15325   3.641   4.579   1.413
 4809SOL    HW115326   3.672   4.488   1.385
 4809SOL    HW215327   3.656   4.591   1.511
 4810SOL     OW15328   1.497   4.113   3.417
 4810SOL    HW115329   1.581   4.157   3.385
 4810SOL    HW215330   1.455   4.169   3.488
 4811SOL     OW15331   4.010   3.448   2.717
 4811SOL    HW115332   4.052   3.440   2.627
 4811SOL    HW215333   4.003   3.545   2.741
 4812SOL     OW15334   0.873   0.438   2.464
 4812SOL    HW115335   0.921   0.441   2.377
 4812SOL    HW215336   0.875   0.345   2.501
 4813SOL     OW15337   5.682   1.594   6.405
 4813SOL    HW115338   5.662   1.497   6.395
 4813SOL    HW215339   5.775   1.605   6.441
 4814SOL     OW15340   6.922   3.163   1.637
 4814SOL    HW115341   6.977   3.122   1.710
 4814SOL    HW215342   6.972   3.239   1.596
 4815SOL     OW15343   5.344   4.190   3.064
 4815SOL    HW115344   5.399   4.110   3.090
 4815SOL    HW215345   5.351   4.259   3.136
 4816SOL     OW15346   2.271   5.586   1.333
 4816SOL    HW115347   2.222   5.593   1.420
 4816SOL    HW215348   2.213   5.539   1.266
 4817SOL     OW15349   2.519   0.944   1.473
 4817SOL    HW115350   2.572   1.028   1.482
 4817SOL    HW215351   2.422   0.964   1.482
 4818SOL     OW15352   0.716   1.204   3.782
 4818SOL    HW115353   0.772   1.278   3.820
 4818SOL    HW215354   0.620   1.231   3.782
 4819SOL     OW15355   2.645   2.349   1.586
 4819SOL    HW115356   2.647   2.385   1.679
 4819SOL    HW215357   2.652   2.424   1.521
 4820SOL     OW15358   6.596   2.049   0.808
 4820SOL    HW115359   6.633   2.009   0.892
 4820SOL    HW215360   6.547   1.978   0.757
 4821SOL     OW15361   0.143   0.558   1.004
 4821SOL    HW115362   0.163   0.470   0.961
 4821SOL    HW215363   0.185   0.561   1.094
 4822SOL     OW15364   1.819   3.099   3.783
 4822SOL    HW115365   1.737   3.057   3.822
 4822SOL    HW215366   1.901   3.060   3.825
 4823SOL     OW15367   0.516   1.849   4.186
 4823SOL    HW115368   0.497   1.936   4.141
 4823SOL    HW215369   0.600   1.809   4.148
 4824SOL     OW15370   5.495   1.858   4.308
 4824SOL    HW115371   5.528   1.764   4.304
 4824SOL    HW215372   5.546   1.908   4.377
 4825SOL     OW15373   2.101   2.777   4.398
 4825SOL    HW115374   2.162   2.839   4.446
 4825SOL    HW215375   2.074   2.818   4.310
 4826SOL     OW15376   7.000   0.612   5.956
 4826SOL    HW115377   6.990   0.710   5.937
 4826SOL    HW215378   7.001   0.561   5.870
 4827SOL     OW15379   6.097   1.685   1.306
 4827SOL    HW115380   6.041   1.669   1.388
 4827SOL    HW215381   6.037   1.695   1.227
 4828SOL     OW15382   5.666   2.809   0.965
 4828SOL    HW115383   5.686   2.899   1.005
 4828SOL    HW215384   5.581   2.773   1.005
 4829SOL     OW15385   4.248   6.597   6.950
 4829SOL    HW115386   4.166   6.593   7.006
 4829SOL    HW215387   4.321   6.642   7.002
 4830SOL     OW15388   5.073   6.496   3.715
 4830SOL    HW115389   5.115   6.494   3.806
 4830SOL    HW215390   5.128   6.553   3.655
 4831SOL     OW15391   7.009   5.029   6.332
 4831SOL    HW115392   6.928   5.088   6.338
 4831SOL    HW215393   0.041   5.060   6.257
 4832SOL     OW15394   2.484   2.550   5.414
 4832SOL    HW115395   2.437   2.574   5.329
 4832SOL    HW215396   2.491   2.630   5.473
 4833SOL     OW15397   4.911   0.955   2.798
 4833SOL    HW115398   4.877   0.950   2.704
 4833SOL    HW215399   5.010   0.966   2.798
 4834SOL     OW15400   3.614   0.857   0.837
 4834SOL    HW115401   3.568   0.778   0.796
 4834SOL    HW215402   3.564   0.941   0.813
 4835SOL     OW15403   0.684   1.437   6.188
 4835SOL    HW115404   0.726   1.348   6.170
 4835SOL    HW215405   0.660   1.480   6.101
 4836SOL     OW15406   5.337   3.003   3.866
 4836SOL    HW115407   5.255   2.945   3.864
 4836SOL    HW215408   5.314   3.090   3.910
 4837SOL     OW15409   4.776   3.532   1.758
 4837SOL    HW115410   4.705   3.555   1.691
 4837SOL    HW215411   4.800   3.436   1.750
 4838SOL     OW15412   1.532   4.709   1.882
 4838SOL    HW115413   1.545   4.610   1.891
 4838SOL    HW215414   1.462   4.740   1.947
 4839SOL     OW15415   0.819   3.524   5.650
 4839SOL    HW115416   0.841   3.517   5.748
 4839SOL    HW215417   0.739   3.583   5.638
 4840SOL     OW15418   0.780   6.031   5.475
 4840SOL    HW115419   0.864   6.081   5.492
 4840SOL    HW215420   0.715   6.090   5.427
 4841SOL     OW15421   2.566   6.228   1.505
 4841SOL    HW115422   2.627   6.150   1.521
 4841SOL    HW215423   2.507   6.242   1.584
 4842SOL     OW15424   3.260   4.809   1.967
 4842SOL    HW115425   3.212   4.839   2.050
 4842SOL    HW215426   3.352   4.779   1.992
 4843SOL     OW15427   5.978   3.399   0.385
 4843SOL    HW115428   6.002   3.305   0.408
 4843SOL    HW215429   5.911   3.399   0.310
 4844SOL     OW15430   6.855   3.466   5.736
 4844SOL    HW115431   6.856   3.410   5.653
 4844SOL    HW215432   6.942   3.514   5.745
 4845SOL     OW15433   6.393   5.793   4.670
 4845SOL    HW115434   6.393   5.866   4.738
 4845SOL    HW215435   6.478   5.798   4.617
 4846SOL     OW15436   6.424   3.293   3.103
 4846SOL    HW115437   6.347   3.339   3.147
 4846SOL    HW215438   6.459   3.349   3.028
 4847SOL     OW15439   3.287   1.336   5.636
 4847SOL    HW115440   3.239   1.295   5.559
 4847SOL    HW215441   3.277   1.278   5.716
 4848SOL     OW15442   1.347   1.374   3.901
 4848SOL    HW115443   1.343   1.361   3.802
 4848SOL    HW215444   1.382   1.291   3.944
 4849SOL     OW15445   1.141   6.581   6.158
 4849SOL    HW115446   1.159   6.658   6.218
 4849SOL    HW215447   1.190   6.500   6.191
 4850SOL     OW15448   3.925   1.513   2.673
 4850SOL    HW115449   3.928   1.597   2.619
 4850SOL    HW215450   3.852   1.519   2.740
 4851SOL     OW15451   4.063   6.035   5.347
 4851SOL    HW115452   4.058   5.945   5.389
 4851SOL    HW215453   4.157   6.055   5.320
 4852SOL     OW15454   0.988   0.262   5.263
 4852SOL    HW115455   0.951   0.171   5.280
 4852SOL    HW215456   1.088   0.260   5.274
 4853SOL     OW15457   3.132   1.280   3.147
 4853SOL    HW115458   3.173   1.213   3.210
 4853SOL    HW215459   3.163   1.260   3.054
 4854SOL     OW15460   5.300   6.804   2.171
 4854SOL    HW115461   5.253   6.797   2.259
 4854SOL    HW215462   5.390   6.844   2.184
 4855SOL     OW15463   6.428   2.782   2.263
 4855SOL    HW115464   6.482   2.776   2.347
 4855SOL    HW215465   6.427   2.877   2.230
 4856SOL     OW15466   1.717   4.007   2.401
 4856SOL    HW115467   1.648   3.976   2.466
 4856SOL    HW215468   1.672   4.034   2.315
 4857SOL     OW15469   1.692   2.694   5.873
 4857SOL    HW115470   1.620   2.646   5.923
 4857SOL    HW215471   1.674   2.691   5.775
 4858SOL     OW15472   0.990   1.436   4.752
 4858SOL    HW115473   0.936   1.483   4.681
 4858SOL    HW215474   1.021   1.348   4.716
 4859SOL     OW15475   1.141   1.135   4.483
 4859SOL    HW115476   1.138   1.038   4.461
 4859SOL    HW215477   1.056   1.162   4.529
 4860SOL     OW15478   3.987   4.401   1.668
 4860SOL    HW115479   3.943   4.316   1.642
 4860SOL    HW215480   3.944   4.478   1.621
 4861SOL     OW15481   5.178   4.527   0.232
 4861SOL    HW115482   5.137   4.448   0.277
 4861SOL    HW215483   5.166   4.608   0.289
 4862SOL     OW15484   2.986   4.795   4.891
 4862SOL    HW115485   2.940   4.733   4.955
 4862SOL    HW215486   3.044   4.741   4.829
 4863SOL     OW15487   6.079   3.872   2.326
 4863SOL    HW115488   6.050   3.956   2.282
 4863SOL    HW215489   6.064   3.794   2.265
 4864SOL     OW15490   3.952   1.191   3.435
 4864SOL    HW115491   3.915   1.155   3.350
 4864SOL    HW215492   4.018   1.127   3.473
 4865SOL     OW15493   2.179   0.951   5.363
 4865SOL    HW115494   2.257   1.011   5.344
 4865SOL    HW215495   2.106   0.968   5.297
 4866SOL     OW15496   6.481   1.997   1.223
 4866SOL    HW115497   6.449   2.039   1.307
 4866SOL    HW215498   6.455   1.900   1.221
 4867SOL     OW15499   3.731   4.910   2.462
 4867SOL    HW115500   3.722   4.880   2.557
 4867SOL    HW215501   3.684   4.998   2.450
 4868SOL     OW15502   6.422   4.806   2.633
 4868SOL    HW115503   6.389   4.789   2.540
 4868SOL    HW215504   6.437   4.718   2.679
 4869SOL     OW15505   1.287   1.899   2.138
 4869SOL    HW115506   1.209   1.845   2.170
 4869SOL    HW215507   1.273   1.926   2.043
 4870SOL     OW15508   0.657   6.225   1.557
 4870SOL    HW115509   0.646   6.149   1.493
 4870SOL    HW215510   0.605   6.304   1.524
 4871SOL     OW15511   1.753   0.859   3.750
 4871SOL    HW115512   1.809   0.914   3.688
 4871SOL    HW215513   1.803   0.775   3.774
 4872SOL     OW15514   6.154   0.187   3.755
 4872SOL    HW115515   6.154   0.094   3.791
 4872SOL    HW215516   6.060   0.215   3.735
 4873SOL     OW15517   6.313   5.397   3.903
 4873SOL    HW115518   6.258   5.433   3.827
 4873SOL    HW215519   6.254   5.381   3.982
 4874SOL     OW15520   6.270   3.609   2.445
 4874SOL    HW115521   6.272   3.538   2.375
 4874SOL    HW215522   6.182   3.607   2.492
 4875SOL     OW15523   5.898   1.497   0.865
 4875SOL    HW115524   5.898   1.583   0.814
 4875SOL    HW215525   5.836   1.432   0.820
 4876SOL     OW15526   6.013   2.354   3.060
 4876SOL    HW115527   6.032   2.336   2.964
 4876SOL    HW215528   5.990   2.451   3.071
 4877SOL     OW15529   1.643   2.098   5.898
 4877SOL    HW115530   1.592   2.017   5.926
 4877SOL    HW215531   1.741   2.080   5.908
 4878SOL     OW15532   6.248   0.826   2.249
 4878SOL    HW115533   6.235   0.845   2.151
 4878SOL    HW215534   6.311   0.749   2.260
 4879SOL     OW15535   4.143   0.950   2.843
 4879SOL    HW115536   4.215   0.971   2.908
 4879SOL    HW215537   4.089   1.032   2.823
 4880SOL     OW15538   5.392   3.123   6.975
 4880SOL    HW115539   5.394   3.210   6.925
 4880SOL    HW215540   5.478   3.111   7.025
 4881SOL     OW15541   1.155   1.109   7.023
 4881SOL    HW115542   1.220   1.175   6.986
 4881SOL    HW215543   1.105   1.065   6.948
 4882SOL     OW15544   4.613   0.504   4.766
 4882SOL    HW115545   4.616   0.428   4.701
 4882SOL    HW215546   4.530   0.497   4.821
 4883SOL     OW15547   5.093   5.017   1.688
 4883SOL    HW115548   5.153   4.942   1.662
 4883SOL    HW215549   4.999   4.995   1.665
 4884SOL     OW15550   2.699   6.453   1.372
 4884SOL    HW115551   2.649   6.392   1.434
 4884SOL    HW215552   2.767   6.400   1.321
 4885SOL     OW15553   2.172   5.248   1.617
 4885SOL    HW115554   2.210   5.330   1.661
 4885SOL    HW215555   2.076   5.238   1.643
 4886SOL     OW15556   1.426   6.139   1.392
 4886SOL    HW115557   1.385   6.081   1.463
 4886SOL    HW215558   1.355   6.166   1.326
 4887SOL     OW15559   0.009   0.108   1.615
 4887SOL    HW115560   6.972   0.165   1.666
 4887SOL    HW215561   0.036   0.030   1.671
 4888SOL     OW15562   2.786   0.196   4.514
 4888SOL    HW115563   2.759   0.229   4.423
 4888SOL    HW215564   2.767   0.097   4.519
 4889SOL     OW15565   6.700   1.905   4.967
 4889SOL    HW115566   6.617   1.910   5.023
 4889SOL    HW215567   6.743   1.816   4.980
 4890SOL     OW15568   6.915   0.781   6.179
 4890SOL    HW115569   6.933   0.777   6.277
 4890SOL    HW215570   6.940   0.693   6.137
 4891SOL     OW15571   2.130   4.934   0.169
 4891SOL    HW115572   2.126   5.025   0.127
 4891SOL    HW215573   2.142   4.865   0.097
 4892SOL     OW15574   3.044   5.827   2.257
 4892SOL    HW115575   3.094   5.748   2.293
 4892SOL    HW215576   3.066   5.838   2.160
 4893SOL     OW15577   6.670   3.138   1.529
 4893SOL    HW115578   6.633   3.049   1.553
 4893SOL    HW215579   6.762   3.148   1.568
 4894SOL     OW15580   3.212   0.609   3.412
 4894SOL    HW115581   3.132   0.601   3.353
 4894SOL    HW215582   3.203   0.545   3.489
 4895SOL     OW15583   0.999   5.019   4.290
 4895SOL    HW115584   0.923   4.955   4.289
 4895SOL    HW215585   1.019   5.049   4.197
 4896SOL     OW15586   1.905   4.406   1.886
 4896SOL    HW115587   1.892   4.494   1.840
 4896SOL    HW215588   1.956   4.419   1.971
 4897SOL     OW15589   1.779   4.161   5.902
 4897SOL    HW115590   1.861   4.123   5.945
 4897SOL    HW215591   1.717   4.087   5.877
 4898SOL     OW15592   4.502   0.782   4.877
 4898SOL    HW115593   4.419   0.778   4.823
 4898SOL    HW215594   4.542   0.691   4.885
 4899SOL     OW15595   5.579   5.731   3.055
 4899SOL    HW115596   5.513   5.703   3.125
 4899SOL    HW215597   5.608   5.824   3.073
 4900SOL     OW15598   3.054   6.335   5.353
 4900SOL    HW115599   3.142   6.314   5.395
 4900SOL    HW215600   3.040   6.276   5.273
 4901SOL     OW15601   3.172   1.435   5.031
 4901SOL    HW115602   3.265   1.452   5.061
 4901SOL    HW215603   3.171   1.416   4.933
 4902SOL     OW15604   1.936   1.817   4.984
 4902SOL    HW115605   1.927   1.884   5.058
 4902SOL    HW215606   1.846   1.794   4.949
 4903SOL     OW15607   3.887   5.857   0.057
 4903SOL    HW115608   3.986   5.841   0.059
 4903SOL    HW215609   3.839   5.771   0.078
 4904SOL     OW15610   2.246   0.429   5.259
 4904SOL    HW115611   2.158   0.452   5.299
 4904SOL    HW215612   2.311   0.504   5.274
 4905SOL     OW15613   3.349   0.680   2.873
 4905SOL    HW115614   3.340   0.744   2.949
 4905SOL    HW215615   3.291   0.711   2.797
 4906SOL     OW15616   5.305   1.871   6.730
 4906SOL    HW115617   5.279   1.940   6.662
 4906SOL    HW215618   5.309   1.914   6.820
 4907SOL     OW15619   4.198   6.300   2.270
 4907SOL    HW115620   4.114   6.246   2.280
 4907SOL    HW215621   4.187   6.388   2.316
 4908SOL     OW15622   5.567   6.327   0.275
 4908SOL    HW115623   5.654   6.290   0.305
 4908SOL    HW215624   5.577   6.425   0.256
 4909SOL     OW15625   0.695   6.668   4.143
 4909SOL    HW115626   0.752   6.591   4.173
 4909SOL    HW215627   0.669   6.654   4.047
 4910SOL     OW15628   5.327   1.208   5.064
 4910SOL    HW115629   5.383   1.162   4.995
 4910SOL    HW215630   5.236   1.224   5.027
 4911SOL     OW15631   1.491   3.860   3.606
 4911SOL    HW115632   1.499   3.913   3.522
 4911SOL    HW215633   1.518   3.917   3.684
 4912SOL     OW15634   5.401   1.168   6.172
 4912SOL    HW115635   5.423   1.126   6.260
 4912SOL    HW215636   5.424   1.104   6.099
 4913SOL     OW15637   4.046   3.189   5.298
 4913SOL    HW115638   3.959   3.208   5.343
 4913SOL    HW215639   4.114   3.161   5.366
 4914SOL     OW15640   3.652   0.005   4.784
 4914SOL    HW115641   3.598   7.001   4.862
 4914SOL    HW215642   3.591   0.026   4.707
 4915SOL     OW15643   3.327   6.103   5.870
 4915SOL    HW115644   3.383   6.174   5.828
 4915SOL    HW215645   3.233   6.136   5.880
 4916SOL     OW15646   1.574   0.590   4.092
 4916SOL    HW115647   1.522   0.669   4.059
 4916SOL    HW215648   1.659   0.582   4.041
 4917SOL     OW15649   2.375   5.438   1.597
 4917SOL    HW115650   2.345   5.526   1.633
 4917SOL    HW215651   2.448   5.452   1.530
 4918SOL     OW15652   4.852   6.289   2.879
 4918SOL    HW115653   4.917   6.226   2.922
 4918SOL    HW215654   4.874   6.299   2.782
 4919SOL     OW15655   3.327   2.569   0.866
 4919SOL    HW115656   3.299   2.664   0.868
 4919SOL    HW215657   3.425   2.563   0.887
 4920SOL     OW15658   5.358   0.411   4.417
 4920SOL    HW115659   5.314   0.434   4.504
 4920SOL    HW215660   5.421   0.335   4.431
 4921SOL     OW15661   1.057   5.179   0.304
 4921SOL    HW115662   0.961   5.170   0.332
 4921SOL    HW215663   1.099   5.088   0.301
 4922SOL     OW15664   2.921   2.160   5.175
 4922SOL    HW115665   3.009   2.187   5.135
 4922SOL    HW215666   2.857   2.137   5.102
 4923SOL     OW15667   3.922   1.762   2.527
 4923SOL    HW115668   3.930   1.837   2.592
 4923SOL    HW215669   3.827   1.754   2.496
 4924SOL     OW15670   3.656   1.279   4.618
 4924SOL    HW115671   3.577   1.335   4.643
 4924SOL    HW215672   3.719   1.333   4.562
 4925SOL     OW15673   6.569   6.964   2.592
 4925SOL    HW115674   6.549   0.034   2.611
 4925SOL    HW215675   6.503   6.907   2.641
 4926SOL     OW15676   4.905   0.843   0.397
 4926SOL    HW115677   4.898   0.839   0.497
 4926SOL    HW215678   4.815   0.864   0.358
 4927SOL     OW15679   3.309   3.853   4.506
 4927SOL    HW115680   3.314   3.758   4.538
 4927SOL    HW215681   3.308   3.855   4.406
 4928SOL     OW15682   2.194   0.011   6.783
 4928SOL    HW115683   2.171   7.006   6.875
 4928SOL    HW215684   2.141   6.986   6.716
 4929SOL     OW15685   6.815   6.724   4.556
 4929SOL    HW115686   6.843   6.670   4.635
 4929SOL    HW215687   6.733   6.777   4.579
 4930SOL     OW15688   5.284   0.885   3.040
 4930SOL    HW115689   5.327   0.911   3.127
 4930SOL    HW215690   5.351   0.893   2.966
 4931SOL     OW15691   6.903   6.892   0.962
 4931SOL    HW115692   6.813   6.890   0.920
 4931SOL    HW215693   6.940   6.799   0.966
 4932SOL     OW15694   3.581   2.839   1.988
 4932SOL    HW115695   3.494   2.864   2.030
 4932SOL    HW215696   3.566   2.765   1.921
 4933SOL     OW15697   2.081   6.610   2.169
 4933SOL    HW115698   2.156   6.650   2.116
 4933SOL    HW215699   1.994   6.645   2.135
 4934SOL     OW15700   3.390   5.486   2.662
 4934SOL    HW115701   3.456   5.499   2.736
 4934SOL    HW215702   3.374   5.388   2.649
 4935SOL     OW15703   1.678   1.867   6.441
 4935SOL    HW115704   1.637   1.877   6.531
 4935SOL    HW215705   1.765   1.817   6.449
 4936SOL     OW15706   2.734   4.876   1.484
 4936SOL    HW115707   2.764   4.953   1.428
 4936SOL    HW215708   2.810   4.812   1.496
 4937SOL     OW15709   5.598   3.350   5.892
 4937SOL    HW115710   5.666   3.357   5.819
 4937SOL    HW215711   5.517   3.302   5.857
 4938SOL     OW15712   2.030   5.065   5.635
 4938SOL    HW115713   2.077   4.982   5.667
 4938SOL    HW215714   2.084   5.145   5.661
 4939SOL     OW15715   5.814   2.114   4.761
 4939SOL    HW115716   5.880   2.061   4.707
 4939SOL    HW215717   5.744   2.152   4.700
 4940SOL     OW15718   0.501   1.194   4.702
 4940SOL    HW115719   0.452   1.210   4.617
 4940SOL    HW215720   0.564   1.117   4.691
 4941SOL     OW15721   4.787   2.063   6.050
 4941SOL    HW115722   4.820   2.141   6.103
 4941SOL    HW215723   4.808   2.078   5.953
 4942SOL     OW15724   4.859   2.238   5.802
 4942SOL    HW115725   4.811   2.225   5.716
 4942SOL    HW215726   4.953   2.267   5.784
 4943SOL     OW15727   4.856   3.631   6.792
 4943SOL    HW115728   4.941   3.663   6.748
 4943SOL    HW215729   4.857   3.531   6.796
 4944SOL     OW15730   2.115   4.385   2.065
 4944SOL    HW115731   2.172   4.307   2.039
 4944SOL    HW215732   2.158   4.470   2.035
 4945SOL     OW15733   1.226   0.995   4.102
 4945SOL    HW115734   1.180   0.989   4.191
 4945SOL    HW215735   1.177   1.060   4.044
 4946SOL     OW15736   0.644   3.391   0.234
 4946SOL    HW115737   0.590   3.455   0.179
 4946SOL    HW215738   0.698   3.442   0.301
 4947SOL     OW15739   1.896   1.079   1.474
 4947SOL    HW115740   1.846   1.060   1.389
 4947SOL    HW215741   1.981   1.127   1.453
 4948SOL     OW15742   1.862   1.728   2.406
 4948SOL    HW115743   1.763   1.734   2.417
 4948SOL    HW215744   1.898   1.818   2.384
 4949SOL     OW15745   4.411   6.837   6.466
 4949SOL    HW115746   4.342   6.768   6.486
 4949SOL    HW215747   4.457   6.864   6.551
 4950SOL     OW15748   3.022   5.558   4.012
 4950SOL    HW115749   2.942   5.604   3.974
 4950SOL    HW215750   3.088   5.539   3.939
 4951SOL     OW15751   5.184   1.438   4.493
 4951SOL    HW115752   5.167   1.504   4.421
 4951SOL    HW215753   5.275   1.454   4.532
 4952SOL     OW15754   0.065   0.974   5.176
 4952SOL    HW115755   7.009   1.010   5.133
 4952SOL    HW215756   0.064   0.874   5.171
 4953SOL     OW15757   2.010   6.208   2.015
 4953SOL    HW115758   2.015   6.275   1.941
 4953SOL    HW215759   1.998   6.256   2.102
 4954SOL     OW15760   4.373   3.672   6.740
 4954SOL    HW115761   4.330   3.583   6.729
 4954SOL    HW215762   4.344   3.712   6.827
 4955SOL     OW15763   2.467   6.091   6.771
 4955SOL    HW115764   2.460   6.168   6.708
 4955SOL    HW215765   2.544   6.033   6.744
 4956SOL     OW15766   2.353   6.908   5.218
 4956SOL    HW115767   2.450   6.901   5.241
 4956SOL    HW215768   2.343   6.955   5.131
 4957SOL     OW15769   6.543   1.673   2.471
 4957SOL    HW115770   6.480   1.653   2.547
 4957SOL    HW215771   6.635   1.642   2.496
 4958SOL     OW15772   6.711   5.609   4.958
 4958SOL    HW115773   6.706   5.643   4.863
 4958SOL    HW215774   6.805   5.617   4.991
 4959SOL     OW15775   6.392   1.407   6.604
 4959SOL    HW115776   6.341   1.441   6.525
 4959SOL    HW215777   6.391   1.477   6.676
 4960SOL     OW15778   3.546   5.667   3.204
 4960SOL    HW115779   3.555   5.743   3.139
 4960SOL    HW215780   3.630   5.660   3.258
 4961SOL     OW15781   4.802   1.649   6.115
 4961SOL    HW115782   4.759   1.740   6.114
 4961SOL    HW215783   4.781   1.603   6.201
 4962SOL     OW15784   6.494   2.699   0.774
 4962SOL    HW115785   6.453   2.620   0.818
 4962SOL    HW215786   6.442   2.782   0.799
 4963SOL     OW15787   6.671   5.994   0.015
 4963SOL    HW115788   6.650   5.918   0.078
 4963SOL    HW215789   6.756   5.974   6.994
 4964SOL     OW15790   3.362   0.267   4.068
 4964SOL    HW115791   3.353   0.346   4.129
 4964SOL    HW215792   3.436   0.208   4.099
 4965SOL     OW15793   0.208   0.568   3.706
 4965SOL    HW115794   0.152   0.642   3.744
 4965SOL    HW215795   0.298   0.604   3.679
 4966SOL     OW15796   1.847   0.363   4.910
 4966SOL    HW115797   1.876   0.441   4.965
 4966SOL    HW215798   1.927   0.321   4.867
 4967SOL     OW15799   3.949   3.314   5.884
 4967SOL    HW115800   3.900   3.328   5.798
 4967SOL    HW215801   3.951   3.400   5.935
 4968SOL     OW15802   5.876   2.346   3.548
 4968SOL    HW115803   5.801   2.351   3.614
 4968SOL    HW215804   5.932   2.428   3.555
 4969SOL     OW15805   2.336   0.698   2.255
 4969SOL    HW115806   2.289   0.786   2.243
 4969SOL    HW215807   2.431   0.715   2.280
 4970SOL     OW15808   1.589   1.847   4.192
 4970SOL    HW115809   1.493   1.828   4.174
 4970SOL    HW215810   1.644   1.766   4.172
 4971SOL     OW15811   6.115   6.590   3.595
 4971SOL    HW115812   6.032   6.582   3.650
 4971SOL    HW215813   6.188   6.534   3.636
 4972SOL     OW15814   1.880   2.973   7.012
 4972SOL    HW115815   1.849   2.878   7.016
 4972SOL    HW215816   1.823   3.024   6.948
 4973SOL     OW15817   0.597   0.510   2.492
 4973SOL    HW115818   0.692   0.481   2.480
 4973SOL    HW215819   0.540   0.430   2.509
 4974SOL     OW15820   5.674   4.926   1.241
 4974SOL    HW115821   5.688   4.926   1.340
 4974SOL    HW215822   5.750   4.975   1.197
 4975SOL     OW15823   5.641   5.424   6.159
 4975SOL    HW115824   5.599   5.485   6.092
 4975SOL    HW215825   5.739   5.442   6.164
 4976SOL     OW15826   3.037   6.973   4.487
 4976SOL    HW115827   3.104   6.920   4.540
 4976SOL    HW215828   3.038   0.041   4.519
 4977SOL     OW15829   4.716   4.164   0.730
 4977SOL    HW115830   4.692   4.222   0.652
 4977SOL    HW215831   4.736   4.222   0.809
 4978SOL     OW15832   6.807   4.117   5.567
 4978SOL    HW115833   6.736   4.174   5.525
 4978SOL    HW215834   6.838   4.160   5.651
 4979SOL     OW15835   0.765   0.766   5.267
 4979SOL    HW115836   0.675   0.771   5.223
 4979SOL    HW215837   0.802   0.674   5.256
 4980SOL     OW15838   4.550   6.423   3.383
 4980SOL    HW115839   4.622   6.363   3.348
 4980SOL    HW215840   4.554   6.425   3.483
 4981SOL     OW15841   4.885   5.543   6.324
 4981SOL    HW115842   4.799   5.492   6.330
 4981SOL    HW215843   4.953   5.487   6.276
 4982SOL     OW15844   2.036   2.148   6.714
 4982SOL    HW115845   2.086   2.219   6.666
 4982SOL    HW215846   1.953   2.187   6.754
 4983SOL     OW15847   5.284   2.362   4.229
 4983SOL    HW115848   5.198   2.391   4.187
 4983SOL    HW215849   5.285   2.387   4.325
 4984SOL     OW15850   6.011   4.040   4.458
 4984SOL    HW115851   6.086   4.106   4.461
 4984SOL    HW215852   5.942   4.070   4.392
 4985SOL     OW15853   6.118   6.610   3.129
 4985SOL    HW115854   6.134   6.567   3.040
 4985SOL    HW215855   6.118   6.709   3.119
 4986SOL     OW15856   6.087   4.427   2.784
 4986SOL    HW115857   6.047   4.352   2.731
 4986SOL    HW215858   6.107   4.396   2.876
 4987SOL     OW15859   0.982   1.522   0.984
 4987SOL    HW115860   0.936   1.552   0.901
 4987SOL    HW215861   1.081   1.539   0.976
 4988SOL     OW15862   6.054   1.205   3.263
 4988SOL    HW115863   6.131   1.253   3.306
 4988SOL    HW215864   5.993   1.170   3.334
 4989SOL     OW15865   5.260   0.474   1.240
 4989SOL    HW115866   5.162   0.468   1.223
 4989SOL    HW215867   5.309   0.444   1.158
 4990SOL     OW15868   1.570   1.783   5.408
 4990SOL    HW115869   1.547   1.728   5.488
 4990SOL    HW215870   1.512   1.865   5.406
 4991SOL     OW15871   0.357   3.231   4.294
 4991SOL    HW115872   0.409   3.299   4.242
 4991SOL    HW215873   0.418   3.181   4.355
 4992SOL     OW15874   4.904   0.517   4.818
 4992SOL    HW115875   4.959   0.576   4.878
 4992SOL    HW215876   4.808   0.525   4.844
 4993SOL     OW15877   3.757   5.261   3.754
 4993SOL    HW115878   3.754   5.338   3.691
 4993SOL    HW215879   3.778   5.294   3.846
 4994SOL     OW15880   0.976   0.657   2.777
 4994SOL    HW115881   1.017   0.566   2.779
 4994SOL    HW215882   0.878   0.648   2.757
 4995SOL     OW15883   6.734   2.848   5.868
 4995SOL    HW115884   6.689   2.879   5.951
 4995SOL    HW215885   6.742   2.748   5.869
 4996SOL     OW15886   1.530   0.802   3.021
 4996SOL    HW115887   1.431   0.805   3.031
 4996SOL    HW215888   1.560   0.882   2.968
 4997SOL     OW15889   6.532   1.645   3.263
 4997SOL    HW115890   6.435   1.639   3.287
 4997SOL    HW215891   6.578   1.560   3.290
 4998SOL     OW15892   2.146   3.803   5.191
 4998SOL    HW115893   2.226   3.846   5.151
 4998SOL    HW215894   2.161   3.704   5.198
 4999SOL     OW15895   5.362   5.042   1.452
 4999SOL    HW115896   5.437   5.007   1.508
 4999SOL    HW215897   5.388   5.038   1.355
 5000SOL     OW15898   2.147   6.925   4.242
 5000SOL    HW115899   2.192   6.840   4.268
 5000SOL    HW215900   2.166   6.946   4.147
 5001SOL     OW15901   1.599   4.461   6.617
 5001SOL    HW115902   1.538   4.457   6.696
 5001SOL    HW215903   1.606   4.371   6.576
 5002SOL     OW15904   1.707   3.393   2.824
 5002SOL    HW115905   1.776   3.353   2.884
 5002SOL    HW215906   1.716   3.353   2.732
 5003SOL     OW15907   2.366   6.708   2.739
 5003SOL    HW115908   2.352   6.654   2.657
 5003SOL    HW215909   2.399   6.799   2.714
 5004SOL     OW15910   3.029   5.020   6.144
 5004SOL    HW115911   3.008   5.095   6.208
 5004SOL    HW215912   3.074   5.057   6.063
 5005SOL     OW15913   3.611   2.360   1.026
 5005SOL    HW115914   3.605   2.405   1.115
 5005SOL    HW215915   3.658   2.419   0.961
 5006SOL     OW15916   5.015   6.353   6.811
 5006SOL    HW115917   5.060   6.355   6.722
 5006SOL    HW215918   5.012   6.445   6.850
 5007SOL     OW15919   1.961   0.322   6.733
 5007SOL    HW115920   2.006   0.243   6.691
 5007SOL    HW215921   2.017   0.403   6.719
 5008SOL     OW15922   6.546   0.555   3.387
 5008SOL    HW115923   6.633   0.596   3.416
 5008SOL    HW215924   6.471   0.618   3.409
 5009SOL     OW15925   1.764   6.165   1.628
 5009SOL    HW115926   1.855   6.131   1.651
 5009SOL    HW215927   1.750   6.161   1.529
 5010SOL     OW15928   3.432   2.864   2.912
 5010SOL    HW115929   3.436   2.860   3.012
 5010SOL    HW215930   3.525   2.861   2.875
 5011SOL     OW15931   2.120   3.699   2.387
 5011SOL    HW115932   2.187   3.773   2.381
 5011SOL    HW215933   2.114   3.652   2.299
 5012SOL     OW15934   4.900   3.499   5.940
 5012SOL    HW115935   4.979   3.543   5.896
 5012SOL    HW215936   4.919   3.401   5.953
 5013SOL     OW15937   5.398   1.767   0.608
 5013SOL    HW115938   5.417   1.779   0.511
 5013SOL    HW215939   5.301   1.748   0.622
 5014SOL     OW15940   5.462   4.274   0.699
 5014SOL    HW115941   5.511   4.257   0.784
 5014SOL    HW215942   5.454   4.373   0.684
 5015SOL     OW15943   4.785   2.079   4.350
 5015SOL    HW115944   4.721   2.155   4.336
 5015SOL    HW215945   4.851   2.077   4.275
 5016SOL     OW15946   2.773   1.718   1.223
 5016SOL    HW115947   2.845   1.771   1.267
 5016SOL    HW215948   2.696   1.779   1.200
 5017SOL     OW15949   1.823   2.734   6.709
 5017SOL    HW115950   1.757   2.718   6.636
 5017SOL    HW215951   1.894   2.665   6.705
 5018SOL     OW15952   0.731   4.291   1.429
 5018SOL    HW115953   0.656   4.313   1.492
 5018SOL    HW215954   0.818   4.317   1.471
 5019SOL     OW15955   1.994   4.574   6.860
 5019SOL    HW115956   1.967   4.477   6.864
 5019SOL    HW215957   2.039   4.591   6.772
 5020SOL     OW15958   4.623   6.645   5.919
 5020SOL    HW115959   4.718   6.675   5.909
 5020SOL    HW215960   4.619   6.546   5.908
 5021SOL     OW15961   1.584   1.718   5.683
 5021SOL    HW115962   1.679   1.746   5.669
 5021SOL    HW215963   1.547   1.760   5.766
 5022SOL     OW15964   2.169   0.228   0.188
 5022SOL    HW115965   2.095   0.186   0.240
 5022SOL    HW215966   2.221   0.289   0.249
 5023SOL     OW15967   6.365   2.443   1.327
 5023SOL    HW115968   6.409   2.388   1.256
 5023SOL    HW215969   6.417   2.527   1.341
 5024SOL     OW15970   6.553   4.428   3.338
 5024SOL    HW115971   6.620   4.372   3.289
 5024SOL    HW215972   6.532   4.509   3.283
 5025SOL     OW15973   4.190   2.015   2.038
 5025SOL    HW115974   4.265   1.968   1.993
 5025SOL    HW215975   4.107   2.009   1.981
 5026SOL     OW15976   5.773   5.902   6.383
 5026SOL    HW115977   5.761   5.899   6.482
 5026SOL    HW215978   5.794   5.810   6.348
 5027SOL     OW15979   0.061   0.258   2.582
 5027SOL    HW115980   0.066   0.183   2.649
 5027SOL    HW215981   7.007   0.246   2.524
 5028SOL     OW15982   0.356   6.745   3.080
 5028SOL    HW115983   0.305   6.831   3.083
 5028SOL    HW215984   0.314   6.684   3.013
 5029SOL     OW15985   6.630   3.671   3.923
 5029SOL    HW115986   6.546   3.656   3.974
 5029SOL    HW215987   6.616   3.744   3.856
 5030SOL     OW15988   0.091   0.178   6.739
 5030SOL    HW115989   0.139   0.149   6.822
 5030SOL    HW215990   0.140   0.144   6.658
 5031SOL     OW15991   5.474   1.032   4.902
 5031SOL    HW115992   5.420   0.971   4.844
 5031SOL    HW215993   5.502   0.983   4.985
 5032SOL     OW15994   1.379   3.855   1.509
 5032SOL    HW115995   1.354   3.857   1.412
 5032SOL    HW215996   1.299   3.882   1.564
 5033SOL     OW15997   1.714   4.718   6.667
 5033SOL    HW115998   1.690   4.627   6.631
 5033SOL    HW215999   1.725   4.712   6.766
 5034SOL     OW16000   6.704   2.669   2.831
 5034SOL    HW116001   6.762   2.663   2.749
 5034SOL    HW216002   6.721   2.590   2.890
 5035SOL     OW16003   6.174   4.325   0.936
 5035SOL    HW116004   6.221   4.348   0.850
 5035SOL    HW216005   6.240   4.288   1.001
 5036SOL     OW16006   0.136   4.793   0.220
 5036SOL    HW116007   0.175   4.745   0.298
 5036SOL    HW216008   0.053   4.746   0.189
 5037SOL     OW16009   4.774   2.421   2.478
 5037SOL    HW116010   4.698   2.418   2.414
 5037SOL    HW216011   4.785   2.331   2.520
 5038SOL     OW16012   1.839   5.107   5.450
 5038SOL    HW116013   1.896   5.071   5.523
 5038SOL    HW216014   1.772   5.038   5.422
 5039SOL     OW16015   2.276   3.933   5.720
 5039SOL    HW116016   2.233   4.020   5.696
 5039SOL    HW216017   2.316   3.892   5.638
 5040SOL     OW16018   2.104   4.316   6.479
 5040SOL    HW116019   2.057   4.396   6.440
 5040SOL    HW216020   2.082   4.235   6.425
 5041SOL     OW16021   1.424   3.278   1.325
 5041SOL    HW116022   1.476   3.325   1.254
 5041SOL    HW216023   1.404   3.341   1.399
 5042SOL     OW16024   6.791   2.909   6.813
 5042SOL    HW116025   6.870   2.947   6.766
 5042SOL    HW216026   6.802   2.922   6.912
 5043SOL     OW16027   2.946   1.226   5.834
 5043SOL    HW116028   3.021   1.163   5.856
 5043SOL    HW216029   2.982   1.319   5.824
 5044SOL     OW16030   5.760   0.135   2.738
 5044SOL    HW116031   5.680   0.093   2.696
 5044SOL    HW216032   5.749   0.234   2.740
 5045SOL     OW16033   5.364   2.831   0.163
 5045SOL    HW116034   5.289   2.877   0.211
 5045SOL    HW216035   5.359   2.853   0.066
 5046SOL     OW16036   3.711   4.224   5.036
 5046SOL    HW116037   3.648   4.290   5.078
 5046SOL    HW216038   3.661   4.140   5.014
 5047SOL     OW16039   6.874   2.448   2.324
 5047SOL    HW116040   6.775   2.460   2.317
 5047SOL    HW216041   6.916   2.461   2.234
 5048SOL     OW16042   6.681   1.922   1.028
 5048SOL    HW116043   6.779   1.926   1.050
 5048SOL    HW216044   6.627   1.940   1.110
 5049SOL     OW16045   6.874   1.324   4.217
 5049SOL    HW116046   6.938   1.351   4.290
 5049SOL    HW216047   6.864   1.399   4.152
 5050SOL     OW16048   1.328   1.223   2.025
 5050SOL    HW116049   1.294   1.147   2.079
 5050SOL    HW216050   1.346   1.301   2.086
 5051SOL     OW16051   4.529   3.483   0.509
 5051SOL    HW116052   4.446   3.479   0.455
 5051SOL    HW216053   4.508   3.459   0.604
 5052SOL     OW16054   2.472   5.137   5.717
 5052SOL    HW116055   2.497   5.040   5.722
 5052SOL    HW216056   2.427   5.164   5.802
 5053SOL     OW16057   1.889   3.770   3.393
 5053SOL    HW116058   1.972   3.715   3.401
 5053SOL    HW216059   1.853   3.763   3.300
 5054SOL     OW16060   3.456   5.478   5.211
 5054SOL    HW116061   3.477   5.467   5.308
 5054SOL    HW216062   3.541   5.491   5.160
 5055SOL     OW16063   0.531   1.104   5.242
 5055SOL    HW116064   0.579   1.183   5.205
 5055SOL    HW216065   0.485   1.129   5.327
 5056SOL     OW16066   6.169   4.137   0.546
 5056SOL    HW116067   6.210   4.075   0.479
 5056SOL    HW216068   6.238   4.200   0.580
 5057SOL     OW16069   0.966   5.521   3.805
 5057SOL    HW116070   0.954   5.573   3.889
 5057SOL    HW216071   0.916   5.566   3.730
 5058SOL     OW16072   2.569   4.216   6.423
 5058SOL    HW116073   2.638   4.227   6.351
 5058SOL    HW216074   2.521   4.130   6.410
 5059SOL     OW16075   5.403   3.767   4.268
 5059SOL    HW116076   5.434   3.857   4.236
 5059SOL    HW216077   5.327   3.736   4.211
 5060SOL     OW16078   0.092   2.541   5.180
 5060SOL    HW116079   0.170   2.601   5.164
 5060SOL    HW216080   0.008   2.595   5.182
 5061SOL     OW16081   3.158   3.013   3.950
 5061SOL    HW116082   3.110   3.029   4.036
 5061SOL    HW216083   3.104   3.050   3.874
 5062SOL     OW16084   5.202   1.086   2.841
 5062SOL    HW116085   5.240   1.041   2.922
 5062SOL    HW216086   5.207   1.185   2.852
 5063SOL     OW16087   1.079   6.138   1.822
 5063SOL    HW116088   1.105   6.155   1.917
 5063SOL    HW216089   1.127   6.202   1.762
 5064SOL     OW16090   5.140   4.938   1.295
 5064SOL    HW116091   5.164   4.873   1.366
 5064SOL    HW216092   5.098   5.019   1.336
 5065SOL     OW16093   1.478   1.718   3.111
 5065SOL    HW116094   1.401   1.752   3.057
 5065SOL    HW216095   1.465   1.622   3.132
 5066SOL     OW16096   3.214   4.073   1.895
 5066SOL    HW116097   3.154   4.124   1.835
 5066SOL    HW216098   3.167   3.991   1.928
 5067SOL     OW16099   3.999   1.257   2.977
 5067SOL    HW116100   3.931   1.222   3.041
 5067SOL    HW216101   3.968   1.242   2.883
 5068SOL     OW16102   3.396   4.922   0.282
 5068SOL    HW116103   3.390   4.897   0.185
 5068SOL    HW216104   3.484   4.891   0.319
 5069SOL     OW16105   1.964   2.866   6.143
 5069SOL    HW116106   1.985   2.785   6.089
 5069SOL    HW216107   2.005   2.857   6.234
 5070SOL     OW16108   5.485   4.814   5.218
 5070SOL    HW116109   5.563   4.868   5.250
 5070SOL    HW216110   5.479   4.821   5.119
 5071SOL     OW16111   4.264   2.348   3.711
 5071SOL    HW116112   4.311   2.260   3.713
 5071SOL    HW216113   4.177   2.341   3.760
 5072SOL     OW16114   1.426   1.247   1.528
 5072SOL    HW116115   1.441   1.346   1.533
 5072SOL    HW216116   1.470   1.203   1.607
 5073SOL     OW16117   1.812   5.044   1.053
 5073SOL    HW116118   1.848   4.959   1.092
 5073SOL    HW216119   1.837   5.120   1.113
 5074SOL     OW16120   3.895   2.105   2.047
 5074SOL    HW116121   3.939   2.195   2.046
 5074SOL    HW216122   3.799   2.116   2.021
 5075SOL     OW16123   1.001   1.943   7.009
 5075SOL    HW116124   1.004   1.847   6.983
 5075SOL    HW216125   0.948   1.994   6.942
 5076SOL     OW16126   5.783   0.108   0.846
 5076SOL    HW116127   5.860   0.167   0.869
 5076SOL    HW216128   5.752   0.128   0.753
 5077SOL     OW16129   0.512   3.922   6.369
 5077SOL    HW116130   0.521   3.831   6.412
 5077SOL    HW216131   0.473   3.986   6.435
 5078SOL     OW16132   0.427   1.420   4.070
 5078SOL    HW116133   0.394   1.494   4.129
 5078SOL    HW216134   0.358   1.348   4.064
 5079SOL     OW16135   2.463   2.711   5.195
 5079SOL    HW116136   2.498   2.800   5.223
 5079SOL    HW216137   2.401   2.722   5.117
 5080SOL     OW16138   5.691   5.958   5.474
 5080SOL    HW116139   5.647   6.021   5.539
 5080SOL    HW216140   5.653   5.867   5.484
 5081SOL     OW16141   3.095   4.578   6.164
 5081SOL    HW116142   3.115   4.497   6.219
 5081SOL    HW216143   3.101   4.555   6.067
 5082SOL     OW16144   5.200   0.474   0.495
 5082SOL    HW116145   5.231   0.567   0.514
 5082SOL    HW216146   5.253   0.409   0.551
 5083SOL     OW16147   3.038   0.485   1.999
 5083SOL    HW116148   3.119   0.426   2.006
 5083SOL    HW216149   3.008   0.511   2.091
 5084SOL     OW16150   1.219   4.877   3.945
 5084SOL    HW116151   1.237   4.941   3.870
 5084SOL    HW216152   1.255   4.914   4.030
 5085SOL     OW16153   6.960   2.481   5.449
 5085SOL    HW116154   6.862   2.459   5.448
 5085SOL    HW216155   6.979   2.548   5.377
 5086SOL     OW16156   1.313   4.129   2.712
 5086SOL    HW116157   1.251   4.206   2.706
 5086SOL    HW216158   1.346   4.120   2.805
 5087SOL     OW16159   0.403   5.329   1.551
 5087SOL    HW116160   0.354   5.290   1.473
 5087SOL    HW216161   0.338   5.354   1.623
 5088SOL     OW16162   5.112   0.013   3.399
 5088SOL    HW116163   5.206   0.032   3.372
 5088SOL    HW216164   5.070   6.977   3.334
 5089SOL     OW16165   6.130   4.467   4.377
 5089SOL    HW116166   6.101   4.556   4.341
 5089SOL    HW216167   6.222   4.476   4.416
 5090SOL     OW16168   2.024   1.605   2.231
 5090SOL    HW116169   1.982   1.652   2.309
 5090SOL    HW216170   1.966   1.528   2.203
 5091SOL     OW16171   6.527   0.878   1.847
 5091SOL    HW116172   6.592   0.867   1.771
 5091SOL    HW216173   6.481   0.966   1.838
 5092SOL     OW16174   3.571   3.405   3.611
 5092SOL    HW116175   3.647   3.470   3.605
 5092SOL    HW216176   3.599   3.317   3.574
 5093SOL     OW16177   3.647   1.466   0.947
 5093SOL    HW116178   3.628   1.517   0.863
 5093SOL    HW216179   3.714   1.517   1.002
 5094SOL     OW16180   2.409   5.961   6.477
 5094SOL    HW116181   2.502   5.965   6.515
 5094SOL    HW216182   2.399   5.877   6.424
 5095SOL     OW16183   6.983   2.474   3.096
 5095SOL    HW116184   7.011   2.569   3.084
 5095SOL    HW216185   6.968   2.456   3.194
 5096SOL     OW16186   4.381   5.147   6.758
 5096SOL    HW116187   4.449   5.124   6.688
 5096SOL    HW216188   4.289   5.134   6.720
 5097SOL     OW16189   0.372   6.686   6.967
 5097SOL    HW116190   0.401   6.780   6.948
 5097SOL    HW216191   0.323   6.683   0.028
 5098SOL     OW16192   2.588   1.268   1.842
 5098SOL    HW116193   2.657   1.308   1.783
 5098SOL    HW216194   2.602   1.299   1.936
 5099SOL     OW16195   0.614   6.624   1.535
 5099SOL    HW116196   0.559   6.541   1.527
 5099SOL    HW216197   0.681   6.613   1.609
 5100SOL     OW16198   3.367   5.352   4.365
 5100SOL    HW116199   3.464   5.363   4.343
 5100SOL    HW216200   3.328   5.441   4.386
 5101SOL     OW16201   4.300   0.225   5.772
 5101SOL    HW116202   4.284   0.159   5.845
 5101SOL    HW216203   4.230   0.296   5.775
 5102SOL     OW16204   5.361   6.442   4.157
 5102SOL    HW116205   5.346   6.481   4.247
 5102SOL    HW216206   5.324   6.350   4.154
 5103SOL     OW16207   0.181   1.265   4.113
 5103SOL    HW116208   0.144   1.172   4.119
 5103SOL    HW216209   0.145   1.320   4.189
 5104SOL     OW16210   2.191   6.812   1.759
 5104SOL    HW116211   2.114   6.784   1.816
 5104SOL    HW216212   2.186   6.910   1.741
 5105SOL     OW16213   3.402   2.857   0.136
 5105SOL    HW116214   3.377   2.789   0.068
 5105SOL    HW216215   3.332   2.860   0.207
 5106SOL     OW16216   4.705   1.121   1.175
 5106SOL    HW116217   4.622   1.156   1.217
 5106SOL    HW216218   4.765   1.083   1.246
 5107SOL     OW16219   4.630   2.739   1.480
 5107SOL    HW116220   4.536   2.731   1.448
 5107SOL    HW216221   4.691   2.690   1.418
 5108SOL     OW16222   4.082   3.822   4.921
 5108SOL    HW116223   3.991   3.863   4.917
 5108SOL    HW216224   4.077   3.726   4.894
 5109SOL     OW16225   1.149   2.078   0.172
 5109SOL    HW116226   1.082   2.047   0.104
 5109SOL    HW216227   1.101   2.109   0.254
 5110SOL     OW16228   0.455   0.310   6.087
 5110SOL    HW116229   0.551   0.323   6.061
 5110SOL    HW216230   0.396   0.329   6.008
 5111SOL     OW16231   1.685   0.918   4.255
 5111SOL    HW116232   1.616   0.954   4.318
 5111SOL    HW216233   1.648   0.917   4.162
 5112SOL     OW16234   0.839   0.252   3.112
 5112SOL    HW116235   0.804   0.202   3.190
 5112SOL    HW216236   0.939   0.252   3.114
 5113SOL     OW16237   1.679   5.547   1.393
 5113SOL    HW116238   1.636   5.635   1.373
 5113SOL    HW216239   1.608   5.480   1.415
 5114SOL     OW16240   4.030   7.009   6.437
 5114SOL    HW116241   4.127   7.001   6.413
 5114SOL    HW216242   3.989   0.056   6.383
 5115SOL     OW16243   1.412   5.313   3.448
 5115SOL    HW116244   1.446   5.357   3.531
 5115SOL    HW216245   1.319   5.345   3.430
 5116SOL     OW16246   1.128   6.122   0.656
 5116SOL    HW116247   1.193   6.172   0.713
 5116SOL    HW216248   1.170   6.102   0.567
 5117SOL     OW16249   1.187   3.998   4.210
 5117SOL    HW116250   1.212   3.919   4.266
 5117SOL    HW216251   1.088   4.015   4.219
 5118SOL     OW16252   5.482   0.899   6.703
 5118SOL    HW116253   5.407   0.872   6.762
 5118SOL    HW216254   5.548   0.954   6.755
 5119SOL     OW16255   4.321   0.811   2.656
 5119SOL    HW116256   4.287   0.885   2.713
 5119SOL    HW216257   4.417   0.826   2.635
 5120SOL     OW16258   4.242   6.815   4.882
 5120SOL    HW116259   4.147   6.811   4.851
 5120SOL    HW216260   4.249   6.773   4.972
 5121SOL     OW16261   3.740   3.051   6.893
 5121SOL    HW116262   3.693   3.112   6.957
 5121SOL    HW216263   3.813   3.101   6.847
 5122SOL     OW16264   3.501   6.108   3.233
 5122SOL    HW116265   3.423   6.049   3.253
 5122SOL    HW216266   3.499   6.135   3.137
 5123SOL     OW16267   5.049   1.793   4.198
 5123SOL    HW116268   5.018   1.863   4.134
 5123SOL    HW216269   5.132   1.825   4.245
 5124SOL     OW16270   1.660   5.903   5.031
 5124SOL    HW116271   1.676   5.832   4.962
 5124SOL    HW216272   1.712   5.985   5.007
 5125SOL     OW16273   6.365   3.018   3.471
 5125SOL    HW116274   6.432   2.964   3.522
 5125SOL    HW216275   6.312   3.075   3.534
 5126SOL     OW16276   6.763   6.151   6.740
 5126SOL    HW116277   6.858   6.121   6.745
 5126SOL    HW216278   6.720   6.141   6.829
 5127SOL     OW16279   0.076   3.778   0.344
 5127SOL    HW116280   7.014   3.739   0.318
 5127SOL    HW216281   0.094   3.860   0.290
 5128SOL     OW16282   0.365   0.228   6.830
 5128SOL    HW116283   0.338   0.323   6.844
 5128SOL    HW216284   0.398   0.217   6.736
 5129SOL     OW16285   6.817   6.754   2.986
 5129SOL    HW116286   6.868   6.789   2.908
 5129SOL    HW216287   6.725   6.794   2.987
 5130SOL     OW16288   0.022   5.280   3.387
 5130SOL    HW116289   0.084   5.263   3.464
 5130SOL    HW216290   0.017   5.378   3.369
 5131SOL     OW16291   2.235   4.177   4.083
 5131SOL    HW116292   2.182   4.246   4.133
 5131SOL    HW216293   2.258   4.102   4.145
 5132SOL     OW16294   3.792   2.904   6.455
 5132SOL    HW116295   3.811   2.827   6.516
 5132SOL    HW216296   3.771   2.869   6.363
 5133SOL     OW16297   1.771   5.145   6.937
 5133SOL    HW116298   1.813   5.226   6.896
 5133SOL    HW216299   1.678   5.134   6.902
 5134SOL     OW16300   0.188   3.154   2.051
 5134SOL    HW116301   0.267   3.214   2.068
 5134SOL    HW216302   0.156   3.115   2.137
 5135SOL     OW16303   5.957   2.524   5.212
 5135SOL    HW116304   5.891   2.488   5.147
 5135SOL    HW216305   5.954   2.624   5.211
 5136SOL     OW16306   4.448   0.776   6.187
 5136SOL    HW116307   4.528   0.810   6.237
 5136SOL    HW216308   4.398   0.852   6.147
 5137SOL     OW16309   5.558   3.865   5.971
 5137SOL    HW116310   5.558   3.911   5.882
 5137SOL    HW216311   5.604   3.777   5.963
 5138SOL     OW16312   2.957   2.638   5.643
 5138SOL    HW116313   2.890   2.584   5.591
 5138SOL    HW216314   3.049   2.614   5.612
 5139SOL     OW16315   2.289   0.229   3.195
 5139SOL    HW116316   2.359   0.287   3.154
 5139SOL    HW216317   2.219   0.206   3.126
 5140SOL     OW16318   3.923   2.384   0.138
 5140SOL    HW116319   3.876   2.380   0.050
 5140SOL    HW216320   3.855   2.398   0.211
 5141SOL     OW16321   6.578   3.794   0.287
 5141SOL    HW116322   6.577   3.717   0.224
 5141SOL    HW216323   6.642   3.774   0.362
 5142SOL     OW16324   6.359   0.301   4.205
 5142SOL    HW116325   6.443   0.260   4.239
 5142SOL    HW216326   6.281   0.244   4.230
 5143SOL     OW16327   6.982   4.543   4.241
 5143SOL    HW116328   7.020   4.499   4.160
 5143SOL    HW216329   0.012   4.522   4.321
 5144SOL     OW16330   1.159   4.838   5.873
 5144SOL    HW116331   1.238   4.786   5.905
 5144SOL    HW216332   1.098   4.856   5.950
 5145SOL     OW16333   2.306   4.967   5.476
 5145SOL    HW116334   2.242   4.890   5.474
 5145SOL    HW216335   2.367   4.957   5.554
 5146SOL     OW16336   4.023   4.103   5.137
 5146SOL    HW116337   3.955   4.168   5.104
 5146SOL    HW216338   3.981   4.012   5.145
 5147SOL     OW16339   6.414   4.610   3.213
 5147SOL    HW116340   6.391   4.707   3.217
 5147SOL    HW216341   6.366   4.568   3.136
 5148SOL     OW16342   0.823   6.170   1.300
 5148SOL    HW116343   0.723   6.167   1.301
 5148SOL    HW216344   0.854   6.265   1.304
 5149SOL     OW16345   6.616   5.914   3.137
 5149SOL    HW116346   6.521   5.907   3.168
 5149SOL    HW216347   6.626   5.994   3.078
 5150SOL     OW16348   2.051   4.998   2.314
 5150SOL    HW116349   1.983   4.976   2.384
 5150SOL    HW216350   2.140   5.013   2.359
 5151SOL     OW16351   5.583   2.296   0.854
 5151SOL    HW116352   5.624   2.244   0.779
 5151SOL    HW216353   5.497   2.336   0.824
 5152SOL     OW16354   2.098   5.193   0.030
 5152SOL    HW116355   2.014   5.230   7.017
 5152SOL    HW216356   2.149   5.266   0.076
 5153SOL     OW16357   2.222   0.364   6.986
 5153SOL    HW116358   2.166   0.446   6.974
 5153SOL    HW216359   2.180   0.304   0.026
 5154SOL     OW16360   0.848   3.266   6.215
 5154SOL    HW116361   0.862   3.364   6.221
 5154SOL    HW216362   0.752   3.247   6.196
 5155SOL     OW16363   4.248   6.697   2.306
 5155SOL    HW116364   4.317   6.672   2.237
 5155SOL    HW216365   4.256   6.794   2.327
 5156SOL     OW16366   6.556   3.270   5.983
 5156SOL    HW116367   6.528   3.266   6.079
 5156SOL    HW216368   6.501   3.338   5.936
 5157SOL     OW16369   4.315   2.035   3.799
 5157SOL    HW116370   4.232   2.045   3.853
 5157SOL    HW216371   4.340   1.938   3.793
 5158SOL     OW16372   3.709   1.136   1.889
 5158SOL    HW116373   3.748   1.131   1.981
 5158SOL    HW216374   3.757   1.072   1.829
 5159SOL     OW16375   6.748   3.396   3.909
 5159SOL    HW116376   6.761   3.392   3.810
 5159SOL    HW216377   6.757   3.490   3.941
 5160SOL     OW16378   6.963   4.247   3.653
 5160SOL    HW116379   7.005   4.166   3.611
 5160SOL    HW216380   6.961   4.322   3.586
 5161SOL     OW16381   1.385   4.065   5.017
 5161SOL    HW116382   1.295   4.101   4.991
 5161SOL    HW216383   1.391   4.062   5.116
 5162SOL     OW16384   1.153   5.683   3.328
 5162SOL    HW116385   1.098   5.743   3.270
 5162SOL    HW216386   1.214   5.738   3.385
 5163SOL     OW16387   3.908   6.010   0.457
 5163SOL    HW116388   3.945   6.078   0.393
 5163SOL    HW216389   3.884   6.055   0.543
 5164SOL     OW16390   4.139   2.566   6.620
 5164SOL    HW116391   4.103   2.573   6.527
 5164SOL    HW216392   4.206   2.492   6.625
 5165SOL     OW16393   6.033   4.671   5.614
 5165SOL    HW116394   6.052   4.590   5.558
 5165SOL    HW216395   5.959   4.723   5.572
 5166SOL     OW16396   0.179   5.429   3.114
 5166SOL    HW116397   0.135   5.376   3.041
 5166SOL    HW216398   0.122   5.508   3.136
 5167SOL     OW16399   6.644   5.783   5.781
 5167SOL    HW116400   6.575   5.733   5.835
 5167SOL    HW216401   6.676   5.861   5.834
 5168SOL     OW16402   4.876   3.769   3.025
 5168SOL    HW116403   4.951   3.822   2.983
 5168SOL    HW216404   4.841   3.703   2.958
 5169SOL     OW16405   4.221   1.599   5.073
 5169SOL    HW116406   4.254   1.581   5.166
 5169SOL    HW216407   4.247   1.691   5.045
 5170SOL     OW16408   0.241   4.366   5.225
 5170SOL    HW116409   0.218   4.364   5.322
 5170SOL    HW216410   0.229   4.275   5.185
 5171SOL     OW16411   1.452   5.910   3.894
 5171SOL    HW116412   1.404   5.994   3.870
 5171SOL    HW216413   1.501   5.875   3.814
 5172SOL     OW16414   0.135   2.364   2.711
 5172SOL    HW116415   0.077   2.400   2.638
 5172SOL    HW216416   0.231   2.377   2.686
 5173SOL     OW16417   5.773   4.965   6.184
 5173SOL    HW116418   5.746   4.892   6.246
 5173SOL    HW216419   5.764   5.053   6.231
 5174SOL     OW16420   2.657   4.661   2.922
 5174SOL    HW116421   2.640   4.619   2.833
 5174SOL    HW216422   2.600   4.617   2.992
 5175SOL     OW16423   2.427   3.874   6.689
 5175SOL    HW116424   2.503   3.938   6.684
 5175SOL    HW216425   2.462   3.782   6.705
 5176SOL     OW16426   4.589   3.239   6.517
 5176SOL    HW116427   4.612   3.145   6.542
 5176SOL    HW216428   4.490   3.251   6.516
 5177SOL     OW16429   4.956   0.168   6.951
 5177SOL    HW116430   5.021   0.224   7.001
 5177SOL    HW216431   4.927   0.091   7.008
 5178SOL     OW16432   1.114   3.577   1.531
 5178SOL    HW116433   1.087   3.628   1.449
 5178SOL    HW216434   1.209   3.548   1.523
 5179SOL     OW16435   4.134   6.214   4.614
 5179SOL    HW116436   4.206   6.180   4.675
 5179SOL    HW216437   4.074   6.139   4.587
 5180SOL     OW16438   3.264   2.725   0.382
 5180SOL    HW116439   3.331   2.673   0.435
 5180SOL    HW216440   3.190   2.664   0.353
 5181SOL     OW16441   5.139   2.131   2.373
 5181SOL    HW116442   5.043   2.110   2.353
 5181SOL    HW216443   5.170   2.203   2.311
 5182SOL     OW16444   3.772   4.600   1.676
 5182SOL    HW116445   3.685   4.621   1.719
 5182SOL    HW216446   3.847   4.630   1.736
 5183SOL     OW16447   4.159   1.734   2.336
 5183SOL    HW116448   4.095   1.765   2.407
 5183SOL    HW216449   4.111   1.727   2.248
 5184SOL     OW16450   0.682   2.473   4.329
 5184SOL    HW116451   0.773   2.494   4.365
 5184SOL    HW216452   0.628   2.557   4.325
 5185SOL     OW16453   5.202   0.867   2.324
 5185SOL    HW116454   5.139   0.793   2.300
 5185SOL    HW216455   5.161   0.923   2.396
 5186SOL     OW16456   6.239   2.959   0.681
 5186SOL    HW116457   6.195   2.946   0.770
 5186SOL    HW216458   6.330   2.998   0.695
 5187SOL     OW16459   0.401   0.353   3.946
 5187SOL    HW116460   0.420   0.313   4.035
 5187SOL    HW216461   0.434   0.448   3.945
 5188SOL     OW16462   0.473   5.467   0.517
 5188SOL    HW116463   0.526   5.477   0.433
 5188SOL    HW216464   0.532   5.434   0.591
 5189SOL     OW16465   5.229   5.076   1.061
 5189SOL    HW116466   5.201   5.019   1.138
 5189SOL    HW216467   5.329   5.076   1.054
 5190SOL     OW16468   0.161   3.159   4.116
 5190SOL    HW116469   0.222   3.173   4.194
 5190SOL    HW216470   0.093   3.232   4.113
 5191SOL     OW16471   3.882   0.381   1.750
 5191SOL    HW116472   3.877   0.315   1.674
 5191SOL    HW216473   3.801   0.372   1.807
 5192SOL     OW16474   2.902   5.628   3.087
 5192SOL    HW116475   2.815   5.619   3.038
 5192SOL    HW216476   2.975   5.586   3.033
 5193SOL     OW16477   5.410   4.256   4.609
 5193SOL    HW116478   5.471   4.245   4.531
 5193SOL    HW216479   5.414   4.174   4.667
 5194SOL     OW16480   3.721   0.856   0.167
 5194SOL    HW116481   3.720   0.912   0.085
 5194SOL    HW216482   3.771   0.771   0.149
 5195SOL     OW16483   6.769   5.948   3.939
 5195SOL    HW116484   6.818   6.025   3.981
 5195SOL    HW216485   6.832   5.897   3.880
 5196SOL     OW16486   1.487   4.157   0.806
 5196SOL    HW116487   1.420   4.124   0.739
 5196SOL    HW216488   1.571   4.102   0.800
 5197SOL     OW16489   1.908   5.694   4.912
 5197SOL    HW116490   1.963   5.747   4.976
 5197SOL    HW216491   1.946   5.602   4.903
 5198SOL     OW16492   4.196   6.772   3.537
 5198SOL    HW116493   4.195   6.704   3.610
 5198SOL    HW216494   4.277   6.759   3.480
 5199SOL     OW16495   1.460   6.278   6.762
 5199SOL    HW116496   1.491   6.211   6.695
 5199SOL    HW216497   1.363   6.297   6.748
 5200SOL     OW16498   1.427   2.075   5.324
 5200SOL    HW116499   1.420   2.172   5.301
 5200SOL    HW216500   1.375   2.057   5.407
 5201SOL     OW16501   6.313   6.303   4.078
 5201SOL    HW116502   6.333   6.236   4.006
 5201SOL    HW216503   6.296   6.392   4.037
 5202SOL     OW16504   5.669   4.560   6.017
 5202SOL    HW116505   5.638   4.529   6.107
 5202SOL    HW216506   5.595   4.608   5.970
 5203SOL     OW16507   2.063   0.580   6.953
 5203SOL    HW116508   2.104   0.658   6.906
 5203SOL    HW216509   1.990   0.612   7.015
 5204SOL     OW16510   4.038   6.386   0.055
 5204SOL    HW116511   4.117   6.331   0.079
 5204SOL    HW216512   3.968   6.329   0.012
 5205SOL     OW16513   6.803   6.210   0.245
 5205SOL    HW116514   6.840   6.274   0.312
 5205SOL    HW216515   6.711   6.238   0.218
 5206SOL     OW16516   0.153   4.814   6.464
 5206SOL    HW116517   0.090   4.887   6.435
 5206SOL    HW216518   0.243   4.853   6.482
 5207SOL     OW16519   1.349   6.901   3.690
 5207SOL    HW116520   1.344   6.837   3.767
 5207SOL    HW216521   1.427   6.878   3.632
 5208SOL     OW16522   4.195   2.283   6.685
 5208SOL    HW116523   4.126   2.227   6.731
 5208SOL    HW216524   4.257   2.323   6.752
 5209SOL     OW16525   5.643   0.523   1.445
 5209SOL    HW116526   5.722   0.507   1.386
 5209SOL    HW216527   5.674   0.560   1.533
 5210SOL     OW16528   4.681   3.181   0.662
 5210SOL    HW116529   4.778   3.204   0.651
 5210SOL    HW216530   4.634   3.256   0.708
 5211SOL     OW16531   4.401   1.852   5.049
 5211SOL    HW116532   4.481   1.873   5.105
 5211SOL    HW216533   4.338   1.930   5.050
 5212SOL     OW16534   1.568   3.432   1.158
 5212SOL    HW116535   1.582   3.527   1.184
 5212SOL    HW216536   1.541   3.427   1.062
 5213SOL     OW16537   4.363   3.657   1.108
 5213SOL    HW116538   4.275   3.666   1.063
 5213SOL    HW216539   4.437   3.675   1.042
 5214SOL     OW16540   5.515   2.782   6.103
 5214SOL    HW116541   5.602   2.815   6.137
 5214SOL    HW216542   5.519   2.775   6.003
 5215SOL     OW16543   0.857   4.817   4.140
 5215SOL    HW116544   0.827   4.883   4.071
 5215SOL    HW216545   0.873   4.729   4.096
 5216SOL     OW16546   4.670   5.027   1.338
 5216SOL    HW116547   4.708   5.008   1.248
 5216SOL    HW216548   4.677   4.945   1.395
 5217SOL     OW16549   3.430   5.855   4.325
 5217SOL    HW116550   3.491   5.907   4.265
 5217SOL    HW216551   3.336   5.865   4.294
 5218SOL     OW16552   0.800   1.275   1.236
 5218SOL    HW116553   0.739   1.220   1.179
 5218SOL    HW216554   0.809   1.367   1.197
 5219SOL     OW16555   3.428   1.666   4.919
 5219SOL    HW116556   3.454   1.762   4.926
 5219SOL    HW216557   3.489   1.619   4.855
 5220SOL     OW16558   1.269   5.467   3.131
 5220SOL    HW116559   1.290   5.556   3.173
 5220SOL    HW216560   1.354   5.418   3.112
 5221SOL     OW16561   6.348   0.977   3.229
 5221SOL    HW116562   6.336   0.967   3.131
 5221SOL    HW216563   6.439   0.945   3.256
 5222SOL     OW16564   3.893   6.781   1.783
 5222SOL    HW116565   3.843   6.698   1.807
 5222SOL    HW216566   3.912   6.834   1.866
 5223SOL     OW16567   6.943   2.540   6.949
 5223SOL    HW116568   6.948   2.601   6.869
 5223SOL    HW216569   6.854   2.549   6.993
 5224SOL     OW16570   6.579   2.912   4.413
 5224SOL    HW116571   6.544   3.000   4.445
 5224SOL    HW216572   6.609   2.920   4.318
 5225SOL     OW16573   6.768   1.385   3.809
 5225SOL    HW116574   6.844   1.371   3.745
 5225SOL    HW216575   6.705   1.308   3.804
 5226SOL     OW16576   0.435   6.779   4.219
 5226SOL    HW116577   0.394   6.720   4.289
 5226SOL    HW216578   0.527   6.745   4.197
 5227SOL     OW16579   0.484   4.010   5.930
 5227SOL    HW116580   0.551   4.075   5.964
 5227SOL    HW216581   0.463   4.032   5.834
 5228SOL     OW16582   0.645   1.989   0.018
 5228SOL    HW116583   0.604   1.900   0.040
 5228SOL    HW216584   0.699   1.981   6.961
 5229SOL     OW16585   3.292   6.780   0.338
 5229SOL    HW116586   3.204   6.737   0.357
 5229SOL    HW216587   3.339   6.730   0.266
 5230SOL     OW16588   6.487   6.017   1.997
 5230SOL    HW116589   6.450   6.086   1.934
 5230SOL    HW216590   6.503   5.932   1.946
 5231SOL     OW16591   4.567   2.511   3.758
 5231SOL    HW116592   4.599   2.605   3.748
 5231SOL    HW216593   4.507   2.487   3.682
 5232SOL     OW16594   0.919   3.765   6.151
 5232SOL    HW116595   0.983   3.705   6.200
 5232SOL    HW216596   0.877   3.714   6.076
 5233SOL     OW16597   3.642   1.041   2.526
 5233SOL    HW116598   3.729   1.022   2.480
 5233SOL    HW216599   3.657   1.043   2.625
 5234SOL     OW16600   2.717   2.308   6.069
 5234SOL    HW116601   2.675   2.396   6.049
 5234SOL    HW216602   2.777   2.281   5.994
 5235SOL     OW16603   1.647   2.207   0.761
 5235SOL    HW116604   1.662   2.145   0.683
 5235SOL    HW216605   1.549   2.219   0.776
 5236SOL     OW16606   3.815   5.843   2.006
 5236SOL    HW116607   3.840   5.918   1.945
 5236SOL    HW216608   3.897   5.789   2.027
 5237SOL     OW16609   1.196   0.545   4.820
 5237SOL    HW116610   1.102   0.577   4.806
 5237SOL    HW216611   1.256   0.625   4.828
 5238SOL     OW16612   0.544   5.105   0.250
 5238SOL    HW116613   0.569   5.139   0.159
 5238SOL    HW216614   0.465   5.156   0.284
 5239SOL     OW16615   3.767   2.610   6.660
 5239SOL    HW116616   3.808   2.663   6.734
 5239SOL    HW216617   3.730   2.524   6.697
 5240SOL     OW16618   3.308   2.220   5.364
 5240SOL    HW116619   3.393   2.191   5.320
 5240SOL    HW216620   3.262   2.287   5.306
 5241SOL     OW16621   0.202   5.961   3.867
 5241SOL    HW116622   0.223   6.058   3.862
 5241SOL    HW216623   0.236   5.923   3.952
 5242SOL     OW16624   6.053   6.570   1.251
 5242SOL    HW116625   5.973   6.617   1.215
 5242SOL    HW216626   6.135   6.606   1.207
 5243SOL     OW16627   1.866   5.673   1.754
 5243SOL    HW116628   1.801   5.749   1.745
 5243SOL    HW216629   1.816   5.588   1.764
 5244SOL     OW16630   3.642   4.216   6.601
 5244SOL    HW116631   3.542   4.220   6.599
 5244SOL    HW216632   3.680   4.286   6.540
 5245SOL     OW16633   3.743   4.345   0.384
 5245SOL    HW116634   3.737   4.259   0.332
 5245SOL    HW216635   3.811   4.334   0.457
 5246SOL     OW16636   6.528   2.900   1.595
 5246SOL    HW116637   6.440   2.856   1.579
 5246SOL    HW216638   6.589   2.836   1.643
 5247SOL     OW16639   2.697   0.392   6.350
 5247SOL    HW116640   2.634   0.426   6.419
 5247SOL    HW216641   2.704   0.293   6.356
 5248SOL     OW16642   6.374   1.963   3.205
 5248SOL    HW116643   6.302   1.896   3.187
 5248SOL    HW216644   6.439   1.965   3.129
 5249SOL     OW16645   0.825   5.616   6.364
 5249SOL    HW116646   0.868   5.580   6.281
 5249SOL    HW216647   0.812   5.714   6.356
 5250SOL     OW16648   1.387   5.840   0.102
 5250SOL    HW116649   1.452   5.804   0.035
 5250SOL    HW216650   1.417   5.930   0.134
 5251SOL     OW16651   0.848   3.092   6.986
 5251SOL    HW116652   0.830   3.121   6.892
 5251SOL    HW216653   0.767   3.107   0.015
 5252SOL     OW16654   2.975   6.546   0.894
 5252SOL    HW116655   2.976   6.642   0.922
 5252SOL    HW216656   3.019   6.537   0.805
 5253SOL     OW16657   0.017   3.982   4.946
 5253SOL    HW116658   6.987   3.901   4.962
 5253SOL    HW216659   6.985   4.059   4.920
 5254SOL     OW16660   4.805   0.850   3.030
 5254SOL    HW116661   4.829   0.911   2.954
 5254SOL    HW216662   4.880   0.785   3.045
 5255SOL     OW16663   5.373   2.202   5.035
 5255SOL    HW116664   5.451   2.147   5.005
 5255SOL    HW216665   5.329   2.157   5.113
 5256SOL     OW16666   5.403   1.681   3.911
 5256SOL    HW116667   5.418   1.678   3.812
 5256SOL    HW216668   5.450   1.761   3.949
 5257SOL     OW16669   5.288   0.201   1.451
 5257SOL    HW116670   5.234   0.260   1.390
 5257SOL    HW216671   5.381   0.238   1.458
 5258SOL     OW16672   5.722   3.377   2.147
 5258SOL    HW116673   5.808   3.398   2.193
 5258SOL    HW216674   5.733   3.294   2.093
 5259SOL     OW16675   4.735   6.138   2.627
 5259SOL    HW116676   4.743   6.213   2.693
 5259SOL    HW216677   4.642   6.135   2.591
 5260SOL     OW16678   4.991   3.457   0.750
 5260SOL    HW116679   5.050   3.397   0.804
 5260SOL    HW216680   4.964   3.537   0.805
 5261SOL     OW16681   6.857   4.197   5.828
 5261SOL    HW116682   6.763   4.202   5.863
 5261SOL    HW216683   6.889   4.290   5.806
 5262SOL     OW16684   2.460   1.621   3.712
 5262SOL    HW116685   2.435   1.529   3.741
 5262SOL    HW216686   2.381   1.667   3.673
 5263SOL     OW16687   1.679   1.146   3.122
 5263SOL    HW116688   1.675   1.060   3.172
 5263SOL    HW216689   1.707   1.219   3.184
 5264SOL     OW16690   6.723   1.906   2.534
 5264SOL    HW116691   6.761   1.979   2.477
 5264SOL    HW216692   6.758   1.818   2.503
 5265SOL     OW16693   6.309   3.843   3.933
 5265SOL    HW116694   6.297   3.940   3.911
 5265SOL    HW216695   6.305   3.790   3.849
 5266SOL     OW16696   3.409   5.036   6.821
 5266SOL    HW116697   3.461   5.053   6.737
 5266SOL    HW216698   3.463   5.067   6.900
 5267SOL     OW16699   5.194   1.941   5.043
 5267SOL    HW116700   5.114   2.000   5.054
 5267SOL    HW216701   5.209   1.891   5.128
 5268SOL     OW16702   5.569   0.939   0.192
 5268SOL    HW116703   5.653   0.892   0.218
 5268SOL    HW216704   5.581   1.038   0.206
 5269SOL     OW16705   0.761   6.474   2.613
 5269SOL    HW116706   0.848   6.446   2.573
 5269SOL    HW216707   0.712   6.393   2.645
 5270SOL     OW16708   5.342   0.750   1.909
 5270SOL    HW116709   5.356   0.818   1.981
 5270SOL    HW216710   5.272   0.782   1.845
 5271SOL     OW16711   6.451   5.475   5.656
 5271SOL    HW116712   6.440   5.488   5.755
 5271SOL    HW216713   6.488   5.558   5.615
 5272SOL     OW16714   3.321   6.600   1.585
 5272SOL    HW116715   3.327   6.620   1.683
 5272SOL    HW216716   3.258   6.523   1.570
 5273SOL     OW16717   0.449   3.016   3.489
 5273SOL    HW116718   0.503   2.971   3.417
 5273SOL    HW216719   0.355   2.983   3.485
 5274SOL     OW16720   5.886   0.337   2.946
 5274SOL    HW116721   5.964   0.350   2.886
 5274SOL    HW216722   5.805   0.379   2.905
 5275SOL     OW16723   3.705   2.108   0.842
 5275SOL    HW116724   3.614   2.099   0.802
 5275SOL    HW216725   3.700   2.163   0.925
 5276SOL     OW16726   1.873   0.220   0.421
 5276SOL    HW116727   1.785   0.175   0.439
 5276SOL    HW216728   1.857   0.305   0.370
 5277SOL     OW16729   2.139   1.096   1.945
 5277SOL    HW116730   2.226   1.063   1.907
 5277SOL    HW216731   2.127   1.192   1.923
 5278SOL     OW16732   5.735   6.237   3.260
 5278SOL    HW116733   5.789   6.319   3.282
 5278SOL    HW216734   5.642   6.249   3.294
 5279SOL     OW16735   2.405   5.287   6.773
 5279SOL    HW116736   2.505   5.295   6.772
 5279SOL    HW216737   2.379   5.199   6.813
 5280SOL     OW16738   3.161   5.418   4.767
 5280SOL    HW116739   3.065   5.389   4.767
 5280SOL    HW216740   3.220   5.339   4.785
 5281SOL     OW16741   0.037   1.682   2.372
 5281SOL    HW116742   0.017   1.628   2.454
 5281SOL    HW216743   0.082   1.767   2.398
 5282SOL     OW16744   3.548   1.837   3.538
 5282SOL    HW116745   3.629   1.833   3.479
 5282SOL    HW216746   3.516   1.931   3.545
 5283SOL     OW16747   4.369   6.269   1.699
 5283SOL    HW116748   4.273   6.298   1.706
 5283SOL    HW216749   4.381   6.182   1.746
 5284SOL     OW16750   4.734   4.303   3.301
 5284SOL    HW116751   4.726   4.249   3.217
 5284SOL    HW216752   4.756   4.397   3.277
 5285SOL     OW16753   2.295   4.511   4.314
 5285SOL    HW116754   2.315   4.450   4.390
 5285SOL    HW216755   2.330   4.472   4.229
 5286SOL     OW16756   2.001   4.491   0.538
 5286SOL    HW116757   2.026   4.585   0.516
 5286SOL    HW216758   2.000   4.437   0.453
 5287SOL     OW16759   3.256   0.557   6.837
 5287SOL    HW116760   3.161   0.587   6.850
 5287SOL    HW216761   3.257   0.472   6.784
 5288SOL     OW16762   2.953   0.008   1.599
 5288SOL    HW116763   2.867   0.053   1.573
 5288SOL    HW216764   2.985   0.047   1.685
 5289SOL     OW16765   2.227   5.107   6.357
 5289SOL    HW116766   2.316   5.139   6.326
 5289SOL    HW216767   2.155   5.148   6.301
 5290SOL     OW16768   2.758   5.570   5.106
 5290SOL    HW116769   2.771   5.499   5.037
 5290SOL    HW216770   2.663   5.570   5.137
 5291SOL     OW16771   2.550   6.067   5.666
 5291SOL    HW116772   2.603   6.005   5.724
 5291SOL    HW216773   2.584   6.063   5.572
 5292SOL     OW16774   5.939   2.775   6.745
 5292SOL    HW116775   5.912   2.767   6.841
 5292SOL    HW216776   6.035   2.748   6.736
 5293SOL     OW16777   0.469   0.846   5.169
 5293SOL    HW116778   0.384   0.854   5.118
 5293SOL    HW216779   0.493   0.935   5.209
 5294SOL     OW16780   4.838   3.858   5.974
 5294SOL    HW116781   4.820   3.760   5.982
 5294SOL    HW216782   4.809   3.904   6.058
 5295SOL     OW16783   6.561   1.461   2.771
 5295SOL    HW116784   6.661   1.466   2.775
 5295SOL    HW216785   6.528   1.407   2.848
 5296SOL     OW16786   2.107   5.600   6.494
 5296SOL    HW116787   2.158   5.521   6.527
 5296SOL    HW216788   2.009   5.584   6.506
 5297SOL     OW16789   1.918   1.996   1.260
 5297SOL    HW116790   1.896   1.985   1.357
 5297SOL    HW216791   1.904   2.091   1.234
 5298SOL     OW16792   6.867   6.294   1.844
 5298SOL    HW116793   6.801   6.271   1.916
 5298SOL    HW216794   6.960   6.284   1.881
 5299SOL     OW16795   2.771   1.886   0.228
 5299SOL    HW116796   2.740   1.795   0.255
 5299SOL    HW216797   2.692   1.942   0.203
 5300SOL     OW16798   6.881   5.320   2.612
 5300SOL    HW116799   6.923   5.232   2.589
 5300SOL    HW216800   6.934   5.364   2.685
 5301SOL     OW16801   4.354   1.264   0.518
 5301SOL    HW116802   4.425   1.299   0.579
 5301SOL    HW216803   4.336   1.329   0.445
 5302SOL     OW16804   6.005   5.139   3.666
 5302SOL    HW116805   6.041   5.048   3.684
 5302SOL    HW216806   6.000   5.155   3.568
 5303SOL     OW16807   6.836   6.997   3.847
 5303SOL    HW116808   6.929   6.965   3.866
 5303SOL    HW216809   6.810   0.039   3.914
 5304SOL     OW16810   6.399   2.614   6.062
 5304SOL    HW116811   6.460   2.681   6.105
 5304SOL    HW216812   6.360   2.554   6.132
 5305SOL     OW16813   1.601   0.312   4.063
 5305SOL    HW116814   1.612   0.405   4.099
 5305SOL    HW216815   1.674   0.254   4.098
 5306SOL     OW16816   1.936   6.690   5.051
 5306SOL    HW116817   2.034   6.675   5.035
 5306SOL    HW216818   1.890   6.703   4.963
 5307SOL     OW16819   4.270   6.370   6.744
 5307SOL    HW116820   4.286   6.409   6.653
 5307SOL    HW216821   4.317   6.426   6.812
 5308SOL     OW16822   0.683   0.101   4.272
 5308SOL    HW116823   0.732   0.014   4.282
 5308SOL    HW216824   0.738   0.175   4.309
 5309SOL     OW16825   3.876   4.042   3.312
 5309SOL    HW116826   3.803   4.007   3.370
 5309SOL    HW216827   3.886   4.141   3.327
 5310SOL     OW16828   5.018   2.653   2.034
 5310SOL    HW116829   4.921   2.673   2.033
 5310SOL    HW216830   5.065   2.714   2.097
 5311SOL     OW16831   0.409   6.124   0.117
 5311SOL    HW116832   0.379   6.092   0.207
 5311SOL    HW216833   0.497   6.171   0.127
 5312SOL     OW16834   6.831   4.494   2.117
 5312SOL    HW116835   6.902   4.461   2.180
 5312SOL    HW216836   6.760   4.425   2.108
 5313SOL     OW16837   0.929   5.233   0.058
 5313SOL    HW116838   0.938   5.327   0.025
 5313SOL    HW216839   1.012   5.207   0.107
 5314SOL     OW16840   4.763   4.971   0.798
 5314SOL    HW116841   4.681   5.001   0.748
 5314SOL    HW216842   4.817   5.052   0.823
 5315SOL     OW16843   4.559   4.433   1.726
 5315SOL    HW116844   4.551   4.405   1.630
 5315SOL    HW216845   4.522   4.362   1.785
 5316SOL     OW16846   0.016   5.383   4.303
 5316SOL    HW116847   0.048   5.290   4.285
 5316SOL    HW216848   6.955   5.398   4.258
 5317SOL     OW16849   6.018   1.115   4.567
 5317SOL    HW116850   6.006   1.025   4.526
 5317SOL    HW216851   5.935   1.141   4.616
 5318SOL     OW16852   6.695   2.035   4.740
 5318SOL    HW116853   6.600   2.042   4.707
 5318SOL    HW216854   6.695   1.994   4.831
 5319SOL     OW16855   4.661   6.684   6.948
 5319SOL    HW116856   4.628   6.723   6.862
 5319SOL    HW216857   4.633   6.743   7.024
 5320SOL     OW16858   5.856   5.170   6.997
 5320SOL    HW116859   5.953   5.149   6.993
 5320SOL    HW216860   5.805   5.089   0.000
 5321SOL     OW16861   0.750   4.845   3.066
 5321SOL    HW116862   0.774   4.819   2.972
 5321SOL    HW216863   0.700   4.931   3.064
 5322SOL     OW16864   3.889   6.726   6.234
 5322SOL    HW116865   3.863   6.783   6.313
 5322SOL    HW216866   3.980   6.753   6.203
 5323SOL     OW16867   4.738   2.908   0.807
 5323SOL    HW116868   4.641   2.936   0.805
 5323SOL    HW216869   4.779   2.926   0.717
 5324SOL     OW16870   3.798   2.606   1.666
 5324SOL    HW116871   3.701   2.631   1.663
 5324SOL    HW216872   3.809   2.521   1.718
 5325SOL     OW16873   5.632   0.293   3.500
 5325SOL    HW116874   5.648   0.355   3.577
 5325SOL    HW216875   5.620   0.200   3.535
 5326SOL     OW16876   5.817   5.029   2.547
 5326SOL    HW116877   5.807   4.948   2.489
 5326SOL    HW216878   5.899   5.019   2.604
 5327SOL     OW16879   0.466   6.252   5.602
 5327SOL    HW116880   0.386   6.292   5.648
 5327SOL    HW216881   0.486   6.163   5.641
 5328SOL     OW16882   3.498   2.123   5.714
 5328SOL    HW116883   3.445   2.135   5.798
 5328SOL    HW216884   3.491   2.029   5.683
 5329SOL     OW16885   0.212   3.909   0.550
 5329SOL    HW116886   0.199   3.874   0.643
 5329SOL    HW216887   0.162   3.851   0.486
 5330SOL     OW16888   3.369   4.153   6.572
 5330SOL    HW116889   3.328   4.244   6.558
 5330SOL    HW216890   3.309   4.099   6.631
 5331SOL     OW16891   4.941   1.957   1.157
 5331SOL    HW116892   4.957   2.051   1.188
 5331SOL    HW216893   4.979   1.945   1.066
 5332SOL     OW16894   6.404   4.300   0.166
 5332SOL    HW116895   6.307   4.277   0.156
 5332SOL    HW216896   6.424   4.382   0.112
 5333SOL     OW16897   1.870   1.061   3.586
 5333SOL    HW116898   1.963   1.085   3.617
 5333SOL    HW216899   1.876   0.998   3.509
 5334SOL     OW16900   4.692   5.175   4.738
 5334SOL    HW116901   4.740   5.153   4.823
 5334SOL    HW216902   4.722   5.265   4.706
 5335SOL     OW16903   6.975   4.181   1.919
 5335SOL    HW116904   7.020   4.270   1.924
 5335SOL    HW216905   6.876   4.194   1.911
 5336SOL     OW16906   2.224   1.887   3.495
 5336SOL    HW116907   2.152   1.943   3.452
 5336SOL    HW216908   2.188   1.796   3.513
 5337SOL     OW16909   5.714   4.762   1.936
 5337SOL    HW116910   5.652   4.834   1.905
 5337SOL    HW216911   5.734   4.775   2.033
 5338SOL     OW16912   5.720   2.496   6.947
 5338SOL    HW116913   5.790   2.567   6.943
 5338SOL    HW216914   5.749   2.424   7.011
 5339SOL     OW16915   5.396   1.841   1.890
 5339SOL    HW116916   5.341   1.765   1.925
 5339SOL    HW216917   5.457   1.873   1.962
 5340SOL     OW16918   5.457   3.830   1.376
 5340SOL    HW116919   5.496   3.805   1.464
 5340SOL    HW216920   5.364   3.795   1.369
 5341SOL     OW16921   4.297   4.887   4.504
 5341SOL    HW116922   4.212   4.876   4.555
 5341SOL    HW216923   4.310   4.984   4.482
 5342SOL     OW16924   4.765   6.527   4.979
 5342SOL    HW116925   4.832   6.592   5.015
 5342SOL    HW216926   4.675   6.572   4.974
 5343SOL     OW16927   3.725   3.539   4.845
 5343SOL    HW116928   3.817   3.574   4.825
 5343SOL    HW216929   3.730   3.472   4.919
 5344SOL     OW16930   0.363   1.512   6.628
 5344SOL    HW116931   0.387   1.495   6.532
 5344SOL    HW216932   0.267   1.539   6.633
 5345SOL     OW16933   4.836   0.935   0.078
 5345SOL    HW116934   4.757   0.895   0.123
 5345SOL    HW216935   4.818   0.944   7.007
 5346SOL     OW16936   2.847   5.081   3.927
 5346SOL    HW116937   2.791   5.024   3.987
 5346SOL    HW216938   2.790   5.151   3.884
 5347SOL     OW16939   0.023   3.203   3.506
 5347SOL    HW116940   0.024   3.296   3.469
 5347SOL    HW216941   0.059   3.140   3.437
 5348SOL     OW16942   0.231   1.185   5.252
 5348SOL    HW116943   0.156   1.119   5.245
 5348SOL    HW216944   0.297   1.169   5.179
 5349SOL     OW16945   2.326   2.994   1.742
 5349SOL    HW116946   2.378   2.977   1.658
 5349SOL    HW216947   2.281   3.083   1.736
 5350SOL     OW16948   2.020   6.531   5.702
 5350SOL    HW116949   1.920   6.539   5.702
 5350SOL    HW216950   2.049   6.471   5.777
 5351SOL     OW16951   0.343   4.428   1.883
 5351SOL    HW116952   0.358   4.491   1.958
 5351SOL    HW216953   0.397   4.457   1.804
 5352SOL     OW16954   2.499   4.504   3.101
 5352SOL    HW116955   2.435   4.581   3.098
 5352SOL    HW216956   2.577   4.528   3.159
 5353SOL     OW16957   3.774   5.441   3.069
 5353SOL    HW116958   3.726   5.429   2.982
 5353SOL    HW216959   3.719   5.402   3.143
 5354SOL     OW16960   2.779   4.385   6.881
 5354SOL    HW116961   2.852   4.453   6.886
 5354SOL    HW216962   2.707   4.417   6.818
 5355SOL     OW16963   4.982   5.125   5.398
 5355SOL    HW116964   4.991   5.190   5.322
 5355SOL    HW216965   4.954   5.173   5.480
 5356SOL     OW16966   6.967   3.282   1.989
 5356SOL    HW116967   0.036   3.261   2.009
 5356SOL    HW216968   6.909   3.240   2.059
 5357SOL     OW16969   3.974   4.712   1.830
 5357SOL    HW116970   4.027   4.755   1.757
 5357SOL    HW216971   4.032   4.700   1.911
 5358SOL     OW16972   4.598   1.973   0.691
 5358SOL    HW116973   4.630   1.878   0.694
 5358SOL    HW216974   4.635   2.023   0.769
 5359SOL     OW16975   2.376   1.816   6.758
 5359SOL    HW116976   2.355   1.721   6.735
 5359SOL    HW216977   2.401   1.866   6.676
 5360SOL     OW16978   5.672   5.959   3.165
 5360SOL    HW116979   5.758   5.969   3.215
 5360SOL    HW216980   5.659   6.039   3.106
 5361SOL     OW16981   2.980   6.423   3.147
 5361SOL    HW116982   2.913   6.476   3.198
 5361SOL    HW216983   3.059   6.404   3.206
 5362SOL     OW16984   6.411   6.778   2.703
 5362SOL    HW116985   6.424   6.733   2.792
 5362SOL    HW216986   6.331   6.740   2.658
 5363SOL     OW16987   5.516   6.373   4.748
 5363SOL    HW116988   5.554   6.424   4.671
 5363SOL    HW216989   5.524   6.428   4.831
 5364SOL     OW16990   5.682   0.904   2.194
 5364SOL    HW116991   5.697   0.812   2.230
 5364SOL    HW216992   5.584   0.922   2.188
 5365SOL     OW16993   2.920   3.469   2.324
 5365SOL    HW116994   2.859   3.502   2.252
 5365SOL    HW216995   2.876   3.483   2.413
 5366SOL     OW16996   6.863   0.379   1.975
 5366SOL    HW116997   6.817   0.461   2.011
 5366SOL    HW216998   6.959   0.379   2.003
 5367SOL     OW16999   6.017   0.253   0.906
 5367SOL    HW117000   6.106   0.232   0.865
 5367SOL    HW217001   5.988   0.344   0.877
 5368SOL     OW17002   6.932   5.967   2.184
 5368SOL    HW117003   7.027   5.995   2.169
 5368SOL    HW217004   6.915   5.879   2.139
 5369SOL     OW17005   2.763   6.034   1.581
 5369SOL    HW117006   2.733   5.939   1.585
 5369SOL    HW217007   2.831   6.050   1.653
 5370SOL     OW17008   4.150   3.309   1.802
 5370SOL    HW117009   4.180   3.269   1.715
 5370SOL    HW217010   4.126   3.235   1.865
 5371SOL     OW17011   0.666   5.105   5.114
 5371SOL    HW117012   0.735   5.167   5.152
 5371SOL    HW217013   0.613   5.152   5.044
 5372SOL     OW17014   0.888   0.163   2.563
 5372SOL    HW117015   0.933   0.181   2.650
 5372SOL    HW217016   0.819   0.092   2.575
 5373SOL     OW17017   3.843   6.980   5.981
 5373SOL    HW117018   3.858   6.885   6.006
 5373SOL    HW217019   3.925   0.006   6.000
 5374SOL     OW17020   2.140   4.174   1.164
 5374SOL    HW117021   2.184   4.262   1.149
 5374SOL    HW217022   2.178   4.131   1.246
 5375SOL     OW17023   0.955   5.800   5.499
 5375SOL    HW117024   1.051   5.809   5.525
 5375SOL    HW217025   0.915   5.890   5.483
 5376SOL     OW17026   1.284   2.462   2.156
 5376SOL    HW117027   1.229   2.495   2.079
 5376SOL    HW217028   1.378   2.495   2.145
 5377SOL     OW17029   1.993   1.254   2.936
 5377SOL    HW117030   1.983   1.156   2.953
 5377SOL    HW217031   2.054   1.269   2.858
 5378SOL     OW17032   6.273   0.646   1.268
 5378SOL    HW117033   6.240   0.606   1.182
 5378SOL    HW217034   6.285   0.745   1.256
 5379SOL     OW17035   1.116   3.290   5.435
 5379SOL    HW117036   1.038   3.352   5.446
 5379SOL    HW217037   1.134   3.243   5.522
 5380SOL     OW17038   3.236   0.177   1.276
 5380SOL    HW117039   3.331   0.189   1.245
 5380SOL    HW217040   3.219   0.237   1.354
 5381SOL     OW17041   6.124   6.366   2.636
 5381SOL    HW117042   6.157   6.271   2.636
 5381SOL    HW217043   6.025   6.367   2.620
 5382SOL     OW17044   3.584   2.092   2.676
 5382SOL    HW117045   3.571   2.186   2.645
 5382SOL    HW217046   3.523   2.031   2.625
 5383SOL     OW17047   1.367   3.010   4.683
 5383SOL    HW117048   1.305   3.081   4.713
 5383SOL    HW217049   1.341   2.980   4.591
 5384SOL     OW17050   4.468   5.769   4.820
 5384SOL    HW117051   4.567   5.778   4.811
 5384SOL    HW217052   4.444   5.753   4.916
 5385SOL     OW17053   6.411   2.519   5.482
 5385SOL    HW117054   6.365   2.576   5.550
 5385SOL    HW217055   6.448   2.577   5.409
 5386SOL     OW17056   5.737   2.346   3.775
 5386SOL    HW117057   5.647   2.320   3.740
 5386SOL    HW217058   5.751   2.306   3.865
 5387SOL     OW17059   2.611   6.672   3.246
 5387SOL    HW117060   2.607   6.688   3.147
 5387SOL    HW217061   2.674   6.597   3.266
 5388SOL     OW17062   1.654   6.546   2.748
 5388SOL    HW117063   1.629   6.531   2.844
 5388SOL    HW217064   1.574   6.534   2.690
 5389SOL     OW17065   4.392   2.475   4.292
 5389SOL    HW117066   4.385   2.474   4.192
 5389SOL    HW217067   4.410   2.569   4.323
 5390SOL     OW17068   5.202   4.094   4.409
 5390SOL    HW117069   5.278   4.152   4.382
 5390SOL    HW217070   5.237   4.013   4.456
 5391SOL     OW17071   2.799   2.361   0.171
 5391SOL    HW117072   2.738   2.437   0.191
 5391SOL    HW217073   2.865   2.350   0.246
 5392SOL     OW17074   4.879   3.007   2.625
 5392SOL    HW117075   4.855   2.913   2.603
 5392SOL    HW217076   4.886   3.060   2.541
 5393SOL     OW17077   4.630   0.459   5.263
 5393SOL    HW117078   4.590   0.468   5.172
 5393SOL    HW217079   4.562   0.483   5.333
 5394SOL     OW17080   0.443   5.953   1.009
 5394SOL    HW117081   0.411   5.899   1.087
 5394SOL    HW217082   0.541   5.969   1.017
 5395SOL     OW17083   4.883   1.007   1.342
 5395SOL    HW117084   4.980   1.012   1.320
 5395SOL    HW217085   4.871   0.976   1.436
 5396SOL     OW17086   5.149   6.038   2.261
 5396SOL    HW117087   5.142   6.055   2.163
 5396SOL    HW217088   5.126   5.943   2.280
 5397SOL     OW17089   6.892   1.970   2.043
 5397SOL    HW117090   6.977   1.988   1.993
 5397SOL    HW217091   6.850   2.057   2.068
 5398SOL     OW17092   3.790   2.113   3.323
 5398SOL    HW117093   3.883   2.151   3.316
 5398SOL    HW217094   3.792   2.030   3.378
 5399SOL     OW17095   2.399   6.494   5.877
 5399SOL    HW117096   2.460   6.493   5.956
 5399SOL    HW217097   2.401   6.405   5.832
 5400SOL     OW17098   3.763   3.232   1.277
 5400SOL    HW117099   3.857   3.222   1.310
 5400SOL    HW217100   3.726   3.142   1.256
 5401SOL     OW17101   4.964   4.305   3.437
 5401SOL    HW117102   5.017   4.221   3.426
 5401SOL    HW217103   4.896   4.311   3.364
 5402SOL     OW17104   3.360   6.319   0.827
 5402SOL    HW117105   3.326   6.248   0.766
 5402SOL    HW217106   3.289   6.343   0.893
 5403SOL     OW17107   5.078   2.701   6.358
 5403SOL    HW117108   5.016   2.635   6.316
 5403SOL    HW217109   5.152   2.723   6.295
 5404SOL     OW17110   0.777   0.694   0.717
 5404SOL    HW117111   0.867   0.652   0.708
 5404SOL    HW217112   0.781   0.788   0.683
 5405SOL     OW17113   5.852   4.874   0.250
 5405SOL    HW117114   5.792   4.915   0.181
 5405SOL    HW217115   5.905   4.800   0.209
 5406SOL     OW17116   1.819   1.172   4.777
 5406SOL    HW117117   1.726   1.190   4.746
 5406SOL    HW217118   1.838   1.074   4.767
 5407SOL     OW17119   2.936   1.294   1.509
 5407SOL    HW117120   2.890   1.299   1.597
 5407SOL    HW217121   2.895   1.360   1.445
 5408SOL     OW17122   3.940   2.023   4.754
 5408SOL    HW117123   3.990   2.053   4.673
 5408SOL    HW217124   3.841   2.026   4.734
 5409SOL     OW17125   6.367   2.058   2.241
 5409SOL    HW117126   6.371   2.116   2.160
 5409SOL    HW217127   6.449   2.002   2.246
 5410SOL     OW17128   0.456   2.919   0.656
 5410SOL    HW117129   0.424   2.940   0.563
 5410SOL    HW217130   0.448   2.821   0.672
 5411SOL     OW17131   5.427   4.273   0.138
 5411SOL    HW117132   5.455   4.365   0.166
 5411SOL    HW217133   5.350   4.244   0.195
 5412SOL     OW17134   1.828   1.245   6.275
 5412SOL    HW117135   1.745   1.196   6.301
 5412SOL    HW217136   1.900   1.180   6.252
 5413SOL     OW17137   7.024   6.962   5.696
 5413SOL    HW117138   6.928   6.939   5.712
 5413SOL    HW217139   0.018   6.952   5.599
 5414SOL     OW17140   6.928   4.446   5.787
 5414SOL    HW117141   6.909   4.462   5.690
 5414SOL    HW217142   6.987   4.519   5.822
 5415SOL     OW17143   3.073   5.646   0.323
 5415SOL    HW117144   3.030   5.603   0.244
 5415SOL    HW217145   3.051   5.593   0.405
 5416SOL     OW17146   3.330   5.094   4.505
 5416SOL    HW117147   3.313   5.182   4.460
 5416SOL    HW217148   3.252   5.034   4.492
 5417SOL     OW17149   3.794   0.176   4.233
 5417SOL    HW117150   3.894   0.180   4.243
 5417SOL    HW217151   3.759   0.099   4.285
 5418SOL     OW17152   5.362   4.830   4.951
 5418SOL    HW117153   5.282   4.792   4.997
 5418SOL    HW217154   5.371   4.790   4.860
 5419SOL     OW17155   3.951   6.644   0.119
 5419SOL    HW117156   3.893   6.658   0.200
 5419SOL    HW217157   3.982   6.549   0.118
 5420SOL     OW17158   1.841   1.801   1.571
 5420SOL    HW117159   1.765   1.775   1.632
 5420SOL    HW217160   1.844   1.738   1.493
 5421SOL     OW17161   3.105   5.364   2.109
 5421SOL    HW117162   3.122   5.458   2.078
 5421SOL    HW217163   3.187   5.309   2.092
 5422SOL     OW17164   2.203   5.771   4.256
 5422SOL    HW117165   2.299   5.752   4.234
 5422SOL    HW217166   2.185   5.749   4.351
 5423SOL     OW17167   6.237   5.371   1.742
 5423SOL    HW117168   6.159   5.348   1.684
 5423SOL    HW217169   6.322   5.363   1.689
 5424SOL     OW17170   4.908   3.943   4.613
 5424SOL    HW117171   4.858   3.963   4.698
 5424SOL    HW217172   4.879   3.854   4.578
 5425SOL     OW17173   6.102   2.956   4.706
 5425SOL    HW117174   6.172   2.929   4.640
 5425SOL    HW217175   6.113   2.903   4.790
 5426SOL     OW17176   4.493   5.514   2.460
 5426SOL    HW117177   4.553   5.578   2.508
 5426SOL    HW217178   4.487   5.539   2.364
 5427SOL     OW17179   4.694   3.100   0.152
 5427SOL    HW117180   4.625   3.172   0.153
 5427SOL    HW217181   4.657   3.019   0.105
 5428SOL     OW17182   4.973   6.313   2.633
 5428SOL    HW117183   4.926   6.331   2.546
 5428SOL    HW217184   5.045   6.245   2.617
 5429SOL     OW17185   2.716   6.793   4.922
 5429SOL    HW117186   2.775   6.860   4.879
 5429SOL    HW217187   2.771   6.725   4.971
 5430SOL     OW17188   1.581   3.034   5.861
 5430SOL    HW117189   1.586   2.979   5.778
 5430SOL    HW217190   1.637   2.993   5.933
 5431SOL     OW17191   3.370   5.125   6.402
 5431SOL    HW117192   3.327   5.039   6.428
 5431SOL    HW217193   3.435   5.153   6.473
 5432SOL     OW17194   5.651   5.867   0.622
 5432SOL    HW117195   5.705   5.948   0.643
 5432SOL    HW217196   5.554   5.888   0.631
 5433SOL     OW17197   1.237   6.791   1.014
 5433SOL    HW117198   1.175   6.824   1.086
 5433SOL    HW217199   1.213   6.696   0.990
 5434SOL     OW17200   4.914   0.986   5.117
 5434SOL    HW117201   4.948   1.071   5.078
 5434SOL    HW217202   4.982   0.948   5.180
 5435SOL     OW17203   6.305   3.653   0.787
 5435SOL    HW117204   6.222   3.598   0.777
 5435SOL    HW217205   6.296   3.714   0.866
 5436SOL     OW17206   0.556   5.456   3.907
 5436SOL    HW117207   0.539   5.554   3.913
 5436SOL    HW217208   0.470   5.408   3.891
 5437SOL     OW17209   3.615   4.830   6.147
 5437SOL    HW117210   3.636   4.885   6.228
 5437SOL    HW217211   3.679   4.753   6.141
 5438SOL     OW17212   5.293   5.009   2.067
 5438SOL    HW117213   5.367   5.073   2.087
 5438SOL    HW217214   5.320   4.917   2.095
 5439SOL     OW17215   1.116   3.771   0.122
 5439SOL    HW117216   1.211   3.771   0.091
 5439SOL    HW217217   1.102   3.845   0.187
 5440SOL     OW17218   5.714   0.138   3.064
 5440SOL    HW117219   5.745   0.215   3.009
 5440SOL    HW217220   5.771   0.130   3.145
 5441SOL     OW17221   5.688   3.201   3.433
 5441SOL    HW117222   5.645   3.112   3.421
 5441SOL    HW217223   5.708   3.217   3.530
 5442SOL     OW17224   4.176   0.707   3.610
 5442SOL    HW117225   4.168   0.611   3.585
 5442SOL    HW217226   4.259   0.721   3.665
 5443SOL     OW17227   4.297   6.545   3.771
 5443SOL    HW117228   4.286   6.448   3.747
 5443SOL    HW217229   4.215   6.577   3.819
 5444SOL     OW17230   0.104   2.234   4.057
 5444SOL    HW117231   0.029   2.171   4.037
 5444SOL    HW217232   0.097   2.315   4.000
 5445SOL     OW17233   5.199   4.470   4.518
 5445SOL    HW117234   5.129   4.454   4.588
 5445SOL    HW217235   5.154   4.500   4.434
 5446SOL     OW17236   6.407   4.482   4.464
 5446SOL    HW117237   6.468   4.405   4.450
 5446SOL    HW217238   6.458   4.568   4.455
 5447SOL     OW17239   2.849   1.467   1.294
 5447SOL    HW117240   2.933   1.439   1.248
 5447SOL    HW217241   2.802   1.536   1.237
 5448SOL     OW17242   4.776   5.369   4.123
 5448SOL    HW117243   4.723   5.349   4.041
 5448SOL    HW217244   4.755   5.301   4.194
 5449SOL     OW17245   2.882   1.418   1.744
 5449SOL    HW117246   2.970   1.407   1.790
 5449SOL    HW217247   2.878   1.509   1.700
 5450SOL     OW17248   3.278   6.121   1.592
 5450SOL    HW117249   3.333   6.055   1.542
 5450SOL    HW217250   3.303   6.120   1.689
 5451SOL     OW17251   1.833   6.547   3.103
 5451SOL    HW117252   1.806   6.477   3.169
 5451SOL    HW217253   1.913   6.515   3.053
 5452SOL     OW17254   1.861   4.368   0.984
 5452SOL    HW117255   1.889   4.283   1.030
 5452SOL    HW217256   1.841   4.348   0.888
 5453SOL     OW17257   4.979   4.104   1.792
 5453SOL    HW117258   5.036   4.051   1.855
 5453SOL    HW217259   4.883   4.079   1.805
 5454SOL     OW17260   5.936   6.073   2.334
 5454SOL    HW117261   6.007   6.004   2.346
 5454SOL    HW217262   5.949   6.120   2.246
 5455SOL     OW17263   0.938   1.416   2.947
 5455SOL    HW117264   0.986   1.504   2.947
 5455SOL    HW217265   0.981   1.354   2.882
 5456SOL     OW17266   4.878   0.576   6.793
 5456SOL    HW117267   4.809   0.620   6.735
 5456SOL    HW217268   4.877   0.618   6.883
 5457SOL     OW17269   6.317   1.921   0.153
 5457SOL    HW117270   6.233   1.883   0.191
 5457SOL    HW217271   6.299   1.962   0.064
 5458SOL     OW17272   6.413   5.198   1.004
 5458SOL    HW117273   6.404   5.285   1.053
 5458SOL    HW217274   6.492   5.148   1.041
 5459SOL     OW17275   2.126   4.526   5.702
 5459SOL    HW117276   2.155   4.459   5.633
 5459SOL    HW217277   2.065   4.481   5.768
 5460SOL     OW17278   2.432   1.450   1.324
 5460SOL    HW117279   2.412   1.459   1.227
 5460SOL    HW217280   2.446   1.541   1.364
 5461SOL     OW17281   1.139   1.423   5.951
 5461SOL    HW117282   1.061   1.365   5.926
 5461SOL    HW217283   1.166   1.478   5.873
 5462SOL     OW17284   5.368   5.996   6.971
 5462SOL    HW117285   5.271   6.015   6.977
 5462SOL    HW217286   5.396   5.994   6.875
 5463SOL     OW17287   6.385   1.826   6.596
 5463SOL    HW117288   6.348   1.874   6.517
 5463SOL    HW217289   6.405   1.892   6.668
 5464SOL     OW17290   6.335   5.329   5.443
 5464SOL    HW117291   6.374   5.371   5.525
 5464SOL    HW217292   6.408   5.308   5.378
 5465SOL     OW17293   6.619   6.882   3.217
 5465SOL    HW117294   6.550   6.814   3.194
 5465SOL    HW217295   6.710   6.841   3.206
 5466SOL     OW17296   5.310   2.834   5.494
 5466SOL    HW117297   5.244   2.852   5.566
 5466SOL    HW217298   5.342   2.920   5.455
 5467SOL     OW17299   5.667   3.732   3.658
 5467SOL    HW117300   5.640   3.651   3.605
 5467SOL    HW217301   5.595   3.753   3.725
 5468SOL     OW17302   6.719   2.879   3.422
 5468SOL    HW117303   6.815   2.860   3.444
 5468SOL    HW217304   6.714   2.925   3.333
 5469SOL     OW17305   2.220   6.697   5.910
 5469SOL    HW117306   2.232   6.730   5.817
 5469SOL    HW217307   2.284   6.621   5.927
 5470SOL     OW17308   4.150   5.385   3.845
 5470SOL    HW117309   4.097   5.385   3.760
 5470SOL    HW217310   4.236   5.336   3.831
 5471SOL     OW17311   5.670   0.646   2.481
 5471SOL    HW117312   5.663   0.546   2.488
 5471SOL    HW217313   5.578   0.686   2.487
 5472SOL     OW17314   3.372   2.815   6.141
 5472SOL    HW117315   3.386   2.909   6.173
 5472SOL    HW217316   3.431   2.753   6.192
 5473SOL     OW17317   1.992   4.795   0.447
 5473SOL    HW117318   2.000   4.865   0.518
 5473SOL    HW217319   2.056   4.816   0.372
 5474SOL     OW17320   0.860   5.723   3.614
 5474SOL    HW117321   0.829   5.814   3.641
 5474SOL    HW217322   0.790   5.679   3.558
 5475SOL     OW17323   1.724   1.811   0.888
 5475SOL    HW117324   1.788   1.875   0.845
 5475SOL    HW217325   1.725   1.824   0.987
 5476SOL     OW17326   3.122   5.154   5.461
 5476SOL    HW117327   3.116   5.250   5.435
 5476SOL    HW217328   3.174   5.145   5.547
 5477SOL     OW17329   1.950   4.071   3.357
 5477SOL    HW117330   1.941   3.975   3.384
 5477SOL    HW217331   1.958   4.077   3.258
 5478SOL     OW17332   5.420   6.091   5.875
 5478SOL    HW117333   5.412   5.999   5.915
 5478SOL    HW217334   5.333   6.138   5.883
 5479SOL     OW17335   4.554   0.945   4.545
 5479SOL    HW117336   4.613   1.024   4.532
 5479SOL    HW217337   4.591   0.886   4.616
 5480SOL     OW17338   5.939   5.226   4.853
 5480SOL    HW117339   5.938   5.309   4.909
 5480SOL    HW217340   5.989   5.154   4.900
 5481SOL     OW17341   4.759   0.744   4.686
 5481SOL    HW117342   4.836   0.681   4.697
 5481SOL    HW217343   4.683   0.716   4.744
 5482SOL     OW17344   2.983   3.893   2.459
 5482SOL    HW117345   3.045   3.956   2.505
 5482SOL    HW217346   2.897   3.888   2.509
 5483SOL     OW17347   6.143   2.489   5.409
 5483SOL    HW117348   6.085   2.508   5.330
 5483SOL    HW217349   6.234   2.463   5.379
 5484SOL     OW17350   6.238   0.580   3.745
 5484SOL    HW117351   6.151   0.567   3.698
 5484SOL    HW217352   6.253   0.506   3.810
 5485SOL     OW17353   3.182   6.798   4.626
 5485SOL    HW117354   3.249   6.789   4.554
 5485SOL    HW217355   3.215   6.752   4.709
 5486SOL     OW17356   2.233   6.659   3.847
 5486SOL    HW117357   2.235   6.588   3.918
 5486SOL    HW217358   2.163   6.637   3.779
 5487SOL     OW17359   5.430   3.916   6.644
 5487SOL    HW117360   5.377   3.930   6.728
 5487SOL    HW217361   5.368   3.892   6.569
 5488SOL     OW17362   4.896   1.261   0.761
 5488SOL    HW117363   4.994   1.275   0.745
 5488SOL    HW217364   4.853   1.348   0.783
 5489SOL     OW17365   1.184   4.096   1.991
 5489SOL    HW117366   1.130   4.034   1.933
 5489SOL    HW217367   1.274   4.056   2.007
 5490SOL     OW17368   3.622   0.431   0.589
 5490SOL    HW117369   3.685   0.458   0.662
 5490SOL    HW217370   3.668   0.438   0.501
 5491SOL     OW17371   1.190   3.910   6.115
 5491SOL    HW117372   1.234   3.987   6.069
 5491SOL    HW217373   1.092   3.925   6.120
 5492SOL     OW17374   1.237   1.684   6.083
 5492SOL    HW117375   1.196   1.599   6.051
 5492SOL    HW217376   1.212   1.699   6.179
 5493SOL     OW17377   3.596   3.704   4.506
 5493SOL    HW117378   3.696   3.700   4.507
 5493SOL    HW217379   3.562   3.693   4.599
 5494SOL     OW17380   6.372   2.466   0.433
 5494SOL    HW117381   6.366   2.425   0.342
 5494SOL    HW217382   6.468   2.473   0.461
 5495SOL     OW17383   3.054   2.806   1.689
 5495SOL    HW117384   3.147   2.793   1.657
 5495SOL    HW217385   3.014   2.717   1.713
 5496SOL     OW17386   2.737   6.788   3.037
 5496SOL    HW117387   2.703   6.882   3.026
 5496SOL    HW217388   2.724   6.739   2.951
 5497SOL     OW17389   0.281   2.223   3.522
 5497SOL    HW117390   0.355   2.185   3.577
 5497SOL    HW217391   0.209   2.154   3.511
 5498SOL     OW17392   5.244   0.144   0.905
 5498SOL    HW117393   5.337   0.122   0.937
 5498SOL    HW217394   5.178   0.127   0.978
 5499SOL     OW17395   1.139   1.247   3.716
 5499SOL    HW117396   1.092   1.325   3.673
 5499SOL    HW217397   1.076   1.169   3.720
 5500SOL     OW17398   1.744   5.994   0.033
 5500SOL    HW117399   1.683   6.011   0.110
 5500SOL    HW217400   1.725   6.062   6.987
 5501SOL     OW17401   3.511   0.277   1.203
 5501SOL    HW117402   3.548   0.331   1.128
 5501SOL    HW217403   3.559   0.190   1.208
 5502SOL     OW17404   5.762   4.443   6.523
 5502SOL    HW117405   5.842   4.414   6.577
 5502SOL    HW217406   5.782   4.431   6.426
 5503SOL     OW17407   0.082   4.497   3.225
 5503SOL    HW117408   0.104   4.435   3.149
 5503SOL    HW217409   0.137   4.473   3.305
 5504SOL     OW17410   3.445   1.525   5.515
 5504SOL    HW117411   3.472   1.592   5.584
 5504SOL    HW217412   3.388   1.454   5.557
 5505SOL     OW17413   2.839   5.595   4.642
 5505SOL    HW117414   2.887   5.573   4.727
 5505SOL    HW217415   2.879   5.541   4.567
 5506SOL     OW17416   6.666   0.782   5.862
 5506SOL    HW117417   6.654   0.702   5.920
 5506SOL    HW217418   6.673   0.754   5.767
 5507SOL     OW17419   2.148   0.248   2.753
 5507SOL    HW117420   2.103   0.300   2.826
 5507SOL    HW217421   2.078   0.210   2.693
 5508SOL     OW17422   1.923   1.348   0.130
 5508SOL    HW117423   1.978   1.271   0.098
 5508SOL    HW217424   1.983   1.421   0.163
 5509SOL     OW17425   0.796   6.544   0.260
 5509SOL    HW117426   0.783   6.447   0.237
 5509SOL    HW217427   0.823   6.594   0.178
 5510SOL     OW17428   5.303   6.038   0.894
 5510SOL    HW117429   5.385   6.083   0.929
 5510SOL    HW217430   5.251   5.999   0.970
 5511SOL     OW17431   2.639   6.901   3.992
 5511SOL    HW117432   2.634   6.914   4.091
 5511SOL    HW217433   2.635   6.803   3.971
 5512SOL     OW17434   5.809   2.164   1.362
 5512SOL    HW117435   5.899   2.145   1.399
 5512SOL    HW217436   5.814   2.243   1.300
 5513SOL     OW17437   4.028   4.126   5.697
 5513SOL    HW117438   3.959   4.071   5.744
 5513SOL    HW217439   3.999   4.144   5.603
 5514SOL     OW17440   4.656   5.845   2.704
 5514SOL    HW117441   4.596   5.840   2.783
 5514SOL    HW217442   4.622   5.914   2.640
 5515SOL     OW17443   0.507   4.252   1.598
 5515SOL    HW117444   0.407   4.252   1.594
 5515SOL    HW217445   0.540   4.157   1.601
 5516SOL     OW17446   1.119   3.036   6.938
 5516SOL    HW117447   1.032   3.080   6.962
 5516SOL    HW217448   1.135   2.959   7.001
 5517SOL     OW17449   2.108   2.167   2.145
 5517SOL    HW117450   2.124   2.228   2.067
 5517SOL    HW217451   2.179   2.181   2.214
 5518SOL     OW17452   6.534   6.690   6.453
 5518SOL    HW117453   6.464   6.627   6.486
 5518SOL    HW217454   6.492   6.780   6.439
 5519SOL     OW17455   5.386   3.328   3.434
 5519SOL    HW117456   5.340   3.291   3.515
 5519SOL    HW217457   5.447   3.258   3.396
 5520SOL     OW17458   6.678   5.015   2.881
 5520SOL    HW117459   6.700   5.099   2.930
 5520SOL    HW217460   6.759   4.955   2.879
 5521SOL     OW17461   3.794   6.512   2.284
 5521SOL    HW117462   3.739   6.591   2.311
 5521SOL    HW217463   3.891   6.537   2.285
 5522SOL     OW17464   1.332   4.615   0.954
 5522SOL    HW117465   1.332   4.714   0.940
 5522SOL    HW217466   1.426   4.580   0.950
 5523SOL     OW17467   2.938   6.883   3.200
 5523SOL    HW117468   2.859   6.840   3.157
 5523SOL    HW217469   2.998   6.813   3.239
 5524SOL     OW17470   6.718   5.305   4.672
 5524SOL    HW117471   6.768   5.374   4.620
 5524SOL    HW217472   6.624   5.335   4.685
 5525SOL     OW17473   0.335   3.601   0.325
 5525SOL    HW117474   0.264   3.671   0.322
 5525SOL    HW217475   0.339   3.561   0.417
 5526SOL     OW17476   5.414   4.182   5.104
 5526SOL    HW117477   5.476   4.164   5.180
 5526SOL    HW217478   5.360   4.264   5.123
 5527SOL     OW17479   0.772   3.882   3.847
 5527SOL    HW117480   0.794   3.784   3.850
 5527SOL    HW217481   0.840   3.930   3.791
 5528SOL     OW17482   0.828   1.744   6.334
 5528SOL    HW117483   0.853   1.663   6.280
 5528SOL    HW217484   0.753   1.792   6.289
 5529SOL     OW17485   2.315   0.085   4.423
 5529SOL    HW117486   2.250   0.053   4.355
 5529SOL    HW217487   2.398   0.029   4.420
 5530SOL     OW17488   0.297   2.915   2.567
 5530SOL    HW117489   0.325   2.959   2.481
 5530SOL    HW217490   0.198   2.920   2.576
 5531SOL     OW17491   3.854   3.532   2.990
 5531SOL    HW117492   3.818   3.570   3.074
 5531SOL    HW217493   3.945   3.569   2.972
 5532SOL     OW17494   1.227   1.536   1.231
 5532SOL    HW117495   1.180   1.451   1.255
 5532SOL    HW217496   1.160   1.609   1.217
 5533SOL     OW17497   3.275   1.170   2.939
 5533SOL    HW117498   3.356   1.222   2.964
 5533SOL    HW217499   3.253   1.186   2.843
 5534SOL     OW17500   0.724   2.824   5.720
 5534SOL    HW117501   0.806   2.787   5.675
 5534SOL    HW217502   0.673   2.749   5.762
 5535SOL     OW17503   0.625   2.971   3.727
 5535SOL    HW117504   0.721   2.996   3.710
 5535SOL    HW217505   0.571   2.985   3.644
 5536SOL     OW17506   3.504   1.444   4.056
 5536SOL    HW117507   3.467   1.360   4.096
 5536SOL    HW217508   3.604   1.436   4.049
 5537SOL     OW17509   2.733   0.986   4.515
 5537SOL    HW117510   2.779   0.922   4.453
 5537SOL    HW217511   2.801   1.045   4.558
 5538SOL     OW17512   3.313   0.258   4.724
 5538SOL    HW117513   3.228   0.251   4.672
 5538SOL    HW217514   3.377   0.188   4.693
 5539SOL     OW17515   1.096   2.743   0.408
 5539SOL    HW117516   1.048   2.740   0.496
 5539SOL    HW217517   1.068   2.825   0.357
 5540SOL     OW17518   6.068   3.850   2.581
 5540SOL    HW117519   6.078   3.862   2.482
 5540SOL    HW217520   6.150   3.884   2.627
 5541SOL     OW17521   5.577   1.999   6.635
 5541SOL    HW117522   5.546   2.091   6.609
 5541SOL    HW217523   5.561   1.936   6.558
 5542SOL     OW17524   5.638   6.161   6.305
 5542SOL    HW117525   5.670   6.067   6.318
 5542SOL    HW217526   5.690   6.222   6.363
 5543SOL     OW17527   2.480   5.214   6.346
 5543SOL    HW117528   2.530   5.130   6.369
 5543SOL    HW217529   2.522   5.291   6.394
 5544SOL     OW17530   5.161   5.807   6.161
 5544SOL    HW117531   5.099   5.735   6.130
 5544SOL    HW217532   5.111   5.893   6.170
 5545SOL     OW17533   4.691   1.514   3.464
 5545SOL    HW117534   4.635   1.585   3.506
 5545SOL    HW217535   4.633   1.449   3.416
 5546SOL     OW17536   1.520   6.951   3.973
 5546SOL    HW117537   1.549   6.856   3.972
 5546SOL    HW217538   1.441   6.962   4.033
 5547SOL     OW17539   3.840   0.311   4.848
 5547SOL    HW117540   3.926   0.349   4.884
 5547SOL    HW217541   3.861   0.244   4.777
 5548SOL     OW17542   5.829   3.276   5.007
 5548SOL    HW117543   5.741   3.257   4.964
 5548SOL    HW217544   5.858   3.368   4.985
 5549SOL     OW17545   4.243   4.780   0.904
 5549SOL    HW117546   4.163   4.793   0.846
 5549SOL    HW217547   4.261   4.682   0.916
 5550SOL     OW17548   2.416   4.443   2.217
 5550SOL    HW117549   2.325   4.470   2.249
 5550SOL    HW217550   2.485   4.502   2.260
 5551SOL     OW17551   1.599   6.140   2.940
 5551SOL    HW117552   1.657   6.180   2.869
 5551SOL    HW217553   1.528   6.084   2.898
 5552SOL     OW17554   6.982   6.740   6.613
 5552SOL    HW117555   0.027   6.711   6.676
 5552SOL    HW217556   6.965   6.838   6.625
 5553SOL     OW17557   4.748   6.345   0.059
 5553SOL    HW117558   4.828   6.405   0.060
 5553SOL    HW217559   4.751   6.288   7.003
 5554SOL     OW17560   4.070   1.891   6.687
 5554SOL    HW117561   4.110   1.961   6.628
 5554SOL    HW217562   3.974   1.913   6.705
 5555SOL     OW17563   1.474   3.683   3.022
 5555SOL    HW117564   1.418   3.765   3.026
 5555SOL    HW217565   1.484   3.644   3.114
 5556SOL     OW17566   6.488   1.927   3.576
 5556SOL    HW117567   6.558   1.887   3.516
 5556SOL    HW217568   6.483   2.025   3.561
 5557SOL     OW17569   3.601   7.006   2.833
 5557SOL    HW117570   3.522   6.989   2.891
 5557SOL    HW217571   3.685   6.986   2.884
 5558SOL     OW17572   3.729   3.697   6.060
 5558SOL    HW117573   3.767   3.790   6.065
 5558SOL    HW217574   3.802   3.633   6.037
 5559SOL     OW17575   1.323   0.346   1.317
 5559SOL    HW117576   1.368   0.338   1.406
 5559SOL    HW217577   1.289   0.439   1.306
 5560SOL     OW17578   0.719   5.078   2.107
 5560SOL    HW117579   0.727   5.104   2.011
 5560SOL    HW217580   0.804   5.035   2.137
 5561SOL     OW17581   1.703   1.560   4.005
 5561SOL    HW117582   1.631   1.532   3.942
 5561SOL    HW217583   1.771   1.615   3.956
 5562SOL     OW17584   3.843   2.518   6.421
 5562SOL    HW117585   3.926   2.554   6.380
 5562SOL    HW217586   3.836   2.550   6.515
 5563SOL     OW17587   3.871   5.174   2.352
 5563SOL    HW117588   3.793   5.227   2.386
 5563SOL    HW217589   3.943   5.173   2.421
 5564SOL     OW17590   4.598   0.080   1.112
 5564SOL    HW117591   4.667   0.062   1.042
 5564SOL    HW217592   4.514   0.112   1.068
 5565SOL     OW17593   4.425   1.864   6.179
 5565SOL    HW117594   4.452   1.953   6.215
 5565SOL    HW217595   4.377   1.875   6.092
 5566SOL     OW17596   1.573   4.146   6.622
 5566SOL    HW117597   1.495   4.122   6.679
 5566SOL    HW217598   1.556   4.116   6.528
 5567SOL     OW17599   6.994   2.606   1.024
 5567SOL    HW117600   6.907   2.638   0.986
 5567SOL    HW217601   0.001   2.529   0.969
 5568SOL     OW17602   4.807   1.949   3.894
 5568SOL    HW117603   4.797   1.961   3.795
 5568SOL    HW217604   4.722   1.973   3.939
 5569SOL     OW17605   1.893   2.321   2.510
 5569SOL    HW117606   1.874   2.326   2.412
 5569SOL    HW217607   1.882   2.227   2.541
 5570SOL     OW17608   6.713   4.078   5.159
 5570SOL    HW117609   6.645   4.131   5.109
 5570SOL    HW217610   6.805   4.109   5.133
 5571SOL     OW17611   0.088   5.997   0.845
 5571SOL    HW117612   0.152   6.067   0.877
 5571SOL    HW217613   0.053   5.945   0.923
 5572SOL     OW17614   1.093   2.459   5.094
 5572SOL    HW117615   1.084   2.559   5.092
 5572SOL    HW217616   1.172   2.435   5.151
 5573SOL     OW17617   2.285   4.986   4.866
 5573SOL    HW117618   2.371   5.023   4.901
 5573SOL    HW217619   2.285   4.887   4.874
 5574SOL     OW17620   0.289   1.996   2.428
 5574SOL    HW117621   0.334   1.926   2.484
 5574SOL    HW217622   0.191   1.999   2.451
 5575SOL     OW17623   6.482   1.324   0.916
 5575SOL    HW117624   6.565   1.287   0.958
 5575SOL    HW217625   6.460   1.412   0.958
 5576SOL     OW17626   0.875   5.060   1.540
 5576SOL    HW117627   0.972   5.081   1.524
 5576SOL    HW217628   0.868   4.986   1.607
 5577SOL     OW17629   2.944   3.605   5.519
 5577SOL    HW117630   2.879   3.660   5.571
 5577SOL    HW217631   3.035   3.646   5.526
 5578SOL     OW17632   3.655   3.724   0.763
 5578SOL    HW117633   3.576   3.677   0.804
 5578SOL    HW217634   3.681   3.677   0.678
 5579SOL     OW17635   0.577   2.903   0.234
 5579SOL    HW117636   0.579   2.976   0.166
 5579SOL    HW217637   0.630   2.825   0.202
 5580SOL     OW17638   5.475   2.609   5.563
 5580SOL    HW117639   5.415   2.687   5.544
 5580SOL    HW217640   5.568   2.631   5.533
 5581SOL     OW17641   1.259   6.434   1.493
 5581SOL    HW117642   1.357   6.415   1.504
 5581SOL    HW217643   1.241   6.465   1.400
 5582SOL     OW17644   2.838   3.633   5.258
 5582SOL    HW117645   2.749   3.588   5.270
 5582SOL    HW217646   2.897   3.612   5.336
 5583SOL     OW17647   4.547   0.342   2.614
 5583SOL    HW117648   4.514   0.337   2.520
 5583SOL    HW217649   4.534   0.434   2.649
 5584SOL     OW17650   5.882   4.771   4.024
 5584SOL    HW117651   5.823   4.803   3.950
 5584SOL    HW217652   5.849   4.684   4.058
 5585SOL     OW17653   5.475   6.127   3.943
 5585SOL    HW117654   5.378   6.145   3.933
 5585SOL    HW217655   5.493   6.029   3.933
 5586SOL     OW17656   0.569   2.012   6.605
 5586SOL    HW117657   0.626   2.059   6.537
 5586SOL    HW217658   0.536   2.077   6.672
 5587SOL     OW17659   4.021   6.510   1.917
 5587SOL    HW117660   4.023   6.565   2.001
 5587SOL    HW217661   4.077   6.554   1.847
 5588SOL     OW17662   2.018   5.784   2.910
 5588SOL    HW117663   1.943   5.750   2.853
 5588SOL    HW217664   1.994   5.774   3.006
 5589SOL     OW17665   6.286   3.996   5.442
 5589SOL    HW117666   6.276   4.085   5.486
 5589SOL    HW217667   6.382   3.978   5.423
 5590SOL     OW17668   0.028   5.994   4.271
 5590SOL    HW117669   0.037   6.070   4.206
 5590SOL    HW217670   6.962   5.957   4.266
 5591SOL     OW17671   5.324   1.507   0.058
 5591SOL    HW117672   5.298   1.416   0.025
 5591SOL    HW217673   5.389   1.548   7.020
 5592SOL     OW17674   6.858   4.903   2.522
 5592SOL    HW117675   6.793   4.967   2.564
 5592SOL    HW217676   6.837   4.811   2.553
 5593SOL     OW17677   0.457   3.220   6.877
 5593SOL    HW117678   0.391   3.289   6.909
 5593SOL    HW217679   0.511   3.257   6.802
 5594SOL     OW17680   4.019   1.164   6.383
 5594SOL    HW117681   4.020   1.193   6.287
 5594SOL    HW217682   4.108   1.185   6.424
 5595SOL     OW17683   6.596   0.595   4.846
 5595SOL    HW117684   6.536   0.518   4.823
 5595SOL    HW217685   6.597   0.661   4.770
 5596SOL     OW17686   4.735   0.181   3.458
 5596SOL    HW117687   4.664   0.247   3.485
 5596SOL    HW217688   4.796   0.223   3.391
 5597SOL     OW17689   5.243   2.646   4.772
 5597SOL    HW117690   5.277   2.605   4.688
 5597SOL    HW217691   5.159   2.697   4.753
 5598SOL     OW17692   5.946   3.681   3.978
 5598SOL    HW117693   5.977   3.776   3.983
 5598SOL    HW217694   5.928   3.657   3.883
 5599SOL     OW17695   0.468   2.486   1.531
 5599SOL    HW117696   0.533   2.427   1.579
 5599SOL    HW217697   0.429   2.551   1.596
 5600SOL     OW17698   1.969   0.805   1.533
 5600SOL    HW117699   1.952   0.884   1.475
 5600SOL    HW217700   1.915   0.813   1.617
 5601SOL     OW17701   2.475   0.791   6.432
 5601SOL    HW117702   2.513   0.868   6.381
 5601SOL    HW217703   2.411   0.740   6.374
 5602SOL     OW17704   6.886   1.636   1.418
 5602SOL    HW117705   6.905   1.631   1.320
 5602SOL    HW217706   6.959   1.686   1.463
 5603SOL     OW17707   5.787   2.319   0.110
 5603SOL    HW117708   5.849   2.377   0.163
 5603SOL    HW217709   5.771   2.233   0.158
 5604SOL     OW17710   5.929   1.711   4.590
 5604SOL    HW117711   5.839   1.698   4.632
 5604SOL    HW217712   5.969   1.622   4.570
 5605SOL     OW17713   6.656   1.379   5.304
 5605SOL    HW117714   6.609   1.345   5.385
 5605SOL    HW217715   6.751   1.402   5.326
 5606SOL     OW17716   4.636   6.393   0.630
 5606SOL    HW117717   4.611   6.476   0.581
 5606SOL    HW217718   4.662   6.416   0.724
 5607SOL     OW17719   6.138   1.081   3.058
 5607SOL    HW117720   6.103   1.112   3.146
 5607SOL    HW217721   6.223   1.128   3.037
 5608SOL     OW17722   5.815   0.562   3.935
 5608SOL    HW117723   5.747   0.608   3.993
 5608SOL    HW217724   5.865   0.494   3.989
 5609SOL     OW17725   3.281   5.643   1.176
 5609SOL    HW117726   3.343   5.649   1.254
 5609SOL    HW217727   3.224   5.726   1.172
 5610SOL     OW17728   4.912   5.477   1.196
 5610SOL    HW117729   4.883   5.402   1.137
 5610SOL    HW217730   4.916   5.561   1.142
 5611SOL     OW17731   0.606   5.923   3.035
 5611SOL    HW117732   0.594   5.825   3.018
 5611SOL    HW217733   0.546   5.952   3.109
 5612SOL     OW17734   3.957   2.489   5.758
 5612SOL    HW117735   4.052   2.487   5.729
 5612SOL    HW217736   3.924   2.395   5.770
 5613SOL     OW17737   6.539   5.587   4.210
 5613SOL    HW117738   6.446   5.564   4.236
 5613SOL    HW217739   6.562   5.678   4.244
 5614SOL     OW17740   4.432   2.476   4.591
 5614SOL    HW117741   4.418   2.417   4.670
 5614SOL    HW217742   4.361   2.459   4.523
 5615SOL     OW17743   6.860   1.523   4.022
 5615SOL    HW117744   6.795   1.495   3.951
 5615SOL    HW217745   6.830   1.609   4.063
 5616SOL     OW17746   2.743   2.350   4.808
 5616SOL    HW117747   2.673   2.305   4.863
 5616SOL    HW217748   2.798   2.411   4.866
 5617SOL     OW17749   2.830   5.930   5.493
 5617SOL    HW117750   2.821   6.015   5.441
 5617SOL    HW217751   2.789   5.855   5.441
 5618SOL     OW17752   0.211   4.147   4.046
 5618SOL    HW117753   0.283   4.078   4.047
 5618SOL    HW217754   0.170   4.151   3.955
 5619SOL     OW17755   3.741   3.904   4.859
 5619SOL    HW117756   3.813   3.922   4.791
 5619SOL    HW217757   3.690   3.989   4.877
 5620SOL     OW17758   4.356   3.511   1.323
 5620SOL    HW117759   4.365   3.561   1.237
 5620SOL    HW217760   4.285   3.553   1.378
 5621SOL     OW17761   2.162   2.798   0.171
 5621SOL    HW117762   2.119   2.886   0.148
 5621SOL    HW217763   2.233   2.777   0.103
 5622SOL     OW17764   5.272   0.546   5.747
 5622SOL    HW117765   5.288   0.448   5.734
 5622SOL    HW217766   5.351   0.597   5.714
 5623SOL     OW17767   4.109   5.697   5.138
 5623SOL    HW117768   4.043   5.630   5.105
 5623SOL    HW217769   4.111   5.697   5.238
 5624SOL     OW17770   0.957   4.559   3.576
 5624SOL    HW117771   0.982   4.475   3.624
 5624SOL    HW217772   0.902   4.616   3.636
 5625SOL     OW17773   6.067   6.852   5.394
 5625SOL    HW117774   6.028   6.937   5.360
 5625SOL    HW217775   6.146   6.873   5.452
 5626SOL     OW17776   2.222   6.246   4.618
 5626SOL    HW117777   2.186   6.163   4.575
 5626SOL    HW217778   2.222   6.234   4.718
 5627SOL     OW17779   0.539   5.147   6.799
 5627SOL    HW117780   0.454   5.135   6.851
 5627SOL    HW217781   0.529   5.224   6.737
 5628SOL     OW17782   1.748   2.568   2.683
 5628SOL    HW117783   1.832   2.600   2.727
 5628SOL    HW217784   1.767   2.486   2.630
 5629SOL     OW17785   3.673   3.772   1.809
 5629SOL    HW117786   3.574   3.756   1.807
 5629SOL    HW217787   3.694   3.848   1.870
 5630SOL     OW17788   1.937   3.729   6.304
 5630SOL    HW117789   2.015   3.701   6.249
 5630SOL    HW217790   1.864   3.761   6.245
 5631SOL     OW17791   4.680   1.903   2.039
 5631SOL    HW117792   4.735   1.880   1.959
 5631SOL    HW217793   4.685   2.001   2.057
 5632SOL     OW17794   2.866   2.255   5.852
 5632SOL    HW117795   2.917   2.281   5.770
 5632SOL    HW217796   2.888   2.161   5.877
 5633SOL     OW17797   6.153   4.871   4.580
 5633SOL    HW117798   6.198   4.783   4.589
 5633SOL    HW217799   6.101   4.873   4.494
 5634SOL     OW17800   2.353   5.154   4.409
 5634SOL    HW117801   2.316   5.097   4.482
 5634SOL    HW217802   2.380   5.243   4.447
 5635SOL     OW17803   1.885   4.959   6.043
 5635SOL    HW117804   1.959   5.011   6.088
 5635SOL    HW217805   1.806   4.954   6.104
 5636SOL     OW17806   4.772   6.908   4.781
 5636SOL    HW117807   4.684   6.916   4.735
 5636SOL    HW217808   4.825   6.833   4.741
 5637SOL     OW17809   5.537   0.308   3.249
 5637SOL    HW117810   5.569   0.311   3.344
 5637SOL    HW217811   5.594   0.244   3.197
 5638SOL     OW17812   6.442   3.884   0.670
 5638SOL    HW117813   6.429   3.893   0.571
 5638SOL    HW217814   6.380   3.813   0.705
 5639SOL     OW17815   1.004   0.888   2.668
 5639SOL    HW117816   0.998   0.803   2.719
 5639SOL    HW217817   0.981   0.965   2.728
 5640SOL     OW17818   3.826   0.576   3.771
 5640SOL    HW117819   3.809   0.477   3.778
 5640SOL    HW217820   3.754   0.618   3.716
 5641SOL     OW17821   0.853   5.280   4.838
 5641SOL    HW117822   0.784   5.352   4.850
 5641SOL    HW217823   0.821   5.214   4.771
 5642SOL     OW17824   1.900   6.555   4.626
 5642SOL    HW117825   1.893   6.649   4.660
 5642SOL    HW217826   1.960   6.553   4.546
 5643SOL     OW17827   4.056   1.384   4.337
 5643SOL    HW117828   4.000   1.464   4.359
 5643SOL    HW217829   4.000   1.319   4.285
 5644SOL     OW17830   3.039   0.122   4.860
 5644SOL    HW117831   3.056   0.211   4.900
 5644SOL    HW217832   3.117   0.062   4.879
 5645SOL     OW17833   6.232   4.756   3.617
 5645SOL    HW117834   6.206   4.818   3.543
 5645SOL    HW217835   6.293   4.686   3.581
 5646SOL     OW17836   1.889   5.549   4.001
 5646SOL    HW117837   1.818   5.529   4.068
 5646SOL    HW217838   1.963   5.483   4.011
 5647SOL     OW17839   4.783   5.349   0.975
 5647SOL    HW117840   4.702   5.345   0.917
 5647SOL    HW217841   4.836   5.265   0.963
 5648SOL     OW17842   1.808   0.176   2.918
 5648SOL    HW117843   1.781   0.085   2.949
 5648SOL    HW217844   1.731   0.221   2.874
 5649SOL     OW17845   0.768   0.688   4.269
 5649SOL    HW117846   0.729   0.777   4.293
 5649SOL    HW217847   0.861   0.701   4.235
 5650SOL     OW17848   0.348   5.343   0.943
 5650SOL    HW117849   0.416   5.402   0.899
 5650SOL    HW217850   0.289   5.303   0.874
 5651SOL     OW17851   1.483   0.649   1.646
 5651SOL    HW117852   1.474   0.675   1.550
 5651SOL    HW217853   1.531   0.562   1.652
 5652SOL     OW17854   6.428   0.095   1.944
 5652SOL    HW117855   6.473   0.065   1.860
 5652SOL    HW217856   6.347   0.149   1.922
 5653SOL     OW17857   6.540   6.396   6.739
 5653SOL    HW117858   6.582   6.428   6.824
 5653SOL    HW217859   6.501   6.305   6.754
 5654SOL     OW17860   0.361   6.198   5.329
 5654SOL    HW117861   0.421   6.190   5.408
 5654SOL    HW217862   0.269   6.167   5.353
 5655SOL     OW17863   0.965   3.676   4.036
 5655SOL    HW117864   0.982   3.651   3.941
 5655SOL    HW217865   1.043   3.728   4.072
 5656SOL     OW17866   7.024   3.871   6.224
 5656SOL    HW117867   0.016   3.829   6.313
 5656SOL    HW217868   0.053   3.953   6.214
 5657SOL     OW17869   6.103   2.242   0.097
 5657SOL    HW117870   6.030   2.291   0.049
 5657SOL    HW217871   6.146   2.177   0.034
 5658SOL     OW17872   3.412   4.018   6.323
 5658SOL    HW117873   3.447   3.925   6.311
 5658SOL    HW217874   3.389   4.033   6.419
 5659SOL     OW17875   3.603   3.236   5.260
 5659SOL    HW117876   3.538   3.183   5.206
 5659SOL    HW217877   3.554   3.303   5.315
 5660SOL     OW17878   4.555   0.185   0.032
 5660SOL    HW117879   4.629   0.209   6.995
 5660SOL    HW217880   4.495   0.118   7.015
 5661SOL     OW17881   1.511   6.094   5.238
 5661SOL    HW117882   1.446   6.131   5.171
 5661SOL    HW217883   1.570   6.026   5.193
 5662SOL     OW17884   2.625   5.803   3.484
 5662SOL    HW117885   2.609   5.713   3.442
 5662SOL    HW217886   2.654   5.868   3.414
 5663SOL     OW17887   1.791   2.723   6.988
 5663SOL    HW117888   1.788   2.698   6.891
 5663SOL    HW217889   1.747   2.652   0.015
 5664SOL     OW17890   6.859   3.794   4.993
 5664SOL    HW117891   6.864   3.739   4.909
 5664SOL    HW217892   6.771   3.841   4.997
 5665SOL     OW17893   1.806   1.076   0.530
 5665SOL    HW117894   1.744   1.038   0.598
 5665SOL    HW217895   1.892   1.102   0.573
 5666SOL     OW17896   6.142   0.288   3.095
 5666SOL    HW117897   6.047   0.285   3.062
 5666SOL    HW217898   6.189   0.366   3.055
 5667SOL     OW17899   1.415   5.395   4.446
 5667SOL    HW117900   1.481   5.384   4.521
 5667SOL    HW217901   1.326   5.360   4.474
 5668SOL     OW17902   5.449   2.780   3.728
 5668SOL    HW117903   5.449   2.799   3.630
 5668SOL    HW217904   5.387   2.843   3.774
 5669SOL     OW17905   0.233   3.320   0.746
 5669SOL    HW117906   0.321   3.274   0.741
 5669SOL    HW217907   0.205   3.329   0.842
 5670SOL     OW17908   0.465   3.727   3.843
 5670SOL    HW117909   0.489   3.716   3.746
 5670SOL    HW217910   0.543   3.702   3.900
 5671SOL     OW17911   6.372   6.528   6.219
 5671SOL    HW117912   6.411   6.483   6.299
 5671SOL    HW217913   6.412   6.488   6.136
 5672SOL     OW17914   4.252   3.678   0.184
 5672SOL    HW117915   4.304   3.740   0.243
 5672SOL    HW217916   4.155   3.687   0.204
 5673SOL     OW17917   1.241   6.583   1.252
 5673SOL    HW117918   1.332   6.608   1.218
 5673SOL    HW217919   1.189   6.665   1.273
 5674SOL     OW17920   0.428   4.802   5.233
 5674SOL    HW117921   0.426   4.706   5.205
 5674SOL    HW217922   0.335   4.839   5.236
 5675SOL     OW17923   4.145   3.031   6.099
 5675SOL    HW117924   4.045   3.032   6.095
 5675SOL    HW217925   4.179   3.124   6.087
 5676SOL     OW17926   3.088   2.141   2.585
 5676SOL    HW117927   3.145   2.108   2.661
 5676SOL    HW217928   3.092   2.075   2.510
 5677SOL     OW17929   0.864   1.318   0.373
 5677SOL    HW117930   0.931   1.324   0.299
 5677SOL    HW217931   0.812   1.233   0.364
 5678SOL     OW17932   4.089   6.608   2.696
 5678SOL    HW117933   4.129   6.700   2.697
 5678SOL    HW217934   4.138   6.550   2.762
 5679SOL     OW17935   6.851   1.073   4.050
 5679SOL    HW117936   6.791   1.095   3.973
 5679SOL    HW217937   6.875   1.157   4.098
 5680SOL     OW17938   1.815   5.400   6.164
 5680SOL    HW117939   1.844   5.490   6.132
 5680SOL    HW217940   1.804   5.338   6.087
 5681SOL     OW17941   0.736   3.864   0.953
 5681SOL    HW117942   0.669   3.804   0.997
 5681SOL    HW217943   0.710   3.878   0.857
 5682SOL     OW17944   2.335   5.247   4.995
 5682SOL    HW117945   2.311   5.262   5.091
 5682SOL    HW217946   2.252   5.226   4.943
 5683SOL     OW17947   4.011   0.918   5.822
 5683SOL    HW117948   3.933   0.963   5.866
 5683SOL    HW217949   4.090   0.979   5.825
 5684SOL     OW17950   2.644   3.930   5.848
 5684SOL    HW117951   2.700   3.954   5.927
 5684SOL    HW217952   2.596   3.844   5.867
 5685SOL     OW17953   1.731   1.875   2.985
 5685SOL    HW117954   1.647   1.821   2.989
 5685SOL    HW217955   1.797   1.828   2.927
 5686SOL     OW17956   2.736   1.921   6.526
 5686SOL    HW117957   2.835   1.923   6.542
 5686SOL    HW217958   2.706   1.827   6.515
 5687SOL     OW17959   0.867   5.096   6.860
 5687SOL    HW117960   0.893   5.132   6.950
 5687SOL    HW217961   0.935   5.029   6.830
 5688SOL     OW17962   0.767   2.630   1.802
 5688SOL    HW117963   0.703   2.572   1.852
 5688SOL    HW217964   0.803   2.700   1.863
 5689SOL     OW17965   3.296   1.632   1.305
 5689SOL    HW117966   3.342   1.556   1.261
 5689SOL    HW217967   3.197   1.619   1.299
 5690SOL     OW17968   2.182   6.080   6.793
 5690SOL    HW117969   2.256   6.032   6.841
 5690SOL    HW217970   2.219   6.129   6.714
 5691SOL     OW17971   3.374   0.530   2.364
 5691SOL    HW117972   3.466   0.494   2.381
 5691SOL    HW217973   3.333   0.558   2.450
 5692SOL     OW17974   5.866   3.963   0.479
 5692SOL    HW117975   5.793   4.031   0.483
 5692SOL    HW217976   5.926   3.973   0.559
 5693SOL     OW17977   4.951   1.480   3.380
 5693SOL    HW117978   5.003   1.565   3.367
 5693SOL    HW217979   4.859   1.502   3.410
 5694SOL     OW17980   1.434   1.337   2.927
 5694SOL    HW117981   1.379   1.262   2.889
 5694SOL    HW217982   1.516   1.349   2.871
 5695SOL     OW17983   1.777   2.009   3.719
 5695SOL    HW117984   1.781   1.981   3.623
 5695SOL    HW217985   1.687   2.049   3.738
 5696SOL     OW17986   0.815   1.275   3.518
 5696SOL    HW117987   0.804   1.230   3.607
 5696SOL    HW217988   0.729   1.268   3.466
 5697SOL     OW17989   6.308   2.739   1.557
 5697SOL    HW117990   6.242   2.694   1.616
 5697SOL    HW217991   6.262   2.771   1.474
 5698SOL     OW17992   1.352   4.983   4.221
 5698SOL    HW117993   1.319   4.996   4.314
 5698SOL    HW217994   1.416   4.906   4.219
 5699SOL     OW17995   1.096   2.583   3.024
 5699SOL    HW117996   1.083   2.682   3.018
 5699SOL    HW217997   1.058   2.550   3.111
 5700SOL     OW17998   6.341   0.189   3.513
 5700SOL    HW117999   6.436   0.201   3.542
 5700SOL    HW218000   6.281   0.195   3.592
 5701SOL     OW18001   0.768   0.069   1.469
 5701SOL    HW118002   0.722   0.157   1.456
 5701SOL    HW218003   0.805   0.065   1.562
 5702SOL     OW18004   2.631   5.418   4.047
 5702SOL    HW118005   2.679   5.495   4.008
 5702SOL    HW218006   2.683   5.382   4.125
 5703SOL     OW18007   6.393   4.671   1.311
 5703SOL    HW118008   6.351   4.630   1.230
 5703SOL    HW218009   6.464   4.736   1.282
 5704SOL     OW18010   4.775   4.088   2.973
 5704SOL    HW118011   4.765   3.992   2.945
 5704SOL    HW218012   4.814   4.092   3.065
 5705SOL     OW18013   4.899   6.670   0.229
 5705SOL    HW118014   4.807   6.665   0.268
 5705SOL    HW218015   4.922   6.584   0.184
 5706SOL     OW18016   0.386   3.821   1.978
 5706SOL    HW118017   0.320   3.878   1.930
 5706SOL    HW218018   0.363   3.725   1.965
 5707SOL     OW18019   0.296   6.723   0.205
 5707SOL    HW118020   0.390   6.723   0.239
 5707SOL    HW218021   0.242   6.789   0.257
 5708SOL     OW18022   5.298   5.597   1.904
 5708SOL    HW118023   5.208   5.584   1.944
 5708SOL    HW218024   5.360   5.635   1.973
 5709SOL     OW18025   0.928   0.725   2.463
 5709SOL    HW118026   0.914   0.627   2.476
 5709SOL    HW218027   0.945   0.768   2.552
 5710SOL     OW18028   2.958   3.039   1.074
 5710SOL    HW118029   3.037   3.056   1.132
 5710SOL    HW218030   2.906   2.962   1.112
 5711SOL     OW18031   5.026   0.741   3.122
 5711SOL    HW118032   5.112   0.768   3.079
 5711SOL    HW218033   5.043   0.720   3.219
 5712SOL     OW18034   6.609   0.224   6.940
 5712SOL    HW118035   6.646   0.310   6.905
 5712SOL    HW218036   6.659   0.147   6.899
 5713SOL     OW18037   3.335   3.218   1.864
 5713SOL    HW118038   3.418   3.173   1.830
 5713SOL    HW218039   3.257   3.156   1.854
 5714SOL     OW18040   0.426   5.007   0.718
 5714SOL    HW118041   0.519   4.969   0.716
 5714SOL    HW218042   0.390   5.011   0.625
 5715SOL     OW18043   0.783   0.909   2.360
 5715SOL    HW118044   0.838   0.838   2.405
 5715SOL    HW218045   0.830   0.997   2.368
 5716SOL     OW18046   1.731   5.007   6.287
 5716SOL    HW118047   1.686   5.092   6.316
 5716SOL    HW218048   1.788   4.973   6.362
 5717SOL     OW18049   1.845   4.963   0.798
 5717SOL    HW118050   1.842   4.979   0.896
 5717SOL    HW218051   1.818   4.869   0.778
 5718SOL     OW18052   0.221   3.145   6.774
 5718SOL    HW118053   0.226   3.237   6.736
 5718SOL    HW218054   0.302   3.126   6.828
 5719SOL     OW18055   2.355   2.630   6.769
 5719SOL    HW118056   2.423   2.662   6.702
 5719SOL    HW218057   2.296   2.561   6.726
 5720SOL     OW18058   2.218   5.808   5.273
 5720SOL    HW118059   2.227   5.757   5.359
 5720SOL    HW218060   2.233   5.906   5.291
 5721SOL     OW18061   6.563   3.546   0.797
 5721SOL    HW118062   6.630   3.620   0.793
 5721SOL    HW218063   6.471   3.584   0.793
 5722SOL     OW18064   6.931   2.015   5.083
 5722SOL    HW118065   6.844   2.001   5.035
 5722SOL    HW218066   6.961   1.928   5.122
 5723SOL     OW18067   4.642   3.359   0.220
 5723SOL    HW118068   4.643   3.364   0.320
 5723SOL    HW218069   4.557   3.397   0.185
 5724SOL     OW18070   5.440   3.099   4.166
 5724SOL    HW118071   5.396   3.168   4.108
 5724SOL    HW218072   5.490   3.034   4.108
 5725SOL     OW18073   5.782   5.037   4.290
 5725SOL    HW118074   5.836   5.094   4.351
 5725SOL    HW218075   5.689   5.027   4.326
 5726SOL     OW18076   7.006   5.188   4.083
 5726SOL    HW118077   6.938   5.117   4.101
 5726SOL    HW218078   6.961   5.270   4.048
 5727SOL     OW18079   6.930   1.978   4.244
 5727SOL    HW118080   7.023   1.951   4.270
 5727SOL    HW218081   6.879   2.003   4.327
 5728SOL     OW18082   3.901   0.342   5.934
 5728SOL    HW118083   3.948   0.261   5.970
 5728SOL    HW218084   3.807   0.344   5.968
 5729SOL     OW18085   1.945   0.724   0.510
 5729SOL    HW118086   1.901   0.726   0.420
 5729SOL    HW218087   2.013   0.798   0.515
 5730SOL     OW18088   5.423   4.936   6.337
 5730SOL    HW118089   5.465   5.019   6.373
 5730SOL    HW218090   5.341   4.959   6.284
 5731SOL     OW18091   0.600   6.977   3.398
 5731SOL    HW118092   0.572   6.883   3.376
 5731SOL    HW218093   0.568   7.001   3.489
 5732SOL     OW18094   0.055   5.514   4.012
 5732SOL    HW118095   6.999   5.570   4.007
 5732SOL    HW218096   0.076   5.478   3.921
 5733SOL     OW18097   4.226   6.531   5.531
 5733SOL    HW118098   4.129   6.549   5.549
 5733SOL    HW218099   4.266   6.610   5.485
 5734SOL     OW18100   0.879   0.423   5.016
 5734SOL    HW118101   0.784   0.449   5.030
 5734SOL    HW218102   0.919   0.393   5.103
 5735SOL     OW18103   4.414   1.785   1.434
 5735SOL    HW118104   4.437   1.829   1.347
 5735SOL    HW218105   4.321   1.747   1.428
 5736SOL     OW18106   6.373   3.463   0.323
 5736SOL    HW118107   6.446   3.475   0.390
 5736SOL    HW218108   6.391   3.522   0.244
 5737SOL     OW18109   5.567   6.594   0.890
 5737SOL    HW118110   5.603   6.553   0.974
 5737SOL    HW218111   5.602   6.688   0.881
 5738SOL     OW18112   2.112   2.615   5.535
 5738SOL    HW118113   2.181   2.687   5.524
 5738SOL    HW218114   2.098   2.596   5.632
 5739SOL     OW18115   1.271   0.423   5.809
 5739SOL    HW118116   1.335   0.349   5.824
 5739SOL    HW218117   1.199   0.419   5.879
 5740SOL     OW18118   4.618   4.053   0.984
 5740SOL    HW118119   4.589   4.126   0.923
 5740SOL    HW218120   4.606   4.082   1.079
 5741SOL     OW18121   1.070   4.829   4.605
 5741SOL    HW118122   0.971   4.842   4.613
 5741SOL    HW218123   1.090   4.732   4.589
 5742SOL     OW18124   5.125   6.955   1.930
 5742SOL    HW118125   5.204   6.951   1.991
 5742SOL    HW218126   5.103   0.023   1.910
 5743SOL     OW18127   2.816   5.828   5.069
 5743SOL    HW118128   2.898   5.820   5.012
 5743SOL    HW218129   2.781   5.737   5.091
 5744SOL     OW18130   4.756   0.349   2.078
 5744SOL    HW118131   4.769   0.446   2.055
 5744SOL    HW218132   4.662   0.334   2.110
 5745SOL     OW18133   3.203   1.051   4.098
 5745SOL    HW118134   3.176   0.969   4.149
 5745SOL    HW218135   3.148   1.058   4.015
 5746SOL     OW18136   5.556   6.762   1.460
 5746SOL    HW118137   5.499   6.811   1.394
 5746SOL    HW218138   5.522   6.779   1.552
 5747SOL     OW18139   6.642   4.495   2.766
 5747SOL    HW118140   6.548   4.528   2.756
 5747SOL    HW218141   6.701   4.542   2.700
 5748SOL     OW18142   2.031   5.891   0.805
 5748SOL    HW118143   2.036   5.874   0.903
 5748SOL    HW218144   2.095   5.831   0.757
 5749SOL     OW18145   1.815   0.471   4.497
 5749SOL    HW118146   1.806   0.389   4.440
 5749SOL    HW218147   1.910   0.479   4.529
 5750SOL     OW18148   5.421   5.901   4.530
 5750SOL    HW118149   5.501   5.952   4.561
 5750SOL    HW218150   5.350   5.904   4.600
 5751SOL     OW18151   2.196   3.177   4.653
 5751SOL    HW118152   2.270   3.167   4.586
 5751SOL    HW218153   2.192   3.096   4.711
 5752SOL     OW18154   6.633   0.372   6.656
 5752SOL    HW118155   6.649   0.290   6.600
 5752SOL    HW218156   6.719   0.399   6.700
 5753SOL     OW18157   3.384   3.840   5.503
 5753SOL    HW118158   3.351   3.933   5.522
 5753SOL    HW218159   3.417   3.835   5.409
 5754SOL     OW18160   5.773   4.612   1.703
 5754SOL    HW118161   5.756   4.681   1.773
 5754SOL    HW218162   5.848   4.642   1.644
 5755SOL     OW18163   3.058   3.953   5.538
 5755SOL    HW118164   3.097   3.917   5.623
 5755SOL    HW218165   2.971   3.907   5.520
 5756SOL     OW18166   6.274   6.262   3.233
 5756SOL    HW118167   6.239   6.331   3.297
 5756SOL    HW218168   6.210   6.251   3.158
 5757SOL     OW18169   6.906   6.865   2.770
 5757SOL    HW118170   6.908   6.786   2.708
 5757SOL    HW218171   6.888   6.948   2.717
 5758SOL     OW18172   2.999   1.147   4.281
 5758SOL    HW118173   3.029   1.214   4.213
 5758SOL    HW218174   3.077   1.121   4.338
 5759SOL     OW18175   4.599   1.655   6.884
 5759SOL    HW118176   4.574   1.748   6.912
 5759SOL    HW218177   4.519   1.596   6.890
 5760SOL     OW18178   1.080   4.753   1.246
 5760SOL    HW118179   1.167   4.803   1.251
 5760SOL    HW218180   1.095   4.657   1.269
 5761SOL     OW18181   5.654   6.907   6.358
 5761SOL    HW118182   5.748   6.935   6.376
 5761SOL    HW218183   5.655   6.819   6.309
 5762SOL     OW18184   4.737   6.442   0.873
 5762SOL    HW118185   4.734   6.436   0.972
 5762SOL    HW218186   4.800   6.515   0.845
 5763SOL     OW18187   0.072   0.278   0.346
 5763SOL    HW118188   0.049   0.228   0.429
 5763SOL    HW218189   0.019   0.363   0.342
 5764SOL     OW18190   5.153   4.528   6.867
 5764SOL    HW118191   5.183   4.445   6.913
 5764SOL    HW218192   5.129   4.508   6.772
 5765SOL     OW18193   6.797   4.160   6.576
 5765SOL    HW118194   6.877   4.151   6.635
 5765SOL    HW218195   6.791   4.255   6.544
 5766SOL     OW18196   2.043   2.390   0.634
 5766SOL    HW118197   2.059   2.415   0.730
 5766SOL    HW218198   1.986   2.459   0.590
 5767SOL     OW18199   2.337   6.688   0.232
 5767SOL    HW118200   2.344   6.612   0.297
 5767SOL    HW218201   2.334   6.774   0.283
 5768SOL     OW18202   0.027   6.669   3.092
 5768SOL    HW118203   0.094   6.743   3.088
 5768SOL    HW218204   6.964   6.703   3.063
 5769SOL     OW18205   2.814   6.613   3.979
 5769SOL    HW118206   2.729   6.643   3.936
 5769SOL    HW218207   2.862   6.550   3.918
 5770SOL     OW18208   6.996   0.150   0.566
 5770SOL    HW118209   6.921   0.184   0.622
 5770SOL    HW218210   6.968   0.067   0.518
 5771SOL     OW18211   0.414   6.052   2.358
 5771SOL    HW118212   0.414   6.075   2.261
 5771SOL    HW218213   0.397   5.955   2.370
 5772SOL     OW18214   5.997   2.729   0.697
 5772SOL    HW118215   6.018   2.801   0.763
 5772SOL    HW218216   6.071   2.661   0.698
 5773SOL     OW18217   4.950   0.584   4.013
 5773SOL    HW118218   4.956   0.486   4.035
 5773SOL    HW218219   4.965   0.638   4.095
 5774SOL     OW18220   2.750   4.992   3.616
 5774SOL    HW118221   2.819   4.929   3.652
 5774SOL    HW218222   2.709   5.043   3.691
 5775SOL     OW18223   1.431   6.760   1.628
 5775SOL    HW118224   1.332   6.750   1.620
 5775SOL    HW218225   1.463   6.715   1.711
 5776SOL     OW18226   6.361   0.940   6.066
 5776SOL    HW118227   6.275   0.930   6.115
 5776SOL    HW218228   6.393   0.851   6.035
 5777SOL     OW18229   5.959   0.123   4.486
 5777SOL    HW118230   6.039   0.132   4.426
 5777SOL    HW218231   5.960   0.034   4.530
 5778SOL     OW18232   1.713   6.833   0.933
 5778SOL    HW118233   1.715   6.812   0.835
 5778SOL    HW218234   1.627   6.879   0.956
 5779SOL     OW18235   4.089   0.930   1.011
 5779SOL    HW118236   4.106   0.863   0.938
 5779SOL    HW218237   4.170   0.989   1.021
 5780SOL     OW18238   5.817   5.840   2.800
 5780SOL    HW118239   5.876   5.795   2.868
 5780SOL    HW218240   5.764   5.771   2.751
 5781SOL     OW18241   1.341   4.194   4.719
 5781SOL    HW118242   1.404   4.146   4.656
 5781SOL    HW218243   1.362   4.292   4.718
 5782SOL     OW18244   1.542   0.845   0.945
 5782SOL    HW118245   1.530   0.749   0.918
 5782SOL    HW218246   1.615   0.885   0.891
 5783SOL     OW18247   2.070   1.486   1.241
 5783SOL    HW118248   2.119   1.547   1.178
 5783SOL    HW218249   2.095   1.507   1.335
 5784SOL     OW18250   0.498   6.459   0.285
 5784SOL    HW118251   0.538   6.401   0.214
 5784SOL    HW218252   0.513   6.555   0.262
 5785SOL     OW18253   1.811   2.308   1.208
 5785SOL    HW118254   1.740   2.377   1.222
 5785SOL    HW218255   1.901   2.351   1.212
 5786SOL     OW18256   1.157   4.218   0.892
 5786SOL    HW118257   1.189   4.281   0.821
 5786SOL    HW218258   1.097   4.150   0.851
 5787SOL     OW18259   5.075   2.157   4.493
 5787SOL    HW118260   5.017   2.127   4.417
 5787SOL    HW218261   5.031   2.134   4.580
 5788SOL     OW18262   2.685   0.476   1.700
 5788SOL    HW118263   2.619   0.543   1.666
 5788SOL    HW218264   2.778   0.510   1.686
 5789SOL     OW18265   2.848   2.848   6.638
 5789SOL    HW118266   2.787   2.918   6.676
 5789SOL    HW218267   2.910   2.890   6.572
 5790SOL     OW18268   6.822   5.835   5.409
 5790SOL    HW118269   6.918   5.858   5.423
 5790SOL    HW218270   6.814   5.740   5.380
 5791SOL     OW18271   2.885   1.888   2.641
 5791SOL    HW118272   2.860   1.934   2.556
 5791SOL    HW218273   2.927   1.953   2.704
 5792SOL     OW18274   4.894   4.039   3.252
 5792SOL    HW118275   4.950   3.957   3.241
 5792SOL    HW218276   4.861   4.044   3.346
 5793SOL     OW18277   5.744   1.033   5.421
 5793SOL    HW118278   5.839   1.044   5.450
 5793SOL    HW218279   5.698   1.122   5.423
 5794SOL     OW18280   3.630   0.339   6.928
 5794SOL    HW118281   3.656   0.265   6.866
 5794SOL    HW218282   3.641   0.427   6.881
 5795SOL     OW18283   0.341   6.383   1.210
 5795SOL    HW118284   0.368   6.332   1.128
 5795SOL    HW218285   0.309   6.474   1.184
 5796SOL     OW18286   4.717   0.659   6.570
 5796SOL    HW118287   4.740   0.607   6.487
 5796SOL    HW218288   4.713   0.756   6.547
 5797SOL     OW18289   5.425   0.965   6.988
 5797SOL    HW118290   5.463   0.945   0.052
 5797SOL    HW218291   5.400   0.880   6.943
 5798SOL     OW18292   0.652   3.667   4.071
 5798SOL    HW118293   0.632   3.758   4.106
 5798SOL    HW218294   0.750   3.656   4.057
 5799SOL     OW18295   0.404   0.052   3.186
 5799SOL    HW118296   0.335   0.112   3.225
 5799SOL    HW218297   0.481   0.044   3.250
 5800SOL     OW18298   0.631   0.307   1.556
 5800SOL    HW118299   0.556   0.243   1.570
 5800SOL    HW218300   0.661   0.344   1.645
 5801SOL     OW18301   2.273   2.490   3.694
 5801SOL    HW118302   2.175   2.493   3.674
 5801SOL    HW218303   2.290   2.425   3.768
 5802SOL     OW18304   6.084   3.351   2.585
 5802SOL    HW118305   6.011   3.419   2.596
 5802SOL    HW218306   6.163   3.378   2.639
 5803SOL     OW18307   1.336   4.675   3.796
 5803SOL    HW118308   1.299   4.702   3.885
 5803SOL    HW218309   1.261   4.670   3.730
 5804SOL     OW18310   6.801   6.228   3.508
 5804SOL    HW118311   6.817   6.317   3.551
 5804SOL    HW218312   6.704   6.205   3.515
 5805SOL     OW18313   1.646   2.902   0.462
 5805SOL    HW118314   1.631   2.955   0.546
 5805SOL    HW218315   1.568   2.842   0.446
 5806SOL     OW18316   0.056   4.585   5.175
 5806SOL    HW118317   0.020   4.583   5.268
 5806SOL    HW218318   0.109   4.501   5.158
 5807SOL     OW18319   1.783   5.897   0.691
 5807SOL    HW118320   1.872   5.867   0.726
 5807SOL    HW218321   1.739   5.957   0.757
 5808SOL     OW18322   6.591   6.592   5.235
 5808SOL    HW118323   6.538   6.560   5.314
 5808SOL    HW218324   6.589   6.523   5.163
 5809SOL     OW18325   6.694   2.463   5.466
 5809SOL    HW118326   6.630   2.528   5.426
 5809SOL    HW218327   6.659   2.431   5.554
 5810SOL     OW18328   3.822   0.629   5.060
 5810SOL    HW118329   3.910   0.609   5.018
 5810SOL    HW218330   3.783   0.711   5.018
 5811SOL     OW18331   2.741   2.218   5.458
 5811SOL    HW118332   2.822   2.266   5.423
 5811SOL    HW218333   2.664   2.232   5.396
 5812SOL     OW18334   5.301   4.074   6.008
 5812SOL    HW118335   5.330   4.108   5.919
 5812SOL    HW218336   5.353   4.120   6.080
 5813SOL     OW18337   2.885   6.340   1.231
 5813SOL    HW118338   2.915   6.257   1.278
 5813SOL    HW218339   2.964   6.388   1.193
 5814SOL     OW18340   6.976   2.430   2.077
 5814SOL    HW118341   0.047   2.453   2.074
 5814SOL    HW218342   6.930   2.467   1.997
 5815SOL     OW18343   5.110   1.542   4.242
 5815SOL    HW118344   5.045   1.471   4.216
 5815SOL    HW218345   5.066   1.631   4.235
 5816SOL     OW18346   6.274   4.741   1.671
 5816SOL    HW118347   6.262   4.656   1.619
 5816SOL    HW218348   6.290   4.719   1.767
 5817SOL     OW18349   6.265   5.213   5.842
 5817SOL    HW118350   6.221   5.172   5.922
 5817SOL    HW218351   6.248   5.312   5.842
 5818SOL     OW18352   0.297   5.762   4.731
 5818SOL    HW118353   0.269   5.784   4.638
 5818SOL    HW218354   0.390   5.724   4.730
 5819SOL     OW18355   2.880   4.864   6.528
 5819SOL    HW118356   2.876   4.964   6.535
 5819SOL    HW218357   2.950   4.838   6.461
 5820SOL     OW18358   4.358   4.928   2.173
 5820SOL    HW118359   4.398   5.006   2.221
 5820SOL    HW218360   4.431   4.869   2.139
 5821SOL     OW18361   6.403   1.098   1.979
 5821SOL    HW118362   6.343   1.135   1.908
 5821SOL    HW218363   6.405   1.159   2.057
 5822SOL     OW18364   1.339   2.677   2.446
 5822SOL    HW118365   1.273   2.602   2.442
 5822SOL    HW218366   1.403   2.661   2.521
 5823SOL     OW18367   2.556   6.567   4.750
 5823SOL    HW118368   2.473   6.531   4.706
 5823SOL    HW218369   2.531   6.634   4.819
 5824SOL     OW18370   0.999   6.874   3.331
 5824SOL    HW118371   1.028   6.887   3.426
 5824SOL    HW218372   0.958   6.783   3.321
 5825SOL     OW18373   0.220   5.486   4.815
 5825SOL    HW118374   0.253   5.580   4.811
 5825SOL    HW218375   0.197   5.456   4.722
 5826SOL     OW18376   0.193   6.848   6.022
 5826SOL    HW118377   0.163   6.812   5.934
 5826SOL    HW218378   0.263   6.917   6.008
 5827SOL     OW18379   0.939   3.422   4.634
 5827SOL    HW118380   0.998   3.484   4.685
 5827SOL    HW218381   0.994   3.366   4.572
 5828SOL     OW18382   4.550   1.072   3.410
 5828SOL    HW118383   4.569   1.156   3.359
 5828SOL    HW218384   4.611   1.000   3.379
 5829SOL     OW18385   1.586   0.747   4.589
 5829SOL    HW118386   1.588   0.670   4.525
 5829SOL    HW218387   1.502   0.799   4.574
 5830SOL     OW18388   4.164   6.406   5.289
 5830SOL    HW118389   4.156   6.307   5.279
 5830SOL    HW218390   4.186   6.428   5.384
 5831SOL     OW18391   1.320   1.873   5.788
 5831SOL    HW118392   1.250   1.870   5.860
 5831SOL    HW218393   1.411   1.868   5.829
 5832SOL     OW18394   3.677   4.305   0.848
 5832SOL    HW118395   3.636   4.262   0.768
 5832SOL    HW218396   3.615   4.373   0.886
 5833SOL     OW18397   4.226   3.311   5.727
 5833SOL    HW118398   4.297   3.326   5.797
 5833SOL    HW218399   4.141   3.355   5.757
 5834SOL     OW18400   6.449   3.790   6.760
 5834SOL    HW118401   6.523   3.839   6.713
 5834SOL    HW218402   6.431   3.704   6.712
 5835SOL     OW18403   6.134   1.956   2.333
 5835SOL    HW118404   6.205   2.019   2.303
 5835SOL    HW218405   6.175   1.882   2.387
 5836SOL     OW18406   2.295   6.604   1.585
 5836SOL    HW118407   2.267   6.686   1.634
 5836SOL    HW218408   2.311   6.626   1.489
 5837SOL     OW18409   4.191   3.451   6.824
 5837SOL    HW118410   4.110   3.509   6.832
 5837SOL    HW218411   4.187   3.400   6.738
 5838SOL     OW18412   3.043   1.307   1.149
 5838SOL    HW118413   3.119   1.262   1.196
 5838SOL    HW218414   2.963   1.246   1.150
 5839SOL     OW18415   0.401   2.660   0.687
 5839SOL    HW118416   0.383   2.610   0.602
 5839SOL    HW218417   0.451   2.601   0.750
 5840SOL     OW18418   0.409   3.723   0.808
 5840SOL    HW118419   0.433   3.694   0.900
 5840SOL    HW218420   0.321   3.771   0.809
 5841SOL     OW18421   5.023   0.417   1.566
 5841SOL    HW118422   4.947   0.366   1.606
 5841SOL    HW218423   5.029   0.397   1.469
 5842SOL     OW18424   4.286   2.095   1.437
 5842SOL    HW118425   4.370   2.044   1.450
 5842SOL    HW218426   4.259   2.140   1.522
 5843SOL     OW18427   1.844   3.498   1.177
 5843SOL    HW118428   1.797   3.409   1.174
 5843SOL    HW218429   1.796   3.558   1.241
 5844SOL     OW18430   1.009   6.358   5.298
 5844SOL    HW118431   1.008   6.374   5.397
 5844SOL    HW218432   0.987   6.442   5.250
 5845SOL     OW18433   1.259   0.335   2.549
 5845SOL    HW118434   1.264   0.248   2.500
 5845SOL    HW218435   1.340   0.389   2.530
 5846SOL     OW18436   6.035   3.680   5.666
 5846SOL    HW118437   5.963   3.687   5.597
 5846SOL    HW218438   6.107   3.619   5.633
 5847SOL     OW18439   2.665   2.439   1.872
 5847SOL    HW118440   2.660   2.352   1.922
 5847SOL    HW218441   2.755   2.480   1.887
 5848SOL     OW18442   1.783   5.999   3.962
 5848SOL    HW118443   1.849   5.925   3.951
 5848SOL    HW218444   1.699   5.976   3.912
 5849SOL     OW18445   2.139   6.806   5.371
 5849SOL    HW118446   2.199   6.854   5.307
 5849SOL    HW218447   2.046   6.841   5.363
 5850SOL     OW18448   0.587   3.029   1.416
 5850SOL    HW118449   0.618   3.124   1.415
 5850SOL    HW218450   0.534   3.011   1.333
 5851SOL     OW18451   5.320   3.492   3.925
 5851SOL    HW118452   5.225   3.516   3.943
 5851SOL    HW218453   5.381   3.557   3.971
 5852SOL     OW18454   4.437   6.353   2.403
 5852SOL    HW118455   4.367   6.322   2.338
 5852SOL    HW218456   4.404   6.338   2.496
 5853SOL     OW18457   4.611   5.735   5.607
 5853SOL    HW118458   4.591   5.730   5.509
 5853SOL    HW218459   4.601   5.644   5.647
 5854SOL     OW18460   4.435   4.725   5.919
 5854SOL    HW118461   4.340   4.699   5.931
 5854SOL    HW218462   4.473   4.679   5.838
 5855SOL     OW18463   1.703   2.576   4.359
 5855SOL    HW118464   1.740   2.593   4.451
 5855SOL    HW218465   1.626   2.637   4.343
 5856SOL     OW18466   1.195   6.840   2.668
 5856SOL    HW118467   1.170   6.842   2.572
 5856SOL    HW218468   1.292   6.814   2.677
 5857SOL     OW18469   6.443   3.346   5.217
 5857SOL    HW118470   6.349   3.370   5.241
 5857SOL    HW218471   6.501   3.355   5.298
 5858SOL     OW18472   2.653   2.407   2.875
 5858SOL    HW118473   2.694   2.316   2.865
 5858SOL    HW218474   2.652   2.452   2.785
 5859SOL     OW18475   6.195   5.906   1.493
 5859SOL    HW118476   6.162   5.924   1.400
 5859SOL    HW218477   6.211   5.994   1.539
 5860SOL     OW18478   0.390   4.672   3.334
 5860SOL    HW118479   0.390   4.768   3.360
 5860SOL    HW218480   0.484   4.641   3.319
 5861SOL     OW18481   4.843   0.434   4.401
 5861SOL    HW118482   4.941   0.453   4.408
 5861SOL    HW218483   4.792   0.519   4.409
 5862SOL     OW18484   6.555   5.583   1.644
 5862SOL    HW118485   6.495   5.530   1.585
 5862SOL    HW218486   6.634   5.616   1.591
 5863SOL     OW18487   3.082   1.358   4.621
 5863SOL    HW118488   3.096   1.439   4.564
 5863SOL    HW218489   3.169   1.332   4.662
 5864SOL     OW18490   3.595   3.845   2.700
 5864SOL    HW118491   3.656   3.917   2.666
 5864SOL    HW218492   3.645   3.758   2.704
 5865SOL     OW18493   5.303   0.284   5.683
 5865SOL    HW118494   5.256   0.217   5.740
 5865SOL    HW218495   5.325   0.243   5.595
 5866SOL     OW18496   3.276   2.840   0.862
 5866SOL    HW118497   3.309   2.896   0.938
 5866SOL    HW218498   3.302   2.882   0.775
 5867SOL     OW18499   1.811   2.585   1.699
 5867SOL    HW118500   1.800   2.605   1.797
 5867SOL    HW218501   1.765   2.655   1.645
 5868SOL     OW18502   0.968   2.100   5.930
 5868SOL    HW118503   1.009   2.017   5.969
 5868SOL    HW218504   0.998   2.179   5.982
 5869SOL     OW18505   2.010   4.231   3.616
 5869SOL    HW118506   2.003   4.179   3.531
 5869SOL    HW218507   2.053   4.174   3.686
 5870SOL     OW18508   3.946   6.073   5.729
 5870SOL    HW118509   4.035   6.030   5.712
 5870SOL    HW218510   3.873   6.016   5.691
 5871SOL     OW18511   4.062   3.877   2.189
 5871SOL    HW118512   4.136   3.944   2.190
 5871SOL    HW218513   4.027   3.867   2.096
 5872SOL     OW18514   3.892   6.579   1.053
 5872SOL    HW118515   3.853   6.489   1.072
 5872SOL    HW218516   3.981   6.588   1.098
 5873SOL     OW18517   2.916   6.571   2.436
 5873SOL    HW118518   2.861   6.494   2.403
 5873SOL    HW218519   3.005   6.569   2.390
 5874SOL     OW18520   2.170   4.556   5.148
 5874SOL    HW118521   2.132   4.615   5.219
 5874SOL    HW218522   2.264   4.586   5.127
 5875SOL     OW18523   3.698   2.032   0.382
 5875SOL    HW118524   3.787   1.992   0.365
 5875SOL    HW218525   3.652   1.982   0.455
 5876SOL     OW18526   3.758   3.651   2.115
 5876SOL    HW118527   3.658   3.652   2.105
 5876SOL    HW218528   3.784   3.572   2.171
 5877SOL     OW18529   6.078   6.208   0.557
 5877SOL    HW118530   6.048   6.176   0.467
 5877SOL    HW218531   6.003   6.255   0.603
 5878SOL     OW18532   0.651   6.248   3.750
 5878SOL    HW118533   0.585   6.244   3.825
 5878SOL    HW218534   0.677   6.343   3.734
 5879SOL     OW18535   1.109   3.337   0.083
 5879SOL    HW118536   1.189   3.383   0.045
 5879SOL    HW218537   1.063   3.398   0.147
 5880SOL     OW18538   3.227   4.201   0.522
 5880SOL    HW118539   3.148   4.173   0.576
 5880SOL    HW218540   3.206   4.191   0.425
 5881SOL     OW18541   6.810   5.153   3.524
 5881SOL    HW118542   6.893   5.202   3.496
 5881SOL    HW218543   6.739   5.167   3.455
 5882SOL     OW18544   6.486   6.239   1.507
 5882SOL    HW118545   6.538   6.196   1.582
 5882SOL    HW218546   6.525   6.329   1.488
 5883SOL     OW18547   0.841   1.679   6.599
 5883SOL    HW118548   0.840   1.700   6.501
 5883SOL    HW218549   0.751   1.644   6.626
 5884SOL     OW18550   2.762   1.463   4.015
 5884SOL    HW118551   2.847   1.440   3.967
 5884SOL    HW218552   2.747   1.562   4.011
 5885SOL     OW18553   0.182   0.451   2.743
 5885SOL    HW118554   0.126   0.394   2.683
 5885SOL    HW218555   0.174   0.547   2.715
 5886SOL     OW18556   0.468   1.703   5.073
 5886SOL    HW118557   0.405   1.643   5.023
 5886SOL    HW218558   0.507   1.652   5.150
 5887SOL     OW18559   3.441   1.163   3.611
 5887SOL    HW118560   3.424   1.200   3.702
 5887SOL    HW218561   3.467   1.238   3.550
 5888SOL     OW18562   2.760   0.865   2.457
 5888SOL    HW118563   2.842   0.918   2.478
 5888SOL    HW218564   2.686   0.894   2.518
 5889SOL     OW18565   1.246   6.008   1.185
 5889SOL    HW118566   1.283   5.950   1.257
 5889SOL    HW218567   1.293   5.989   1.099
 5890SOL     OW18568   1.513   0.063   4.861
 5890SOL    HW118569   1.429   0.091   4.814
 5890SOL    HW218570   1.552   7.010   4.814
 5891SOL     OW18571   3.056   3.119   6.210
 5891SOL    HW118572   3.096   3.113   6.302
 5891SOL    HW218573   2.972   3.066   6.206
 5892SOL     OW18574   0.464   5.277   1.200
 5892SOL    HW118575   0.417   5.291   1.112
 5892SOL    HW218576   0.420   5.203   1.250
 5893SOL     OW18577   1.606   3.933   4.020
 5893SOL    HW118578   1.585   3.994   3.943
 5893SOL    HW218579   1.699   3.897   4.009
 5894SOL     OW18580   0.469   5.747   3.920
 5894SOL    HW118581   0.426   5.774   3.834
 5894SOL    HW218582   0.461   5.820   3.987
 5895SOL     OW18583   5.259   3.171   4.398
 5895SOL    HW118584   5.303   3.133   4.480
 5895SOL    HW218585   5.322   3.162   4.320
 5896SOL     OW18586   4.229   1.412   0.847
 5896SOL    HW118587   4.140   1.440   0.811
 5896SOL    HW218588   4.281   1.366   0.775
 5897SOL     OW18589   3.643   0.632   1.411
 5897SOL    HW118590   3.563   0.656   1.465
 5897SOL    HW218591   3.644   0.684   1.326
 5898SOL     OW18592   2.262   6.473   3.121
 5898SOL    HW118593   2.263   6.413   3.041
 5898SOL    HW218594   2.264   6.568   3.091
 5899SOL     OW18595   4.939   6.675   5.825
 5899SOL    HW118596   4.959   6.672   5.923
 5899SOL    HW218597   4.944   6.582   5.788
 5900SOL     OW18598   4.761   5.415   3.305
 5900SOL    HW118599   4.680   5.472   3.293
 5900SOL    HW218600   4.827   5.435   3.233
 5901SOL     OW18601   2.929   0.378   0.154
 5901SOL    HW118602   2.948   0.309   0.223
 5901SOL    HW218603   3.011   0.433   0.137
 5902SOL     OW18604   6.690   2.167   6.531
 5902SOL    HW118605   6.717   2.262   6.543
 5902SOL    HW218606   6.606   2.149   6.583
 5903SOL     OW18607   4.556   3.782   0.963
 5903SOL    HW118608   4.554   3.870   1.011
 5903SOL    HW218609   4.626   3.785   0.891
 5904SOL     OW18610   1.056   3.314   1.504
 5904SOL    HW118611   1.068   3.412   1.523
 5904SOL    HW218612   0.995   3.303   1.426
 5905SOL     OW18613   6.212   6.490   2.895
 5905SOL    HW118614   6.157   6.495   2.812
 5905SOL    HW218615   6.232   6.394   2.917
 5906SOL     OW18616   4.415   1.803   4.180
 5906SOL    HW118617   4.431   1.833   4.274
 5906SOL    HW218618   4.404   1.703   4.179
 5907SOL     OW18619   1.503   5.352   1.473
 5907SOL    HW118620   1.513   5.290   1.550
 5907SOL    HW218621   1.434   5.317   1.410
 5908SOL     OW18622   0.630   2.412   6.617
 5908SOL    HW118623   0.610   2.492   6.672
 5908SOL    HW218624   0.569   2.410   6.537
 5909SOL     OW18625   6.982   4.958   1.059
 5909SOL    HW118626   0.051   4.945   1.033
 5909SOL    HW218627   6.976   5.022   1.136
 5910SOL     OW18628   0.691   2.990   3.329
 5910SOL    HW118629   0.677   2.990   3.230
 5910SOL    HW218630   0.757   3.061   3.354
 5911SOL     OW18631   6.532   6.326   6.409
 5911SOL    HW118632   6.525   6.323   6.509
 5911SOL    HW218633   6.629   6.330   6.383
 5912SOL     OW18634   6.859   0.134   5.123
 5912SOL    HW118635   6.821   0.215   5.168
 5912SOL    HW218636   6.836   0.135   5.026
 5913SOL     OW18637   4.879   2.921   6.398
 5913SOL    HW118638   4.802   2.856   6.399
 5913SOL    HW218639   4.965   2.870   6.398
 5914SOL     OW18640   1.121   5.499   6.779
 5914SOL    HW118641   1.133   5.593   6.810
 5914SOL    HW218642   1.206   5.467   6.737
 5915SOL     OW18643   4.790   6.265   1.519
 5915SOL    HW118644   4.730   6.338   1.551
 5915SOL    HW218645   4.883   6.279   1.553
 5916SOL     OW18646   6.562   6.117   2.844
 5916SOL    HW118647   6.631   6.120   2.772
 5916SOL    HW218648   6.601   6.154   2.929
 5917SOL     OW18649   2.908   3.660   4.604
 5917SOL    HW118650   2.903   3.701   4.695
 5917SOL    HW218651   2.881   3.563   4.609
 5918SOL     OW18652   2.152   4.721   5.526
 5918SOL    HW118653   2.114   4.705   5.435
 5918SOL    HW218654   2.138   4.640   5.583
 5919SOL     OW18655   3.186   3.051   3.000
 5919SOL    HW118656   3.265   3.084   2.948
 5919SOL    HW218657   3.215   2.978   3.062
 5920SOL     OW18658   5.346   0.797   6.011
 5920SOL    HW118659   5.255   0.784   5.973
 5920SOL    HW218660   5.339   0.818   6.108
 5921SOL     OW18661   4.173   5.441   6.634
 5921SOL    HW118662   4.250   5.436   6.570
 5921SOL    HW218663   4.200   5.400   6.721
 5922SOL     OW18664   6.236   4.205   4.698
 5922SOL    HW118665   6.265   4.220   4.603
 5922SOL    HW218666   6.145   4.245   4.710
 5923SOL     OW18667   6.683   1.587   2.070
 5923SOL    HW118668   6.706   1.583   1.973
 5923SOL    HW218669   6.739   1.657   2.115
 5924SOL     OW18670   6.119   0.194   2.383
 5924SOL    HW118671   6.062   0.115   2.404
 5924SOL    HW218672   6.104   0.222   2.288
 5925SOL     OW18673   3.118   6.605   2.021
 5925SOL    HW118674   3.148   6.670   2.091
 5925SOL    HW218675   3.018   6.597   2.023
 5926SOL     OW18676   3.979   4.826   2.389
 5926SOL    HW118677   3.995   4.787   2.480
 5926SOL    HW218678   3.890   4.870   2.387
 5927SOL     OW18679   0.940   5.199   2.238
 5927SOL    HW118680   0.998   5.150   2.173
 5927SOL    HW218681   0.985   5.201   2.328
 5928SOL     OW18682   3.564   6.915   0.733
 5928SOL    HW118683   3.542   6.977   0.808
 5928SOL    HW218684   3.480   6.871   0.700
 5929SOL     OW18685   6.309   0.174   6.060
 5929SOL    HW118686   6.294   0.256   6.006
 5929SOL    HW218687   6.255   0.099   6.023
 5930SOL     OW18688   0.410   3.181   3.249
 5930SOL    HW118689   0.360   3.192   3.335
 5930SOL    HW218690   0.346   3.156   3.177
 5931SOL     OW18691   6.716   6.470   2.889
 5931SOL    HW118692   6.751   6.388   2.935
 5931SOL    HW218693   6.784   6.543   2.894
 5932SOL     OW18694   3.520   0.469   0.281
 5932SOL    HW118695   3.553   0.406   0.211
 5932SOL    HW218696   3.595   0.529   0.311
 5933SOL     OW18697   6.521   5.127   4.469
 5933SOL    HW118698   6.565   5.043   4.499
 5933SOL    HW218699   6.538   5.200   4.535
 5934SOL     OW18700   3.848   2.839   5.241
 5934SOL    HW118701   3.911   2.775   5.284
 5934SOL    HW218702   3.843   2.923   5.295
 5935SOL     OW18703   0.189   5.105   6.615
 5935SOL    HW118704   0.140   5.126   6.530
 5935SOL    HW218705   0.144   5.027   6.660
 5936SOL     OW18706   3.044   3.056   1.426
 5936SOL    HW118707   3.007   3.149   1.425
 5936SOL    HW218708   2.969   2.991   1.441
 5937SOL     OW18709   6.083   3.437   1.944
 5937SOL    HW118710   6.070   3.345   1.907
 5937SOL    HW218711   6.080   3.434   2.044
 5938SOL     OW18712   5.982   5.793   3.624
 5938SOL    HW118713   5.993   5.802   3.525
 5938SOL    HW218714   5.929   5.871   3.658
 5939SOL     OW18715   2.677   5.875   3.755
 5939SOL    HW118716   2.666   5.974   3.763
 5939SOL    HW218717   2.646   5.846   3.664
 5940SOL     OW18718   4.453   5.064   3.079
 5940SOL    HW118719   4.525   4.997   3.057
 5940SOL    HW218720   4.403   5.087   2.995
 5941SOL     OW18721   5.681   3.260   2.607
 5941SOL    HW118722   5.635   3.298   2.527
 5941SOL    HW218723   5.647   3.167   2.623
 5942SOL     OW18724   5.157   3.471   6.800
 5942SOL    HW118725   5.125   3.412   6.726
 5942SOL    HW218726   5.128   3.565   6.782
 5943SOL     OW18727   3.535   3.748   6.264
 5943SOL    HW118728   3.451   3.760   6.212
 5943SOL    HW218729   3.610   3.728   6.201
 5944SOL     OW18730   0.074   2.091   6.993
 5944SOL    HW118731   0.024   2.018   0.014
 5944SOL    HW218732   0.111   2.155   0.033
 5945SOL     OW18733   6.890   4.856   5.105
 5945SOL    HW118734   6.792   4.876   5.093
 5945SOL    HW218735   6.901   4.762   5.138
 5946SOL     OW18736   3.491   3.581   6.457
 5946SOL    HW118737   3.574   3.554   6.506
 5946SOL    HW218738   3.515   3.648   6.386
 5947SOL     OW18739   3.118   3.513   3.239
 5947SOL    HW118740   3.054   3.494   3.165
 5947SOL    HW218741   3.164   3.601   3.222
 5948SOL     OW18742   4.037   4.839   2.671
 5948SOL    HW118743   4.109   4.778   2.704
 5948SOL    HW218744   4.077   4.926   2.644
 5949SOL     OW18745   5.174   4.754   1.555
 5949SOL    HW118746   5.259   4.755   1.606
 5949SOL    HW218747   5.149   4.659   1.533
 5950SOL     OW18748   5.458   1.822   4.799
 5950SOL    HW118749   5.493   1.898   4.854
 5950SOL    HW218750   5.361   1.809   4.818
 5951SOL     OW18751   0.852   5.617   4.715
 5951SOL    HW118752   0.867   5.711   4.746
 5951SOL    HW218753   0.890   5.553   4.782
 5952SOL     OW18754   5.045   6.129   3.513
 5952SOL    HW118755   4.988   6.130   3.595
 5952SOL    HW218756   5.073   6.035   3.493
 5953SOL     OW18757   6.910   4.405   4.914
 5953SOL    HW118758   6.822   4.452   4.921
 5953SOL    HW218759   6.983   4.472   4.902
 5954SOL     OW18760   6.533   5.287   5.260
 5954SOL    HW118761   6.554   5.289   5.162
 5954SOL    HW218762   6.602   5.232   5.308
 5955SOL     OW18763   4.502   5.562   2.161
 5955SOL    HW118764   4.539   5.653   2.140
 5955SOL    HW218765   4.533   5.497   2.092
 5956SOL     OW18766   5.494   1.936   4.040
 5956SOL    HW118767   5.509   1.909   4.136
 5956SOL    HW218768   5.407   1.985   4.033
 5957SOL     OW18769   3.146   1.641   4.519
 5957SOL    HW118770   3.174   1.645   4.614
 5957SOL    HW218771   3.227   1.637   4.460
 5958SOL     OW18772   4.313   0.014   2.541
 5958SOL    HW118773   4.258   0.095   2.564
 5958SOL    HW218774   4.345   0.022   2.447
 5959SOL     OW18775   4.521   2.951   5.769
 5959SOL    HW118776   4.422   2.964   5.769
 5959SOL    HW218777   4.551   2.924   5.678
 5960SOL     OW18778   3.499   5.870   4.972
 5960SOL    HW118779   3.482   5.964   4.943
 5960SOL    HW218780   3.508   5.811   4.892
 5961SOL     OW18781   4.892   1.358   2.788
 5961SOL    HW118782   4.896   1.383   2.691
 5961SOL    HW218783   4.807   1.309   2.805
 5962SOL     OW18784   5.877   6.158   6.683
 5962SOL    HW118785   5.833   6.192   6.600
 5962SOL    HW218786   5.936   6.229   6.721
 5963SOL     OW18787   3.133   3.812   6.302
 5963SOL    HW118788   3.183   3.823   6.216
 5963SOL    HW218789   3.068   3.737   6.294
 5964SOL     OW18790   1.509   6.660   4.769
 5964SOL    HW118791   1.434   6.648   4.834
 5964SOL    HW218792   1.574   6.584   4.779
 5965SOL     OW18793   2.218   1.442   0.141
 5965SOL    HW118794   2.304   1.473   0.182
 5965SOL    HW218795   2.220   1.461   0.043
 5966SOL     OW18796   2.441   6.446   6.388
 5966SOL    HW118797   2.394   6.438   6.476
 5966SOL    HW218798   2.424   6.536   6.349
 5967SOL     OW18799   2.455   0.697   5.970
 5967SOL    HW118800   2.430   0.714   5.874
 5967SOL    HW218801   2.374   0.707   6.028
 5968SOL     OW18802   5.129   2.549   0.164
 5968SOL    HW118803   5.109   2.617   0.093
 5968SOL    HW218804   5.219   2.567   0.204
 5969SOL     OW18805   6.278   0.469   6.769
 5969SOL    HW118806   6.312   0.562   6.782
 5969SOL    HW218807   6.339   0.420   6.707
 5970SOL     OW18808   7.001   4.963   1.740
 5970SOL    HW118809   0.036   4.947   1.663
 5970SOL    HW218810   7.020   4.896   1.812
 5971SOL     OW18811   6.921   0.728   1.491
 5971SOL    HW118812   6.987   0.799   1.469
 5971SOL    HW218813   6.969   0.644   1.515
 5972SOL     OW18814   4.560   5.941   6.240
 5972SOL    HW118815   4.580   6.011   6.308
 5972SOL    HW218816   4.619   5.953   6.161
 5973SOL     OW18817   1.518   2.703   2.630
 5973SOL    HW118818   1.593   2.640   2.650
 5973SOL    HW218819   1.544   2.796   2.654
 5974SOL     OW18820   5.380   6.054   0.413
 5974SOL    HW118821   5.338   5.984   0.355
 5974SOL    HW218822   5.352   6.145   0.382
 5975SOL     OW18823   3.807   0.194   0.694
 5975SOL    HW118824   3.808   0.094   0.688
 5975SOL    HW218825   3.775   0.233   0.607
 5976SOL     OW18826   4.137   2.872   5.521
 5976SOL    HW118827   4.212   2.937   5.533
 5976SOL    HW218828   4.075   2.878   5.600
 5977SOL     OW18829   1.553   5.683   0.822
 5977SOL    HW118830   1.470   5.724   0.785
 5977SOL    HW218831   1.632   5.735   0.791
 5978SOL     OW18832   3.637   5.521   1.590
 5978SOL    HW118833   3.735   5.543   1.592
 5978SOL    HW218834   3.624   5.424   1.609
 5979SOL     OW18835   6.901   0.633   2.643
 5979SOL    HW118836   6.890   0.549   2.695
 5979SOL    HW218837   6.899   0.613   2.545
 5980SOL     OW18838   4.059   3.853   1.287
 5980SOL    HW118839   4.122   3.930   1.297
 5980SOL    HW218840   3.965   3.887   1.293
 5981SOL     OW18841   5.093   1.724   0.542
 5981SOL    HW118842   5.083   1.647   0.606
 5981SOL    HW218843   5.132   1.690   0.456
 5982SOL     OW18844   6.242   2.053   2.850
 5982SOL    HW118845   6.180   1.993   2.901
 5982SOL    HW218846   6.204   2.070   2.759
 5983SOL     OW18847   1.137   1.439   4.252
 5983SOL    HW118848   1.081   1.495   4.312
 5983SOL    HW218849   1.206   1.391   4.306
 5984SOL     OW18850   5.431   6.592   3.184
 5984SOL    HW118851   5.365   6.572   3.111
 5984SOL    HW218852   5.523   6.597   3.144
 5985SOL     OW18853   6.850   3.077   3.244
 5985SOL    HW118854   6.823   3.040   3.155
 5985SOL    HW218855   6.774   3.130   3.282
 5986SOL     OW18856   3.175   4.069   4.822
 5986SOL    HW118857   3.127   4.068   4.735
 5986SOL    HW218858   3.274   4.072   4.807
 5987SOL     OW18859   4.945   0.351   4.155
 5987SOL    HW118860   4.863   0.372   4.208
 5987SOL    HW218861   5.024   0.347   4.216
 5988SOL     OW18862   4.575   0.748   5.569
 5988SOL    HW118863   4.534   0.658   5.552
 5988SOL    HW218864   4.509   0.819   5.546
 5989SOL     OW18865   2.085   5.282   5.798
 5989SOL    HW118866   2.003   5.225   5.809
 5989SOL    HW218867   2.058   5.378   5.796
 5990SOL     OW18868   3.701   3.564   0.548
 5990SOL    HW118869   3.624   3.566   0.484
 5990SOL    HW218870   3.704   3.475   0.594
 5991SOL     OW18871   4.096   5.723   6.911
 5991SOL    HW118872   4.017   5.681   6.866
 5991SOL    HW218873   4.130   5.798   6.855
 5992SOL     OW18874   3.501   0.158   1.955
 5992SOL    HW118875   3.503   0.256   1.936
 5992SOL    HW218876   3.457   0.110   1.879
 5993SOL     OW18877   4.255   4.006   5.784
 5993SOL    HW118878   4.182   4.044   5.727
 5993SOL    HW218879   4.284   4.074   5.850
 5994SOL     OW18880   6.955   1.908   0.099
 5994SOL    HW118881   6.892   1.919   0.176
 5994SOL    HW218882   6.943   1.817   0.059
 5995SOL     OW18883   4.831   3.166   2.390
 5995SOL    HW118884   4.860   3.256   2.356
 5995SOL    HW218885   4.731   3.161   2.391
 5996SOL     OW18886   0.338   6.216   0.993
 5996SOL    HW118887   0.412   6.150   0.977
 5996SOL    HW218888   0.306   6.251   0.905
 5997SOL     OW18889   0.712   5.344   2.700
 5997SOL    HW118890   0.742   5.340   2.605
 5997SOL    HW218891   0.627   5.397   2.706
 5998SOL     OW18892   6.220   1.608   2.277
 5998SOL    HW118893   6.198   1.696   2.235
 5998SOL    HW218894   6.319   1.596   2.281
 5999SOL     OW18895   2.660   3.215   1.295
 5999SOL    HW118896   2.584   3.265   1.252
 5999SOL    HW218897   2.624   3.157   1.368
 6000SOL     OW18898   1.862   6.103   6.807
 6000SOL    HW118899   1.910   6.037   6.749
 6000SOL    HW218900   1.928   6.156   6.859
 6001SOL     OW18901   0.185   4.904   6.819
 6001SOL    HW118902   0.210   4.807   6.817
 6001SOL    HW218903   0.243   4.952   6.884
 6002SOL     OW18904   5.807   6.652   6.809
 6002SOL    HW118905   5.860   6.735   6.794
 6002SOL    HW218906   5.824   6.618   6.902
 6003SOL     OW18907   5.768   1.728   5.202
 6003SOL    HW118908   5.704   1.805   5.198
 6003SOL    HW218909   5.843   1.750   5.264
 6004SOL     OW18910   6.481   3.812   3.389
 6004SOL    HW118911   6.553   3.776   3.330
 6004SOL    HW218912   6.394   3.768   3.366
 6005SOL     OW18913   5.390   5.332   4.700
 6005SOL    HW118914   5.434   5.244   4.717
 6005SOL    HW218915   5.294   5.326   4.727
 6006SOL     OW18916   2.227   0.978   4.949
 6006SOL    HW118917   2.315   0.985   4.998
 6006SOL    HW218918   2.166   0.917   5.000
 6007SOL     OW18919   6.361   3.417   5.842
 6007SOL    HW118920   6.321   3.474   5.914
 6007SOL    HW218921   6.392   3.475   5.766
 6008SOL     OW18922   2.711   5.173   5.984
 6008SOL    HW118923   2.762   5.149   5.901
 6008SOL    HW218924   2.688   5.090   6.034
 6009SOL     OW18925   3.626   0.696   4.015
 6009SOL    HW118926   3.650   0.637   3.937
 6009SOL    HW218927   3.681   0.671   4.094
 6010SOL     OW18928   1.102   4.613   3.957
 6010SOL    HW118929   1.138   4.706   3.948
 6010SOL    HW218930   1.106   4.585   4.053
 6011SOL     OW18931   6.115   3.325   3.450
 6011SOL    HW118932   6.050   3.294   3.380
 6011SOL    HW218933   6.101   3.272   3.534
 6012SOL     OW18934   5.953   0.789   0.638
 6012SOL    HW118935   5.903   0.846   0.572
 6012SOL    HW218936   5.962   0.837   0.725
 6013SOL     OW18937   4.580   0.879   2.667
 6013SOL    HW118938   4.629   0.952   2.618
 6013SOL    HW218939   4.646   0.812   2.701
 6014SOL     OW18940   3.657   4.161   3.508
 6014SOL    HW118941   3.603   4.134   3.588
 6014SOL    HW218942   3.687   4.256   3.519
 6015SOL     OW18943   6.012   4.422   4.682
 6015SOL    HW118944   5.936   4.464   4.633
 6015SOL    HW218945   5.983   4.398   4.775
 6016SOL     OW18946   6.649   1.420   6.270
 6016SOL    HW118947   6.726   1.432   6.333
 6016SOL    HW218948   6.568   1.391   6.321
 6017SOL     OW18949   6.203   4.756   4.205
 6017SOL    HW118950   6.253   4.828   4.254
 6017SOL    HW218951   6.258   4.724   4.128
 6018SOL     OW18952   3.603   1.177   6.140
 6018SOL    HW118953   3.536   1.103   6.132
 6018SOL    HW218954   3.574   1.240   6.212
 6019SOL     OW18955   0.703   2.923   5.312
 6019SOL    HW118956   0.622   2.980   5.325
 6019SOL    HW218957   0.771   2.974   5.260
 6020SOL     OW18958   0.826   4.685   0.239
 6020SOL    HW118959   0.769   4.714   0.163
 6020SOL    HW218960   0.840   4.762   0.302
 6021SOL     OW18961   4.490   0.580   3.279
 6021SOL    HW118962   4.446   0.657   3.233
 6021SOL    HW218963   4.531   0.519   3.211
 6022SOL     OW18964   6.880   1.641   3.713
 6022SOL    HW118965   6.810   1.630   3.642
 6022SOL    HW218966   6.866   1.572   3.784
 6023SOL     OW18967   5.042   0.905   2.040
 6023SOL    HW118968   5.057   0.875   1.946
 6023SOL    HW218969   5.115   0.870   2.099
 6024SOL     OW18970   1.132   4.671   1.531
 6024SOL    HW118971   1.134   4.571   1.543
 6024SOL    HW218972   1.058   4.695   1.467
 6025SOL     OW18973   3.038   1.927   3.481
 6025SOL    HW118974   3.082   1.857   3.423
 6025SOL    HW218975   2.975   1.883   3.545
 6026SOL     OW18976   0.184   5.390   5.070
 6026SOL    HW118977   0.250   5.318   5.093
 6026SOL    HW218978   0.189   5.408   4.971
 6027SOL     OW18979   6.960   3.593   6.218
 6027SOL    HW118980   0.016   3.542   6.195
 6027SOL    HW218981   6.962   3.683   6.176
 6028SOL     OW18982   5.690   4.751   1.028
 6028SOL    HW118983   5.680   4.802   1.113
 6028SOL    HW218984   5.612   4.689   1.015
 6029SOL     OW18985   2.923   6.487   3.771
 6029SOL    HW118986   2.840   6.497   3.718
 6029SOL    HW218987   2.998   6.456   3.712
 6030SOL     OW18988   4.559   4.994   3.405
 6030SOL    HW118989   4.636   5.044   3.366
 6030SOL    HW218990   4.535   5.033   3.494
 6031SOL     OW18991   3.504   5.444   3.874
 6031SOL    HW118992   3.594   5.437   3.916
 6031SOL    HW218993   3.453   5.360   3.890
 6032SOL     OW18994   2.330   4.998   2.438
 6032SOL    HW118995   2.359   4.904   2.418
 6032SOL    HW218996   2.376   5.061   2.376
 6033SOL     OW18997   2.280   2.746   3.074
 6033SOL    HW118998   2.293   2.655   3.036
 6033SOL    HW218999   2.183   2.768   3.074
 6034SOL     OW19000   1.393   0.843   5.345
 6034SOL    HW119001   1.398   0.915   5.414
 6034SOL    HW219002   1.450   0.766   5.372
 6035SOL     OW19003   1.169   1.315   1.593
 6035SOL    HW119004   1.261   1.282   1.570
 6035SOL    HW219005   1.169   1.351   1.686
 6036SOL     OW19006   5.187   5.474   2.668
 6036SOL    HW119007   5.281   5.502   2.687
 6036SOL    HW219008   5.133   5.553   2.640
 6037SOL     OW19009   4.020   0.527   0.543
 6037SOL    HW119010   4.106   0.517   0.592
 6037SOL    HW219011   3.969   0.604   0.581
 6038SOL     OW19012   1.830   3.000   6.363
 6038SOL    HW119013   1.878   2.958   6.286
 6038SOL    HW219014   1.732   2.986   6.352
 6039SOL     OW19015   3.760   3.283   2.953
 6039SOL    HW119016   3.802   3.372   2.971
 6039SOL    HW219017   3.816   3.211   2.995
 6040SOL     OW19018   1.496   1.791   1.159
 6040SOL    HW119019   1.491   1.704   1.109
 6040SOL    HW219020   1.591   1.809   1.185
 6041SOL     OW19021   2.981   1.432   5.229
 6041SOL    HW119022   3.001   1.354   5.288
 6041SOL    HW219023   3.053   1.442   5.161
 6042SOL     OW19024   4.132   6.865   2.636
 6042SOL    HW119025   4.213   6.911   2.600
 6042SOL    HW219026   4.130   6.876   2.736
 6043SOL     OW19027   0.965   6.627   5.269
 6043SOL    HW119028   0.886   6.651   5.325
 6043SOL    HW219029   0.978   6.694   5.197
 6044SOL     OW19030   1.932   2.647   1.443
 6044SOL    HW119031   2.007   2.700   1.482
 6044SOL    HW219032   1.880   2.603   1.516
 6045SOL     OW19033   5.577   3.859   3.043
 6045SOL    HW119034   5.514   3.888   2.971
 6045SOL    HW219035   5.536   3.785   3.096
 6046SOL     OW19036   3.391   2.515   1.423
 6046SOL    HW119037   3.482   2.476   1.437
 6046SOL    HW219038   3.338   2.455   1.363
 6047SOL     OW19039   5.018   1.840   1.814
 6047SOL    HW119040   4.962   1.790   1.880
 6047SOL    HW219041   5.014   1.794   1.726
 6048SOL     OW19042   4.539   5.293   5.079
 6048SOL    HW119043   4.545   5.351   4.998
 6048SOL    HW219044   4.621   5.237   5.087
 6049SOL     OW19045   4.586   3.708   0.076
 6049SOL    HW119046   4.510   3.645   0.088
 6049SOL    HW219047   4.604   3.720   7.005
 6050SOL     OW19048   2.614   4.992   6.471
 6050SOL    HW119049   2.539   4.999   6.537
 6050SOL    HW219050   2.664   4.907   6.486
 6051SOL     OW19051   1.973   0.565   3.540
 6051SOL    HW119052   1.890   0.511   3.523
 6051SOL    HW219053   2.043   0.539   3.474
 6052SOL     OW19054   4.972   1.065   1.021
 6052SOL    HW119055   4.897   1.120   0.984
 6052SOL    HW219056   5.014   1.011   0.948
 6053SOL     OW19057   4.262   1.314   6.065
 6053SOL    HW119058   4.162   1.306   6.072
 6053SOL    HW219059   4.295   1.377   6.135
 6054SOL     OW19060   2.623   3.722   0.011
 6054SOL    HW119061   2.561   3.668   6.981
 6054SOL    HW219062   2.573   3.800   0.049
 6055SOL     OW19063   5.261   6.875   5.643
 6055SOL    HW119064   5.354   6.907   5.657
 6055SOL    HW219065   5.255   6.826   5.556
 6056SOL     OW19066   4.925   3.431   5.207
 6056SOL    HW119067   4.954   3.473   5.293
 6056SOL    HW219068   4.843   3.478   5.173
 6057SOL     OW19069   0.001   1.066   2.274
 6057SOL    HW119070   6.977   1.074   2.359
 6057SOL    HW219071   0.072   1.137   2.271
 6058SOL     OW19072   5.606   3.611   0.862
 6058SOL    HW119073   5.588   3.702   0.899
 6058SOL    HW219074   5.695   3.579   0.893
 6059SOL     OW19075   4.636   5.442   6.248
 6059SOL    HW119076   4.611   5.346   6.261
 6059SOL    HW219077   4.567   5.501   6.291
 6060SOL     OW19078   2.834   3.093   5.807
 6060SOL    HW119079   2.894   3.161   5.848
 6060SOL    HW219080   2.869   3.067   5.717
 6061SOL     OW19081   5.267   3.258   0.287
 6061SOL    HW119082   5.287   3.174   0.337
 6061SOL    HW219083   5.184   3.300   0.325
 6062SOL     OW19084   2.227   1.283   5.468
 6062SOL    HW119085   2.291   1.359   5.467
 6062SOL    HW219086   2.150   1.303   5.407
 6063SOL     OW19087   4.492   2.530   6.209
 6063SOL    HW119088   4.519   2.463   6.140
 6063SOL    HW219089   4.572   2.583   6.238
 6064SOL     OW19090   1.539   0.585   0.854
 6064SOL    HW119091   1.553   0.526   0.933
 6064SOL    HW219092   1.622   0.586   0.798
 6065SOL     OW19093   0.919   5.985   2.571
 6065SOL    HW119094   0.922   5.896   2.525
 6065SOL    HW219095   1.006   6.002   2.617
 6066SOL     OW19096   5.547   1.450   5.065
 6066SOL    HW119097   5.607   1.523   5.097
 6066SOL    HW219098   5.496   1.412   5.142
 6067SOL     OW19099   5.103   0.833   5.887
 6067SOL    HW119100   5.169   0.848   5.813
 6067SOL    HW219101   5.017   0.801   5.848
 6068SOL     OW19102   4.646   2.646   4.537
 6068SOL    HW119103   4.561   2.594   4.540
 6068SOL    HW219104   4.694   2.637   4.625
 6069SOL     OW19105   5.683   2.969   5.190
 6069SOL    HW119106   5.616   2.908   5.147
 6069SOL    HW219107   5.649   3.063   5.187
 6070SOL     OW19108   2.888   2.581   1.404
 6070SOL    HW119109   2.799   2.614   1.437
 6070SOL    HW219110   2.957   2.594   1.475
 6071SOL     OW19111   6.939   5.781   5.050
 6071SOL    HW119112   6.870   5.838   5.094
 6071SOL    HW219113   7.003   5.839   4.998
 6072SOL     OW19114   0.226   0.321   1.682
 6072SOL    HW119115   0.172   0.238   1.668
 6072SOL    HW219116   0.289   0.307   1.758
 6073SOL     OW19117   5.463   2.787   0.544
 6073SOL    HW119118   5.550   2.805   0.589
 6073SOL    HW219119   5.418   2.709   0.588
 6074SOL     OW19120   0.973   5.756   2.400
 6074SOL    HW119121   0.939   5.695   2.329
 6074SOL    HW219122   1.063   5.725   2.431
 6075SOL     OW19123   4.321   6.979   5.869
 6075SOL    HW119124   4.259   6.901   5.871
 6075SOL    HW219125   4.365   6.984   5.779
 6076SOL     OW19126   3.376   5.247   2.983
 6076SOL    HW119127   3.345   5.228   2.890
 6076SOL    HW219128   3.424   5.334   2.986
 6077SOL     OW19129   6.276   5.183   1.505
 6077SOL    HW119130   6.192   5.140   1.471
 6077SOL    HW219131   6.331   5.114   1.551
 6078SOL     OW19132   5.145   5.295   0.186
 6078SOL    HW119133   5.213   5.264   0.252
 6078SOL    HW219134   5.127   5.223   0.120
 6079SOL     OW19135   4.935   3.556   5.440
 6079SOL    HW119136   4.863   3.555   5.510
 6079SOL    HW219137   5.010   3.614   5.471
 6080SOL     OW19138   0.075   5.947   1.122
 6080SOL    HW119139   0.024   6.025   1.158
 6080SOL    HW219140   0.163   5.940   1.168
 6081SOL     OW19141   6.913   2.880   5.463
 6081SOL    HW119142   6.985   2.881   5.532
 6081SOL    HW219143   6.828   2.848   5.504
 6082SOL     OW19144   2.914   0.117   3.320
 6082SOL    HW119145   2.930   0.019   3.308
 6082SOL    HW219146   2.887   0.157   3.232
 6083SOL     OW19147   6.278   6.221   0.748
 6083SOL    HW119148   6.351   6.208   0.680
 6083SOL    HW219149   6.190   6.219   0.701
 6084SOL     OW19150   0.989   6.924   2.809
 6084SOL    HW119151   1.071   6.904   2.756
 6084SOL    HW219152   1.004   6.899   2.905
 6085SOL     OW19153   0.316   0.152   0.276
 6085SOL    HW119154   0.322   0.136   0.177
 6085SOL    HW219155   0.224   0.183   0.299
 6086SOL     OW19156   2.791   1.535   5.616
 6086SOL    HW119157   2.702   1.560   5.655
 6086SOL    HW219158   2.857   1.518   5.689
 6087SOL     OW19159   3.440   5.929   1.439
 6087SOL    HW119160   3.405   5.929   1.346
 6087SOL    HW219161   3.445   5.835   1.473
 6088SOL     OW19162   5.663   6.540   4.570
 6088SOL    HW119163   5.669   6.610   4.499
 6088SOL    HW219164   5.701   6.575   4.655
 6089SOL     OW19165   5.348   2.432   2.826
 6089SOL    HW119166   5.294   2.394   2.751
 6089SOL    HW219167   5.412   2.363   2.860
 6090SOL     OW19168   2.638   5.657   4.418
 6090SOL    HW119169   2.699   5.703   4.353
 6090SOL    HW219170   2.692   5.626   4.497
 6091SOL     OW19171   2.269   1.270   6.720
 6091SOL    HW119172   2.336   1.218   6.773
 6091SOL    HW219173   2.177   1.244   6.750
 6092SOL     OW19174   4.057   0.650   2.816
 6092SOL    HW119175   3.963   0.637   2.783
 6092SOL    HW219176   4.088   0.742   2.793
 6093SOL     OW19177   2.303   2.757   2.260
 6093SOL    HW119178   2.291   2.853   2.284
 6093SOL    HW219179   2.309   2.748   2.161
 6094SOL     OW19180   1.177   5.915   2.671
 6094SOL    HW119181   1.217   5.878   2.587
 6094SOL    HW219182   1.249   5.928   2.740
 6095SOL     OW19183   4.896   5.040   0.172
 6095SOL    HW119184   4.874   5.117   0.231
 6095SOL    HW219185   4.815   4.982   0.160
 6096SOL     OW19186   6.055   0.408   3.349
 6096SOL    HW119187   6.116   0.454   3.414
 6096SOL    HW219188   6.104   0.392   3.264
 6097SOL     OW19189   1.689   5.429   2.164
 6097SOL    HW119190   1.743   5.360   2.211
 6097SOL    HW219191   1.592   5.414   2.182
 6098SOL     OW19192   0.323   1.559   5.372
 6098SOL    HW119193   0.391   1.528   5.306
 6098SOL    HW219194   0.357   1.543   5.465
 6099SOL     OW19195   5.373   6.195   6.331
 6099SOL    HW119196   5.472   6.179   6.322
 6099SOL    HW219197   5.340   6.243   6.250
 6100SOL     OW19198   5.424   6.034   1.579
 6100SOL    HW119199   5.359   6.105   1.552
 6100SOL    HW219200   5.420   6.020   1.678
 6101SOL     OW19201   0.088   3.050   3.291
 6101SOL    HW119202   0.138   3.067   3.206
 6101SOL    HW219203   7.024   3.091   3.285
 6102SOL     OW19204   3.507   5.890   2.996
 6102SOL    HW119205   3.587   5.951   2.994
 6102SOL    HW219206   3.424   5.945   2.991
 6103SOL     OW19207   5.789   1.469   2.157
 6103SOL    HW119208   5.762   1.378   2.125
 6103SOL    HW219209   5.878   1.494   2.117
 6104SOL     OW19210   5.162   0.022   5.311
 6104SOL    HW119211   5.116   0.074   5.382
 6104SOL    HW219212   5.222   6.980   5.353
 6105SOL     OW19213   2.632   5.879   6.647
 6105SOL    HW119214   2.731   5.871   6.639
 6105SOL    HW219215   2.588   5.795   6.616
 6106SOL     OW19216   1.357   4.679   6.012
 6106SOL    HW119217   1.373   4.600   6.072
 6106SOL    HW219218   1.441   4.700   5.961
 6107SOL     OW19219   4.697   5.970   4.913
 6107SOL    HW119220   4.727   6.063   4.931
 6107SOL    HW219221   4.658   5.931   4.996
 6108SOL     OW19222   2.297   2.624   2.481
 6108SOL    HW119223   2.263   2.530   2.475
 6108SOL    HW219224   2.312   2.660   2.389
 6109SOL     OW19225   5.681   1.670   4.699
 6109SOL    HW119226   5.668   1.576   4.667
 6109SOL    HW219227   5.597   1.704   4.740
 6110SOL     OW19228   3.022   4.041   0.624
 6110SOL    HW119229   2.986   4.012   0.536
 6110SOL    HW219230   2.946   4.062   0.686
 6111SOL     OW19231   1.356   3.068   2.197
 6111SOL    HW119232   1.402   3.152   2.226
 6111SOL    HW219233   1.416   2.990   2.212
 6112SOL     OW19234   3.077   0.428   2.861
 6112SOL    HW119235   2.989   0.396   2.824
 6112SOL    HW219236   3.150   0.403   2.799
 6113SOL     OW19237   2.554   2.204   6.285
 6113SOL    HW119238   2.583   2.194   6.381
 6113SOL    HW219239   2.629   2.240   6.231
 6114SOL     OW19240   5.037   4.790   2.345
 6114SOL    HW119241   5.102   4.729   2.301
 6114SOL    HW219242   5.027   4.765   2.442
 6115SOL     OW19243   5.766   0.358   4.807
 6115SOL    HW119244   5.695   0.289   4.826
 6115SOL    HW219245   5.842   0.314   4.759
 6116SOL     OW19246   4.066   1.838   6.337
 6116SOL    HW119247   4.017   1.906   6.392
 6116SOL    HW219248   4.160   1.868   6.322
 6117SOL     OW19249   1.706   1.287   3.530
 6117SOL    HW119250   1.770   1.214   3.551
 6117SOL    HW219251   1.720   1.363   3.594
 6118SOL     OW19252   5.918   0.731   1.075
 6118SOL    HW119253   5.970   0.775   1.148
 6118SOL    HW219254   5.829   0.775   1.067
 6119SOL     OW19255   0.969   3.459   6.903
 6119SOL    HW119256   1.022   3.412   6.974
 6119SOL    HW219257   0.911   3.393   6.856
 6120SOL     OW19258   3.052   6.356   5.671
 6120SOL    HW119259   3.121   6.335   5.602
 6120SOL    HW219260   3.069   6.301   5.753
 6121SOL     OW19261   0.672   3.653   5.195
 6121SOL    HW119262   0.599   3.670   5.128
 6121SOL    HW219263   0.698   3.557   5.192
 6122SOL     OW19264   4.160   4.691   0.267
 6122SOL    HW119265   4.250   4.720   0.235
 6122SOL    HW219266   4.164   4.674   0.366
 6123SOL     OW19267   5.247   6.912   6.291
 6123SOL    HW119268   5.222   7.007   6.273
 6123SOL    HW219269   5.198   6.880   6.373
 6124SOL     OW19270   1.482   6.786   5.798
 6124SOL    HW119271   1.398   6.733   5.785
 6124SOL    HW219272   1.556   6.725   5.827
 6125SOL     OW19273   2.115   3.885   0.412
 6125SOL    HW119274   2.136   3.958   0.347
 6125SOL    HW219275   2.118   3.797   0.365
 6126SOL     OW19276   0.111   0.662   4.123
 6126SOL    HW119277   0.107   0.562   4.128
 6126SOL    HW219278   0.030   0.697   4.077
 6127SOL     OW19279   3.266   6.979   0.898
 6127SOL    HW119280   3.211   0.020   0.850
 6127SOL    HW219281   3.279   6.899   0.840
 6128SOL     OW19282   6.569   4.843   0.781
 6128SOL    HW119283   6.540   4.920   0.724
 6128SOL    HW219284   6.520   4.846   0.869
 6129SOL     OW19285   0.100   3.052   2.299
 6129SOL    HW119286   0.090   2.953   2.308
 6129SOL    HW219287   0.015   3.091   2.264
 6130SOL     OW19288   5.189   2.838   2.331
 6130SOL    HW119289   5.243   2.918   2.356
 6130SOL    HW219290   5.111   2.866   2.275
 6131SOL     OW19291   0.293   1.559   3.387
 6131SOL    HW119292   0.278   1.530   3.481
 6131SOL    HW219293   0.385   1.598   3.378
 6132SOL     OW19294   4.239   1.964   0.045
 6132SOL    HW119295   4.230   1.865   0.056
 6132SOL    HW219296   4.167   2.010   0.098
 6133SOL     OW19297   2.015   3.403   3.160
 6133SOL    HW119298   2.017   3.329   3.093
 6133SOL    HW219299   2.012   3.364   3.252
 6134SOL     OW19300   3.823   5.547   0.090
 6134SOL    HW119301   3.805   5.541   7.019
 6134SOL    HW219302   3.919   5.529   0.108
 6135SOL     OW19303   6.933   6.887   0.488
 6135SOL    HW119304   6.922   6.880   0.389
 6135SOL    HW219305   0.003   6.877   0.512
 6136SOL     OW19306   1.259   2.985   1.724
 6136SOL    HW119307   1.346   2.941   1.747
 6136SOL    HW219308   1.263   3.081   1.750
 6137SOL     OW19309   6.912   3.738   2.096
 6137SOL    HW119310   6.840   3.784   2.147
 6137SOL    HW219311   6.987   3.802   2.077
 6138SOL     OW19312   3.561   0.175   2.641
 6138SOL    HW119313   3.487   0.164   2.575
 6138SOL    HW219314   3.577   0.088   2.688
 6139SOL     OW19315   1.123   6.891   5.866
 6139SOL    HW119316   1.202   6.886   5.927
 6139SOL    HW219317   1.135   6.966   5.801
 6140SOL     OW19318   1.228   0.406   2.043
 6140SOL    HW119319   1.237   0.423   1.945
 6140SOL    HW219320   1.292   0.335   2.071
 6141SOL     OW19321   0.453   6.723   6.118
 6141SOL    HW119322   0.369   6.750   6.072
 6141SOL    HW219323   0.431   6.680   6.206
 6142SOL     OW19324   0.576   6.066   6.243
 6142SOL    HW119325   0.629   6.084   6.161
 6142SOL    HW219326   0.619   6.111   6.322
 6143SOL     OW19327   6.895   3.208   1.297
 6143SOL    HW119328   6.871   3.246   1.386
 6143SOL    HW219329   6.818   3.153   1.263
 6144SOL     OW19330   5.290   4.944   4.563
 6144SOL    HW119331   5.309   4.859   4.612
 6144SOL    HW219332   5.356   4.954   4.488
 6145SOL     OW19333   5.455   4.989   4.324
 6145SOL    HW119334   5.459   5.047   4.243
 6145SOL    HW219335   5.505   5.033   4.399
 6146SOL     OW19336   3.454   5.274   3.474
 6146SOL    HW119337   3.434   5.363   3.515
 6146SOL    HW219338   3.455   5.204   3.546
 6147SOL     OW19339   1.972   2.440   4.919
 6147SOL    HW119340   2.006   2.528   4.885
 6147SOL    HW219341   2.010   2.424   5.010
 6148SOL     OW19342   4.210   6.661   5.102
 6148SOL    HW119343   4.248   6.669   5.194
 6148SOL    HW219344   4.130   6.601   5.104
 6149SOL     OW19345   2.086   6.900   1.236
 6149SOL    HW119346   2.076   6.993   1.273
 6149SOL    HW219347   2.083   6.903   1.136
 6150SOL     OW19348   5.775   4.617   0.676
 6150SOL    HW119349   5.823   4.610   0.588
 6150SOL    HW219350   5.837   4.589   0.750
 6151SOL     OW19351   6.486   4.925   6.542
 6151SOL    HW119352   6.536   4.980   6.474
 6151SOL    HW219353   6.454   4.841   6.499
 6152SOL     OW19354   0.123   5.605   4.377
 6152SOL    HW119355   0.059   5.534   4.347
 6152SOL    HW219356   0.188   5.625   4.304
 6153SOL     OW19357   5.548   4.271   1.170
 6153SOL    HW119358   5.537   4.307   1.077
 6153SOL    HW219359   5.458   4.267   1.214
 6154SOL     OW19360   6.525   2.711   2.523
 6154SOL    HW119361   6.508   2.614   2.538
 6154SOL    HW219362   6.448   2.764   2.557
 6155SOL     OW19363   1.718   1.376   3.274
 6155SOL    HW119364   1.697   1.324   3.356
 6155SOL    HW219365   1.634   1.414   3.235
 6156SOL     OW19366   4.573   4.833   2.048
 6156SOL    HW119367   4.670   4.858   2.048
 6156SOL    HW219368   4.562   4.740   2.013
 6157SOL     OW19369   6.641   1.829   3.804
 6157SOL    HW119370   6.594   1.861   3.722
 6157SOL    HW219371   6.699   1.751   3.782
 6158SOL     OW19372   3.715   1.899   6.752
 6158SOL    HW119373   3.645   1.895   6.823
 6158SOL    HW219374   3.711   1.988   6.707
 6159SOL     OW19375   4.486   1.909   1.212
 6159SOL    HW119376   4.563   1.870   1.162
 6159SOL    HW219377   4.414   1.935   1.148
 6160SOL     OW19378   5.418   0.498   6.674
 6160SOL    HW119379   5.469   0.450   6.745
 6160SOL    HW219380   5.322   0.471   6.677
 6161SOL     OW19381   5.816   2.209   6.205
 6161SOL    HW119382   5.740   2.151   6.176
 6161SOL    HW219383   5.797   2.246   6.296
 6162SOL     OW19384   6.321   6.392   3.661
 6162SOL    HW119385   6.310   6.293   3.661
 6162SOL    HW219386   6.347   6.422   3.753
 6163SOL     OW19387   5.844   6.443   1.653
 6163SOL    HW119388   5.795   6.506   1.713
 6163SOL    HW219389   5.897   6.494   1.586
 6164SOL     OW19390   3.598   3.816   3.687
 6164SOL    HW119391   3.570   3.896   3.635
 6164SOL    HW219392   3.604   3.839   3.784
 6165SOL     OW19393   4.082   1.485   6.597
 6165SOL    HW119394   4.068   1.483   6.498
 6165SOL    HW219395   4.084   1.391   6.632
 6166SOL     OW19396   5.811   2.014   6.407
 6166SOL    HW119397   5.725   1.964   6.423
 6166SOL    HW219398   5.886   1.949   6.396
 6167SOL     OW19399   1.135   5.134   3.118
 6167SOL    HW119400   1.058   5.070   3.113
 6167SOL    HW219401   1.220   5.082   3.131
 6168SOL     OW19402   1.814   3.200   2.997
 6168SOL    HW119403   1.869   3.162   2.923
 6168SOL    HW219404   1.854   3.175   3.085
 6169SOL     OW19405   1.290   1.629   0.140
 6169SOL    HW119406   1.361   1.567   0.171
 6169SOL    HW219407   1.203   1.580   0.131
 6170SOL     OW19408   2.710   4.058   5.395
 6170SOL    HW119409   2.707   4.073   5.494
 6170SOL    HW219410   2.801   4.082   5.360
 6171SOL     OW19411   1.909   3.695   0.829
 6171SOL    HW119412   1.825   3.668   0.877
 6171SOL    HW219413   1.972   3.740   0.892
 6172SOL     OW19414   1.896   1.723   3.483
 6172SOL    HW119415   1.968   1.654   3.490
 6172SOL    HW219416   1.888   1.754   3.388
 6173SOL     OW19417   6.008   5.312   2.430
 6173SOL    HW119418   6.070   5.237   2.408
 6173SOL    HW219419   6.061   5.390   2.465
 6174SOL     OW19420   5.413   5.464   3.572
 6174SOL    HW119421   5.349   5.431   3.641
 6174SOL    HW219422   5.364   5.509   3.498
 6175SOL     OW19423   4.583   0.689   3.502
 6175SOL    HW119424   4.560   0.627   3.427
 6175SOL    HW219425   4.682   0.685   3.519
 6176SOL     OW19426   6.074   3.197   6.833
 6176SOL    HW119427   6.043   3.284   6.796
 6176SOL    HW219428   6.032   3.181   6.922
 6177SOL     OW19429   5.442   1.015   1.174
 6177SOL    HW119430   5.397   0.928   1.197
 6177SOL    HW219431   5.416   1.084   1.241
 6178SOL     OW19432   4.783   4.625   3.251
 6178SOL    HW119433   4.876   4.662   3.261
 6178SOL    HW219434   4.725   4.662   3.324
 6179SOL     OW19435   6.594   4.694   4.362
 6179SOL    HW119436   6.608   4.731   4.270
 6179SOL    HW219437   6.595   4.768   4.429
 6180SOL     OW19438   3.957   5.034   0.260
 6180SOL    HW119439   3.908   4.953   0.293
 6180SOL    HW219440   3.941   5.109   0.324
 6181SOL     OW19441   3.780   6.672   0.789
 6181SOL    HW119442   3.857   6.724   0.826
 6181SOL    HW219443   3.695   6.725   0.800
 6182SOL     OW19444   5.476   3.454   6.180
 6182SOL    HW119445   5.496   3.362   6.149
 6182SOL    HW219446   5.481   3.518   6.102
 6183SOL     OW19447   2.204   1.028   3.310
 6183SOL    HW119448   2.195   1.103   3.245
 6183SOL    HW219449   2.277   0.967   3.279
 6184SOL     OW19450   1.753   6.957   5.912
 6184SOL    HW119451   1.846   6.931   5.938
 6184SOL    HW219452   1.714   7.016   5.983
 6185SOL     OW19453   6.989   3.939   6.797
 6185SOL    HW119454   0.046   3.885   6.795
 6185SOL    HW219455   7.012   4.036   6.785
 6186SOL     OW19456   6.296   6.577   5.576
 6186SOL    HW119457   6.380   6.625   5.599
 6186SOL    HW219458   6.220   6.613   5.630
 6187SOL     OW19459   4.326   4.651   3.060
 6187SOL    HW119460   4.417   4.609   3.071
 6187SOL    HW219461   4.283   4.660   3.150
 6188SOL     OW19462   2.658   0.110   1.140
 6188SOL    HW119463   2.693   0.101   1.234
 6188SOL    HW219464   2.558   0.110   1.142
 6189SOL     OW19465   4.761   4.225   3.961
 6189SOL    HW119466   4.766   4.183   4.051
 6189SOL    HW219467   4.701   4.305   3.965
 6190SOL     OW19468   6.920   3.884   5.935
 6190SOL    HW119469   6.935   3.880   6.033
 6190SOL    HW219470   6.821   3.884   5.917
 6191SOL     OW19471   4.042   2.139   6.890
 6191SOL    HW119472   4.097   2.064   6.929
 6191SOL    HW219473   3.962   2.154   6.948
 6192SOL     OW19474   4.076   3.042   6.612
 6192SOL    HW119475   4.107   3.026   6.706
 6192SOL    HW219476   3.976   3.036   6.609
 6193SOL     OW19477   5.217   1.263   2.473
 6193SOL    HW119478   5.204   1.289   2.377
 6193SOL    HW219479   5.283   1.189   2.479
 6194SOL     OW19480   1.440   6.813   0.824
 6194SOL    HW119481   1.466   6.910   0.827
 6194SOL    HW219482   1.375   6.793   0.897
 6195SOL     OW19483   4.305   6.714   5.368
 6195SOL    HW119484   4.393   6.668   5.370
 6195SOL    HW219485   4.316   6.806   5.330
 6196SOL     OW19486   6.131   2.607   1.738
 6196SOL    HW119487   6.049   2.569   1.779
 6196SOL    HW219488   6.174   2.539   1.679
 6197SOL     OW19489   4.856   4.597   0.988
 6197SOL    HW119490   4.763   4.618   1.019
 6197SOL    HW219491   4.922   4.638   1.051
 6198SOL     OW19492   3.595   6.015   2.108
 6198SOL    HW119493   3.659   5.947   2.073
 6198SOL    HW219494   3.537   5.973   2.178
 6199SOL     OW19495   1.029   0.581   0.684
 6199SOL    HW119496   1.049   0.504   0.624
 6199SOL    HW219497   1.086   0.574   0.766
 6200SOL     OW19498   1.654   1.433   5.402
 6200SOL    HW119499   1.620   1.466   5.490
 6200SOL    HW219500   1.621   1.494   5.329
 6201SOL     OW19501   0.975   3.688   5.262
 6201SOL    HW119502   0.916   3.608   5.245
 6201SOL    HW219503   1.006   3.687   5.357
 6202SOL     OW19504   4.041   1.645   2.093
 6202SOL    HW119505   4.031   1.545   2.090
 6202SOL    HW219506   3.983   1.686   2.023
 6203SOL     OW19507   6.316   0.126   3.225
 6203SOL    HW119508   6.264   0.201   3.183
 6203SOL    HW219509   6.324   0.143   3.323
 6204SOL     OW19510   1.209   5.755   4.474
 6204SOL    HW119511   1.277   5.712   4.414
 6204SOL    HW219512   1.118   5.742   4.435
 6205SOL     OW19513   6.458   6.189   0.542
 6205SOL    HW119514   6.532   6.129   0.572
 6205SOL    HW219515   6.478   6.225   0.451
 6206SOL     OW19516   0.201   0.955   2.570
 6206SOL    HW119517   0.224   0.948   2.473
 6206SOL    HW219518   0.280   0.990   2.621
 6207SOL     OW19519   1.738   5.080   5.047
 6207SOL    HW119520   1.675   5.093   4.970
 6207SOL    HW219521   1.687   5.043   5.125
 6208SOL     OW19522   5.598   1.621   6.129
 6208SOL    HW119523   5.605   1.601   6.227
 6208SOL    HW219524   5.689   1.636   6.091
 6209SOL     OW19525   4.778   5.553   0.190
 6209SOL    HW119526   4.680   5.548   0.213
 6209SOL    HW219527   4.828   5.487   0.245
 6210SOL     OW19528   4.991   3.664   3.720
 6210SOL    HW119529   5.081   3.702   3.741
 6210SOL    HW219530   5.001   3.569   3.690
 6211SOL     OW19531   3.303   6.353   5.575
 6211SOL    HW119532   3.370   6.340   5.647
 6211SOL    HW219533   3.346   6.337   5.486
 6212SOL     OW19534   1.958   5.108   3.716
 6212SOL    HW119535   1.946   5.165   3.798
 6212SOL    HW219536   1.876   5.113   3.660
 6213SOL     OW19537   5.553   6.920   0.202
 6213SOL    HW119538   5.460   6.955   0.206
 6213SOL    HW219539   5.569   6.879   0.112
 6214SOL     OW19540   4.698   4.878   4.856
 6214SOL    HW119541   4.664   4.787   4.833
 6214SOL    HW219542   4.634   4.947   4.823
 6215SOL     OW19543   4.303   1.080   1.117
 6215SOL    HW119544   4.315   1.178   1.131
 6215SOL    HW219545   4.393   1.035   1.118
 6216SOL     OW19546   6.106   1.297   2.172
 6216SOL    HW119547   6.205   1.279   2.179
 6216SOL    HW219548   6.057   1.210   2.175
 6217SOL     OW19549   0.321   3.562   2.006
 6217SOL    HW119550   0.307   3.596   2.099
 6217SOL    HW219551   0.319   3.462   2.005
 6218SOL     OW19552   4.526   5.590   5.905
 6218SOL    HW119553   4.547   5.544   5.819
 6218SOL    HW219554   4.468   5.531   5.960
 6219SOL     OW19555   0.511   2.712   4.359
 6219SOL    HW119556   0.543   2.715   4.454
 6219SOL    HW219557   0.532   2.798   4.314
 6220SOL     OW19558   1.645   2.436   5.255
 6220SOL    HW119559   1.592   2.469   5.333
 6220SOL    HW219560   1.649   2.336   5.257
 6221SOL     OW19561   5.736   5.812   0.231
 6221SOL    HW119562   5.781   5.882   0.175
 6221SOL    HW219563   5.791   5.794   0.313
 6222SOL     OW19564   0.506   6.873   1.394
 6222SOL    HW119565   0.548   6.954   1.434
 6222SOL    HW219566   0.565   6.794   1.407
 6223SOL     OW19567   0.441   5.202   4.232
 6223SOL    HW119568   0.344   5.178   4.226
 6223SOL    HW219569   0.491   5.160   4.156
 6224SOL     OW19570   2.407   1.767   6.041
 6224SOL    HW119571   2.444   1.847   5.994
 6224SOL    HW219572   2.482   1.705   6.065
 6225SOL     OW19573   3.654   3.917   6.912
 6225SOL    HW119574   3.565   3.930   6.955
 6225SOL    HW219575   3.676   3.820   6.909
 6226SOL     OW19576   6.257   1.497   5.273
 6226SOL    HW119577   6.340   1.462   5.230
 6226SOL    HW219578   6.263   1.596   5.283
 6227SOL     OW19579   3.736   6.289   5.644
 6227SOL    HW119580   3.788   6.265   5.562
 6227SOL    HW219581   3.752   6.220   5.715
 6228SOL     OW19582   1.012   2.586   3.359
 6228SOL    HW119583   1.098   2.539   3.378
 6228SOL    HW219584   0.964   2.606   3.444
 6229SOL     OW19585   0.092   2.117   3.257
 6229SOL    HW119586   0.012   2.093   3.201
 6229SOL    HW219587   0.065   2.123   3.353
 6230SOL     OW19588   1.152   1.664   3.590
 6230SOL    HW119589   1.247   1.642   3.567
 6230SOL    HW219590   1.101   1.580   3.609
 6231SOL     OW19591   5.897   5.096   1.141
 6231SOL    HW119592   5.950   5.031   1.087
 6231SOL    HW219593   5.887   5.181   1.090
 6232SOL     OW19594   6.770   0.953   0.876
 6232SOL    HW119595   6.701   0.926   0.808
 6232SOL    HW219596   6.773   0.885   0.949
 6233SOL     OW19597   6.245   0.742   0.573
 6233SOL    HW119598   6.293   0.660   0.602
 6233SOL    HW219599   6.149   0.735   0.598
 6234SOL     OW19600   5.892   1.387   5.727
 6234SOL    HW119601   5.797   1.371   5.752
 6234SOL    HW219602   5.943   1.301   5.734
 6235SOL     OW19603   1.140   6.634   1.656
 6235SOL    HW119604   1.177   6.554   1.609
 6235SOL    HW219605   1.041   6.638   1.641
 6236SOL     OW19606   0.980   3.402   0.640
 6236SOL    HW119607   1.044   3.355   0.701
 6236SOL    HW219608   0.887   3.385   0.670
 6237SOL     OW19609   3.238   6.776   6.729
 6237SOL    HW119610   3.305   6.709   6.760
 6237SOL    HW219611   3.272   6.822   6.647
 6238SOL     OW19612   4.190   4.664   2.186
 6238SOL    HW119613   4.106   4.666   2.240
 6238SOL    HW219614   4.211   4.756   2.154
 6239SOL     OW19615   2.154   0.539   2.051
 6239SOL    HW119616   2.217   0.581   2.117
 6239SOL    HW219617   2.164   0.440   2.054
 6240SOL     OW19618   2.460   3.247   5.934
 6240SOL    HW119619   2.404   3.318   5.892
 6240SOL    HW219620   2.431   3.157   5.900
 6241SOL     OW19621   3.854   0.196   1.551
 6241SOL    HW119622   3.813   0.106   1.567
 6241SOL    HW219623   3.785   0.258   1.513
 6242SOL     OW19624   4.675   0.360   3.701
 6242SOL    HW119625   4.712   0.332   3.789
 6242SOL    HW219626   4.750   0.373   3.636
 6243SOL     OW19627   6.482   6.873   4.362
 6243SOL    HW119628   6.397   6.823   4.381
 6243SOL    HW219629   6.518   6.845   4.273
 6244SOL     OW19630   0.183   2.635   2.046
 6244SOL    HW119631   0.219   2.600   2.132
 6244SOL    HW219632   0.241   2.708   2.012
 6245SOL     OW19633   1.537   3.934   0.448
 6245SOL    HW119634   1.623   3.985   0.451
 6245SOL    HW219635   1.550   3.842   0.484
 6246SOL     OW19636   2.211   1.937   5.799
 6246SOL    HW119637   2.175   1.984   5.719
 6246SOL    HW219638   2.139   1.925   5.867
 6247SOL     OW19639   1.231   6.279   4.638
 6247SOL    HW119640   1.233   6.361   4.695
 6247SOL    HW219641   1.164   6.290   4.565
 6248SOL     OW19642   3.834   3.158   0.554
 6248SOL    HW119643   3.766   3.091   0.525
 6248SOL    HW219644   3.790   3.232   0.604
 6249SOL     OW19645   1.025   3.996   0.796
 6249SOL    HW119646   0.959   4.031   0.729
 6249SOL    HW219647   1.056   3.905   0.770
 6250SOL     OW19648   6.965   6.554   0.191
 6250SOL    HW119649   6.934   6.501   0.271
 6250SOL    HW219650   6.951   6.499   0.109
 6251SOL     OW19651   4.138   5.405   6.932
 6251SOL    HW119652   4.057   5.355   6.898
 6251SOL    HW219653   4.116   5.447   7.020
 6252SOL     OW19654   1.568   6.536   5.300
 6252SOL    HW119655   1.509   6.585   5.235
 6252SOL    HW219656   1.655   6.583   5.309
 6253SOL     OW19657   1.997   4.235   2.801
 6253SOL    HW119658   2.081   4.183   2.788
 6253SOL    HW219659   1.992   4.266   2.896
 6254SOL     OW19660   5.453   1.710   1.154
 6254SOL    HW119661   5.383   1.639   1.152
 6254SOL    HW219662   5.409   1.800   1.162
 6255SOL     OW19663   3.302   0.515   1.167
 6255SOL    HW119664   3.391   0.469   1.163
 6255SOL    HW219665   3.287   0.552   1.258
 6256SOL     OW19666   3.618   5.250   1.627
 6256SOL    HW119667   3.549   5.178   1.626
 6256SOL    HW219668   3.650   5.265   1.721
 6257SOL     OW19669   5.253   2.301   0.212
 6257SOL    HW119670   5.346   2.306   0.249
 6257SOL    HW219671   5.221   2.393   0.191
 6258SOL     OW19672   3.833   0.021   3.769
 6258SOL    HW119673   3.802   6.973   3.828
 6258SOL    HW219674   3.836   7.016   3.675
 6259SOL     OW19675   2.226   2.544   0.494
 6259SOL    HW119676   2.261   2.492   0.416
 6259SOL    HW219677   2.169   2.485   0.551
 6260SOL     OW19678   3.434   5.426   0.361
 6260SOL    HW119679   3.490   5.466   0.290
 6260SOL    HW219680   3.404   5.334   0.333
 6261SOL     OW19681   4.056   0.953   6.620
 6261SOL    HW119682   4.049   0.874   6.680
 6261SOL    HW219683   4.093   0.924   6.531
 6262SOL     OW19684   2.296   6.441   0.780
 6262SOL    HW119685   2.328   6.356   0.737
 6262SOL    HW219686   2.249   6.418   0.866
 6263SOL     OW19687   6.700   0.599   5.210
 6263SOL    HW119688   6.675   0.602   5.113
 6263SOL    HW219689   6.793   0.634   5.222
 6264SOL     OW19690   1.424   6.658   2.297
 6264SOL    HW119691   1.357   6.585   2.310
 6264SOL    HW219692   1.389   6.724   2.230
 6265SOL     OW19693   3.428   4.038   0.042
 6265SOL    HW119694   3.407   4.131   0.010
 6265SOL    HW219695   3.360   4.010   0.110
 6266SOL     OW19696   3.838   0.788   4.574
 6266SOL    HW119697   3.776   0.738   4.634
 6266SOL    HW219698   3.805   0.881   4.562
 6267SOL     OW19699   2.256   0.349   6.471
 6267SOL    HW119700   2.268   0.251   6.451
 6267SOL    HW219701   2.230   0.360   6.567
 6268SOL     OW19702   3.125   0.158   3.482
 6268SOL    HW119703   3.111   0.236   3.544
 6268SOL    HW219704   3.044   0.148   3.423
 6269SOL     OW19705   6.976   6.523   1.756
 6269SOL    HW119706   6.954   6.535   1.659
 6269SOL    HW219707   6.901   6.477   1.802
 6270SOL     OW19708   1.949   0.228   5.470
 6270SOL    HW119709   1.910   0.162   5.405
 6270SOL    HW219710   2.026   0.186   5.518
 6271SOL     OW19711   6.559   2.260   7.010
 6271SOL    HW119712   6.574   2.356   0.008
 6271SOL    HW219713   6.647   2.214   6.998
 6272SOL     OW19714   0.418   2.290   7.021
 6272SOL    HW119715   0.484   2.313   0.065
 6272SOL    HW219716   0.325   2.310   0.027
 6273SOL     OW19717   1.421   6.612   2.605
 6273SOL    HW119718   1.396   6.635   2.512
 6273SOL    HW219719   1.341   6.576   2.654
 6274SOL     OW19720   3.049   5.754   6.037
 6274SOL    HW119721   2.988   5.680   6.008
 6274SOL    HW219722   3.108   5.722   6.111
 6275SOL     OW19723   2.195   6.740   5.648
 6275SOL    HW119724   2.185   6.779   5.557
 6275SOL    HW219725   2.131   6.664   5.659
 6276SOL     OW19726   1.931   4.093   3.087
 6276SOL    HW119727   2.010   4.045   3.051
 6276SOL    HW219728   1.946   4.192   3.082
 6277SOL     OW19729   5.562   3.371   2.404
 6277SOL    HW119730   5.500   3.321   2.344
 6277SOL    HW219731   5.578   3.462   2.366
 6278SOL     OW19732   5.274   6.248   4.750
 6278SOL    HW119733   5.368   6.281   4.763
 6278SOL    HW219734   5.212   6.301   4.808
 6279SOL     OW19735   3.743   0.182   6.732
 6279SOL    HW119736   3.838   0.160   6.753
 6279SOL    HW219737   3.683   0.111   6.769
 6280SOL     OW19738   1.059   2.178   5.366
 6280SOL    HW119739   1.034   2.095   5.415
 6280SOL    HW219740   0.982   2.242   5.367
 6281SOL     OW19741   1.233   5.129   3.784
 6281SOL    HW119742   1.198   5.070   3.710
 6281SOL    HW219743   1.203   5.223   3.768
 6282SOL     OW19744   0.918   6.152   5.106
 6282SOL    HW119745   0.960   6.063   5.123
 6282SOL    HW219746   0.932   6.211   5.185
 6283SOL     OW19747   6.584   3.299   5.439
 6283SOL    HW119748   6.537   3.375   5.484
 6283SOL    HW219749   6.682   3.304   5.459
 6284SOL     OW19750   1.316   5.551   4.709
 6284SOL    HW119751   1.272   5.597   4.632
 6284SOL    HW219752   1.367   5.618   4.763
 6285SOL     OW19753   0.111   3.697   4.618
 6285SOL    HW119754   0.207   3.674   4.635
 6285SOL    HW219755   0.054   3.651   4.687
 6286SOL     OW19756   5.801   1.716   3.888
 6286SOL    HW119757   5.765   1.727   3.981
 6286SOL    HW219758   5.886   1.664   3.891
 6287SOL     OW19759   3.542   4.908   3.957
 6287SOL    HW119760   3.598   4.876   3.881
 6287SOL    HW219761   3.446   4.913   3.929
 6288SOL     OW19762   4.740   4.333   2.871
 6288SOL    HW119763   4.693   4.307   2.786
 6288SOL    HW219764   4.767   4.250   2.920
 6289SOL     OW19765   1.601   4.534   1.008
 6289SOL    HW119766   1.608   4.434   1.005
 6289SOL    HW219767   1.670   4.571   1.070
 6290SOL     OW19768   0.066   4.768   5.598
 6290SOL    HW119769   0.099   4.827   5.524
 6290SOL    HW219770   6.995   4.782   5.610
 6291SOL     OW19771   4.017   3.319   4.705
 6291SOL    HW119772   3.952   3.343   4.634
 6291SOL    HW219773   3.983   3.240   4.757
 6292SOL     OW19774   1.349   2.174   4.305
 6292SOL    HW119775   1.422   2.238   4.282
 6292SOL    HW219776   1.297   2.208   4.383
 6293SOL     OW19777   3.516   1.256   0.164
 6293SOL    HW119778   3.612   1.227   0.158
 6293SOL    HW219779   3.484   1.249   0.258
 6294SOL     OW19780   4.435   5.432   4.166
 6294SOL    HW119781   4.511   5.457   4.106
 6294SOL    HW219782   4.434   5.492   4.246
 6295SOL     OW19783   5.524   4.673   6.245
 6295SOL    HW119784   5.478   4.616   6.313
 6295SOL    HW219785   5.476   4.761   6.239
 6296SOL     OW19786   0.358   0.022   5.978
 6296SOL    HW119787   0.424   0.021   5.903
 6296SOL    HW219788   0.303   0.105   5.974
 6297SOL     OW19789   4.269   6.905   3.856
 6297SOL    HW119790   4.364   6.873   3.863
 6297SOL    HW219791   4.208   6.826   3.850
 6298SOL     OW19792   1.121   2.796   6.516
 6298SOL    HW119793   1.134   2.777   6.613
 6298SOL    HW219794   1.051   2.866   6.504
 6299SOL     OW19795   5.549   2.096   7.019
 6299SOL    HW119796   5.450   2.106   7.013
 6299SOL    HW219797   5.591   2.130   6.935
 6300SOL     OW19798   6.327   0.568   0.883
 6300SOL    HW119799   6.391   0.643   0.902
 6300SOL    HW219800   6.248   0.575   0.945
 6301SOL     OW19801   3.374   0.304   7.016
 6301SOL    HW119802   3.470   0.288   6.991
 6301SOL    HW219803   3.316   0.280   6.939
 6302SOL     OW19804   2.445   0.824   2.849
 6302SOL    HW119805   2.489   0.913   2.859
 6302SOL    HW219806   2.365   0.819   2.908
 6303SOL     OW19807   1.579   1.480   4.243
 6303SOL    HW119808   1.518   1.555   4.270
 6303SOL    HW219809   1.629   1.506   4.160
 6304SOL     OW19810   2.216   0.681   1.598
 6304SOL    HW119811   2.175   0.607   1.651
 6304SOL    HW219812   2.148   0.754   1.585
 6305SOL     OW19813   6.234   6.795   1.362
 6305SOL    HW119814   6.300   6.828   1.429
 6305SOL    HW219815   6.239   6.853   1.280
 6306SOL     OW19816   0.602   4.714   3.975
 6306SOL    HW119817   0.548   4.683   4.053
 6306SOL    HW219818   0.688   4.662   3.972
 6307SOL     OW19819   4.242   4.325   5.602
 6307SOL    HW119820   4.313   4.359   5.663
 6307SOL    HW219821   4.180   4.265   5.653
 6308SOL     OW19822   2.079   2.531   4.512
 6308SOL    HW119823   2.092   2.616   4.461
 6308SOL    HW219824   2.061   2.456   4.449
 6309SOL     OW19825   5.298   4.815   5.780
 6309SOL    HW119826   5.302   4.881   5.705
 6309SOL    HW219827   5.225   4.749   5.763
 6310SOL     OW19828   1.778   5.949   2.732
 6310SOL    HW119829   1.749   5.889   2.807
 6310SOL    HW219830   1.856   5.908   2.685
 6311SOL     OW19831   4.351   1.005   6.035
 6311SOL    HW119832   4.344   1.043   5.942
 6311SOL    HW219833   4.307   1.067   6.100
 6312SOL     OW19834   6.495   5.579   5.996
 6312SOL    HW119835   6.545   5.643   6.054
 6312SOL    HW219836   6.412   5.548   6.044
 6313SOL     OW19837   1.511   6.457   4.366
 6313SOL    HW119838   1.481   6.457   4.461
 6313SOL    HW219839   1.599   6.409   4.360
 6314SOL     OW19840   3.596   6.632   1.568
 6314SOL    HW119841   3.615   6.691   1.646
 6314SOL    HW219842   3.497   6.625   1.555
 6315SOL     OW19843   1.628   2.635   5.616
 6315SOL    HW119844   1.698   2.599   5.555
 6315SOL    HW219845   1.538   2.603   5.587
 6316SOL     OW19846   4.666   1.306   6.898
 6316SOL    HW119847   4.607   1.277   6.823
 6316SOL    HW219848   4.753   1.256   6.893
 6317SOL     OW19849   4.555   5.840   2.150
 6317SOL    HW119850   4.490   5.867   2.078
 6317SOL    HW219851   4.511   5.849   2.239
 6318SOL     OW19852   3.873   1.073   5.151
 6318SOL    HW119853   3.851   1.058   5.248
 6318SOL    HW219854   3.866   0.986   5.102
 6319SOL     OW19855   6.587   1.044   4.534
 6319SOL    HW119856   6.614   0.990   4.455
 6319SOL    HW219857   6.501   1.091   4.515
 6320SOL     OW19858   5.537   5.747   5.452
 6320SOL    HW119859   5.454   5.776   5.404
 6320SOL    HW219860   5.590   5.685   5.393
 6321SOL     OW19861   3.398   3.362   0.911
 6321SOL    HW119862   3.298   3.362   0.922
 6321SOL    HW219863   3.420   3.368   0.813
 6322SOL     OW19864   1.524   2.309   0.057
 6322SOL    HW119865   1.494   2.290   0.151
 6322SOL    HW219866   1.545   2.223   0.011
 6323SOL     OW19867   3.299   2.893   2.149
 6323SOL    HW119868   3.220   2.876   2.090
 6323SOL    HW219869   3.276   2.866   2.243
 6324SOL     OW19870   5.251   6.849   6.827
 6324SOL    HW119871   5.348   6.827   6.827
 6324SOL    HW219872   5.238   6.944   6.855
 6325SOL     OW19873   2.177   1.475   2.427
 6325SOL    HW119874   2.198   1.532   2.506
 6325SOL    HW219875   2.126   1.529   2.360
 6326SOL     OW19876   4.766   5.327   1.779
 6326SOL    HW119877   4.766   5.284   1.689
 6326SOL    HW219878   4.790   5.260   1.849
 6327SOL     OW19879   0.149   0.267   4.673
 6327SOL    HW119880   0.112   0.293   4.762
 6327SOL    HW219881   0.140   0.343   4.609
 6328SOL     OW19882   3.204   3.116   0.779
 6328SOL    HW119883   3.237   3.129   0.873
 6328SOL    HW219884   3.111   3.082   0.781
 6329SOL     OW19885   2.080   2.212   4.020
 6329SOL    HW119886   2.050   2.118   4.001
 6329SOL    HW219887   2.027   2.248   4.097
 6330SOL     OW19888   4.975   0.788   0.932
 6330SOL    HW119889   4.905   0.797   1.003
 6330SOL    HW219890   4.974   0.696   0.895
 6331SOL     OW19891   6.432   3.015   5.890
 6331SOL    HW119892   6.445   2.945   5.960
 6331SOL    HW219893   6.495   3.091   5.906
 6332SOL     OW19894   6.834   3.606   1.578
 6332SOL    HW119895   6.858   3.595   1.674
 6332SOL    HW219896   6.841   3.702   1.552
 6333SOL     OW19897   4.865   5.916   5.380
 6333SOL    HW119898   4.880   5.855   5.458
 6333SOL    HW219899   4.778   5.894   5.336
 6334SOL     OW19900   3.374   0.449   1.782
 6334SOL    HW119901   3.418   0.381   1.724
 6334SOL    HW219902   3.281   0.421   1.803
 6335SOL     OW19903   3.800   1.388   0.436
 6335SOL    HW119904   3.807   1.339   0.522
 6335SOL    HW219905   3.801   1.323   0.360
 6336SOL     OW19906   0.576   2.248   5.766
 6336SOL    HW119907   0.491   2.195   5.766
 6336SOL    HW219908   0.561   2.335   5.719
 6337SOL     OW19909   5.176   4.789   6.113
 6337SOL    HW119910   5.219   4.861   6.059
 6337SOL    HW219911   5.189   4.701   6.068
 6338SOL     OW19912   3.499   1.771   4.503
 6338SOL    HW119913   3.564   1.738   4.435
 6338SOL    HW219914   3.444   1.845   4.464
 6339SOL     OW19915   1.442   3.953   3.217
 6339SOL    HW119916   1.534   3.919   3.237
 6339SOL    HW219917   1.417   4.023   3.284
 6340SOL     OW19918   1.533   5.131   2.823
 6340SOL    HW119919   1.464   5.066   2.792
 6340SOL    HW219920   1.610   5.081   2.863
 6341SOL     OW19921   0.794   4.346   4.632
 6341SOL    HW119922   0.830   4.420   4.688
 6341SOL    HW219923   0.781   4.265   4.688
 6342SOL     OW19924   1.646   1.397   1.801
 6342SOL    HW119925   1.574   1.406   1.732
 6342SOL    HW219926   1.731   1.437   1.765
 6343SOL     OW19927   4.733   2.106   6.920
 6343SOL    HW119928   4.790   2.066   6.849
 6343SOL    HW219929   4.769   2.081   7.010
 6344SOL     OW19930   5.633   3.091   4.603
 6344SOL    HW119931   5.673   3.127   4.519
 6344SOL    HW219932   5.686   3.012   4.634
 6345SOL     OW19933   5.943   2.964   2.348
 6345SOL    HW119934   5.916   2.910   2.428
 6345SOL    HW219935   6.017   2.917   2.300
 6346SOL     OW19936   6.711   5.282   4.026
 6346SOL    HW119937   6.690   5.286   3.928
 6346SOL    HW219938   6.627   5.262   4.076
 6347SOL     OW19939   2.403   0.002   0.206
 6347SOL    HW119940   2.338   7.016   0.131
 6347SOL    HW219941   2.462   0.080   0.185
 6348SOL     OW19942   0.613   3.945   5.465
 6348SOL    HW119943   0.708   3.972   5.445
 6348SOL    HW219944   0.578   4.002   5.539
 6349SOL     OW19945   2.011   0.609   1.812
 6349SOL    HW119946   2.034   0.571   1.902
 6349SOL    HW219947   1.942   0.680   1.823
 6350SOL     OW19948   1.580   5.371   3.900
 6350SOL    HW119949   1.517   5.298   3.926
 6350SOL    HW219950   1.592   5.433   3.977
 6351SOL     OW19951   6.363   3.728   3.639
 6351SOL    HW119952   6.332   3.728   3.543
 6351SOL    HW219953   6.329   3.645   3.684
 6352SOL     OW19954   3.856   5.890   4.995
 6352SOL    HW119955   3.855   5.934   4.905
 6352SOL    HW219956   3.949   5.856   5.014
 6353SOL     OW19957   0.573   0.006   5.781
 6353SOL    HW119958   0.564   0.080   5.714
 6353SOL    HW219959   0.668   7.004   5.787
 6354SOL     OW19960   2.311   5.637   2.932
 6354SOL    HW119961   2.339   5.579   2.855
 6354SOL    HW219962   2.252   5.710   2.898
 6355SOL     OW19963   0.754   5.187   6.354
 6355SOL    HW119964   0.846   5.188   6.315
 6355SOL    HW219965   0.760   5.193   6.454
 6356SOL     OW19966   4.174   5.505   2.042
 6356SOL    HW119967   4.188   5.501   2.141
 6356SOL    HW219968   4.254   5.546   1.999
 6357SOL     OW19969   5.857   3.507   2.704
 6357SOL    HW119970   5.858   3.605   2.680
 6357SOL    HW219971   5.772   3.466   2.671
 6358SOL     OW19972   0.723   2.334   6.321
 6358SOL    HW119973   0.669   2.401   6.272
 6358SOL    HW219974   0.665   2.256   6.346
 6359SOL     OW19975   5.614   6.495   6.727
 6359SOL    HW119976   5.634   6.400   6.751
 6359SOL    HW219977   5.698   6.549   6.732
 6360SOL     OW19978   0.985   3.991   3.729
 6360SOL    HW119979   1.025   4.027   3.644
 6360SOL    HW219980   1.035   4.029   3.807
 6361SOL     OW19981   6.832   0.115   1.306
 6361SOL    HW119982   6.824   0.212   1.327
 6361SOL    HW219983   6.916   0.097   1.256
 6362SOL     OW19984   0.215   6.459   0.357
 6362SOL    HW119985   0.186   6.545   0.315
 6362SOL    HW219986   0.309   6.438   0.329
 6363SOL     OW19987   2.223   4.738   3.471
 6363SOL    HW119988   2.268   4.701   3.552
 6363SOL    HW219989   2.140   4.786   3.497
 6364SOL     OW19990   3.176   1.231   6.133
 6364SOL    HW119991   3.241   1.156   6.150
 6364SOL    HW219992   3.086   1.206   6.169
 6365SOL     OW19993   5.671   6.953   3.845
 6365SOL    HW119994   5.767   6.944   3.820
 6365SOL    HW219995   5.657   0.012   3.895
 6366SOL     OW19996   0.944   6.397   5.588
 6366SOL    HW119997   0.970   6.480   5.638
 6366SOL    HW219998   0.956   6.317   5.648
 6367SOL     OW19999   4.327   1.115   5.296
 6367SOL    HW120000   4.263   1.169   5.351
 6367SOL    HW220001   4.292   1.104   5.204
 6368SOL     OW20002   3.622   4.923   3.507
 6368SOL    HW120003   3.625   4.912   3.407
 6368SOL    HW220004   3.527   4.931   3.536
 6369SOL     OW20005   2.135   5.380   3.584
 6369SOL    HW120006   2.068   5.401   3.654
 6369SOL    HW220007   2.110   5.294   3.539
 6370SOL     OW20008   0.491   3.763   3.356
 6370SOL    HW120009   0.463   3.726   3.445
 6370SOL    HW220010   0.521   3.858   3.367
 6371SOL     OW20011   5.417   4.162   4.276
 6371SOL    HW120012   5.443   4.118   4.190
 6371SOL    HW220013   5.500   4.189   4.326
 6372SOL     OW20014   1.687   0.364   2.527
 6372SOL    HW120015   1.758   0.432   2.506
 6372SOL    HW220016   1.696   0.287   2.464
 6373SOL     OW20017   4.993   3.929   2.838
 6373SOL    HW120018   4.977   3.965   2.746
 6373SOL    HW220019   5.011   4.004   2.901
 6374SOL     OW20020   2.999   3.888   3.673
 6374SOL    HW120021   2.918   3.942   3.648
 6374SOL    HW220022   3.025   3.910   3.767
 6375SOL     OW20023   6.968   2.059   3.962
 6375SOL    HW120024   6.927   1.995   4.027
 6375SOL    HW220025   6.950   2.027   3.869
 6376SOL     OW20026   6.135   2.849   4.963
 6376SOL    HW120027   6.052   2.799   4.986
 6376SOL    HW220028   6.192   2.860   5.045
 6377SOL     OW20029   6.587   1.963   5.658
 6377SOL    HW120030   6.649   1.995   5.587
 6377SOL    HW220031   6.500   2.012   5.652
 6378SOL     OW20032   4.516   5.201   4.273
 6378SOL    HW120033   4.484   5.268   4.206
 6378SOL    HW220034   4.615   5.208   4.283
 6379SOL     OW20035   1.745   3.598   4.093
 6379SOL    HW120036   1.654   3.578   4.058
 6379SOL    HW220037   1.751   3.572   4.190
 6380SOL     OW20038   0.196   1.781   5.674
 6380SOL    HW120039   0.213   1.694   5.721
 6380SOL    HW220040   0.265   1.795   5.603
 6381SOL     OW20041   3.548   3.295   2.054
 6381SOL    HW120042   3.515   3.206   2.021
 6381SOL    HW220043   3.474   3.343   2.100
 6382SOL     OW20044   1.471   1.515   1.085
 6382SOL    HW120045   1.456   1.492   0.989
 6382SOL    HW220046   1.383   1.528   1.130
 6383SOL     OW20047   1.603   1.682   2.789
 6383SOL    HW120048   1.621   1.594   2.832
 6383SOL    HW220049   1.660   1.692   2.707
 6384SOL     OW20050   5.896   3.980   1.580
 6384SOL    HW120051   5.934   3.943   1.665
 6384SOL    HW220052   5.945   3.942   1.502
 6385SOL     OW20053   7.005   4.823   4.191
 6385SOL    HW120054   6.966   4.776   4.112
 6385SOL    HW220055   6.932   4.842   4.257
 6386SOL     OW20056   1.984   4.032   6.367
 6386SOL    HW120057   2.016   4.001   6.456
 6386SOL    HW220058   1.943   3.956   6.317
 6387SOL     OW20059   0.452   1.459   6.357
 6387SOL    HW120060   0.535   1.472   6.302
 6387SOL    HW220061   0.373   1.492   6.305
 6388SOL     OW20062   3.719   4.997   1.304
 6388SOL    HW120063   3.682   4.949   1.225
 6388SOL    HW220064   3.811   5.029   1.282
 6389SOL     OW20065   0.261   5.631   2.386
 6389SOL    HW120066   0.195   5.705   2.378
 6389SOL    HW220067   0.236   5.556   2.324
 6390SOL     OW20068   0.523   1.530   5.570
 6390SOL    HW120069   0.545   1.528   5.668
 6390SOL    HW220070   0.599   1.573   5.520
 6391SOL     OW20071   2.209   0.418   6.054
 6391SOL    HW120072   2.209   0.454   5.961
 6391SOL    HW220073   2.281   0.349   6.063
 6392SOL     OW20074   2.928   6.063   2.867
 6392SOL    HW120075   3.002   6.125   2.896
 6392SOL    HW220076   2.886   6.022   2.948
 6393SOL     OW20077   6.932   0.000   2.179
 6393SOL    HW120078   6.977   0.088   2.197
 6393SOL    HW220079   6.869   0.010   2.103
 6394SOL     OW20080   2.143   5.008   1.051
 6394SOL    HW120081   2.058   5.045   1.088
 6394SOL    HW220082   2.123   4.933   0.988
 6395SOL     OW20083   6.543   2.435   0.895
 6395SOL    HW120084   6.619   2.406   0.837
 6395SOL    HW220085   6.572   2.439   0.990
 6396SOL     OW20086   4.863   3.196   5.967
 6396SOL    HW120087   4.896   3.212   6.060
 6396SOL    HW220088   4.765   3.176   5.970
 6397SOL     OW20089   5.442   2.667   6.828
 6397SOL    HW120090   5.443   2.610   6.910
 6397SOL    HW220091   5.375   2.739   6.839
 6398SOL     OW20092   2.822   6.925   0.697
 6398SOL    HW120093   2.773   7.012   0.696
 6398SOL    HW220094   2.893   6.929   0.767
 6399SOL     OW20095   1.465   6.367   6.461
 6399SOL    HW120096   1.512   6.420   6.390
 6399SOL    HW220097   1.505   6.276   6.467
 6400SOL     OW20098   2.310   6.213   1.690
 6400SOL    HW120099   2.264   6.176   1.610
 6400SOL    HW220100   2.247   6.273   1.740
 6401SOL     OW20101   6.328   5.132   4.051
 6401SOL    HW120102   6.380   5.199   4.103
 6401SOL    HW220103   6.234   5.162   4.042
 6402SOL     OW20104   3.987   1.923   2.843
 6402SOL    HW120105   3.916   1.859   2.871
 6402SOL    HW220106   3.950   1.984   2.772
 6403SOL     OW20107   6.978   6.083   6.348
 6403SOL    HW120108   0.020   6.115   6.414
 6403SOL    HW220109   6.921   6.161   6.320
 6404SOL     OW20110   4.428   1.886   1.971
 6404SOL    HW120111   4.431   1.880   1.872
 6404SOL    HW220112   4.520   1.902   2.007
 6405SOL     OW20113   3.147   0.474   3.999
 6405SOL    HW120114   3.086   0.409   4.044
 6405SOL    HW220115   3.223   0.425   3.958
 6406SOL     OW20116   1.321   2.436   2.937
 6406SOL    HW120117   1.404   2.483   2.905
 6406SOL    HW220118   1.246   2.501   2.943
 6407SOL     OW20119   2.862   6.009   4.087
 6407SOL    HW120120   2.883   5.933   4.025
 6407SOL    HW220121   2.932   6.014   4.158
 6408SOL     OW20122   5.711   2.084   0.293
 6408SOL    HW120123   5.705   2.059   0.390
 6408SOL    HW220124   5.663   2.015   0.238
 6409SOL     OW20125   0.003   4.890   3.585
 6409SOL    HW120126   6.978   4.889   3.670
 6409SOL    HW220127   0.085   4.833   3.595
 6410SOL     OW20128   1.582   1.436   0.538
 6410SOL    HW120129   1.528   1.426   0.621
 6410SOL    HW220130   1.578   1.351   0.486
 6411SOL     OW20131   0.809   2.704   3.145
 6411SOL    HW120132   0.818   2.604   3.139
 6411SOL    HW220133   0.880   2.741   3.205
 6412SOL     OW20134   0.518   2.362   5.160
 6412SOL    HW120135   0.599   2.375   5.102
 6412SOL    HW220136   0.437   2.395   5.111
 6413SOL     OW20137   4.312   4.858   3.724
 6413SOL    HW120138   4.302   4.781   3.662
 6413SOL    HW220139   4.408   4.887   3.727
 6414SOL     OW20140   5.976   1.103   0.477
 6414SOL    HW120141   5.896   1.161   0.461
 6414SOL    HW220142   5.988   1.090   0.576
 6415SOL     OW20143   1.670   2.920   3.135
 6415SOL    HW120144   1.629   2.978   3.065
 6415SOL    HW220145   1.658   2.824   3.111
 6416SOL     OW20146   1.145   1.553   6.441
 6416SOL    HW120147   1.166   1.481   6.374
 6416SOL    HW220148   1.159   1.642   6.400
 6417SOL     OW20149   6.459   4.962   1.607
 6417SOL    HW120150   6.411   4.875   1.620
 6417SOL    HW220151   6.512   4.982   1.689
 6418SOL     OW20152   4.728   4.529   1.920
 6418SOL    HW120153   4.666   4.517   1.842
 6418SOL    HW220154   4.693   4.479   1.999
 6419SOL     OW20155   2.139   5.116   3.095
 6419SOL    HW120156   2.203   5.062   3.041
 6419SOL    HW220157   2.079   5.054   3.147
 6420SOL     OW20158   3.576   4.934   4.977
 6420SOL    HW120159   3.477   4.936   4.963
 6420SOL    HW220160   3.622   4.917   4.890
 6421SOL     OW20161   5.214   0.540   2.922
 6421SOL    HW120162   5.262   0.542   3.010
 6421SOL    HW220163   5.120   0.573   2.935
 6422SOL     OW20164   0.525   0.585   4.032
 6422SOL    HW120165   0.612   0.598   3.985
 6422SOL    HW220166   0.505   0.665   4.088
 6423SOL     OW20167   4.730   5.589   2.631
 6423SOL    HW120168   4.694   5.528   2.702
 6423SOL    HW220169   4.727   5.683   2.664
 6424SOL     OW20170   0.114   5.912   6.102
 6424SOL    HW120171   0.071   5.947   6.019
 6424SOL    HW220172   0.176   5.981   6.140
 6425SOL     OW20173   6.632   5.888   2.435
 6425SOL    HW120174   6.657   5.958   2.502
 6425SOL    HW220175   6.551   5.918   2.384
 6426SOL     OW20176   1.005   5.054   2.762
 6426SOL    HW120177   0.999   4.961   2.797
 6426SOL    HW220178   1.096   5.091   2.781
 6427SOL     OW20179   3.519   3.216   4.920
 6427SOL    HW120180   3.600   3.260   4.959
 6427SOL    HW220181   3.482   3.150   4.986
 6428SOL     OW20182   5.898   2.997   6.552
 6428SOL    HW120183   5.913   2.926   6.621
 6428SOL    HW220184   5.904   2.957   6.461
 6429SOL     OW20185   1.890   2.034   5.964
 6429SOL    HW120186   1.953   2.101   6.004
 6429SOL    HW220187   1.919   1.942   5.989
 6430SOL     OW20188   6.018   1.130   1.888
 6430SOL    HW120189   5.948   1.185   1.842
 6430SOL    HW220190   5.981   1.040   1.909
 6431SOL     OW20191   5.266   6.761   3.860
 6431SOL    HW120192   5.270   6.837   3.925
 6431SOL    HW220193   5.225   6.681   3.903
 6432SOL     OW20194   3.857   4.427   6.520
 6432SOL    HW120195   3.786   4.450   6.452
 6432SOL    HW220196   3.945   4.416   6.473
 6433SOL     OW20197   2.410   4.254   7.021
 6433SOL    HW120198   2.400   4.296   0.085
 6433SOL    HW220199   2.327   4.203   6.999
 6434SOL     OW20200   2.181   4.153   0.225
 6434SOL    HW120201   2.135   4.236   0.257
 6434SOL    HW220202   2.119   4.101   0.167
 6435SOL     OW20203   4.396   6.684   0.150
 6435SOL    HW120204   4.443   6.601   0.181
 6435SOL    HW220205   4.318   6.703   0.209
 6436SOL     OW20206   2.135   3.548   3.472
 6436SOL    HW120207   2.078   3.473   3.439
 6436SOL    HW220208   2.177   3.521   3.559
 6437SOL     OW20209   2.163   1.558   0.758
 6437SOL    HW120210   2.248   1.521   0.794
 6437SOL    HW220211   2.145   1.519   0.667
 6438SOL     OW20212   0.038   4.193   6.713
 6438SOL    HW120213   0.062   4.223   6.620
 6438SOL    HW220214   0.074   4.258   6.780
 6439SOL     OW20215   5.106   0.844   1.782
 6439SOL    HW120216   5.107   0.898   1.697
 6439SOL    HW220217   5.064   0.755   1.764
 6440SOL     OW20218   2.065   1.386   6.497
 6440SOL    HW120219   1.967   1.391   6.477
 6440SOL    HW220220   2.089   1.292   6.523
 6441SOL     OW20221   0.431   6.353   1.908
 6441SOL    HW120222   0.493   6.338   1.985
 6441SOL    HW220223   0.445   6.281   1.839
 6442SOL     OW20224   2.226   0.809   4.644
 6442SOL    HW120225   2.266   0.810   4.552
 6442SOL    HW220226   2.298   0.795   4.712
 6443SOL     OW20227   3.818   2.442   5.391
 6443SOL    HW120228   3.873   2.525   5.386
 6443SOL    HW220229   3.877   2.365   5.416
 6444SOL     OW20230   6.640   2.916   4.134
 6444SOL    HW120231   6.655   2.833   4.081
 6444SOL    HW220232   6.661   2.996   4.078
 6445SOL     OW20233   4.325   3.533   5.559
 6445SOL    HW120234   4.323   3.439   5.593
 6445SOL    HW220235   4.235   3.556   5.522
 6446SOL     OW20236   1.664   1.463   5.956
 6446SOL    HW120237   1.747   1.414   5.980
 6446SOL    HW220238   1.589   1.432   6.015
 6447SOL     OW20239   5.773   4.651   2.967
 6447SOL    HW120240   5.840   4.701   3.022
 6447SOL    HW220241   5.808   4.638   2.875
 6448SOL     OW20242   4.397   5.806   2.351
 6448SOL    HW120243   4.298   5.819   2.356
 6448SOL    HW220244   4.421   5.718   2.391
 6449SOL     OW20245   2.657   4.753   0.611
 6449SOL    HW120246   2.671   4.810   0.692
 6449SOL    HW220247   2.560   4.751   0.587
 6450SOL     OW20248   1.089   3.759   0.669
 6450SOL    HW120249   1.136   3.693   0.611
 6450SOL    HW220250   0.995   3.772   0.636
 6451SOL     OW20251   2.333   0.457   4.696
 6451SOL    HW120252   2.375   0.433   4.608
 6451SOL    HW220253   2.374   0.541   4.731
 6452SOL     OW20254   3.961   6.646   4.422
 6452SOL    HW120255   4.025   6.718   4.396
 6452SOL    HW220256   3.918   6.670   4.509
 6453SOL     OW20257   2.320   6.072   1.200
 6453SOL    HW120258   2.355   6.164   1.220
 6453SOL    HW220259   2.241   6.080   1.138
 6454SOL     OW20260   2.359   2.250   3.301
 6454SOL    HW120261   2.391   2.320   3.365
 6454SOL    HW220262   2.272   2.278   3.262
 6455SOL     OW20263   0.086   2.655   3.673
 6455SOL    HW120264   0.127   2.591   3.609
 6455SOL    HW220265   0.061   2.608   3.757
 6456SOL     OW20266   1.941   0.838   3.452
 6456SOL    HW120267   2.013   0.879   3.509
 6456SOL    HW220268   1.937   0.739   3.470
 6457SOL     OW20269   5.153   1.466   0.793
 6457SOL    HW120270   5.195   1.491   0.880
 6457SOL    HW220271   5.212   1.402   0.744
 6458SOL     OW20272   0.795   6.764   3.711
 6458SOL    HW120273   0.726   6.824   3.670
 6458SOL    HW220274   0.871   6.819   3.746
 6459SOL     OW20275   6.170   4.181   0.236
 6459SOL    HW120276   6.191   4.087   0.211
 6459SOL    HW220277   6.080   4.185   0.280
 6460SOL     OW20278   4.979   5.974   5.875
 6460SOL    HW120279   4.962   5.912   5.950
 6460SOL    HW220280   4.991   6.067   5.910
 6461SOL     OW20281   2.493   4.861   5.652
 6461SOL    HW120282   2.592   4.857   5.635
 6461SOL    HW220283   2.461   4.772   5.682
 6462SOL     OW20284   2.362   2.749   4.756
 6462SOL    HW120285   2.434   2.745   4.825
 6462SOL    HW220286   2.276   2.778   4.798
 6463SOL     OW20287   6.803   3.567   6.987
 6463SOL    HW120288   6.783   3.566   6.889
 6463SOL    HW220289   6.742   3.503   0.007
 6464SOL     OW20290   1.590   5.177   4.343
 6464SOL    HW120291   1.513   5.139   4.292
 6464SOL    HW220292   1.563   5.262   4.387
 6465SOL     OW20293   6.441   2.790   2.877
 6465SOL    HW120294   6.515   2.725   2.862
 6465SOL    HW220295   6.404   2.819   2.789
 6466SOL     OW20296   1.423   1.341   6.055
 6466SOL    HW120297   1.345   1.356   5.994
 6466SOL    HW220298   1.438   1.243   6.067
 6467SOL     OW20299   2.994   1.093   6.860
 6467SOL    HW120300   3.081   1.061   6.897
 6467SOL    HW220301   2.960   1.029   6.792
 6468SOL     OW20302   3.771   6.130   0.685
 6468SOL    HW120303   3.690   6.185   0.662
 6468SOL    HW220304   3.753   6.078   0.769
 6469SOL     OW20305   5.068   0.657   5.001
 6469SOL    HW120306   5.018   0.628   5.082
 6469SOL    HW220307   5.156   0.698   5.028
 6470SOL     OW20308   6.169   4.404   0.432
 6470SOL    HW120309   6.073   4.380   0.447
 6470SOL    HW220310   6.212   4.338   0.371
 6471SOL     OW20311   6.410   6.124   5.644
 6471SOL    HW120312   6.510   6.117   5.646
 6471SOL    HW220313   6.377   6.096   5.554
 6472SOL     OW20314   0.791   5.560   0.700
 6472SOL    HW120315   0.861   5.622   0.738
 6472SOL    HW220316   0.800   5.470   0.742
 6473SOL     OW20317   3.310   1.474   4.361
 6473SOL    HW120318   3.384   1.510   4.305
 6473SOL    HW220319   3.340   1.391   4.408
 6474SOL     OW20320   2.448   4.189   5.548
 6474SOL    HW120321   2.384   4.130   5.498
 6474SOL    HW220322   2.423   4.285   5.531
 6475SOL     OW20323   6.132   5.308   4.297
 6475SOL    HW120324   6.057   5.325   4.361
 6475SOL    HW220325   6.096   5.273   4.211
 6476SOL     OW20326   4.706   3.278   1.409
 6476SOL    HW120327   4.681   3.185   1.436
 6476SOL    HW220328   4.661   3.343   1.469
 6477SOL     OW20329   6.171   5.061   0.985
 6477SOL    HW120330   6.166   5.007   0.901
 6477SOL    HW220331   6.266   5.087   1.002
 6478SOL     OW20332   3.339   6.647   1.875
 6478SOL    HW120333   3.404   6.680   1.944
 6478SOL    HW220334   3.263   6.601   1.921
 6479SOL     OW20335   4.393   5.716   3.995
 6479SOL    HW120336   4.338   5.747   4.073
 6479SOL    HW220337   4.358   5.759   3.911
 6480SOL     OW20338   3.298   2.566   5.871
 6480SOL    HW120339   3.252   2.649   5.901
 6480SOL    HW220340   3.385   2.557   5.920
 6481SOL     OW20341   3.846   2.157   1.721
 6481SOL    HW120342   3.793   2.238   1.746
 6481SOL    HW220343   3.791   2.075   1.739
 6482SOL     OW20344   6.960   1.042   5.607
 6482SOL    HW120345   6.904   1.076   5.682
 6482SOL    HW220346   6.902   0.991   5.543
 6483SOL     OW20347   0.953   5.930   1.191
 6483SOL    HW120348   1.053   5.929   1.190
 6483SOL    HW220349   0.921   6.015   1.234
 6484SOL     OW20350   3.549   0.263   1.651
 6484SOL    HW120351   3.587   0.321   1.579
 6484SOL    HW220352   3.543   0.169   1.617
 6485SOL     OW20353   1.772   5.120   3.491
 6485SOL    HW120354   1.819   5.150   3.408
 6485SOL    HW220355   1.719   5.196   3.529
 6486SOL     OW20356   2.322   4.803   4.266
 6486SOL    HW120357   2.244   4.798   4.204
 6486SOL    HW220358   2.317   4.727   4.331
 6487SOL     OW20359   0.135   6.389   5.089
 6487SOL    HW120360   0.231   6.361   5.092
 6487SOL    HW220361   0.131   6.489   5.088
 6488SOL     OW20362   3.709   6.408   4.829
 6488SOL    HW120363   3.763   6.357   4.896
 6488SOL    HW220364   3.753   6.402   4.739
 6489SOL     OW20365   3.039   2.633   6.837
 6489SOL    HW120366   3.067   2.571   6.912
 6489SOL    HW220367   2.964   2.591   6.786
 6490SOL     OW20368   4.271   1.413   6.331
 6490SOL    HW120369   4.339   1.467   6.281
 6490SOL    HW220370   4.184   1.462   6.332
 6491SOL     OW20371   3.810   1.651   0.376
 6491SOL    HW120372   3.739   1.667   0.307
 6491SOL    HW220373   3.816   1.553   0.395
 6492SOL     OW20374   5.369   5.135   0.285
 6492SOL    HW120375   5.305   5.058   0.286
 6492SOL    HW220376   5.423   5.135   0.369
 6493SOL     OW20377   1.206   5.269   4.565
 6493SOL    HW120378   1.214   5.173   4.540
 6493SOL    HW220379   1.114   5.302   4.544
 6494SOL     OW20380   0.080   1.229   3.392
 6494SOL    HW120381   0.066   1.324   3.364
 6494SOL    HW220382   0.098   1.173   3.311
 6495SOL     OW20383   5.324   6.574   4.391
 6495SOL    HW120384   5.416   6.613   4.386
 6495SOL    HW220385   5.322   6.500   4.458
 6496SOL     OW20386   0.225   0.689   2.651
 6496SOL    HW120387   0.287   0.675   2.728
 6496SOL    HW220388   0.222   0.787   2.630
 6497SOL     OW20389   2.404   3.010   1.244
 6497SOL    HW120390   2.434   2.918   1.266
 6497SOL    HW220391   2.309   3.007   1.211
 6498SOL     OW20392   2.237   4.061   4.575
 6498SOL    HW120393   2.185   4.040   4.658
 6498SOL    HW220394   2.330   4.024   4.584
 6499SOL     OW20395   5.100   2.536   4.989
 6499SOL    HW120396   5.137   2.595   4.917
 6499SOL    HW220397   5.142   2.560   5.076
 6500SOL     OW20398   6.933   4.180   3.917
 6500SOL    HW120399   6.851   4.235   3.932
 6500SOL    HW220400   6.967   4.196   3.825
 6501SOL     OW20401   6.313   2.296   6.890
 6501SOL    HW120402   6.399   2.268   6.933
 6501SOL    HW220403   6.331   2.371   6.826
 6502SOL     OW20404   6.470   3.331   1.916
 6502SOL    HW120405   6.401   3.362   1.982
 6502SOL    HW220406   6.513   3.410   1.873
 6503SOL     OW20407   4.678   1.284   3.250
 6503SOL    HW120408   4.773   1.292   3.220
 6503SOL    HW220409   4.618   1.324   3.180
 6504SOL     OW20410   4.535   6.210   5.761
 6504SOL    HW120411   4.490   6.169   5.840
 6504SOL    HW220412   4.607   6.272   5.791
 6505SOL     OW20413   5.233   5.921   1.836
 6505SOL    HW120414   5.290   5.860   1.891
 6505SOL    HW220415   5.156   5.868   1.798
 6506SOL     OW20416   6.321   3.051   1.943
 6506SOL    HW120417   6.348   3.091   1.855
 6506SOL    HW220418   6.335   2.952   1.939
 6507SOL     OW20419   2.469   5.375   5.583
 6507SOL    HW120420   2.481   5.340   5.490
 6507SOL    HW220421   2.488   5.303   5.649
 6508SOL     OW20422   2.220   0.592   2.773
 6508SOL    HW120423   2.235   0.597   2.674
 6508SOL    HW220424   2.122   0.590   2.792
 6509SOL     OW20425   3.211   1.609   4.769
 6509SOL    HW120426   3.296   1.653   4.797
 6509SOL    HW220427   3.149   1.602   4.847
 6510SOL     OW20428   0.455   4.618   0.196
 6510SOL    HW120429   0.517   4.574   0.130
 6510SOL    HW220430   0.402   4.688   0.150
 6511SOL     OW20431   4.465   1.307   4.351
 6511SOL    HW120432   4.386   1.272   4.402
 6511SOL    HW220433   4.549   1.269   4.390
 6512SOL     OW20434   4.742   6.719   1.984
 6512SOL    HW120435   4.827   6.744   2.030
 6512SOL    HW220436   4.760   6.703   1.887
 6513SOL     OW20437   3.354   4.899   2.807
 6513SOL    HW120438   3.367   4.879   2.904
 6513SOL    HW220439   3.256   4.913   2.789
 6514SOL     OW20440   5.471   0.975   3.859
 6514SOL    HW120441   5.435   0.989   3.951
 6514SOL    HW220442   5.500   0.880   3.849
 6515SOL     OW20443   0.569   5.468   4.197
 6515SOL    HW120444   0.598   5.467   4.101
 6515SOL    HW220445   0.556   5.374   4.229
 6516SOL     OW20446   0.405   2.968   1.750
 6516SOL    HW120447   0.460   2.914   1.813
 6516SOL    HW220448   0.455   2.983   1.665
 6517SOL     OW20449   6.375   0.443   0.646
 6517SOL    HW120450   6.347   0.478   0.736
 6517SOL    HW220451   6.296   0.444   0.585
 6518SOL     OW20452   6.802   6.554   6.495
 6518SOL    HW120453   6.854   6.628   6.536
 6518SOL    HW220454   6.718   6.590   6.455
 6519SOL     OW20455   2.651   1.542   3.443
 6519SOL    HW120456   2.590   1.463   3.449
 6519SOL    HW220457   2.704   1.549   3.528
 6520SOL     OW20458   5.397   5.185   2.279
 6520SOL    HW120459   5.332   5.173   2.355
 6520SOL    HW220460   5.486   5.213   2.316
 6521SOL     OW20461   2.063   3.326   5.035
 6521SOL    HW120462   2.074   3.227   5.043
 6521SOL    HW220463   2.099   3.356   4.947
 6522SOL     OW20464   4.314   4.388   0.380
 6522SOL    HW120465   4.341   4.415   0.288
 6522SOL    HW220466   4.277   4.468   0.428
 6523SOL     OW20467   3.764   0.976   6.945
 6523SOL    HW120468   3.824   1.056   6.950
 6523SOL    HW220469   3.746   0.954   6.849
 6524SOL     OW20470   2.606   3.703   1.603
 6524SOL    HW120471   2.629   3.663   1.514
 6524SOL    HW220472   2.601   3.803   1.595
 6525SOL     OW20473   1.474   4.661   2.939
 6525SOL    HW120474   1.435   4.608   2.864
 6525SOL    HW220475   1.455   4.616   3.026
 6526SOL     OW20476   2.048   0.156   6.541
 6526SOL    HW120477   1.962   0.149   6.492
 6526SOL    HW220478   2.124   0.139   6.478
 6527SOL     OW20479   0.497   2.761   4.638
 6527SOL    HW120480   0.521   2.835   4.701
 6527SOL    HW220481   0.413   2.717   4.668
 6528SOL     OW20482   0.056   0.914   4.384
 6528SOL    HW120483   6.997   0.960   4.360
 6528SOL    HW220484   0.089   0.948   4.471
 6529SOL     OW20485   1.062   1.319   2.685
 6529SOL    HW120486   1.112   1.342   2.601
 6529SOL    HW220487   0.965   1.307   2.664
 6530SOL     OW20488   7.013   3.486   1.225
 6530SOL    HW120489   6.959   3.431   1.288
 6530SOL    HW220490   6.982   3.581   1.229
 6531SOL     OW20491   5.868   3.569   4.952
 6531SOL    HW120492   5.896   3.609   4.865
 6531SOL    HW220493   5.946   3.566   5.014
 6532SOL     OW20494   6.178   0.452   0.137
 6532SOL    HW120495   6.245   0.414   0.074
 6532SOL    HW220496   6.187   0.552   0.139
 6533SOL     OW20497   4.691   6.434   1.148
 6533SOL    HW120498   4.751   6.421   1.227
 6533SOL    HW220499   4.609   6.378   1.159
 6534SOL     OW20500   3.463   4.205   1.373
 6534SOL    HW120501   3.430   4.181   1.282
 6534SOL    HW220502   3.448   4.128   1.435
 6535SOL     OW20503   6.489   3.892   4.530
 6535SOL    HW120504   6.588   3.904   4.541
 6535SOL    HW220505   6.451   3.854   4.614
 6536SOL     OW20506   0.826   1.967   5.735
 6536SOL    HW120507   0.745   1.962   5.792
 6536SOL    HW220508   0.900   2.013   5.785
 6537SOL     OW20509   6.463   5.102   0.346
 6537SOL    HW120510   6.459   5.187   0.294
 6537SOL    HW220511   6.440   5.025   0.286
 6538SOL     OW20512   2.957   3.876   6.767
 6538SOL    HW120513   2.901   3.863   6.848
 6538SOL    HW220514   2.955   3.794   6.710
 6539SOL     OW20515   3.589   0.553   6.531
 6539SOL    HW120516   3.661   0.593   6.474
 6539SOL    HW220517   3.553   0.471   6.487
 6540SOL     OW20518   5.187   1.242   5.515
 6540SOL    HW120519   5.233   1.266   5.601
 6540SOL    HW220520   5.161   1.146   5.516
 6541SOL     OW20521   4.620   1.160   5.339
 6541SOL    HW120522   4.551   1.127   5.275
 6541SOL    HW220523   4.688   1.215   5.290
 6542SOL     OW20524   6.600   4.217   4.468
 6542SOL    HW120525   6.690   4.260   4.457
 6542SOL    HW220526   6.586   4.152   4.393
 6543SOL     OW20527   5.741   3.218   6.078
 6543SOL    HW120528   5.828   3.266   6.079
 6543SOL    HW220529   5.681   3.257   6.009
 6544SOL     OW20530   0.308   6.296   2.897
 6544SOL    HW120531   0.349   6.375   2.851
 6544SOL    HW220532   0.345   6.212   2.857
 6545SOL     OW20533   5.263   2.157   6.984
 6545SOL    HW120534   5.239   2.199   0.044
 6545SOL    HW220535   5.279   2.228   6.915
 6546SOL     OW20536   3.552   4.679   0.028
 6546SOL    HW120537   3.578   4.717   0.116
 6546SOL    HW220538   3.489   4.603   0.042
 6547SOL     OW20539   4.680   1.085   5.978
 6547SOL    HW120540   4.587   1.092   5.942
 6547SOL    HW220541   4.742   1.141   5.923
 6548SOL     OW20542   1.185   3.364   6.526
 6548SOL    HW120543   1.231   3.345   6.613
 6548SOL    HW220544   1.254   3.381   6.455
 6549SOL     OW20545   4.774   0.810   1.148
 6549SOL    HW120546   4.798   0.891   1.201
 6549SOL    HW220547   4.785   0.729   1.206
 6550SOL     OW20548   0.621   6.597   3.881
 6550SOL    HW120549   0.550   6.561   3.820
 6550SOL    HW220550   0.710   6.561   3.854
 6551SOL     OW20551   1.434   4.745   3.425
 6551SOL    HW120552   1.415   4.843   3.435
 6551SOL    HW220553   1.487   4.713   3.504
 6552SOL     OW20554   2.384   0.188   5.330
 6552SOL    HW120555   2.319   0.112   5.323
 6552SOL    HW220556   2.335   0.275   5.320
 6553SOL     OW20557   0.072   1.746   3.131
 6553SOL    HW120558   0.148   1.798   3.170
 6553SOL    HW220559   0.085   1.649   3.151
 6554SOL     OW20560   5.949   0.776   5.246
 6554SOL    HW120561   5.963   0.853   5.183
 6554SOL    HW220562   5.960   0.808   5.340
 6555SOL     OW20563   0.243   1.855   1.944
 6555SOL    HW120564   0.182   1.928   1.912
 6555SOL    HW220565   0.265   1.869   2.040
 6556SOL     OW20566   4.731   4.612   5.111
 6556SOL    HW120567   4.796   4.657   5.050
 6556SOL    HW220568   4.707   4.522   5.075
 6557SOL     OW20569   3.112   5.856   1.149
 6557SOL    HW120570   3.058   5.839   1.067
 6557SOL    HW220571   3.054   5.851   1.230
 6558SOL     OW20572   5.909   4.654   0.446
 6558SOL    HW120573   5.880   4.717   0.374
 6558SOL    HW220574   5.998   4.682   0.481
 6559SOL     OW20575   0.441   4.433   6.103
 6559SOL    HW120576   0.373   4.455   6.033
 6559SOL    HW220577   0.510   4.371   6.065
 6560SOL     OW20578   4.207   4.524   0.990
 6560SOL    HW120579   4.276   4.496   1.056
 6560SOL    HW220580   4.132   4.572   1.037
 6561SOL     OW20581   3.660   4.085   2.391
 6561SOL    HW120582   3.722   4.007   2.389
 6561SOL    HW220583   3.659   4.129   2.300
 6562SOL     OW20584   5.365   4.004   0.611
 6562SOL    HW120585   5.370   4.103   0.627
 6562SOL    HW220586   5.441   3.977   0.552
 6563SOL     OW20587   6.471   6.352   0.293
 6563SOL    HW120588   6.507   6.442   0.319
 6563SOL    HW220589   6.511   6.325   0.206
 6564SOL     OW20590   0.147   4.299   3.057
 6564SOL    HW120591   0.214   4.302   2.983
 6564SOL    HW220592   0.183   4.241   3.131
 6565SOL     OW20593   6.636   2.654   4.030
 6565SOL    HW120594   6.544   2.613   4.023
 6565SOL    HW220595   6.682   2.645   3.942
 6566SOL     OW20596   3.317   6.361   2.734
 6566SOL    HW120597   3.288   6.437   2.792
 6566SOL    HW220598   3.254   6.351   2.657
 6567SOL     OW20599   4.257   1.664   1.216
 6567SOL    HW120600   4.313   1.674   1.134
 6567SOL    HW220601   4.218   1.753   1.241
 6568SOL     OW20602   4.455   0.550   3.918
 6568SOL    HW120603   4.460   0.475   3.852
 6568SOL    HW220604   4.371   0.541   3.971
 6569SOL     OW20605   2.954   3.619   6.283
 6569SOL    HW120606   2.862   3.647   6.257
 6569SOL    HW220607   2.950   3.527   6.323
 6570SOL     OW20608   3.924   6.775   2.434
 6570SOL    HW120609   3.990   6.780   2.509
 6570SOL    HW220610   3.953   6.834   2.360
 6571SOL     OW20611   2.631   5.516   2.035
 6571SOL    HW120612   2.676   5.583   2.092
 6571SOL    HW220613   2.535   5.542   2.021
 6572SOL     OW20614   6.824   5.570   5.370
 6572SOL    HW120615   6.837   5.510   5.291
 6572SOL    HW220616   6.823   5.515   5.454
 6573SOL     OW20617   2.789   1.555   1.990
 6573SOL    HW120618   2.872   1.571   2.043
 6573SOL    HW220619   2.812   1.545   1.893
 6574SOL     OW20620   3.132   6.290   2.536
 6574SOL    HW120621   3.042   6.305   2.576
 6574SOL    HW220622   3.125   6.223   2.462
 6575SOL     OW20623   1.299   0.679   2.130
 6575SOL    HW120624   1.277   0.585   2.102
 6575SOL    HW220625   1.215   0.733   2.129
 6576SOL     OW20626   2.297   6.215   6.042
 6576SOL    HW120627   2.326   6.255   5.955
 6576SOL    HW220628   2.379   6.191   6.095
 6577SOL     OW20629   0.748   1.660   3.747
 6577SOL    HW120630   0.823   1.698   3.801
 6577SOL    HW220631   0.753   1.693   3.653
 6578SOL     OW20632   0.920   4.467   3.321
 6578SOL    HW120633   0.938   4.502   3.413
 6578SOL    HW220634   0.838   4.409   3.323
 6579SOL     OW20635   6.992   3.591   4.820
 6579SOL    HW120636   7.018   3.558   4.910
 6579SOL    HW220637   6.933   3.523   4.775
 6580SOL     OW20638   6.432   1.703   1.293
 6580SOL    HW120639   6.381   1.714   1.208
 6580SOL    HW220640   6.483   1.617   1.290
 6581SOL     OW20641   2.606   1.390   6.972
 6581SOL    HW120642   2.686   1.329   6.978
 6581SOL    HW220643   2.546   1.372   0.023
 6582SOL     OW20644   1.333   1.197   1.287
 6582SOL    HW120645   1.249   1.252   1.285
 6582SOL    HW220646   1.375   1.203   1.378
 6583SOL     OW20647   4.375   0.294   5.095
 6583SOL    HW120648   4.391   0.207   5.048
 6583SOL    HW220649   4.367   0.278   5.193
 6584SOL     OW20650   4.922   1.806   0.110
 6584SOL    HW120651   5.009   1.781   0.069
 6584SOL    HW220652   4.890   1.893   0.071
 6585SOL     OW20653   6.950   6.835   0.228
 6585SOL    HW120654   6.953   6.873   0.135
 6585SOL    HW220655   6.947   6.735   0.223
 6586SOL     OW20656   6.301   1.621   6.113
 6586SOL    HW120657   6.286   1.718   6.093
 6586SOL    HW220658   6.299   1.568   6.028
 6587SOL     OW20659   2.841   6.101   5.123
 6587SOL    HW120660   2.848   6.004   5.098
 6587SOL    HW220661   2.750   6.134   5.101
 6588SOL     OW20662   1.331   3.661   1.885
 6588SOL    HW120663   1.238   3.659   1.848
 6588SOL    HW220664   1.396   3.635   1.814
 6589SOL     OW20665   4.948   0.393   0.399
 6589SOL    HW120666   4.906   0.476   0.364
 6589SOL    HW220667   5.026   0.416   0.457
 6590SOL     OW20668   0.945   1.562   5.639
 6590SOL    HW120669   1.024   1.575   5.699
 6590SOL    HW220670   0.930   1.464   5.623
 6591SOL     OW20671   5.411   6.176   2.273
 6591SOL    HW120672   5.315   6.148   2.279
 6591SOL    HW220673   5.469   6.095   2.281
 6592SOL     OW20674   6.057   6.725   3.968
 6592SOL    HW120675   6.011   6.792   3.910
 6592SOL    HW220676   6.030   6.632   3.941
 6593SOL     OW20677   2.670   1.794   3.429
 6593SOL    HW120678   2.648   1.697   3.446
 6593SOL    HW220679   2.591   1.838   3.387
 6594SOL     OW20680   3.725   1.673   7.025
 6594SOL    HW120681   3.672   1.606   0.050
 6594SOL    HW220682   3.777   1.626   6.954
 6595SOL     OW20683   0.774   2.902   0.434
 6595SOL    HW120684   0.861   2.910   0.385
 6595SOL    HW220685   0.699   2.919   0.370
 6596SOL     OW20686   3.560   6.493   4.443
 6596SOL    HW120687   3.483   6.434   4.468
 6596SOL    HW220688   3.538   6.542   4.359
 6597SOL     OW20689   2.308   5.930   2.393
 6597SOL    HW120690   2.257   5.892   2.316
 6597SOL    HW220691   2.318   6.028   2.382
 6598SOL     OW20692   1.017   6.612   4.095
 6598SOL    HW120693   1.081   6.687   4.117
 6598SOL    HW220694   0.936   6.619   4.153
 6599SOL     OW20695   4.600   6.607   5.474
 6599SOL    HW120696   4.615   6.638   5.380
 6599SOL    HW220697   4.638   6.674   5.537
 6600SOL     OW20698   5.093   5.253   6.331
 6600SOL    HW120699   5.086   5.238   6.233
 6600SOL    HW220700   5.077   5.167   6.379
 6601SOL     OW20701   1.278   1.961   5.541
 6601SOL    HW120702   1.179   1.974   5.536
 6601SOL    HW220703   1.303   1.934   5.634
 6602SOL     OW20704   0.713   1.788   1.500
 6602SOL    HW120705   0.694   1.692   1.479
 6602SOL    HW220706   0.629   1.832   1.531
 6603SOL     OW20707   0.566   2.621   3.847
 6603SOL    HW120708   0.553   2.627   3.748
 6603SOL    HW220709   0.634   2.688   3.876
 6604SOL     OW20710   2.214   6.826   0.755
 6604SOL    HW120711   2.210   6.777   0.668
 6604SOL    HW220712   2.162   6.776   0.824
 6605SOL     OW20713   5.955   3.948   1.285
 6605SOL    HW120714   5.888   4.016   1.314
 6605SOL    HW220715   5.911   3.859   1.276
 6606SOL     OW20716   6.818   6.724   2.348
 6606SOL    HW120717   6.812   6.734   2.249
 6606SOL    HW220718   6.726   6.719   2.387
 6607SOL     OW20719   1.759   2.798   2.376
 6607SOL    HW120720   1.810   2.725   2.329
 6607SOL    HW220721   1.755   2.778   2.474
 6608SOL     OW20722   5.776   6.224   1.887
 6608SOL    HW120723   5.865   6.192   1.919
 6608SOL    HW220724   5.777   6.324   1.880
 6609SOL     OW20725   4.815   0.846   5.796
 6609SOL    HW120726   4.789   0.827   5.890
 6609SOL    HW220727   4.757   0.920   5.760
 6610SOL     OW20728   2.605   1.223   6.531
 6610SOL    HW120729   2.594   1.321   6.549
 6610SOL    HW220730   2.517   1.183   6.507
 6611SOL     OW20731   6.147   2.914   4.266
 6611SOL    HW120732   6.217   2.871   4.210
 6611SOL    HW220733   6.163   3.013   4.270
 6612SOL     OW20734   6.322   2.142   6.573
 6612SOL    HW120735   6.242   2.135   6.632
 6612SOL    HW220736   6.385   2.210   6.609
 6613SOL     OW20737   6.230   6.730   5.194
 6613SOL    HW120738   6.323   6.741   5.231
 6613SOL    HW220739   6.165   6.720   5.269
 6614SOL     OW20740   5.643   6.033   0.354
 6614SOL    HW120741   5.660   5.938   0.327
 6614SOL    HW220742   5.553   6.040   0.396
 6615SOL     OW20743   1.090   4.600   2.913
 6615SOL    HW120744   1.150   4.597   2.833
 6615SOL    HW220745   0.995   4.592   2.884
 6616SOL     OW20746   3.805   0.775   6.131
 6616SOL    HW120747   3.820   0.784   6.230
 6616SOL    HW220748   3.891   0.745   6.088
 6617SOL     OW20749   3.585   5.041   2.885
 6617SOL    HW120750   3.534   5.083   2.961
 6617SOL    HW220751   3.527   4.974   2.839
 6618SOL     OW20752   1.269   3.412   2.633
 6618SOL    HW120753   1.206   3.358   2.690
 6618SOL    HW220754   1.334   3.460   2.692
 6619SOL     OW20755   6.189   0.342   4.502
 6619SOL    HW120756   6.204   0.278   4.427
 6619SOL    HW220757   6.259   0.414   4.500
 6620SOL     OW20758   1.977   2.862   5.346
 6620SOL    HW120759   1.970   2.790   5.415
 6620SOL    HW220760   2.067   2.859   5.304
 6621SOL     OW20761   2.413   3.629   6.374
 6621SOL    HW120762   2.398   3.557   6.305
 6621SOL    HW220763   2.505   3.621   6.411
 6622SOL     OW20764   6.172   0.219   1.866
 6622SOL    HW120765   6.152   0.299   1.810
 6622SOL    HW220766   6.168   0.136   1.809
 6623SOL     OW20767   2.570   3.070   6.267
 6623SOL    HW120768   2.543   3.146   6.326
 6623SOL    HW220769   2.612   3.106   6.184
 6624SOL     OW20770   1.247   6.058   4.197
 6624SOL    HW120771   1.293   5.974   4.168
 6624SOL    HW220772   1.315   6.129   4.213
 6625SOL     OW20773   5.108   1.805   5.865
 6625SOL    HW120774   5.102   1.751   5.949
 6625SOL    HW220775   5.026   1.790   5.810
 6626SOL     OW20776   4.646   5.626   5.350
 6626SOL    HW120777   4.591   5.543   5.347
 6626SOL    HW220778   4.727   5.615   5.292
 6627SOL     OW20779   2.367   0.713   5.325
 6627SOL    HW120780   2.421   0.759   5.395
 6627SOL    HW220781   2.279   0.759   5.315
 6628SOL     OW20782   4.459   4.530   4.626
 6628SOL    HW120783   4.431   4.613   4.674
 6628SOL    HW220784   4.379   4.484   4.589
 6629SOL     OW20785   4.287   6.255   0.134
 6629SOL    HW120786   4.330   6.212   0.055
 6629SOL    HW220787   4.299   6.197   0.214
 6630SOL     OW20788   4.036   1.319   1.688
 6630SOL    HW120789   3.953   1.365   1.718
 6630SOL    HW220790   4.047   1.234   1.739
 6631SOL     OW20791   2.709   6.962   2.650
 6631SOL    HW120792   2.743   6.869   2.634
 6631SOL    HW220793   2.610   6.959   2.666
 6632SOL     OW20794   0.722   5.805   1.514
 6632SOL    HW120795   0.774   5.866   1.574
 6632SOL    HW220796   0.687   5.728   1.567
 6633SOL     OW20797   0.682   4.243   6.566
 6633SOL    HW120798   0.693   4.295   6.482
 6633SOL    HW220799   0.713   4.298   6.644
 6634SOL     OW20800   6.009   2.175   4.413
 6634SOL    HW120801   6.025   2.115   4.491
 6634SOL    HW220802   5.959   2.125   4.342
 6635SOL     OW20803   3.953   4.808   2.969
 6635SOL    HW120804   3.940   4.790   3.066
 6635SOL    HW220805   3.899   4.742   2.916
 6636SOL     OW20806   4.902   1.829   5.599
 6636SOL    HW120807   4.865   1.920   5.580
 6636SOL    HW220808   4.848   1.760   5.550
 6637SOL     OW20809   1.278   6.798   6.333
 6637SOL    HW120810   1.286   6.756   6.424
 6637SOL    HW220811   1.340   6.875   6.326
 6638SOL     OW20812   3.190   4.065   4.174
 6638SOL    HW120813   3.211   4.111   4.260
 6638SOL    HW220814   3.198   3.966   4.186
 6639SOL     OW20815   6.082   4.872   6.271
 6639SOL    HW120816   6.070   4.951   6.331
 6639SOL    HW220817   5.996   4.851   6.225
 6640SOL     OW20818   1.242   1.787   5.275
 6640SOL    HW120819   1.273   1.829   5.190
 6640SOL    HW220820   1.236   1.857   5.347
 6641SOL     OW20821   2.623   2.099   0.101
 6641SOL    HW120822   2.684   2.175   0.123
 6641SOL    HW220823   2.628   2.080   0.003
 6642SOL     OW20824   2.849   5.140   6.596
 6642SOL    HW120825   2.923   5.206   6.587
 6642SOL    HW220826   2.802   5.154   6.683
 6643SOL     OW20827   0.040   5.307   0.316
 6643SOL    HW120828   7.017   5.388   0.286
 6643SOL    HW220829   0.078   5.259   0.237
 6644SOL     OW20830   2.696   4.711   2.174
 6644SOL    HW120831   2.716   4.666   2.087
 6644SOL    HW220832   2.724   4.651   2.249
 6645SOL     OW20833   6.782   4.659   0.732
 6645SOL    HW120834   6.834   4.701   0.658
 6645SOL    HW220835   6.720   4.727   0.772
 6646SOL     OW20836   3.922   7.009   4.916
 6646SOL    HW120837   3.898   6.913   4.930
 6646SOL    HW220838   3.842   0.034   4.887
 6647SOL     OW20839   4.236   1.159   2.056
 6647SOL    HW120840   4.191   1.092   1.996
 6647SOL    HW220841   4.317   1.195   2.010
 6648SOL     OW20842   3.828   6.740   2.783
 6648SOL    HW120843   3.889   6.666   2.756
 6648SOL    HW220844   3.843   6.819   2.724
 6649SOL     OW20845   5.983   0.834   6.431
 6649SOL    HW120846   5.924   0.887   6.492
 6649SOL    HW220847   6.057   0.793   6.484
 6650SOL     OW20848   2.794   1.579   5.062
 6650SOL    HW120849   2.774   1.674   5.083
 6650SOL    HW220850   2.854   1.541   5.132
 6651SOL     OW20851   1.902   1.713   6.404
 6651SOL    HW120852   1.966   1.742   6.333
 6651SOL    HW220853   1.864   1.623   6.381
 6652SOL     OW20854   0.065   4.108   0.747
 6652SOL    HW120855   0.083   4.037   0.815
 6652SOL    HW220856   6.994   4.110   0.726
 6653SOL     OW20857   3.701   2.861   2.264
 6653SOL    HW120858   3.743   2.774   2.289
 6653SOL    HW220859   3.643   2.847   2.183
 6654SOL     OW20860   1.491   3.221   1.633
 6654SOL    HW120861   1.583   3.255   1.649
 6654SOL    HW220862   1.491   3.156   1.557
 6655SOL     OW20863   1.747   7.014   1.704
 6655SOL    HW120864   1.648   7.002   1.694
 6655SOL    HW220865   1.794   6.967   1.629
 6656SOL     OW20866   5.834   1.865   1.975
 6656SOL    HW120867   5.813   1.879   1.878
 6656SOL    HW220868   5.756   1.895   2.031
 6657SOL     OW20869   5.725   5.898   6.655
 6657SOL    HW120870   5.789   5.969   6.685
 6657SOL    HW220871   5.678   5.860   6.734
 6658SOL     OW20872   6.040   1.357   5.181
 6658SOL    HW120873   5.959   1.402   5.218
 6658SOL    HW220874   6.121   1.391   5.228
 6659SOL     OW20875   1.862   2.587   0.583
 6659SOL    HW120876   1.819   2.608   0.496
 6659SOL    HW220877   1.882   2.672   0.632
 6660SOL     OW20878   0.792   5.130   0.320
 6660SOL    HW120879   0.694   5.125   0.301
 6660SOL    HW220880   0.807   5.149   0.417
 6661SOL     OW20881   1.470   6.119   4.632
 6661SOL    HW120882   1.555   6.171   4.626
 6661SOL    HW220883   1.395   6.181   4.654
 6662SOL     OW20884   1.115   0.946   0.316
 6662SOL    HW120885   1.069   0.950   0.227
 6662SOL    HW220886   1.084   1.022   0.372
 6663SOL     OW20887   0.087   5.138   3.634
 6663SOL    HW120888   0.047   5.046   3.632
 6663SOL    HW220889   0.125   5.155   3.725
 6664SOL     OW20890   2.352   6.337   0.109
 6664SOL    HW120891   2.439   6.299   0.077
 6664SOL    HW220892   2.332   6.421   0.057
 6665SOL     OW20893   1.295   0.222   3.154
 6665SOL    HW120894   1.293   0.158   3.230
 6665SOL    HW220895   1.387   0.259   3.145
 6666SOL     OW20896   5.393   6.746   6.128
 6666SOL    HW120897   5.327   6.780   6.194
 6666SOL    HW220898   5.482   6.735   6.173
 6667SOL     OW20899   0.012   6.078   6.750
 6667SOL    HW120900   0.031   6.105   6.656
 6667SOL    HW220901   0.078   6.009   6.779
 6668SOL     OW20902   6.571   5.624   2.295
 6668SOL    HW120903   6.597   5.720   2.302
 6668SOL    HW220904   6.605   5.575   2.375
 6669SOL     OW20905   1.879   2.961   4.097
 6669SOL    HW120906   1.867   2.865   4.123
 6669SOL    HW220907   1.960   2.969   4.038
 6670SOL     OW20908   3.813   2.135   5.804
 6670SOL    HW120909   3.723   2.137   5.761
 6670SOL    HW220910   3.844   2.041   5.814
 6671SOL     OW20911   5.626   5.279   1.575
 6671SOL    HW120912   5.642   5.323   1.487
 6671SOL    HW220913   5.529   5.288   1.600
 6672SOL     OW20914   6.958   2.143   5.819
 6672SOL    HW120915   0.017   2.095   5.837
 6672SOL    HW220916   6.881   2.082   5.837
 6673SOL     OW20917   5.165   5.924   3.777
 6673SOL    HW120918   5.242   5.883   3.730
 6673SOL    HW220919   5.080   5.892   3.736
 6674SOL     OW20920   1.381   4.998   5.404
 6674SOL    HW120921   1.332   4.927   5.356
 6674SOL    HW220922   1.363   4.992   5.502
 6675SOL     OW20923   4.444   3.451   1.634
 6675SOL    HW120924   4.469   3.406   1.721
 6675SOL    HW220925   4.380   3.525   1.652
 6676SOL     OW20926   6.766   4.709   5.701
 6676SOL    HW120927   6.706   4.645   5.749
 6676SOL    HW220928   6.716   4.752   5.626
 6677SOL     OW20929   0.892   2.115   6.223
 6677SOL    HW120930   0.862   2.206   6.252
 6677SOL    HW220931   0.811   2.060   6.200
 6678SOL     OW20932   2.592   3.385   6.623
 6678SOL    HW120933   2.673   3.358   6.677
 6678SOL    HW220934   2.520   3.318   6.637
 6679SOL     OW20935   2.310   2.028   3.955
 6679SOL    HW120936   2.220   1.984   3.958
 6679SOL    HW220937   2.313   2.102   4.023
 6680SOL     OW20938   4.520   0.150   6.279
 6680SOL    HW120939   4.534   0.135   6.376
 6680SOL    HW220940   4.571   0.231   6.250
 6681SOL     OW20941   4.537   5.307   0.853
 6681SOL    HW120942   4.546   5.241   0.779
 6681SOL    HW220943   4.513   5.259   0.938
 6682SOL     OW20944   1.742   4.647   3.089
 6682SOL    HW120945   1.671   4.596   3.138
 6682SOL    HW220946   1.820   4.661   3.150
 6683SOL     OW20947   5.456   3.149   5.426
 6683SOL    HW120948   5.490   3.163   5.333
 6683SOL    HW220949   5.533   3.134   5.487
 6684SOL     OW20950   2.476   6.570   1.072
 6684SOL    HW120951   2.456   6.663   1.100
 6684SOL    HW220952   2.573   6.563   1.047
 6685SOL     OW20953   5.468   3.090   6.172
 6685SOL    HW120954   5.542   3.041   6.125
 6685SOL    HW220955   5.449   3.045   6.259
 6686SOL     OW20956   5.511   5.909   4.956
 6686SOL    HW120957   5.509   5.993   5.009
 6686SOL    HW220958   5.592   5.908   4.897
 6687SOL     OW20959   0.770   2.602   0.461
 6687SOL    HW120960   0.779   2.565   0.368
 6687SOL    HW220961   0.762   2.701   0.457
 6688SOL     OW20962   0.075   4.422   1.908
 6688SOL    HW120963   0.174   4.422   1.893
 6688SOL    HW220964   0.037   4.510   1.879
 6689SOL     OW20965   4.371   3.427   0.146
 6689SOL    HW120966   4.331   3.368   0.076
 6689SOL    HW220967   4.329   3.518   0.141
 6690SOL     OW20968   2.258   0.830   1.125
 6690SOL    HW120969   2.256   0.929   1.112
 6690SOL    HW220970   2.276   0.784   1.038
 6691SOL     OW20971   3.175   6.675   1.318
 6691SOL    HW120972   3.228   6.751   1.281
 6691SOL    HW220973   3.146   6.697   1.411
 6692SOL     OW20974   4.322   4.016   5.448
 6692SOL    HW120975   4.268   4.100   5.441
 6692SOL    HW220976   4.260   3.937   5.441
 6693SOL     OW20977   4.531   3.792   6.068
 6693SOL    HW120978   4.555   3.697   6.091
 6693SOL    HW220979   4.566   3.814   5.977
 6694SOL     OW20980   5.213   4.942   0.733
 6694SOL    HW120981   5.163   4.954   0.819
 6694SOL    HW220982   5.309   4.923   0.752
 6695SOL     OW20983   2.320   1.543   6.696
 6695SOL    HW120984   2.274   1.545   6.607
 6695SOL    HW220985   2.328   1.449   6.727
 6696SOL     OW20986   0.830   2.810   6.047
 6696SOL    HW120987   0.892   2.760   5.986
 6696SOL    HW220988   0.856   2.906   6.049
 6697SOL     OW20989   4.793   2.948   3.003
 6697SOL    HW120990   4.769   2.921   3.096
 6697SOL    HW220991   4.766   2.877   2.939
 6698SOL     OW20992   3.054   2.713   0.981
 6698SOL    HW120993   3.055   2.729   1.080
 6698SOL    HW220994   3.136   2.755   0.940
 6699SOL     OW20995   3.509   5.518   6.267
 6699SOL    HW120996   3.553   5.467   6.194
 6699SOL    HW220997   3.411   5.498   6.269
 6700SOL     OW20998   7.002   6.643   0.946
 6700SOL    HW120999   0.049   6.589   0.907
 6700SOL    HW221000   6.915   6.595   0.933
 6701SOL     OW21001   5.479   2.783   1.405
 6701SOL    HW121002   5.437   2.870   1.433
 6701SOL    HW221003   5.408   2.712   1.400
 6702SOL     OW21004   3.059   2.528   1.665
 6702SOL    HW121005   3.106   2.446   1.632
 6702SOL    HW221006   3.002   2.505   1.743
 6703SOL     OW21007   6.192   2.002   6.946
 6703SOL    HW121008   6.166   2.068   6.875
 6703SOL    HW221009   6.129   1.924   6.943
 6704SOL     OW21010   4.215   2.017   2.714
 6704SOL    HW121011   4.301   2.009   2.763
 6704SOL    HW221012   4.141   1.983   2.772
 6705SOL     OW21013   6.810   2.367   1.171
 6705SOL    HW121014   6.854   2.451   1.202
 6705SOL    HW221015   6.879   2.304   1.135
 6706SOL     OW21016   1.148   4.084   1.511
 6706SOL    HW121017   1.104   4.038   1.434
 6706SOL    HW221018   1.131   4.032   1.595
 6707SOL     OW21019   0.191   6.302   3.331
 6707SOL    HW121020   0.207   6.274   3.426
 6707SOL    HW221021   0.122   6.374   3.328
 6708SOL     OW21022   0.283   5.373   2.251
 6708SOL    HW121023   0.339   5.291   2.266
 6708SOL    HW221024   0.187   5.352   2.274
 6709SOL     OW21025   2.638   6.862   1.755
 6709SOL    HW121026   2.578   6.940   1.772
 6709SOL    HW221027   2.586   6.777   1.764
 6710SOL     OW21028   2.703   0.904   5.760
 6710SOL    HW121029   2.627   0.968   5.745
 6710SOL    HW221030   2.737   0.914   5.853
 6711SOL     OW21031   5.184   4.915   0.249
 6711SOL    HW121032   5.085   4.927   0.256
 6711SOL    HW221033   5.206   4.866   0.164
 6712SOL     OW21034   4.662   5.291   0.101
 6712SOL    HW121035   4.655   5.300   0.200
 6712SOL    HW221036   4.720   5.364   0.065
 6713SOL     OW21037   2.400   1.396   1.703
 6713SOL    HW121038   2.449   1.342   1.772
 6713SOL    HW221039   2.465   1.436   1.639
 6714SOL     OW21040   5.773   0.919   6.614
 6714SOL    HW121041   5.680   0.896   6.640
 6714SOL    HW221042   5.836   0.891   6.687
 6715SOL     OW21043   0.133   7.013   6.426
 6715SOL    HW121044   0.177   6.982   6.511
 6715SOL    HW221045   0.197   0.045   6.376
 6716SOL     OW21046   0.564   5.611   1.917
 6716SOL    HW121047   0.647   5.577   1.874
 6716SOL    HW221048   0.551   5.568   2.006
 6717SOL     OW21049   4.599   2.753   0.482
 6717SOL    HW121050   4.544   2.836   0.486
 6717SOL    HW221051   4.624   2.735   0.387
 6718SOL     OW21052   4.698   0.145   5.972
 6718SOL    HW121053   4.721   0.155   5.876
 6718SOL    HW221054   4.627   0.074   5.982
 6719SOL     OW21055   1.336   0.093   6.050
 6719SOL    HW121056   1.280   0.140   6.118
 6719SOL    HW221057   1.327   7.021   6.062
 6720SOL     OW21058   0.731   5.340   3.478
 6720SOL    HW121059   0.713   5.432   3.445
 6720SOL    HW221060   0.765   5.343   3.572
 6721SOL     OW21061   6.410   0.448   5.485
 6721SOL    HW121062   6.352   0.401   5.419
 6721SOL    HW221063   6.421   0.543   5.458
 6722SOL     OW21064   6.581   3.499   1.689
 6722SOL    HW121065   6.587   3.588   1.734
 6722SOL    HW221066   6.669   3.476   1.647
 6723SOL     OW21067   1.719   6.905   2.943
 6723SOL    HW121068   1.709   6.826   2.883
 6723SOL    HW221069   1.747   6.875   3.034
 6724SOL     OW21070   1.078   3.599   6.299
 6724SOL    HW121071   0.993   3.563   6.337
 6724SOL    HW221072   1.143   3.524   6.285
 6725SOL     OW21073   1.279   3.678   0.961
 6725SOL    HW121074   1.269   3.776   0.941
 6725SOL    HW221075   1.302   3.629   0.878
 6726SOL     OW21076   0.774   2.426   5.054
 6726SOL    HW121077   0.747   2.514   5.015
 6726SOL    HW221078   0.861   2.397   5.015
 6727SOL     OW21079   6.252   3.860   5.741
 6727SOL    HW121080   6.157   3.835   5.721
 6727SOL    HW221081   6.299   3.885   5.656
 6728SOL     OW21082   4.490   1.616   3.863
 6728SOL    HW121083   4.446   1.698   3.899
 6728SOL    HW221084   4.589   1.624   3.872
 6729SOL     OW21085   6.984   1.440   2.001
 6729SOL    HW121086   6.929   1.504   1.946
 6729SOL    HW221087   6.926   1.400   2.072
 6730SOL     OW21088   2.756   6.259   6.722
 6730SOL    HW121089   2.800   6.176   6.755
 6730SOL    HW221090   2.791   6.338   6.772
 6731SOL     OW21091   1.433   4.958   1.021
 6731SOL    HW121092   1.456   4.923   0.930
 6731SOL    HW221093   1.466   5.052   1.029
 6732SOL     OW21094   4.154   5.218   6.426
 6732SOL    HW121095   4.227   5.152   6.409
 6732SOL    HW221096   4.125   5.260   6.340
 6733SOL     OW21097   4.048   5.506   0.538
 6733SOL    HW121098   4.102   5.541   0.462
 6733SOL    HW221099   3.952   5.500   0.510
 6734SOL     OW21100   6.722   2.579   4.686
 6734SOL    HW121101   6.799   2.636   4.659
 6734SOL    HW221102   6.704   2.510   4.616
 6735SOL     OW21103   6.876   4.897   4.802
 6735SOL    HW121104   6.942   4.843   4.854
 6735SOL    HW221105   6.855   4.981   4.851
 6736SOL     OW21106   2.789   3.551   0.128
 6736SOL    HW121107   2.747   3.635   0.096
 6736SOL    HW221108   2.769   3.477   0.065
 6737SOL     OW21109   1.891   2.834   0.759
 6737SOL    HW121110   1.962   2.893   0.720
 6737SOL    HW221111   1.803   2.881   0.756
 6738SOL     OW21112   2.244   4.001   2.631
 6738SOL    HW121113   2.274   4.061   2.705
 6738SOL    HW221114   2.193   3.923   2.669
 6739SOL     OW21115   3.829   4.842   5.899
 6739SOL    HW121116   3.820   4.750   5.859
 6739SOL    HW221117   3.776   4.907   5.844
 6740SOL     OW21118   1.617   1.380   4.496
 6740SOL    HW121119   1.586   1.434   4.417
 6740SOL    HW221120   1.647   1.442   4.568
 6741SOL     OW21121   4.536   1.312   5.927
 6741SOL    HW121122   4.438   1.308   5.945
 6741SOL    HW221123   4.567   1.407   5.933
 6742SOL     OW21124   6.537   5.342   2.787
 6742SOL    HW121125   6.572   5.349   2.693
 6742SOL    HW221126   6.603   5.291   2.843
 6743SOL     OW21127   4.394   4.258   0.961
 6743SOL    HW121128   4.393   4.164   0.997
 6743SOL    HW221129   4.407   4.322   1.036
 6744SOL     OW21130   4.626   4.972   5.721
 6744SOL    HW121131   4.700   5.035   5.700
 6744SOL    HW221132   4.644   4.883   5.678
 6745SOL     OW21133   0.799   6.568   1.726
 6745SOL    HW121134   0.832   6.475   1.711
 6745SOL    HW221135   0.814   6.593   1.822
 6746SOL     OW21136   1.019   1.058   3.316
 6746SOL    HW121137   1.113   1.076   3.346
 6746SOL    HW221138   0.966   1.021   3.392
 6747SOL     OW21139   5.538   0.084   5.207
 6747SOL    HW121140   5.546   0.023   5.128
 6747SOL    HW221141   5.577   0.173   5.183
 6748SOL     OW21142   1.361   0.552   2.787
 6748SOL    HW121143   1.373   0.467   2.737
 6748SOL    HW221144   1.295   0.610   2.739
 6749SOL     OW21145   2.919   5.759   0.099
 6749SOL    HW121146   2.846   5.775   0.033
 6749SOL    HW221147   3.004   5.735   0.051
 6750SOL     OW21148   4.496   0.973   5.068
 6750SOL    HW121149   4.476   0.908   4.994
 6750SOL    HW221150   4.573   0.938   5.122
 6751SOL     OW21151   3.806   1.852   3.445
 6751SOL    HW121152   3.789   1.756   3.425
 6751SOL    HW221153   3.869   1.860   3.523
 6752SOL     OW21154   6.713   3.480   2.811
 6752SOL    HW121155   6.784   3.550   2.816
 6752SOL    HW221156   6.716   3.436   2.722
 6753SOL     OW21157   4.501   1.003   6.368
 6753SOL    HW121158   4.522   1.077   6.304
 6753SOL    HW221159   4.424   1.031   6.426
 6754SOL     OW21160   6.629   1.035   6.800
 6754SOL    HW121161   6.714   1.068   6.842
 6754SOL    HW221162   6.632   0.935   6.793
 6755SOL     OW21163   4.937   1.868   3.270
 6755SOL    HW121164   4.852   1.870   3.322
 6755SOL    HW221165   4.931   1.932   3.194
 6756SOL     OW21166   4.504   4.474   4.238
 6756SOL    HW121167   4.432   4.542   4.255
 6756SOL    HW221168   4.551   4.454   4.324
 6757SOL     OW21169   4.897   6.724   1.154
 6757SOL    HW121170   4.804   6.703   1.124
 6757SOL    HW221171   4.933   6.648   1.208
 6758SOL     OW21172   6.506   3.666   1.359
 6758SOL    HW121173   6.457   3.593   1.406
 6758SOL    HW221174   6.596   3.633   1.332
 6759SOL     OW21175   1.049   3.778   4.981
 6759SOL    HW121176   1.036   3.753   5.077
 6759SOL    HW221177   1.053   3.877   4.973
 6760SOL     OW21178   6.783   5.018   4.234
 6760SOL    HW121179   6.713   5.071   4.283
 6760SOL    HW221180   6.741   4.934   4.199
 6761SOL     OW21181   5.776   2.552   6.535
 6761SOL    HW121182   5.821   2.561   6.624
 6761SOL    HW221183   5.693   2.607   6.535
 6762SOL     OW21184   6.726   5.434   3.396
 6762SOL    HW121185   6.701   5.476   3.309
 6762SOL    HW221186   6.819   5.460   3.421
 6763SOL     OW21187   6.583   5.931   3.677
 6763SOL    HW121188   6.631   5.921   3.764
 6763SOL    HW221189   6.590   5.846   3.625
 6764SOL     OW21190   2.830   5.143   6.876
 6764SOL    HW121191   2.928   5.155   6.859
 6764SOL    HW221192   2.817   5.102   6.966
 6765SOL     OW21193   4.885   5.337   3.540
 6765SOL    HW121194   4.856   5.368   3.450
 6765SOL    HW221195   4.878   5.237   3.545
 6766SOL     OW21196   3.794   6.867   6.453
 6766SOL    HW121197   3.782   6.813   6.537
 6766SOL    HW221198   3.879   6.920   6.460
 6767SOL     OW21199   0.853   2.318   0.520
 6767SOL    HW121200   0.783   2.259   0.560
 6767SOL    HW221201   0.818   2.411   0.512
 6768SOL     OW21202   1.036   6.475   3.868
 6768SOL    HW121203   0.969   6.405   3.894
 6768SOL    HW221204   1.048   6.539   3.944
 6769SOL     OW21205   3.062   0.706   5.386
 6769SOL    HW121206   3.006   0.703   5.468
 6769SOL    HW221207   3.090   0.801   5.368
 6770SOL     OW21208   6.804   2.175   3.565
 6770SOL    HW121209   6.708   2.146   3.574
 6770SOL    HW221210   6.811   2.273   3.585
 6771SOL     OW21211   3.459   2.139   2.941
 6771SOL    HW121212   3.496   2.149   3.033
 6771SOL    HW221213   3.533   2.141   2.874
 6772SOL     OW21214   5.502   1.609   2.667
 6772SOL    HW121215   5.422   1.621   2.727
 6772SOL    HW221216   5.574   1.672   2.696
 6773SOL     OW21217   7.025   6.918   1.207
 6773SOL    HW121218   0.086   6.873   1.225
 6773SOL    HW221219   7.009   6.923   1.109
 6774SOL     OW21220   1.817   2.606   4.611
 6774SOL    HW121221   1.902   2.555   4.593
 6774SOL    HW221222   1.761   2.555   4.676
 6775SOL     OW21223   0.490   2.477   3.556
 6775SOL    HW121224   0.445   2.410   3.497
 6775SOL    HW221225   0.460   2.569   3.531
 6776SOL     OW21226   3.955   3.558   1.678
 6776SOL    HW121227   4.034   3.506   1.711
 6776SOL    HW221228   3.920   3.516   1.594
 6777SOL     OW21229   4.308   5.477   1.226
 6777SOL    HW121230   4.366   5.500   1.304
 6777SOL    HW221231   4.357   5.497   1.141
 6778SOL     OW21232   5.897   3.175   2.866
 6778SOL    HW121233   5.909   3.187   2.767
 6778SOL    HW221234   5.978   3.130   2.904
 6779SOL     OW21235   5.147   4.681   6.447
 6779SOL    HW121236   5.090   4.723   6.377
 6779SOL    HW221237   5.229   4.643   6.405
 6780SOL     OW21238   2.084   3.804   2.752
 6780SOL    HW121239   2.093   3.757   2.665
 6780SOL    HW221240   2.008   3.765   2.804
 6781SOL     OW21241   6.627   1.405   3.433
 6781SOL    HW121242   6.686   1.343   3.484
 6781SOL    HW221243   6.566   1.351   3.374
 6782SOL     OW21244   1.038   0.978   3.741
 6782SOL    HW121245   0.980   0.967   3.661
 6782SOL    HW221246   0.990   0.944   3.822
 6783SOL     OW21247   0.844   4.122   4.772
 6783SOL    HW121248   0.806   4.049   4.715
 6783SOL    HW221249   0.916   4.084   4.830
 6784SOL     OW21250   2.449   4.200   1.771
 6784SOL    HW121251   2.432   4.292   1.738
 6784SOL    HW221252   2.547   4.181   1.767
 6785SOL     OW21253   5.594   5.116   5.764
 6785SOL    HW121254   5.568   5.100   5.859
 6785SOL    HW221255   5.676   5.063   5.742
 6786SOL     OW21256   6.568   3.072   6.894
 6786SOL    HW121257   6.666   3.079   6.912
 6786SOL    HW221258   6.551   3.000   6.827
 6787SOL     OW21259   2.847   2.362   1.206
 6787SOL    HW121260   2.779   2.296   1.239
 6787SOL    HW221261   2.864   2.430   1.277
 6788SOL     OW21262   0.481   3.976   2.860
 6788SOL    HW121263   0.525   3.942   2.777
 6788SOL    HW221264   0.384   3.995   2.841
 6789SOL     OW21265   0.089   4.879   4.517
 6789SOL    HW121266   0.061   4.948   4.584
 6789SOL    HW221267   0.010   4.825   4.490
 6790SOL     OW21268   0.414   4.553   6.578
 6790SOL    HW121269   0.485   4.621   6.597
 6790SOL    HW221270   0.391   4.556   6.481
 6791SOL     OW21271   4.479   1.896   2.992
 6791SOL    HW121272   4.460   1.960   2.917
 6791SOL    HW221273   4.412   1.909   3.065
 6792SOL     OW21274   4.281   6.982   5.281
 6792SOL    HW121275   4.305   0.040   5.328
 6792SOL    HW221276   4.188   6.954   5.306
 6793SOL     OW21277   3.289   1.518   6.900
 6793SOL    HW121278   3.222   1.587   6.873
 6793SOL    HW221279   3.244   1.448   6.955
 6794SOL     OW21280   4.882   1.206   5.819
 6794SOL    HW121281   4.904   1.303   5.832
 6794SOL    HW221282   4.839   1.194   5.729
 6795SOL     OW21283   0.883   6.949   0.678
 6795SOL    HW121284   0.967   6.996   0.707
 6795SOL    HW221285   0.865   6.970   0.582
 6796SOL     OW21286   5.403   0.919   2.146
 6796SOL    HW121287   5.391   1.018   2.145
 6796SOL    HW221288   5.335   0.877   2.205
 6797SOL     OW21289   6.538   2.260   1.205
 6797SOL    HW121290   6.632   2.289   1.186
 6797SOL    HW221291   6.533   2.160   1.203
 6798SOL     OW21292   5.913   0.074   1.569
 6798SOL    HW121293   5.899   0.144   1.498
 6798SOL    HW221294   5.865   7.017   1.543
 6799SOL     OW21295   5.380   0.630   2.722
 6799SOL    HW121296   5.434   0.693   2.778
 6799SOL    HW221297   5.306   0.592   2.778
 6800SOL     OW21298   2.237   2.677   1.776
 6800SOL    HW121299   2.170   2.603   1.783
 6800SOL    HW221300   2.219   2.745   1.848
 6801SOL     OW21301   0.786   6.485   3.662
 6801SOL    HW121302   0.869   6.429   3.662
 6801SOL    HW221303   0.811   6.581   3.675
 6802SOL     OW21304   3.500   5.856   0.303
 6802SOL    HW121305   3.482   5.911   0.385
 6802SOL    HW221306   3.415   5.815   0.271
 6803SOL     OW21307   4.939   3.885   0.105
 6803SOL    HW121308   5.020   3.919   0.151
 6803SOL    HW221309   4.912   3.797   0.146
 6804SOL     OW21310   3.116   4.913   2.679
 6804SOL    HW121311   3.136   4.894   2.583
 6804SOL    HW221312   3.038   4.859   2.709
 6805SOL     OW21313   0.821   5.218   6.615
 6805SOL    HW121314   0.857   5.311   6.621
 6805SOL    HW221315   0.817   5.177   6.706
 6806SOL     OW21316   6.698   0.928   4.275
 6806SOL    HW121317   6.760   0.974   4.212
 6806SOL    HW221318   6.608   0.917   4.232
 6807SOL     OW21319   3.571   3.362   3.226
 6807SOL    HW121320   3.534   3.331   3.139
 6807SOL    HW221321   3.670   3.348   3.227
 6808SOL     OW21322   5.557   1.268   5.479
 6808SOL    HW121323   5.477   1.277   5.420
 6808SOL    HW221324   5.551   1.334   5.554
 6809SOL     OW21325   6.423   3.909   1.260
 6809SOL    HW121326   6.465   3.826   1.296
 6809SOL    HW221327   6.492   3.964   1.213
 6810SOL     OW21328   3.451   0.917   3.307
 6810SOL    HW121329   3.475   0.933   3.211
 6810SOL    HW221330   3.523   0.864   3.351
 6811SOL     OW21331   0.005   2.901   2.583
 6811SOL    HW121332   0.013   2.834   2.508
 6811SOL    HW221333   6.939   2.898   2.621
 6812SOL     OW21334   3.096   3.485   4.336
 6812SOL    HW121335   3.194   3.468   4.350
 6812SOL    HW221336   3.047   3.465   4.420
 6813SOL     OW21337   5.575   3.473   2.855
 6813SOL    HW121338   5.575   3.423   2.769
 6813SOL    HW221339   5.517   3.554   2.847
 6814SOL     OW21340   4.621   1.375   6.568
 6814SOL    HW121341   4.656   1.467   6.586
 6814SOL    HW221342   4.692   1.321   6.522
 6815SOL     OW21343   1.717   5.289   6.423
 6815SOL    HW121344   1.745   5.361   6.359
 6815SOL    HW221345   1.799   5.247   6.463
 6816SOL     OW21346   6.774   1.753   4.121
 6816SOL    HW121347   6.678   1.782   4.123
 6816SOL    HW221348   6.830   1.817   4.174
 6817SOL     OW21349   2.434   2.686   4.236
 6817SOL    HW121350   2.417   2.594   4.199
 6817SOL    HW221351   2.415   2.687   4.334
 6818SOL     OW21352   2.019   6.501   6.192
 6818SOL    HW121353   2.060   6.423   6.240
 6818SOL    HW221354   2.070   6.584   6.214
 6819SOL     OW21355   4.576   6.603   2.345
 6819SOL    HW121356   4.544   6.512   2.372
 6819SOL    HW221357   4.536   6.628   2.257
 6820SOL     OW21358   1.546   6.201   1.034
 6820SOL    HW121359   1.469   6.138   1.031
 6820SOL    HW221360   1.631   6.150   1.040
 6821SOL     OW21361   4.701   2.578   5.779
 6821SOL    HW121362   4.770   2.641   5.816
 6821SOL    HW221363   4.682   2.507   5.846
 6822SOL     OW21364   6.738   2.410   6.663
 6822SOL    HW121365   6.722   2.504   6.694
 6822SOL    HW221366   6.835   2.389   6.669
 6823SOL     OW21367   5.495   4.254   6.507
 6823SOL    HW121368   5.432   4.221   6.577
 6823SOL    HW221369   5.569   4.305   6.550
 6824SOL     OW21370   1.093   1.772   6.684
 6824SOL    HW121371   1.110   1.730   6.773
 6824SOL    HW221372   1.019   1.724   6.638
 6825SOL     OW21373   6.674   6.011   0.616
 6825SOL    HW121374   6.723   5.958   0.546
 6825SOL    HW221375   6.740   6.053   0.678
 6826SOL     OW21376   0.782   3.345   3.627
 6826SOL    HW121377   0.739   3.308   3.544
 6826SOL    HW221378   0.736   3.309   3.707
 6827SOL     OW21379   4.508   4.987   5.983
 6827SOL    HW121380   4.474   4.894   5.964
 6827SOL    HW221381   4.575   5.012   5.913
 6828SOL     OW21382   3.634   1.500   2.411
 6828SOL    HW121383   3.545   1.512   2.367
 6828SOL    HW221384   3.653   1.580   2.469
 6829SOL     OW21385   5.348   0.237   5.402
 6829SOL    HW121386   5.369   0.183   5.320
 6829SOL    HW221387   5.270   0.297   5.383
 6830SOL     OW21388   6.271   1.314   3.419
 6830SOL    HW121389   6.306   1.326   3.511
 6830SOL    HW221390   6.347   1.308   3.354
 6831SOL     OW21391   0.916   1.291   5.838
 6831SOL    HW121392   0.818   1.303   5.857
 6831SOL    HW221393   0.932   1.299   5.740
 6832SOL     OW21394   2.762   3.249   0.117
 6832SOL    HW121395   2.839   3.194   0.084
 6832SOL    HW221396   2.764   3.251   0.217
 6833SOL     OW21397   3.479   5.293   5.827
 6833SOL    HW121398   3.472   5.213   5.886
 6833SOL    HW221399   3.538   5.272   5.750
 6834SOL     OW21400   4.759   0.103   0.893
 6834SOL    HW121401   4.740   0.107   0.795
 6834SOL    HW221402   4.813   0.022   0.913
 6835SOL     OW21403   4.080   1.634   4.835
 6835SOL    HW121404   4.125   1.618   4.923
 6835SOL    HW221405   4.148   1.667   4.769
 6836SOL     OW21406   1.839   4.205   6.626
 6836SOL    HW121407   1.741   4.223   6.633
 6836SOL    HW221408   1.859   4.168   6.535
 6837SOL     OW21409   1.446   0.961   2.787
 6837SOL    HW121410   1.412   0.891   2.724
 6837SOL    HW221411   1.375   1.030   2.801
 6838SOL     OW21412   2.592   4.325   5.305
 6838SOL    HW121413   2.654   4.247   5.310
 6838SOL    HW221414   2.633   4.402   5.354
 6839SOL     OW21415   5.666   2.569   3.904
 6839SOL    HW121416   5.719   2.496   3.861
 6839SOL    HW221417   5.571   2.541   3.913
 6840SOL     OW21418   2.354   6.347   5.203
 6840SOL    HW121419   2.323   6.254   5.221
 6840SOL    HW221420   2.438   6.365   5.254
 6841SOL     OW21421   4.088   4.859   1.622
 6841SOL    HW121422   4.109   4.955   1.640
 6841SOL    HW221423   3.999   4.852   1.577
 6842SOL     OW21424   1.495   2.335   6.399
 6842SOL    HW121425   1.445   2.314   6.484
 6842SOL    HW221426   1.568   2.269   6.386
 6843SOL     OW21427   4.842   0.925   1.631
 6843SOL    HW121428   4.854   0.878   1.719
 6843SOL    HW221429   4.764   0.987   1.637
 6844SOL     OW21430   5.214   5.950   4.040
 6844SOL    HW121431   5.187   5.910   3.953
 6844SOL    HW221432   5.197   5.885   4.113
 6845SOL     OW21433   4.804   3.984   2.243
 6845SOL    HW121434   4.827   3.917   2.313
 6845SOL    HW221435   4.803   3.939   2.153
 6846SOL     OW21436   4.020   3.212   1.366
 6846SOL    HW121437   4.013   3.175   1.459
 6846SOL    HW221438   4.114   3.202   1.334
 6847SOL     OW21439   5.426   3.965   2.194
 6847SOL    HW121440   5.376   3.890   2.152
 6847SOL    HW221441   5.382   4.052   2.170
 6848SOL     OW21442   1.689   5.548   3.444
 6848SOL    HW121443   1.697   5.511   3.351
 6848SOL    HW221444   1.651   5.640   3.440
 6849SOL     OW21445   3.593   5.706   3.867
 6849SOL    HW121446   3.588   5.607   3.882
 6849SOL    HW221447   3.677   5.742   3.907
 6850SOL     OW21448   5.461   2.715   3.047
 6850SOL    HW121449   5.518   2.741   3.125
 6850SOL    HW221450   5.512   2.729   2.962
 6851SOL     OW21451   1.801   4.417   4.826
 6851SOL    HW121452   1.864   4.478   4.875
 6851SOL    HW221453   1.830   4.322   4.838
 6852SOL     OW21454   1.173   4.429   1.064
 6852SOL    HW121455   1.240   4.486   1.015
 6852SOL    HW221456   1.156   4.345   1.011
 6853SOL     OW21457   6.295   3.929   0.106
 6853SOL    HW121458   6.388   3.955   0.079
 6853SOL    HW221459   6.286   3.830   0.104
 6854SOL     OW21460   5.873   0.761   5.956
 6854SOL    HW121461   5.854   0.769   6.054
 6854SOL    HW221462   5.808   0.697   5.915
 6855SOL     OW21463   3.538   6.367   2.583
 6855SOL    HW121464   3.441   6.361   2.604
 6855SOL    HW221465   3.576   6.450   2.626
 6856SOL     OW21466   4.869   4.513   5.369
 6856SOL    HW121467   4.878   4.444   5.440
 6856SOL    HW221468   4.913   4.480   5.285
 6857SOL     OW21469   3.092   1.294   6.632
 6857SOL    HW121470   3.018   1.257   6.688
 6857SOL    HW221471   3.129   1.376   6.676
 6858SOL     OW21472   3.998   3.281   5.043
 6858SOL    HW121473   4.041   3.247   5.127
 6858SOL    HW221474   4.009   3.213   4.971
 6859SOL     OW21475   1.376   6.227   0.757
 6859SOL    HW121476   1.320   6.309   0.751
 6859SOL    HW221477   1.462   6.241   0.708
 6860SOL     OW21478   5.725   4.481   2.033
 6860SOL    HW121479   5.679   4.400   1.996
 6860SOL    HW221480   5.709   4.559   1.973
 6861SOL     OW21481   6.004   4.406   1.407
 6861SOL    HW121482   6.054   4.324   1.379
 6861SOL    HW221483   6.041   4.485   1.359
 6862SOL     OW21484   2.408   4.549   4.765
 6862SOL    HW121485   2.415   4.480   4.837
 6862SOL    HW221486   2.438   4.638   4.800
 6863SOL     OW21487   5.674   1.259   4.362
 6863SOL    HW121488   5.652   1.279   4.267
 6863SOL    HW221489   5.773   1.264   4.375
 6864SOL     OW21490   3.460   5.934   3.795
 6864SOL    HW121491   3.417   5.915   3.707
 6864SOL    HW221492   3.481   5.847   3.841
 6865SOL     OW21493   6.020   5.203   3.409
 6865SOL    HW121494   5.923   5.225   3.405
 6865SOL    HW221495   6.067   5.243   3.331
 6866SOL     OW21496   5.984   4.322   1.851
 6866SOL    HW121497   5.991   4.420   1.872
 6866SOL    HW221498   5.895   4.303   1.810
 6867SOL     OW21499   1.105   4.472   1.327
 6867SOL    HW121500   1.083   4.401   1.393
 6867SOL    HW221501   1.145   4.430   1.245
 6868SOL     OW21502   1.885   5.394   4.903
 6868SOL    HW121503   1.787   5.375   4.914
 6868SOL    HW221504   1.907   5.398   4.805
 6869SOL     OW21505   5.715   2.648   5.455
 6869SOL    HW121506   5.769   2.708   5.397
 6869SOL    HW221507   5.713   2.556   5.415
 6870SOL     OW21508   6.474   3.862   2.644
 6870SOL    HW121509   6.526   3.803   2.582
 6870SOL    HW221510   6.496   3.837   2.739
 6871SOL     OW21511   6.065   4.991   1.816
 6871SOL    HW121512   5.970   4.972   1.791
 6871SOL    HW221513   6.125   4.950   1.748
 6872SOL     OW21514   1.804   3.235   0.953
 6872SOL    HW121515   1.849   3.324   0.953
 6872SOL    HW221516   1.805   3.198   0.860
 6873SOL     OW21517   5.785   3.354   5.667
 6873SOL    HW121518   5.884   3.345   5.656
 6873SOL    HW221519   5.751   3.428   5.608
 6874SOL     OW21520   0.248   4.468   3.452
 6874SOL    HW121521   0.284   4.560   3.434
 6874SOL    HW221522   0.243   4.454   3.551
 6875SOL     OW21523   1.714   2.514   3.357
 6875SOL    HW121524   1.699   2.571   3.276
 6875SOL    HW221525   1.787   2.449   3.339
 6876SOL     OW21526   3.947   4.916   6.513
 6876SOL    HW121527   3.962   4.924   6.414
 6876SOL    HW221528   4.029   4.882   6.557
 6877SOL     OW21529   2.233   4.290   6.714
 6877SOL    HW121530   2.181   4.235   6.779
 6877SOL    HW221531   2.180   4.302   6.630
 6878SOL     OW21532   2.172   2.409   5.112
 6878SOL    HW121533   2.238   2.483   5.098
 6878SOL    HW221534   2.132   2.417   5.203
 6879SOL     OW21535   0.983   1.778   0.246
 6879SOL    HW121536   1.051   1.846   0.217
 6879SOL    HW221537   0.912   1.771   0.176
 6880SOL     OW21538   2.065   3.649   4.892
 6880SOL    HW121539   1.999   3.678   4.823
 6880SOL    HW221540   2.108   3.563   4.864
 6881SOL     OW21541   6.580   4.335   2.065
 6881SOL    HW121542   6.528   4.369   2.143
 6881SOL    HW221543   6.566   4.237   2.055
 6882SOL     OW21544   2.244   0.476   5.805
 6882SOL    HW121545   2.175   0.464   5.733
 6882SOL    HW221546   2.306   0.551   5.780
 6883SOL     OW21547   3.495   1.392   1.229
 6883SOL    HW121548   3.580   1.354   1.267
 6883SOL    HW221549   3.509   1.414   1.133
 6884SOL     OW21550   1.894   3.526   4.581
 6884SOL    HW121551   1.973   3.489   4.630
 6884SOL    HW221552   1.895   3.626   4.588
 6885SOL     OW21553   3.740   5.424   4.012
 6885SOL    HW121554   3.690   5.391   4.092
 6885SOL    HW221555   3.839   5.423   4.031
 6886SOL     OW21556   0.062   1.246   2.601
 6886SOL    HW121557   0.009   1.169   2.637
 6886SOL    HW221558   0.007   1.296   2.534
 6887SOL     OW21559   4.779   6.772   5.646
 6887SOL    HW121560   4.833   6.776   5.562
 6887SOL    HW221561   4.825   6.712   5.712
 6888SOL     OW21562   5.767   6.323   6.467
 6888SOL    HW121563   5.686   6.380   6.455
 6888SOL    HW221564   5.849   6.380   6.461
 6889SOL     OW21565   0.598   2.633   5.862
 6889SOL    HW121566   0.562   2.684   5.940
 6889SOL    HW221567   0.525   2.578   5.823
 6890SOL     OW21568   2.913   6.056   0.994
 6890SOL    HW121569   2.830   6.112   0.988
 6890SOL    HW221570   2.966   6.084   1.074
 6891SOL     OW21571   2.147   3.937   4.826
 6891SOL    HW121572   2.139   3.853   4.879
 6891SOL    HW221573   2.201   4.004   4.878
 6892SOL     OW21574   3.648   0.756   3.647
 6892SOL    HW121575   3.696   0.842   3.629
 6892SOL    HW221576   3.552   0.776   3.669
 6893SOL     OW21577   5.843   6.020   1.464
 6893SOL    HW121578   5.810   5.959   1.536
 6893SOL    HW221579   5.801   6.110   1.475
 6894SOL     OW21580   6.431   5.661   6.907
 6894SOL    HW121581   6.518   5.668   6.859
 6894SOL    HW221582   6.441   5.698   6.999
 6895SOL     OW21583   2.752   5.364   0.072
 6895SOL    HW121584   2.731   5.270   0.047
 6895SOL    HW221585   2.851   5.379   0.066
 6896SOL     OW21586   3.179   0.050   3.988
 6896SOL    HW121587   3.179   0.022   3.892
 6896SOL    HW221588   3.224   0.138   3.997
 6897SOL     OW21589   2.658   4.063   6.660
 6897SOL    HW121590   2.685   4.110   6.576
 6897SOL    HW221591   2.608   4.126   6.719
 6898SOL     OW21592   3.670   1.729   2.106
 6898SOL    HW121593   3.705   1.795   2.172
 6898SOL    HW221594   3.736   1.717   2.031
 6899SOL     OW21595   4.741   7.012   0.407
 6899SOL    HW121596   4.666   0.018   0.350
 6899SOL    HW221597   4.705   6.977   0.493
 6900SOL     OW21598   6.153   0.623   6.090
 6900SOL    HW121599   6.206   0.602   6.172
 6900SOL    HW221600   6.077   0.558   6.082
 6901SOL     OW21601   0.723   0.335   6.055
 6901SOL    HW121602   0.793   0.320   6.125
 6901SOL    HW221603   0.765   0.323   5.964
 6902SOL     OW21604   0.420   5.744   0.833
 6902SOL    HW121605   0.404   5.767   0.738
 6902SOL    HW221606   0.444   5.827   0.884
 6903SOL     OW21607   4.245   4.667   5.641
 6903SOL    HW121608   4.297   4.737   5.691
 6903SOL    HW221609   4.236   4.585   5.698
 6904SOL     OW21610   6.395   1.538   3.786
 6904SOL    HW121611   6.380   1.505   3.880
 6904SOL    HW221612   6.479   1.592   3.783
 6905SOL     OW21613   6.331   6.572   7.013
 6905SOL    HW121614   6.275   6.500   0.027
 6905SOL    HW221615   6.408   6.531   6.963
 6906SOL     OW21616   4.127   1.352   3.784
 6906SOL    HW121617   4.192   1.310   3.720
 6906SOL    HW221618   4.163   1.344   3.877
 6907SOL     OW21619   4.570   1.090   0.926
 6907SOL    HW121620   4.532   1.006   0.964
 6907SOL    HW221621   4.630   1.134   0.993
 6908SOL     OW21622   1.370   6.766   5.124
 6908SOL    HW121623   1.447   6.816   5.165
 6908SOL    HW221624   1.293   6.766   5.188
 6909SOL     OW21625   5.331   4.678   1.179
 6909SOL    HW121626   5.366   4.659   1.271
 6909SOL    HW221627   5.380   4.621   1.113
 6910SOL     OW21628   6.594   2.452   3.206
 6910SOL    HW121629   6.526   2.393   3.250
 6910SOL    HW221630   6.585   2.545   3.242
 6911SOL     OW21631   3.388   6.954   3.009
 6911SOL    HW121632   3.430   6.913   3.089
 6911SOL    HW221633   3.369   0.024   3.026
 6912SOL     OW21634   4.726   4.761   1.414
 6912SOL    HW121635   4.633   4.742   1.383
 6912SOL    HW221636   4.786   4.687   1.383
 6913SOL     OW21637   4.941   4.881   5.554
 6913SOL    HW121638   4.978   4.880   5.647
 6913SOL    HW221639   4.980   4.958   5.504
 6914SOL     OW21640   6.416   4.562   0.074
 6914SOL    HW121641   6.345   4.580   0.142
 6914SOL    HW221642   6.388   4.601   7.013
 6915SOL     OW21643   6.659   4.833   1.843
 6915SOL    HW121644   6.698   4.801   1.757
 6915SOL    HW221645   6.713   4.796   1.919
 6916SOL     OW21646   5.871   3.916   0.058
 6916SOL    HW121647   5.813   3.997   0.070
 6916SOL    HW221648   5.928   3.904   0.140
 6917SOL     OW21649   3.373   4.845   0.577
 6917SOL    HW121650   3.450   4.878   0.632
 6917SOL    HW221651   3.363   4.746   0.589
 6918SOL     OW21652   0.985   4.308   4.438
 6918SOL    HW121653   0.923   4.318   4.515
 6918SOL    HW221654   0.955   4.231   4.381
 6919SOL     OW21655   0.676   5.605   3.405
 6919SOL    HW121656   0.733   5.605   3.323
 6919SOL    HW221657   0.582   5.580   3.379
 6920SOL     OW21658   4.153   5.608   5.830
 6920SOL    HW121659   4.239   5.657   5.823
 6920SOL    HW221660   4.078   5.673   5.844
 6921SOL     OW21661   4.715   5.922   3.054
 6921SOL    HW121662   4.648   5.989   3.023
 6921SOL    HW221663   4.747   5.946   3.146
 6922SOL     OW21664   1.881   5.786   6.891
 6922SOL    HW121665   1.830   5.858   6.938
 6922SOL    HW221666   1.918   5.821   6.806
 6923SOL     OW21667   5.370   7.025   3.256
 6923SOL    HW121668   5.452   7.008   3.202
 6923SOL    HW221669   5.312   0.064   3.209
 6924SOL     OW21670   0.446   4.399   6.818
 6924SOL    HW121671   0.355   4.362   6.838
 6924SOL    HW221672   0.446   4.439   6.727
 6925SOL     OW21673   3.621   6.114   4.661
 6925SOL    HW121674   3.601   6.203   4.701
 6925SOL    HW221675   3.558   6.096   4.585
 6926SOL     OW21676   3.092   3.224   2.381
 6926SOL    HW121677   3.013   3.286   2.385
 6926SOL    HW221678   3.105   3.180   2.470
 6927SOL     OW21679   5.941   3.654   5.920
 6927SOL    HW121680   6.008   3.679   5.990
 6927SOL    HW221681   5.983   3.658   5.830
 6928SOL     OW21682   6.249   6.599   1.054
 6928SOL    HW121683   6.244   6.535   0.977
 6928SOL    HW221684   6.344   6.619   1.076
 6929SOL     OW21685   4.985   5.457   0.564
 6929SOL    HW121686   4.926   5.537   0.577
 6929SOL    HW221687   5.078   5.479   0.593
 6930SOL     OW21688   0.093   6.914   1.706
 6930SOL    HW121689   0.051   6.854   1.775
 6930SOL    HW221690   0.171   6.867   1.665
 6931SOL     OW21691   1.068   0.681   1.888
 6931SOL    HW121692   1.049   0.721   1.978
 6931SOL    HW221693   1.086   0.755   1.823
 6932SOL     OW21694   3.974   1.458   0.720
 6932SOL    HW121695   3.953   1.550   0.687
 6932SOL    HW221696   3.889   1.407   0.733
 6933SOL     OW21697   3.878   6.232   4.952
 6933SOL    HW121698   3.913   6.143   4.924
 6933SOL    HW221699   3.899   6.247   5.049
 6934SOL     OW21700   4.727   4.367   5.938
 6934SOL    HW121701   4.656   4.374   6.008
 6934SOL    HW221702   4.698   4.301   5.868
 6935SOL     OW21703   4.415   6.092   3.190
 6935SOL    HW121704   4.384   6.173   3.239
 6935SOL    HW221705   4.491   6.117   3.130
 6936SOL     OW21706   6.793   2.708   2.511
 6936SOL    HW121707   6.837   2.707   2.420
 6936SOL    HW221708   6.695   2.694   2.500
 6937SOL     OW21709   6.200   6.341   0.102
 6937SOL    HW121710   6.100   6.344   0.102
 6937SOL    HW221711   6.230   6.246   0.103
 6938SOL     OW21712   5.172   3.707   5.532
 6938SOL    HW121713   5.222   3.728   5.616
 6938SOL    HW221714   5.222   3.638   5.480
 6939SOL     OW21715   0.078   4.749   1.992
 6939SOL    HW121716   0.055   4.772   2.087
 6939SOL    HW221717   0.174   4.771   1.974
 6940SOL     OW21718   5.077   1.230   0.497
 6940SOL    HW121719   4.991   1.230   0.447
 6940SOL    HW221720   5.140   1.296   0.457
 6941SOL     OW21721   3.879   2.983   2.906
 6941SOL    HW121722   3.892   2.979   3.005
 6941SOL    HW221723   3.926   3.062   2.869
 6942SOL     OW21724   6.430   3.154   0.650
 6942SOL    HW121725   6.492   3.195   0.717
 6942SOL    HW221726   6.363   3.222   0.621
 6943SOL     OW21727   4.519   6.448   0.190
 6943SOL    HW121728   4.587   6.420   0.122
 6943SOL    HW221729   4.433   6.400   0.172
 6944SOL     OW21730   1.426   4.698   5.681
 6944SOL    HW121731   1.348   4.635   5.673
 6944SOL    HW221732   1.498   4.655   5.735
 6945SOL     OW21733   6.082   2.851   6.349
 6945SOL    HW121734   6.041   2.837   6.259
 6945SOL    HW221735   6.167   2.799   6.356
 6946SOL     OW21736   6.396   5.954   2.274
 6946SOL    HW121737   6.385   6.050   2.301
 6946SOL    HW221738   6.376   5.944   2.177
 6947SOL     OW21739   3.276   0.023   4.927
 6947SOL    HW121740   3.288   0.117   4.959
 6947SOL    HW221741   3.350   6.993   4.962
 6948SOL     OW21742   5.930   0.538   0.499
 6948SOL    HW121743   5.850   0.517   0.444
 6948SOL    HW221744   5.929   0.635   0.525
 6949SOL     OW21745   5.445   0.104   4.273
 6949SOL    HW121746   5.538   0.073   4.293
 6949SOL    HW221747   5.447   0.203   4.255
 6950SOL     OW21748   2.727   0.150   3.542
 6950SOL    HW121749   2.798   0.161   3.472
 6950SOL    HW221750   2.687   0.058   3.535
 6951SOL     OW21751   5.950   6.221   6.061
 6951SOL    HW121752   6.035   6.223   6.009
 6951SOL    HW221753   5.905   6.133   6.048
 6952SOL     OW21754   6.882   5.975   3.538
 6952SOL    HW121755   6.868   5.938   3.446
 6952SOL    HW221756   6.872   6.074   3.536
 6953SOL     OW21757   5.303   0.134   6.828
 6953SOL    HW121758   5.280   0.183   6.913
 6953SOL    HW221759   5.231   0.151   6.760
 6954SOL     OW21760   0.773   3.261   4.340
 6954SOL    HW121761   0.724   3.219   4.264
 6954SOL    HW221762   0.839   3.328   4.305
 6955SOL     OW21763   0.007   0.398   2.952
 6955SOL    HW121764   6.955   0.415   2.893
 6955SOL    HW221765   0.091   0.424   2.904
 6956SOL     OW21766   4.678   6.842   2.398
 6956SOL    HW121767   4.636   6.874   2.483
 6956SOL    HW221768   4.638   6.755   2.371
 6957SOL     OW21769   5.874   4.981   1.597
 6957SOL    HW121770   5.912   5.061   1.550
 6957SOL    HW221771   5.784   4.959   1.559
 6958SOL     OW21772   3.117   4.092   5.088
 6958SOL    HW121773   3.156   4.178   5.121
 6958SOL    HW221774   3.133   4.083   4.990
 6959SOL     OW21775   2.709   0.918   4.844
 6959SOL    HW121776   2.715   0.821   4.819
 6959SOL    HW221777   2.648   0.965   4.781
 6960SOL     OW21778   1.218   5.115   1.124
 6960SOL    HW121779   1.279   5.043   1.090
 6960SOL    HW221780   1.143   5.128   1.060
 6961SOL     OW21781   6.949   2.526   4.192
 6961SOL    HW121782   7.006   2.531   4.274
 6961SOL    HW221783   6.895   2.441   4.194
 6962SOL     OW21784   4.872   5.392   2.476
 6962SOL    HW121785   4.779   5.405   2.509
 6962SOL    HW221786   4.934   5.451   2.528
 6963SOL     OW21787   6.891   5.418   0.809
 6963SOL    HW121788   6.928   5.349   0.872
 6963SOL    HW221789   6.965   5.469   0.767
 6964SOL     OW21790   4.517   4.768   4.032
 6964SOL    HW121791   4.453   4.726   4.096
 6964SOL    HW221792   4.610   4.737   4.052
 6965SOL     OW21793   0.746   3.738   5.942
 6965SOL    HW121794   0.689   3.790   6.006
 6965SOL    HW221795   0.709   3.745   5.850
 6966SOL     OW21796   6.439   2.253   3.275
 6966SOL    HW121797   6.426   2.159   3.243
 6966SOL    HW221798   6.351   2.294   3.297
 6967SOL     OW21799   1.855   1.005   5.457
 6967SOL    HW121800   1.887   0.912   5.473
 6967SOL    HW221801   1.815   1.011   5.365
 6968SOL     OW21802   3.258   6.810   2.458
 6968SOL    HW121803   3.244   6.822   2.556
 6968SOL    HW221804   3.317   6.732   2.442
 6969SOL     OW21805   3.477   1.983   1.614
 6969SOL    HW121806   3.435   2.038   1.687
 6969SOL    HW221807   3.420   1.903   1.595
 6970SOL     OW21808   4.660   3.729   0.495
 6970SOL    HW121809   4.601   3.809   0.505
 6970SOL    HW221810   4.603   3.646   0.490
 6971SOL     OW21811   6.528   4.060   2.036
 6971SOL    HW121812   6.594   3.991   2.064
 6971SOL    HW221813   6.437   4.034   2.069
 6972SOL     OW21814   5.269   5.543   4.348
 6972SOL    HW121815   5.343   5.518   4.411
 6972SOL    HW221816   5.197   5.474   4.354
 6973SOL     OW21817   0.802   4.017   5.253
 6973SOL    HW121818   0.835   3.924   5.240
 6973SOL    HW221819   0.725   4.034   5.191
 6974SOL     OW21820   3.489   3.289   2.945
 6974SOL    HW121821   3.587   3.274   2.935
 6974SOL    HW221822   3.439   3.220   2.892
 6975SOL     OW21823   2.722   6.898   6.270
 6975SOL    HW121824   2.713   6.890   6.171
 6975SOL    HW221825   2.818   6.885   6.295
 6976SOL     OW21826   4.350   5.012   5.636
 6976SOL    HW121827   4.448   4.990   5.638
 6976SOL    HW221828   4.307   4.966   5.558
 6977SOL     OW21829   4.633   2.549   2.013
 6977SOL    HW121830   4.665   2.454   2.017
 6977SOL    HW221831   4.535   2.550   1.993
 6978SOL     OW21832   6.056   2.185   1.414
 6978SOL    HW121833   6.120   2.172   1.339
 6978SOL    HW221834   6.095   2.248   1.481
 6979SOL     OW21835   1.427   5.451   0.815
 6979SOL    HW121836   1.454   5.377   0.877
 6979SOL    HW221837   1.496   5.523   0.818
 6980SOL     OW21838   2.150   1.063   3.575
 6980SOL    HW121839   2.170   1.055   3.477
 6980SOL    HW221840   2.224   1.022   3.627
 6981SOL     OW21841   2.343   3.275   6.894
 6981SOL    HW121842   2.379   3.213   6.826
 6981SOL    HW221843   2.266   3.327   6.855
 6982SOL     OW21844   0.872   1.403   3.894
 6982SOL    HW121845   0.951   1.358   3.935
 6982SOL    HW221846   0.804   1.422   3.965
 6983SOL     OW21847   5.497   2.201   3.734
 6983SOL    HW121848   5.559   2.131   3.771
 6983SOL    HW221849   5.414   2.204   3.791
 6984SOL     OW21850   2.094   2.344   4.306
 6984SOL    HW121851   2.115   2.263   4.360
 6984SOL    HW221852   2.178   2.381   4.267
 6985SOL     OW21853   3.781   5.528   2.090
 6985SOL    HW121854   3.826   5.527   2.179
 6985SOL    HW221855   3.701   5.588   2.095
 6986SOL     OW21856   2.112   6.263   6.284
 6986SOL    HW121857   2.184   6.260   6.215
 6986SOL    HW221858   2.146   6.225   6.370
 6987SOL     OW21859   0.428   1.685   6.034
 6987SOL    HW121860   0.479   1.603   6.011
 6987SOL    HW221861   0.338   1.660   6.070
 6988SOL     OW21862   6.275   0.707   5.446
 6988SOL    HW121863   6.227   0.760   5.516
 6988SOL    HW221864   6.233   0.617   5.437
 6989SOL     OW21865   0.113   3.749   3.476
 6989SOL    HW121866   0.196   3.783   3.521
 6989SOL    HW221867   0.110   3.784   3.382
 6990SOL     OW21868   5.320   2.073   0.875
 6990SOL    HW121869   5.245   2.011   0.855
 6990SOL    HW221870   5.332   2.136   0.798
 6991SOL     OW21871   2.442   4.405   4.085
 6991SOL    HW121872   2.452   4.461   4.003
 6991SOL    HW221873   2.425   4.310   4.059
 6992SOL     OW21874   5.631   6.414   5.326
 6992SOL    HW121875   5.725   6.402   5.295
 6992SOL    HW221876   5.594   6.499   5.289
 6993SOL     OW21877   0.201   0.594   2.400
 6993SOL    HW121878   0.200   0.625   2.496
 6993SOL    HW221879   0.165   0.667   2.342
 6994SOL     OW21880   0.821   2.998   4.824
 6994SOL    HW121881   0.881   2.924   4.793
 6994SOL    HW221882   0.831   3.009   4.923
 6995SOL     OW21883   6.572   5.313   5.976
 6995SOL    HW121884   6.628   5.292   6.057
 6995SOL    HW221885   6.550   5.410   5.975
 6996SOL     OW21886   1.897   1.222   5.029
 6996SOL    HW121887   1.983   1.273   5.017
 6996SOL    HW221888   1.858   1.203   4.939
 6997SOL     OW21889   5.690   5.607   5.286
 6997SOL    HW121890   5.779   5.652   5.277
 6997SOL    HW221891   5.658   5.580   5.195
 6998SOL     OW21892   1.945   2.156   1.648
 6998SOL    HW121893   1.852   2.153   1.610
 6998SOL    HW221894   1.965   2.070   1.695
 6999SOL     OW21895   2.327   2.378   6.260
 6999SOL    HW121896   2.394   2.344   6.326
 6999SOL    HW221897   2.312   2.310   6.189
 7000SOL     OW21898   6.221   5.418   2.898
 7000SOL    HW121899   6.154   5.347   2.918
 7000SOL    HW221900   6.313   5.379   2.900
 7001SOL     OW21901   2.794   3.118   5.219
 7001SOL    HW121902   2.696   3.099   5.207
 7001SOL    HW221903   2.808   3.216   5.227
 7002SOL     OW21904   2.027   4.895   2.779
 7002SOL    HW121905   2.018   4.988   2.815
 7002SOL    HW221906   2.074   4.838   2.847
 7003SOL     OW21907   3.666   5.825   6.911
 7003SOL    HW121908   3.691   5.834   6.815
 7003SOL    HW221909   3.746   5.843   6.968
 7004SOL     OW21910   2.200   4.874   1.375
 7004SOL    HW121911   2.106   4.876   1.410
 7004SOL    HW221912   2.264   4.892   1.450
 7005SOL     OW21913   1.264   6.356   6.263
 7005SOL    HW121914   1.301   6.283   6.206
 7005SOL    HW221915   1.315   6.361   6.349
 7006SOL     OW21916   5.094   4.923   4.999
 7006SOL    HW121917   5.168   4.989   5.017
 7006SOL    HW221918   5.043   4.906   5.083
 7007SOL     OW21919   4.740   6.792   3.431
 7007SOL    HW121920   4.835   6.770   3.451
 7007SOL    HW221921   4.682   6.766   3.508
 7008SOL     OW21922   1.657   5.377   4.589
 7008SOL    HW121923   1.700   5.293   4.554
 7008SOL    HW221924   1.621   5.361   4.681
 7009SOL     OW21925   5.815   5.427   2.597
 7009SOL    HW121926   5.869   5.374   2.532
 7009SOL    HW221927   5.837   5.399   2.690
 7010SOL     OW21928   4.064   3.774   5.741
 7010SOL    HW121929   3.996   3.837   5.778
 7010SOL    HW221930   4.141   3.826   5.704
 7011SOL     OW21931   2.134   0.529   6.655
 7011SOL    HW121932   2.214   0.560   6.706
 7011SOL    HW221933   2.104   0.601   6.593
 7012SOL     OW21934   1.933   0.952   2.315
 7012SOL    HW121935   1.962   0.978   2.407
 7012SOL    HW221936   2.009   0.908   2.266
 7013SOL     OW21937   0.383   6.658   0.870
 7013SOL    HW121938   0.419   6.751   0.867
 7013SOL    HW221939   0.442   6.598   0.817
 7014SOL     OW21940   4.956   3.112   1.565
 7014SOL    HW121941   4.972   3.106   1.467
 7014SOL    HW221942   4.871   3.163   1.582
 7015SOL     OW21943   5.456   4.948   2.541
 7015SOL    HW121944   5.420   5.040   2.527
 7015SOL    HW221945   5.535   4.933   2.481
 7016SOL     OW21946   3.613   4.953   1.711
 7016SOL    HW121947   3.689   4.916   1.657
 7016SOL    HW221948   3.576   4.882   1.770
 7017SOL     OW21949   1.852   6.754   2.166
 7017SOL    HW121950   1.904   6.831   2.202
 7017SOL    HW221951   1.760   6.784   2.141
 7018SOL     OW21952   6.118   4.563   5.074
 7018SOL    HW121953   6.210   4.601   5.058
 7018SOL    HW221954   6.091   4.579   5.169
 7019SOL     OW21955   3.071   4.004   6.489
 7019SOL    HW121956   3.096   3.920   6.442
 7019SOL    HW221957   3.040   3.983   6.582
 7020SOL     OW21958   6.123   6.760   6.553
 7020SOL    HW121959   6.129   6.688   6.622
 7020SOL    HW221960   6.185   6.834   6.576
 7021SOL     OW21961   2.085   1.405   5.265
 7021SOL    HW121962   2.105   1.385   5.170
 7021SOL    HW221963   2.013   1.474   5.271
 7022SOL     OW21964   4.432   5.158   1.077
 7022SOL    HW121965   4.342   5.195   1.056
 7022SOL    HW221966   4.471   5.207   1.155
 7023SOL     OW21967   0.506   2.138   3.659
 7023SOL    HW121968   0.570   2.061   3.664
 7023SOL    HW221969   0.534   2.208   3.724
 7024SOL     OW21970   1.292   4.999   5.678
 7024SOL    HW121971   1.230   4.930   5.715
 7024SOL    HW221972   1.365   5.016   5.744
 7025SOL     OW21973   2.338   1.069   6.992
 7025SOL    HW121974   2.355   1.105   0.057
 7025SOL    HW221975   2.419   1.086   6.935
 7026SOL     OW21976   2.697   1.927   1.970
 7026SOL    HW121977   2.718   1.899   2.064
 7026SOL    HW221978   2.650   1.853   1.923
 7027SOL     OW21979   2.591   4.627   3.547
 7027SOL    HW121980   2.600   4.586   3.638
 7027SOL    HW221981   2.499   4.664   3.536
 7028SOL     OW21982   5.833   6.570   4.308
 7028SOL    HW121983   5.809   6.561   4.212
 7028SOL    HW221984   5.897   6.646   4.320
 7029SOL     OW21985   4.171   6.413   6.457
 7029SOL    HW121986   4.100   6.343   6.445
 7029SOL    HW221987   4.255   6.383   6.411
 7030SOL     OW21988   6.312   2.497   5.833
 7030SOL    HW121989   6.351   2.547   5.910
 7030SOL    HW221990   6.233   2.547   5.797
 7031SOL     OW21991   2.409   6.451   4.525
 7031SOL    HW121992   2.366   6.370   4.564
 7031SOL    HW221993   2.446   6.429   4.435
 7032SOL     OW21994   3.667   6.803   3.798
 7032SOL    HW121995   3.571   6.831   3.804
 7032SOL    HW221996   3.679   6.739   3.722
 7033SOL     OW21997   0.255   2.011   3.882
 7033SOL    HW121998   0.333   2.062   3.918
 7033SOL    HW221999   0.170   2.054   3.912
 7034SOL     OW22000   6.204   0.623   3.132
 7034SOL    HW122001   6.283   0.602   3.074
 7034SOL    HW222002   6.153   0.698   3.092
 7035SOL     OW22003   1.227   6.573   1.997
 7035SOL    HW122004   1.280   6.508   1.944
 7035SOL    HW222005   1.137   6.586   1.954
 7036SOL     OW22006   6.990   0.824   1.989
 7036SOL    HW122007   0.032   0.834   1.917
 7036SOL    HW222008   7.016   0.880   2.068
 7037SOL     OW22009   1.298   0.824   6.295
 7037SOL    HW122010   1.344   0.743   6.332
 7037SOL    HW222011   1.199   0.809   6.295
 7038SOL     OW22012   1.567   3.350   4.159
 7038SOL    HW122013   1.554   3.413   4.083
 7038SOL    HW222014   1.613   3.267   4.126
 7039SOL     OW22015   2.818   5.257   1.595
 7039SOL    HW122016   2.806   5.326   1.524
 7039SOL    HW222017   2.864   5.177   1.557
 7040SOL     OW22018   5.924   1.743   4.960
 7040SOL    HW122019   5.888   1.739   5.053
 7040SOL    HW222020   5.854   1.778   4.898
 7041SOL     OW22021   0.497   2.013   2.855
 7041SOL    HW122022   0.418   2.058   2.897
 7041SOL    HW222023   0.581   2.047   2.897
 7042SOL     OW22024   5.789   5.397   6.856
 7042SOL    HW122025   5.785   5.313   6.911
 7042SOL    HW222026   5.798   5.476   6.916
 7043SOL     OW22027   2.163   3.019   3.380
 7043SOL    HW122028   2.222   2.942   3.405
 7043SOL    HW222029   2.164   3.087   3.453
 7044SOL     OW22030   4.747   5.064   2.555
 7044SOL    HW122031   4.707   5.155   2.569
 7044SOL    HW222032   4.736   5.037   2.460
 7045SOL     OW22033   5.075   5.750   2.287
 7045SOL    HW122034   5.020   5.718   2.211
 7045SOL    HW222035   5.058   5.693   2.367
 7046SOL     OW22036   3.563   2.155   3.200
 7046SOL    HW122037   3.651   2.154   3.248
 7046SOL    HW222038   3.489   2.143   3.266
 7047SOL     OW22039   0.793   2.437   2.352
 7047SOL    HW122040   0.780   2.470   2.446
 7047SOL    HW222041   0.845   2.352   2.354
 7048SOL     OW22042   0.032   5.632   1.986
 7048SOL    HW122043   7.023   5.541   2.008
 7048SOL    HW222044   6.984   5.695   1.972
 7049SOL     OW22045   2.168   1.706   1.087
 7049SOL    HW122046   2.172   1.804   1.108
 7049SOL    HW222047   2.098   1.690   1.018
 7050SOL     OW22048   4.079   3.796   2.904
 7050SOL    HW122049   4.019   3.855   2.957
 7050SOL    HW222050   4.096   3.838   2.815
 7051SOL     OW22051   7.010   1.081   0.794
 7051SOL    HW122052   0.010   1.036   0.709
 7051SOL    HW222053   6.922   1.044   0.826
 7052SOL     OW22054   6.377   2.794   4.167
 7052SOL    HW122055   6.452   2.853   4.196
 7052SOL    HW222056   6.373   2.793   4.067
 7053SOL     OW22057   0.718   3.607   4.707
 7053SOL    HW122058   0.781   3.543   4.662
 7053SOL    HW222059   0.751   3.625   4.800
 7054SOL     OW22060   0.708   6.005   0.991
 7054SOL    HW122061   0.737   6.001   1.086
 7054SOL    HW222062   0.775   6.059   0.938
 7055SOL     OW22063   3.678   5.828   5.211
 7055SOL    HW122064   3.743   5.858   5.141
 7055SOL    HW222065   3.592   5.802   5.166
 7056SOL     OW22066   5.867   6.101   2.617
 7056SOL    HW122067   5.909   6.075   2.530
 7056SOL    HW222068   5.854   6.020   2.673
 7057SOL     OW22069   1.179   5.790   3.717
 7057SOL    HW122070   1.137   5.771   3.806
 7057SOL    HW222071   1.112   5.777   3.645
 7058SOL     OW22072   6.737   5.881   6.581
 7058SOL    HW122073   6.659   5.819   6.574
 7058SOL    HW222074   6.705   5.972   6.606
 7059SOL     OW22075   6.943   0.930   3.329
 7059SOL    HW122076   6.935   1.027   3.303
 7059SOL    HW222077   6.925   0.873   3.249
 7060SOL     OW22078   4.151   0.179   1.566
 7060SOL    HW122079   4.154   0.256   1.501
 7060SOL    HW222080   4.057   0.148   1.575
 7061SOL     OW22081   0.279   3.229   3.808
 7061SOL    HW122082   0.258   3.176   3.891
 7061SOL    HW222083   0.378   3.237   3.798
 7062SOL     OW22084   5.622   1.364   5.893
 7062SOL    HW122085   5.701   1.392   5.948
 7062SOL    HW222086   5.539   1.371   5.949
 7063SOL     OW22087   0.342   0.347   1.204
 7063SOL    HW122088   0.268   0.282   1.220
 7063SOL    HW222089   0.306   0.440   1.206
 7064SOL     OW22090   4.367   1.886   2.259
 7064SOL    HW122091   4.367   1.906   2.161
 7064SOL    HW222092   4.295   1.822   2.280
 7065SOL     OW22093   4.331   2.864   6.231
 7065SOL    HW122094   4.255   2.918   6.196
 7065SOL    HW222095   4.365   2.803   6.160
 7066SOL     OW22096   4.253   0.456   0.686
 7066SOL    HW122097   4.318   0.386   0.716
 7066SOL    HW222098   4.300   0.543   0.673
 7067SOL     OW22099   1.637   1.403   5.698
 7067SOL    HW122100   1.717   1.343   5.690
 7067SOL    HW222101   1.642   1.453   5.784
 7068SOL     OW22102   0.617   4.449   4.439
 7068SOL    HW122103   0.634   4.547   4.429
 7068SOL    HW222104   0.670   4.414   4.516
 7069SOL     OW22105   6.185   2.137   4.084
 7069SOL    HW122106   6.140   2.064   4.134
 7069SOL    HW222107   6.194   2.111   3.987
 7070SOL     OW22108   0.049   6.862   4.769
 7070SOL    HW122109   0.110   6.832   4.695
 7070SOL    HW222110   7.019   6.785   4.799
 7071SOL     OW22111   1.711   6.630   5.862
 7071SOL    HW122112   1.715   6.609   5.764
 7071SOL    HW222113   1.755   6.718   5.879
 7072SOL     OW22114   0.803   6.239   6.184
 7072SOL    HW122115   0.875   6.246   6.254
 7072SOL    HW222116   0.841   6.201   6.100
 7073SOL     OW22117   5.380   6.715   4.720
 7073SOL    HW122118   5.439   6.650   4.768
 7073SOL    HW222119   5.424   6.742   4.634
 7074SOL     OW22120   4.250   2.273   1.203
 7074SOL    HW122121   4.242   2.211   1.280
 7074SOL    HW222122   4.319   2.344   1.223
 7075SOL     OW22123   1.735   5.543   5.499
 7075SOL    HW122124   1.766   5.588   5.416
 7075SOL    HW222125   1.697   5.453   5.477
 7076SOL     OW22126   4.689   2.560   6.579
 7076SOL    HW122127   4.621   2.562   6.652
 7076SOL    HW222128   4.761   2.494   6.603
 7077SOL     OW22129   2.161   4.323   4.974
 7077SOL    HW122130   2.165   4.401   5.038
 7077SOL    HW222131   2.241   4.265   4.989
 7078SOL     OW22132   6.369   0.864   1.595
 7078SOL    HW122133   6.410   0.773   1.594
 7078SOL    HW222134   6.270   0.857   1.607
 7079SOL     OW22135   6.429   6.411   5.379
 7079SOL    HW122136   6.384   6.464   5.451
 7079SOL    HW222137   6.363   6.389   5.307
 7080SOL     OW22138   3.430   2.129   4.621
 7080SOL    HW122139   3.448   2.227   4.617
 7080SOL    HW222140   3.354   2.106   4.560
 7081SOL     OW22141   2.741   1.601   6.814
 7081SOL    HW122142   2.803   1.543   6.761
 7081SOL    HW222143   2.668   1.545   6.853
 7082SOL     OW22144   6.299   4.290   6.819
 7082SOL    HW122145   6.226   4.225   6.837
 7082SOL    HW222146   6.387   4.243   6.820
 7083SOL     OW22147   3.093   0.935   0.133
 7083SOL    HW122148   3.026   0.870   0.169
 7083SOL    HW222149   3.160   0.956   0.204
 7084SOL     OW22150   0.358   6.720   5.755
 7084SOL    HW122151   0.453   6.708   5.787
 7084SOL    HW222152   0.359   6.755   5.661
 7085SOL     OW22153   1.394   1.439   2.187
 7085SOL    HW122154   1.443   1.376   2.247
 7085SOL    HW222155   1.459   1.484   2.126
 7086SOL     OW22156   5.053   0.998   5.484
 7086SOL    HW122157   5.069   0.937   5.407
 7086SOL    HW222158   4.963   0.981   5.523
 7087SOL     OW22159   5.700   4.118   3.911
 7087SOL    HW122160   5.712   4.218   3.913
 7087SOL    HW222161   5.701   4.087   3.816
 7088SOL     OW22162   5.720   2.717   3.666
 7088SOL    HW122163   5.667   2.710   3.750
 7088SOL    HW222164   5.705   2.635   3.610
 7089SOL     OW22165   3.613   2.238   5.219
 7089SOL    HW122166   3.628   2.327   5.262
 7089SOL    HW222167   3.663   2.168   5.269
 7090SOL     OW22168   2.241   1.560   6.384
 7090SOL    HW122169   2.292   1.484   6.345
 7090SOL    HW222170   2.153   1.527   6.418
 7091SOL     OW22171   6.985   1.655   0.010
 7091SOL    HW122172   7.002   1.645   0.108
 7091SOL    HW222173   0.011   1.587   6.986
 7092SOL     OW22174   4.076   2.648   6.340
 7092SOL    HW122175   4.065   2.739   6.299
 7092SOL    HW222176   4.124   2.588   6.276
 7093SOL     OW22177   2.874   3.558   3.102
 7093SOL    HW122178   2.893   3.505   3.018
 7093SOL    HW222179   2.875   3.655   3.081
 7094SOL     OW22180   1.182   5.422   5.571
 7094SOL    HW122181   1.190   5.468   5.482
 7094SOL    HW222182   1.147   5.329   5.557
 7095SOL     OW22183   3.416   3.954   5.891
 7095SOL    HW122184   3.490   3.911   5.838
 7095SOL    HW222185   3.332   3.953   5.838
 7096SOL     OW22186   6.143   0.630   4.026
 7096SOL    HW122187   6.109   0.537   4.033
 7096SOL    HW222188   6.200   0.638   3.944
 7097SOL     OW22189   5.948   1.371   1.282
 7097SOL    HW122190   6.012   1.355   1.357
 7097SOL    HW222191   5.939   1.469   1.266
 7098SOL     OW22192   0.864   0.332   4.278
 7098SOL    HW122193   0.885   0.372   4.189
 7098SOL    HW222194   0.783   0.378   4.317
 7099SOL     OW22195   2.826   0.929   5.169
 7099SOL    HW122196   2.868   0.914   5.080
 7099SOL    HW222197   2.879   0.997   5.220
 7100SOL     OW22198   5.707   3.074   0.679
 7100SOL    HW122199   5.665   3.146   0.735
 7100SOL    HW222200   5.656   3.063   0.594
 7101SOL     OW22201   1.960   0.925   4.764
 7101SOL    HW122202   2.059   0.920   4.773
 7101SOL    HW222203   1.925   0.837   4.734
 7102SOL     OW22204   4.360   0.528   1.057
 7102SOL    HW122205   4.392   0.524   0.962
 7102SOL    HW222206   4.380   0.441   1.102
 7103SOL     OW22207   4.471   4.707   1.319
 7103SOL    HW122208   4.446   4.777   1.252
 7103SOL    HW222209   4.398   4.698   1.387
 7104SOL     OW22210   1.231   3.171   4.852
 7104SOL    HW122211   1.132   3.168   4.866
 7104SOL    HW222212   1.264   3.264   4.868
 7105SOL     OW22213   3.169   2.849   5.283
 7105SOL    HW122214   3.220   2.763   5.293
 7105SOL    HW222215   3.208   2.902   5.208
 7106SOL     OW22216   2.935   3.817   2.960
 7106SOL    HW122217   2.943   3.915   2.943
 7106SOL    HW222218   2.968   3.766   2.881
 7107SOL     OW22219   2.615   1.982   0.704
 7107SOL    HW122220   2.602   2.001   0.801
 7107SOL    HW222221   2.538   1.928   0.670
 7108SOL     OW22222   3.585   6.565   2.732
 7108SOL    HW122223   3.520   6.611   2.673
 7108SOL    HW222224   3.557   6.576   2.828
 7109SOL     OW22225   3.358   0.297   6.493
 7109SOL    HW122226   3.332   0.359   6.419
 7109SOL    HW222227   3.458   0.295   6.500
 7110SOL     OW22228   3.660   6.103   3.860
 7110SOL    HW122229   3.584   6.046   3.830
 7110SOL    HW222230   3.744   6.074   3.815
 7111SOL     OW22231   2.129   2.118   4.442
 7111SOL    HW122232   2.052   2.065   4.406
 7111SOL    HW222233   2.204   2.056   4.464
 7112SOL     OW22234   2.003   5.809   4.066
 7112SOL    HW122235   2.085   5.799   4.122
 7112SOL    HW222236   1.976   5.720   4.031
 7113SOL     OW22237   3.429   4.204   4.737
 7113SOL    HW122238   3.525   4.199   4.707
 7113SOL    HW222239   3.389   4.290   4.707
 7114SOL     OW22240   3.889   6.562   1.475
 7114SOL    HW122241   3.847   6.653   1.474
 7114SOL    HW222242   3.883   6.523   1.566
 7115SOL     OW22243   5.287   3.471   2.166
 7115SOL    HW122244   5.252   3.381   2.192
 7115SOL    HW222245   5.259   3.538   2.234
 7116SOL     OW22246   5.453   3.899   3.455
 7116SOL    HW122247   5.361   3.899   3.493
 7116SOL    HW222248   5.493   3.808   3.462
 7117SOL     OW22249   0.013   6.416   4.866
 7117SOL    HW122250   0.067   6.388   4.946
 7117SOL    HW222251   0.072   6.419   4.786
 7118SOL     OW22252   2.512   4.038   1.076
 7118SOL    HW122253   2.509   4.114   1.011
 7118SOL    HW222254   2.513   4.074   1.169
 7119SOL     OW22255   4.936   1.321   3.064
 7119SOL    HW122256   4.905   1.407   3.103
 7119SOL    HW222257   4.952   1.333   2.966
 7120SOL     OW22258   4.178   2.008   2.453
 7120SOL    HW122259   4.180   2.013   2.553
 7120SOL    HW222260   4.225   1.926   2.422
 7121SOL     OW22261   1.951   6.932   2.565
 7121SOL    HW122262   1.886   6.920   2.490
 7121SOL    HW222263   1.947   6.853   2.626
 7122SOL     OW22264   0.883   0.541   5.597
 7122SOL    HW122265   0.964   0.599   5.589
 7122SOL    HW222266   0.818   0.582   5.661
 7123SOL     OW22267   2.409   4.799   2.699
 7123SOL    HW122268   2.321   4.753   2.711
 7123SOL    HW222269   2.418   4.872   2.767
 7124SOL     OW22270   6.905   2.347   0.350
 7124SOL    HW122271   6.937   2.442   0.351
 7124SOL    HW222272   6.806   2.346   0.337
 7125SOL     OW22273   6.292   6.644   0.734
 7125SOL    HW122274   6.215   6.681   0.785
 7125SOL    HW222275   6.260   6.611   0.645
 7126SOL     OW22276   3.400   4.311   6.961
 7126SOL    HW122277   3.497   4.325   6.981
 7126SOL    HW222278   3.366   4.390   6.909
 7127SOL     OW22279   1.710   6.228   4.592
 7127SOL    HW122280   1.725   6.258   4.498
 7127SOL    HW222281   1.768   6.149   4.612
 7128SOL     OW22282   2.819   4.594   0.433
 7128SOL    HW122283   2.782   4.663   0.494
 7128SOL    HW222284   2.909   4.565   0.465
 7129SOL     OW22285   2.139   1.504   0.499
 7129SOL    HW122286   2.152   1.573   0.429
 7129SOL    HW222287   2.058   1.450   0.479
 7130SOL     OW22288   3.732   4.871   5.219
 7130SOL    HW122289   3.676   4.901   5.142
 7130SOL    HW222290   3.799   4.804   5.187
 7131SOL     OW22291   2.424   1.395   0.515
 7131SOL    HW122292   2.471   1.469   0.562
 7131SOL    HW222293   2.327   1.396   0.540
 7132SOL     OW22294   3.555   3.546   6.801
 7132SOL    HW122295   3.649   3.567   6.773
 7132SOL    HW222296   3.499   3.628   6.795
 7133SOL     OW22297   5.302   5.827   4.789
 7133SOL    HW122298   5.293   5.730   4.767
 7133SOL    HW222299   5.354   5.837   4.874
 7134SOL     OW22300   5.972   6.813   1.818
 7134SOL    HW122301   5.893   6.765   1.781
 7134SOL    HW222302   5.954   6.840   1.913
 7135SOL     OW22303   1.033   3.223   2.562
 7135SOL    HW122304   1.050   3.295   2.495
 7135SOL    HW222305   1.095   3.146   2.546
 7136SOL     OW22306   1.580   2.453   1.203
 7136SOL    HW122307   1.551   2.517   1.273
 7136SOL    HW222308   1.522   2.463   1.122
 7137SOL     OW22309   4.408   0.486   6.548
 7137SOL    HW122310   4.402   0.583   6.527
 7137SOL    HW222311   4.497   0.466   6.589
 7138SOL     OW22312   1.414   2.665   0.154
 7138SOL    HW122313   1.394   2.568   0.141
 7138SOL    HW222314   1.459   2.678   0.242
 7139SOL     OW22315   4.985   3.640   2.176
 7139SOL    HW122316   5.075   3.680   2.190
 7139SOL    HW222317   4.919   3.683   2.238
 7140SOL     OW22318   5.646   4.274   4.425
 7140SOL    HW122319   5.705   4.340   4.378
 7140SOL    HW222320   5.703   4.211   4.478
 7141SOL     OW22321   3.066   5.909   1.636
 7141SOL    HW122322   3.143   5.973   1.639
 7141SOL    HW222323   3.099   5.816   1.651
 7142SOL     OW22324   4.394   0.056   3.667
 7142SOL    HW122325   4.324   0.018   3.727
 7142SOL    HW222326   4.484   0.041   3.707
 7143SOL     OW22327   1.711   3.294   6.311
 7143SOL    HW122328   1.632   3.265   6.365
 7143SOL    HW222329   1.780   3.334   6.371
 7144SOL     OW22330   1.573   1.751   3.347
 7144SOL    HW122331   1.671   1.739   3.361
 7144SOL    HW222332   1.551   1.737   3.250
 7145SOL     OW22333   4.021   0.077   6.782
 7145SOL    HW122334   4.025   0.166   6.828
 7145SOL    HW222335   4.043   0.005   6.847
 7146SOL     OW22336   2.157   0.903   0.579
 7146SOL    HW122337   2.163   0.997   0.545
 7146SOL    HW222338   2.163   0.903   0.679
 7147SOL     OW22339   6.442   6.675   3.176
 7147SOL    HW122340   6.457   6.635   3.085
 7147SOL    HW222341   6.465   6.607   3.246
 7148SOL     OW22342   0.564   6.931   0.042
 7148SOL    HW122343   0.632   6.926   6.995
 7148SOL    HW222344   0.501   7.005   0.024
 7149SOL     OW22345   6.459   6.609   2.914
 7149SOL    HW122346   6.385   6.544   2.898
 7149SOL    HW222347   6.547   6.562   2.906
 7150SOL     OW22348   3.411   1.681   2.143
 7150SOL    HW122349   3.511   1.682   2.137
 7150SOL    HW222350   3.382   1.600   2.194
 7151SOL     OW22351   1.537   6.369   0.383
 7151SOL    HW122352   1.446   6.407   0.402
 7151SOL    HW222353   1.555   6.293   0.446
 7152SOL     OW22354   1.032   1.463   5.029
 7152SOL    HW122355   1.006   1.433   4.938
 7152SOL    HW222356   0.994   1.400   5.097
 7153SOL     OW22357   3.244   5.634   2.353
 7153SOL    HW122358   3.250   5.537   2.378
 7153SOL    HW222359   3.317   5.657   2.289
 7154SOL     OW22360   3.641   0.934   3.925
 7154SOL    HW122361   3.680   0.916   3.834
 7154SOL    HW222362   3.635   0.848   3.975
 7155SOL     OW22363   2.235   4.095   1.660
 7155SOL    HW122364   2.207   4.032   1.734
 7155SOL    HW222365   2.320   4.140   1.686
 7156SOL     OW22366   0.416   4.258   4.516
 7156SOL    HW122367   0.494   4.320   4.512
 7156SOL    HW222368   0.434   4.185   4.582
 7157SOL     OW22369   6.258   4.430   1.581
 7157SOL    HW122370   6.163   4.403   1.571
 7157SOL    HW222371   6.312   4.392   1.506
 7158SOL     OW22372   1.162   0.171   2.904
 7158SOL    HW122373   1.141   0.077   2.932
 7158SOL    HW222374   1.241   0.204   2.955
 7159SOL     OW22375   0.678   4.449   2.710
 7159SOL    HW122376   0.591   4.427   2.667
 7159SOL    HW222377   0.696   4.384   2.784
 7160SOL     OW22378   5.334   0.478   3.172
 7160SOL    HW122379   5.417   0.428   3.196
 7160SOL    HW222380   5.341   0.572   3.203
 7161SOL     OW22381   2.951   3.494   5.071
 7161SOL    HW122382   2.898   3.551   5.133
 7161SOL    HW222383   3.016   3.439   5.124
 7162SOL     OW22384   2.297   5.754   5.905
 7162SOL    HW122385   2.292   5.807   5.820
 7162SOL    HW222386   2.393   5.745   5.932
 7163SOL     OW22387   2.912   6.510   2.852
 7163SOL    HW122388   2.917   6.532   2.949
 7163SOL    HW222389   2.829   6.458   2.833
 7164SOL     OW22390   1.963   1.003   4.227
 7164SOL    HW122391   1.864   0.992   4.216
 7164SOL    HW222392   2.010   0.967   4.146
 7165SOL     OW22393   6.721   1.485   1.561
 7165SOL    HW122394   6.707   1.390   1.533
 7165SOL    HW222395   6.787   1.528   1.500
 7166SOL     OW22396   5.868   2.965   0.349
 7166SOL    HW122397   5.830   2.880   0.385
 7166SOL    HW222398   5.886   3.028   0.425
 7167SOL     OW22399   4.988   3.686   4.409
 7167SOL    HW122400   5.028   3.625   4.340
 7167SOL    HW222401   4.953   3.631   4.484
 7168SOL     OW22402   1.853   2.766   3.670
 7168SOL    HW122403   1.773   2.771   3.731
 7168SOL    HW222404   1.828   2.799   3.579
 7169SOL     OW22405   0.085   3.486   5.039
 7169SOL    HW122406   0.051   3.453   5.127
 7169SOL    HW222407   0.131   3.574   5.053
 7170SOL     OW22408   5.276   5.774   3.167
 7170SOL    HW122409   5.312   5.867   3.173
 7170SOL    HW222410   5.260   5.751   3.071
 7171SOL     OW22411   5.300   4.239   6.717
 7171SOL    HW122412   5.217   4.210   6.764
 7171SOL    HW222413   5.379   4.224   6.776
 7172SOL     OW22414   1.504   1.024   5.154
 7172SOL    HW122415   1.573   1.086   5.193
 7172SOL    HW222416   1.448   0.986   5.227
 7173SOL     OW22417   6.868   4.553   6.167
 7173SOL    HW122418   6.896   4.595   6.253
 7173SOL    HW222419   6.941   4.562   6.099
 7174SOL     OW22420   1.150   4.485   0.733
 7174SOL    HW122421   1.160   4.440   0.644
 7174SOL    HW222422   1.240   4.500   0.773
 7175SOL     OW22423   5.253   3.049   6.628
 7175SOL    HW122424   5.154   3.061   6.628
 7175SOL    HW222425   5.296   3.121   6.574
 7176SOL     OW22426   1.006   5.832   2.871
 7176SOL    HW122427   1.050   5.743   2.881
 7176SOL    HW222428   1.053   5.885   2.800
 7177SOL     OW22429   2.204   6.485   4.058
 7177SOL    HW122430   2.251   6.504   4.144
 7177SOL    HW222431   2.192   6.387   4.048
 7178SOL     OW22432   2.112   3.028   5.587
 7178SOL    HW122433   2.065   3.073   5.511
 7178SOL    HW222434   2.048   2.969   5.635
 7179SOL     OW22435   1.578   3.951   4.365
 7179SOL    HW122436   1.526   4.030   4.334
 7179SOL    HW222437   1.524   3.868   4.348
 7180SOL     OW22438   1.190   4.442   6.251
 7180SOL    HW122439   1.288   4.453   6.269
 7180SOL    HW222440   1.166   4.345   6.253
 7181SOL     OW22441   2.105   6.191   0.587
 7181SOL    HW122442   2.157   6.110   0.612
 7181SOL    HW222443   2.042   6.169   0.512
 7182SOL     OW22444   1.359   2.584   5.576
 7182SOL    HW122445   1.310   2.552   5.658
 7182SOL    HW222446   1.293   2.615   5.508
 7183SOL     OW22447   2.170   6.121   0.154
 7183SOL    HW122448   2.221   6.035   0.154
 7183SOL    HW222449   2.231   6.196   0.130
 7184SOL     OW22450   0.292   0.922   2.910
 7184SOL    HW122451   0.324   0.828   2.894
 7184SOL    HW222452   0.330   0.982   2.839
 7185SOL     OW22453   5.745   0.384   5.346
 7185SOL    HW122454   5.664   0.359   5.293
 7185SOL    HW222455   5.820   0.323   5.321
 7186SOL     OW22456   6.274   6.973   6.696
 7186SOL    HW122457   6.251   0.044   6.694
 7186SOL    HW222458   6.228   6.930   6.774
 7187SOL     OW22459   3.179   3.862   7.000
 7187SOL    HW122460   3.082   3.868   7.025
 7187SOL    HW222461   3.235   3.860   0.057
 7188SOL     OW22462   6.005   6.728   0.762
 7188SOL    HW122463   5.959   6.646   0.795
 7188SOL    HW222464   5.966   6.756   0.674
 7189SOL     OW22465   7.025   0.876   5.835
 7189SOL    HW122466   7.013   0.919   5.745
 7189SOL    HW222467   6.968   0.923   5.902
 7190SOL     OW22468   6.756   3.896   3.010
 7190SOL    HW122469   6.814   3.974   2.984
 7190SOL    HW222470   6.682   3.928   3.069
 7191SOL     OW22471   0.204   4.217   3.356
 7191SOL    HW122472   0.151   4.168   3.425
 7191SOL    HW222473   0.215   4.313   3.384
 7192SOL     OW22474   3.970   4.954   5.567
 7192SOL    HW122475   3.990   4.858   5.586
 7192SOL    HW222476   3.932   4.997   5.649
 7193SOL     OW22477   2.165   2.398   2.507
 7193SOL    HW122478   2.069   2.370   2.507
 7193SOL    HW222479   2.223   2.322   2.478
 7194SOL     OW22480   2.803   2.126   0.584
 7194SOL    HW122481   2.733   2.073   0.632
 7194SOL    HW222482   2.759   2.197   0.528
 7195SOL     OW22483   0.382   4.876   0.164
 7195SOL    HW122484   0.300   4.876   0.222
 7195SOL    HW222485   0.464   4.878   0.221
 7196SOL     OW22486   3.102   4.277   1.438
 7196SOL    HW122487   3.038   4.279   1.515
 7196SOL    HW222488   3.195   4.287   1.471
 7197SOL     OW22489   6.781   1.950   5.846
 7197SOL    HW122490   6.707   1.949   5.778
 7197SOL    HW222491   6.764   1.878   5.914
 7198SOL     OW22492   0.569   0.921   6.412
 7198SOL    HW122493   0.541   1.015   6.392
 7198SOL    HW222494   0.655   0.902   6.364
 7199SOL     OW22495   2.049   0.327   2.361
 7199SOL    HW122496   1.995   0.294   2.438
 7199SOL    HW222497   2.109   0.401   2.391
 7200SOL     OW22498   2.483   2.277   0.527
 7200SOL    HW122499   2.419   2.247   0.597
 7200SOL    HW222500   2.547   2.343   0.566
 7201SOL     OW22501   1.271   5.778   4.085
 7201SOL    HW122502   1.344   5.821   4.033
 7201SOL    HW222503   1.301   5.688   4.117
 7202SOL     OW22504   4.526   0.647   5.849
 7202SOL    HW122505   4.554   0.703   5.771
 7202SOL    HW222506   4.431   0.666   5.871
 7203SOL     OW22507   6.985   2.205   1.054
 7203SOL    HW122508   6.973   2.232   0.959
 7203SOL    HW222509   0.052   2.228   1.083
 7204SOL     OW22510   0.026   6.881   5.439
 7204SOL    HW122511   6.975   6.909   5.383
 7204SOL    HW222512   0.024   6.782   5.451
 7205SOL     OW22513   0.593   5.620   3.056
 7205SOL    HW122514   0.687   5.601   3.081
 7205SOL    HW222515   0.532   5.594   3.130
 7206SOL     OW22516   1.858   0.340   0.703
 7206SOL    HW122517   1.896   0.343   0.611
 7206SOL    HW222518   1.920   0.386   0.766
 7207SOL     OW22519   3.525   0.227   2.219
 7207SOL    HW122520   3.621   0.244   2.196
 7207SOL    HW222521   3.476   0.197   2.137
 7208SOL     OW22522   4.115   6.703   3.916
 7208SOL    HW122523   4.017   6.722   3.925
 7208SOL    HW222524   4.159   6.714   4.005
 7209SOL     OW22525   3.192   3.833   2.278
 7209SOL    HW122526   3.131   3.883   2.340
 7209SOL    HW222527   3.172   3.735   2.285
 7210SOL     OW22528   4.421   0.543   4.283
 7210SOL    HW122529   4.346   0.480   4.262
 7210SOL    HW222530   4.383   0.634   4.303
 7211SOL     OW22531   2.442   5.629   4.177
 7211SOL    HW122532   2.485   5.555   4.127
 7211SOL    HW222533   2.499   5.656   4.254
 7212SOL     OW22534   0.842   6.483   4.282
 7212SOL    HW122535   0.871   6.465   4.376
 7212SOL    HW222536   0.788   6.406   4.248
 7213SOL     OW22537   5.892   0.338   6.483
 7213SOL    HW122538   5.930   0.348   6.391
 7213SOL    HW222539   5.849   0.248   6.492
 7214SOL     OW22540   0.686   6.000   4.991
 7214SOL    HW122541   0.755   6.032   5.055
 7214SOL    HW222542   0.595   6.014   5.031
 7215SOL     OW22543   0.303   3.147   4.962
 7215SOL    HW122544   0.341   3.183   4.877
 7215SOL    HW222545   0.277   3.051   4.950
 7216SOL     OW22546   2.589   6.128   0.192
 7216SOL    HW122547   2.631   6.121   0.283
 7216SOL    HW222548   2.632   6.202   0.142
 7217SOL     OW22549   2.147   4.382   2.529
 7217SOL    HW122550   2.065   4.335   2.498
 7217SOL    HW222551   2.167   4.458   2.466
 7218SOL     OW22552   5.029   2.341   5.530
 7218SOL    HW122553   4.931   2.362   5.533
 7218SOL    HW222554   5.064   2.356   5.437
 7219SOL     OW22555   4.380   6.476   4.514
 7219SOL    HW122556   4.385   6.384   4.553
 7219SOL    HW222557   4.404   6.543   4.584
 7220SOL     OW22558   0.763   6.196   4.441
 7220SOL    HW122559   0.705   6.214   4.521
 7220SOL    HW222560   0.788   6.099   4.439
 7221SOL     OW22561   4.716   4.998   4.513
 7221SOL    HW122562   4.620   4.983   4.487
 7221SOL    HW222563   4.719   5.050   4.599
 7222SOL     OW22564   6.361   0.548   2.290
 7222SOL    HW122565   6.391   0.579   2.381
 7222SOL    HW222566   6.418   0.472   2.260
 7223SOL     OW22567   2.694   2.172   1.366
 7223SOL    HW122568   2.610   2.120   1.353
 7223SOL    HW222569   2.691   2.220   1.454
 7224SOL     OW22570   5.595   2.168   4.576
 7224SOL    HW122571   5.500   2.197   4.583
 7224SOL    HW222572   5.598   2.071   4.550
 7225SOL     OW22573   1.232   5.923   6.232
 7225SOL    HW122574   1.318   5.904   6.183
 7225SOL    HW222575   1.251   5.982   6.311
 7226SOL     OW22576   0.343   0.581   0.484
 7226SOL    HW122577   0.252   0.558   0.518
 7226SOL    HW222578   0.401   0.608   0.560
 7227SOL     OW22579   1.061   2.346   0.975
 7227SOL    HW122580   1.089   2.352   1.071
 7227SOL    HW222581   0.965   2.318   0.970
 7228SOL     OW22582   0.461   0.714   2.045
 7228SOL    HW122583   0.452   0.638   2.110
 7228SOL    HW222584   0.448   0.679   1.952
 7229SOL     OW22585   1.052   0.088   4.984
 7229SOL    HW122586   1.108   0.069   4.903
 7229SOL    HW222587   1.083   0.173   5.027
 7230SOL     OW22588   5.061   5.345   4.433
 7230SOL    HW122589   4.976   5.372   4.388
 7230SOL    HW222590   5.049   5.255   4.475
 7231SOL     OW22591   4.552   6.892   0.081
 7231SOL    HW122592   4.505   6.812   0.117
 7231SOL    HW222593   4.607   6.934   0.153
 7232SOL     OW22594   4.934   5.462   3.107
 7232SOL    HW122595   4.990   5.526   3.055
 7232SOL    HW222596   4.921   5.378   3.054
 7233SOL     OW22597   0.119   2.183   4.347
 7233SOL    HW122598   0.062   2.135   4.413
 7233SOL    HW222599   0.070   2.191   4.260
 7234SOL     OW22600   5.379   3.229   3.702
 7234SOL    HW122601   5.431   3.292   3.761
 7234SOL    HW222602   5.394   3.135   3.733
 7235SOL     OW22603   6.531   3.996   3.149
 7235SOL    HW122604   6.575   4.030   3.233
 7235SOL    HW222605   6.438   4.033   3.143
 7236SOL     OW22606   3.278   1.267   2.671
 7236SOL    HW122607   3.378   1.266   2.662
 7236SOL    HW222608   3.237   1.252   2.581
 7237SOL     OW22609   6.082   6.315   5.117
 7237SOL    HW122610   6.026   6.359   5.187
 7237SOL    HW222611   6.073   6.216   5.124
 7238SOL     OW22612   2.617   2.043   0.982
 7238SOL    HW122613   2.620   2.008   1.076
 7238SOL    HW222614   2.631   2.142   0.983
 7239SOL     OW22615   2.409   1.449   3.054
 7239SOL    HW122616   2.488   1.435   3.113
 7239SOL    HW222617   2.440   1.477   2.963
 7240SOL     OW22618   2.517   4.181   6.122
 7240SOL    HW122619   2.448   4.137   6.064
 7240SOL    HW222620   2.500   4.157   6.218
 7241SOL     OW22621   3.026   0.632   7.020
 7241SOL    HW122622   3.108   0.585   0.025
 7241SOL    HW222623   2.972   0.662   0.072
 7242SOL     OW22624   6.767   5.918   0.380
 7242SOL    HW122625   6.795   5.999   0.328
 7242SOL    HW222626   6.698   5.867   0.328
 7243SOL     OW22627   0.114   4.683   6.236
 7243SOL    HW122628   0.129   4.759   6.173
 7243SOL    HW222629   0.090   4.719   6.327
 7244SOL     OW22630   5.459   0.631   0.886
 7244SOL    HW122631   5.463   0.533   0.902
 7244SOL    HW222632   5.402   0.650   0.806
 7245SOL     OW22633   0.143   1.970   5.301
 7245SOL    HW122634   0.206   1.936   5.370
 7245SOL    HW222635   0.173   1.942   5.210
 7246SOL     OW22636   5.926   6.900   4.861
 7246SOL    HW122637   5.920   6.801   4.860
 7246SOL    HW222638   5.970   6.930   4.946
 7247SOL     OW22639   3.402   6.789   3.602
 7247SOL    HW122640   3.458   6.864   3.565
 7247SOL    HW222641   3.334   6.762   3.534
 7248SOL     OW22642   3.849   0.785   3.126
 7248SOL    HW122643   3.869   0.692   3.096
 7248SOL    HW222644   3.931   0.826   3.166
 7249SOL     OW22645   5.479   4.944   1.691
 7249SOL    HW122646   5.391   4.940   1.738
 7249SOL    HW222647   5.546   4.989   1.750
 7250SOL     OW22648   4.075   5.617   6.277
 7250SOL    HW122649   4.034   5.701   6.241
 7250SOL    HW222650   4.047   5.604   6.372
 7251SOL     OW22651   0.275   6.496   5.579
 7251SOL    HW122652   0.322   6.531   5.498
 7251SOL    HW222653   0.264   6.569   5.645
 7252SOL     OW22654   3.691   3.130   3.490
 7252SOL    HW122655   3.602   3.099   3.524
 7252SOL    HW222656   3.762   3.065   3.518
 7253SOL     OW22657   2.113   6.762   0.087
 7253SOL    HW122658   2.195   6.735   0.138
 7253SOL    HW222659   2.053   6.683   0.076
 7254SOL     OW22660   4.519   5.448   4.837
 7254SOL    HW122661   4.582   5.451   4.759
 7254SOL    HW222662   4.462   5.530   4.837
 7255SOL     OW22663   3.542   3.848   1.028
 7255SOL    HW122664   3.537   3.830   0.930
 7255SOL    HW222665   3.605   3.783   1.071
 7256SOL     OW22666   4.840   4.779   4.345
 7256SOL    HW122667   4.894   4.847   4.293
 7256SOL    HW222668   4.789   4.826   4.417
 7257SOL     OW22669   4.720   2.786   3.869
 7257SOL    HW122670   4.687   2.731   3.946
 7257SOL    HW222671   4.750   2.875   3.903
 7258SOL     OW22672   4.230   1.514   3.236
 7258SOL    HW122673   4.247   1.444   3.166
 7258SOL    HW222674   4.165   1.479   3.303
 7259SOL     OW22675   3.669   3.864   1.542
 7259SOL    HW122676   3.688   3.845   1.638
 7259SOL    HW222677   3.653   3.778   1.494
 7260SOL     OW22678   3.254   2.044   2.805
 7260SOL    HW122679   3.331   2.085   2.854
 7260SOL    HW222680   3.289   1.986   2.732
 7261SOL     OW22681   2.440   3.035   0.901
 7261SOL    HW122682   2.425   2.999   0.993
 7261SOL    HW222683   2.392   2.978   0.834
 7262SOL     OW22684   5.258   2.007   3.899
 7262SOL    HW122685   5.184   1.947   3.928
 7262SOL    HW222686   5.228   2.102   3.904
 7263SOL     OW22687   0.033   5.802   2.432
 7263SOL    HW122688   0.016   5.864   2.356
 7263SOL    HW222689   0.029   5.852   2.518
 7264SOL     OW22690   6.187   1.259   6.910
 7264SOL    HW122691   6.281   1.241   6.936
 7264SOL    HW222692   6.174   1.237   6.813
 7265SOL     OW22693   5.865   5.674   5.909
 7265SOL    HW122694   5.799   5.674   5.985
 7265SOL    HW222695   5.898   5.581   5.894
 7266SOL     OW22696   3.843   1.021   0.834
 7266SOL    HW122697   3.787   0.949   0.875
 7266SOL    HW222698   3.871   1.085   0.906
 7267SOL     OW22699   6.952   5.130   5.733
 7267SOL    HW122700   6.891   5.203   5.762
 7267SOL    HW222701   6.958   5.130   5.633
 7268SOL     OW22702   4.292   4.972   3.309
 7268SOL    HW122703   4.282   5.027   3.226
 7268SOL    HW222704   4.389   4.952   3.324
 7269SOL     OW22705   6.681   6.327   1.186
 7269SOL    HW122706   6.709   6.237   1.220
 7269SOL    HW222707   6.661   6.387   1.264
 7270SOL     OW22708   1.283   2.837   3.834
 7270SOL    HW122709   1.346   2.771   3.794
 7270SOL    HW222710   1.246   2.800   3.919
 7271SOL     OW22711   0.222   4.722   4.347
 7271SOL    HW122712   0.194   4.775   4.427
 7271SOL    HW222713   0.153   4.733   4.274
 7272SOL     OW22714   5.698   4.345   2.287
 7272SOL    HW122715   5.605   4.308   2.288
 7272SOL    HW222716   5.711   4.401   2.205
 7273SOL     OW22717   5.412   4.451   2.174
 7273SOL    HW122718   5.421   4.381   2.245
 7273SOL    HW222719   5.321   4.444   2.132
 7274SOL     OW22720   0.633   6.689   5.884
 7274SOL    HW122721   0.576   6.683   5.967
 7274SOL    HW222722   0.724   6.653   5.904
 7275SOL     OW22723   6.709   1.094   2.121
 7275SOL    HW122724   6.757   1.007   2.133
 7275SOL    HW222725   6.622   1.078   2.073
 7276SOL     OW22726   3.477   1.477   3.751
 7276SOL    HW122727   3.447   1.408   3.816
 7276SOL    HW222728   3.477   1.567   3.795
 7277SOL     OW22729   5.520   1.304   4.834
 7277SOL    HW122730   5.502   1.371   4.907
 7277SOL    HW222731   5.525   1.212   4.873
 7278SOL     OW22732   3.193   2.162   3.129
 7278SOL    HW122733   3.107   2.214   3.134
 7278SOL    HW222734   3.251   2.201   3.058
 7279SOL     OW22735   4.197   3.348   6.560
 7279SOL    HW122736   4.246   3.399   6.488
 7279SOL    HW222737   4.245   3.262   6.578
 7280SOL     OW22738   6.252   2.595   4.963
 7280SOL    HW122739   6.265   2.598   4.863
 7280SOL    HW222740   6.227   2.686   4.996
 7281SOL     OW22741   2.594   0.187   0.142
 7281SOL    HW122742   2.569   0.277   0.106
 7281SOL    HW222743   2.625   0.128   0.068
 7282SOL     OW22744   6.529   6.560   0.852
 7282SOL    HW122745   6.455   6.612   0.810
 7282SOL    HW222746   6.493   6.474   0.888
 7283SOL     OW22747   2.340   6.732   2.014
 7283SOL    HW122748   2.309   6.721   1.920
 7283SOL    HW222749   2.435   6.702   2.021
 7284SOL     OW22750   6.922   3.036   4.268
 7284SOL    HW122751   6.925   2.937   4.256
 7284SOL    HW222752   6.972   3.081   4.194
 7285SOL     OW22753   5.348   3.717   1.796
 7285SOL    HW122754   5.444   3.694   1.815
 7285SOL    HW222755   5.289   3.645   1.831
 7286SOL     OW22756   1.052   1.148   0.491
 7286SOL    HW122757   0.982   1.204   0.536
 7286SOL    HW222758   1.061   1.061   0.539
 7287SOL     OW22759   6.674   3.363   4.617
 7287SOL    HW122760   6.719   3.397   4.535
 7287SOL    HW222761   6.731   3.292   4.659
 7288SOL     OW22762   1.465   2.833   2.253
 7288SOL    HW122763   1.560   2.832   2.284
 7288SOL    HW222764   1.407   2.790   2.323
 7289SOL     OW22765   6.619   2.569   2.247
 7289SOL    HW122766   6.589   2.475   2.265
 7289SOL    HW222767   6.539   2.630   2.247
 7290SOL     OW22768   3.007   1.109   5.284
 7290SOL    HW122769   3.104   1.132   5.289
 7290SOL    HW222770   2.970   1.103   5.376
 7291SOL     OW22771   3.305   6.766   0.734
 7291SOL    HW122772   3.370   6.704   0.779
 7291SOL    HW222773   3.230   6.712   0.695
 7292SOL     OW22774   2.048   6.937   3.151
 7292SOL    HW122775   2.142   6.969   3.139
 7292SOL    HW222776   1.986   7.016   3.157
 7293SOL     OW22777   1.831   1.013   5.877
 7293SOL    HW122778   1.907   0.950   5.897
 7293SOL    HW222779   1.744   0.969   5.899
 7294SOL     OW22780   2.907   4.656   0.961
 7294SOL    HW122781   2.817   4.631   0.924
 7294SOL    HW222782   2.901   4.744   1.007
 7295SOL     OW22783   6.926   4.170   1.542
 7295SOL    HW122784   6.981   4.199   1.464
 7295SOL    HW222785   6.886   4.250   1.588
 7296SOL     OW22786   4.296   5.157   2.861
 7296SOL    HW122787   4.283   5.255   2.877
 7296SOL    HW222788   4.331   5.143   2.769
 7297SOL     OW22789   2.443   6.990   2.663
 7297SOL    HW122790   2.363   6.981   2.604
 7297SOL    HW222791   2.436   0.049   2.715
 7298SOL     OW22792   5.551   5.438   0.129
 7298SOL    HW122793   5.515   5.517   0.177
 7298SOL    HW222794   5.482   5.401   0.067
 7299SOL     OW22795   0.600   1.588   1.038
 7299SOL    HW122796   0.631   1.655   0.971
 7299SOL    HW222797   0.676   1.562   1.098
 7300SOL     OW22798   1.045   5.111   1.785
 7300SOL    HW122799   0.996   5.024   1.793
 7300SOL    HW222800   1.131   5.105   1.835
 7301SOL     OW22801   0.175   1.108   5.520
 7301SOL    HW122802   0.080   1.081   5.533
 7301SOL    HW222803   0.194   1.115   5.422
 7302SOL     OW22804   6.548   1.757   4.794
 7302SOL    HW122805   6.615   1.812   4.844
 7302SOL    HW222806   6.499   1.699   4.859
 7303SOL     OW22807   3.243   0.940   6.913
 7303SOL    HW122808   3.300   0.861   6.895
 7303SOL    HW222809   3.203   0.932   7.005
 7304SOL     OW22810   2.072   5.471   1.813
 7304SOL    HW122811   2.011   5.544   1.780
 7304SOL    HW222812   2.031   5.426   1.893
 7305SOL     OW22813   5.612   2.396   1.455
 7305SOL    HW122814   5.689   2.458   1.445
 7305SOL    HW222815   5.632   2.330   1.528
 7306SOL     OW22816   3.838   1.699   1.895
 7306SOL    HW122817   3.800   1.758   1.824
 7306SOL    HW222818   3.815   1.604   1.876
 7307SOL     OW22819   4.039   6.662   2.133
 7307SOL    HW122820   4.006   6.750   2.100
 7307SOL    HW222821   4.118   6.676   2.193
 7308SOL     OW22822   0.070   1.506   3.252
 7308SOL    HW122823   0.089   1.486   3.156
 7308SOL    HW222824   0.156   1.513   3.302
 7309SOL     OW22825   2.131   5.958   2.138
 7309SOL    HW122826   2.064   5.885   2.124
 7309SOL    HW222827   2.098   6.042   2.095
 7310SOL     OW22828   1.551   3.515   5.794
 7310SOL    HW122829   1.518   3.582   5.860
 7310SOL    HW222830   1.605   3.562   5.723
 7311SOL     OW22831   0.865   0.285   0.188
 7311SOL    HW122832   0.783   0.330   0.153
 7311SOL    HW222833   0.873   0.194   0.149
 7312SOL     OW22834   0.735   1.349   4.856
 7312SOL    HW122835   0.820   1.340   4.804
 7312SOL    HW222836   0.659   1.368   4.794
 7313SOL     OW22837   2.498   1.494   0.827
 7313SOL    HW122838   2.577   1.443   0.795
 7313SOL    HW222839   2.499   1.586   0.787
 7314SOL     OW22840   6.816   3.363   6.571
 7314SOL    HW122841   6.781   3.440   6.625
 7314SOL    HW222842   6.767   3.359   6.484
 7315SOL     OW22843   5.891   5.351   2.193
 7315SOL    HW122844   5.946   5.336   2.276
 7315SOL    HW222845   5.804   5.302   2.202
 7316SOL     OW22846   3.282   2.115   6.568
 7316SOL    HW122847   3.184   2.130   6.562
 7316SOL    HW222848   3.300   2.022   6.601
 7317SOL     OW22849   3.913   1.420   2.322
 7317SOL    HW122850   3.975   1.405   2.399
 7317SOL    HW222851   3.822   1.442   2.357
 7318SOL     OW22852   3.160   6.511   2.327
 7318SOL    HW122853   3.217   6.591   2.306
 7318SOL    HW222854   3.218   6.432   2.346
 7319SOL     OW22855   6.198   3.489   6.482
 7319SOL    HW122856   6.123   3.447   6.431
 7319SOL    HW222857   6.211   3.584   6.451
 7320SOL     OW22858   0.292   3.537   0.600
 7320SOL    HW122859   0.329   3.595   0.672
 7320SOL    HW222860   0.270   3.447   0.638
 7321SOL     OW22861   1.779   6.622   6.130
 7321SOL    HW122862   1.866   6.589   6.168
 7321SOL    HW222863   1.783   6.619   6.030
 7322SOL     OW22864   0.249   3.099   3.042
 7322SOL    HW122865   0.282   3.043   2.965
 7322SOL    HW222866   0.212   3.185   3.007
 7323SOL     OW22867   2.527   1.816   1.149
 7323SOL    HW122868   2.528   1.791   1.052
 7323SOL    HW222869   2.433   1.821   1.180
 7324SOL     OW22870   5.995   4.219   2.617
 7324SOL    HW122871   5.969   4.201   2.522
 7324SOL    HW222872   5.934   4.168   2.678
 7325SOL     OW22873   2.531   0.249   5.593
 7325SOL    HW122874   2.438   0.241   5.555
 7325SOL    HW222875   2.581   0.321   5.544
 7326SOL     OW22876   4.269   0.706   6.396
 7326SOL    HW122877   4.320   0.734   6.478
 7326SOL    HW222878   4.318   0.735   6.314
 7327SOL     OW22879   5.517   3.496   4.130
 7327SOL    HW122880   5.527   3.516   4.227
 7327SOL    HW222881   5.586   3.428   4.103
 7328SOL     OW22882   4.326   6.421   6.186
 7328SOL    HW122883   4.289   6.334   6.155
 7328SOL    HW222884   4.410   6.406   6.239
 7329SOL     OW22885   0.936   2.683   6.907
 7329SOL    HW122886   0.867   2.734   6.855
 7329SOL    HW222887   0.961   2.601   6.855
 7330SOL     OW22888   3.269   2.925   1.327
 7330SOL    HW122889   3.234   2.834   1.306
 7330SOL    HW222890   3.193   2.985   1.352
 7331SOL     OW22891   4.993   6.825   2.105
 7331SOL    HW122892   4.972   6.901   2.167
 7331SOL    HW222893   5.035   6.861   2.022
 7332SOL     OW22894   3.933   4.271   0.018
 7332SOL    HW122895   3.884   4.239   6.964
 7332SOL    HW222896   3.958   4.193   0.075
 7333SOL     OW22897   6.123   3.179   3.074
 7333SOL    HW122898   6.035   3.204   3.113
 7333SOL    HW222899   6.153   3.093   3.113
 7334SOL     OW22900   2.983   5.515   5.912
 7334SOL    HW122901   2.962   5.436   5.855
 7334SOL    HW222902   3.081   5.515   5.933
 7335SOL     OW22903   0.446   3.285   2.809
 7335SOL    HW122904   0.457   3.186   2.819
 7335SOL    HW222905   0.480   3.331   2.890
 7336SOL     OW22906   2.212   6.477   1.044
 7336SOL    HW122907   2.308   6.501   1.033
 7336SOL    HW222908   2.202   6.411   1.118
 7337SOL     OW22909   2.878   2.841   1.238
 7337SOL    HW122910   2.908   2.774   1.306
 7337SOL    HW222911   2.785   2.871   1.259
 7338SOL     OW22912   6.220   2.101   1.874
 7338SOL    HW122913   6.290   2.156   1.830
 7338SOL    HW222914   6.223   2.008   1.836
 7339SOL     OW22915   7.005   6.452   5.768
 7339SOL    HW122916   0.044   6.527   5.764
 7339SOL    HW222917   7.005   6.402   5.681
 7340SOL     OW22918   4.350   1.531   6.910
 7340SOL    HW122919   4.308   1.572   6.829
 7340SOL    HW222920   4.297   1.556   6.991
 7341SOL     OW22921   1.304   5.179   4.815
 7341SOL    HW122922   1.300   5.243   4.892
 7341SOL    HW222923   1.259   5.220   4.735
 7342SOL     OW22924   6.173   0.151   0.404
 7342SOL    HW122925   6.168   0.094   0.486
 7342SOL    HW222926   6.174   0.247   0.430
 7343SOL     OW22927   5.567   2.975   2.581
 7343SOL    HW122928   5.585   2.940   2.672
 7343SOL    HW222929   5.525   2.904   2.525
 7344SOL     OW22930   1.645   0.015   6.589
 7344SOL    HW122931   1.691   6.959   6.621
 7344SOL    HW222932   1.674   0.093   6.643
 7345SOL     OW22933   4.551   5.474   5.663
 7345SOL    HW122934   4.458   5.467   5.627
 7345SOL    HW222935   4.590   5.382   5.671
 7346SOL     OW22936   3.875   3.956   0.817
 7346SOL    HW122937   3.878   4.025   0.889
 7346SOL    HW222938   3.811   3.884   0.844
 7347SOL     OW22939   6.551   2.409   2.003
 7347SOL    HW122940   6.632   2.453   1.964
 7347SOL    HW222941   6.479   2.477   2.016
 7348SOL     OW22942   1.601   3.577   3.708
 7348SOL    HW122943   1.547   3.580   3.624
 7348SOL    HW222944   1.669   3.504   3.702
 7349SOL     OW22945   3.741   1.850   1.676
 7349SOL    HW122946   3.655   1.898   1.654
 7349SOL    HW222947   3.811   1.875   1.609
 7350SOL     OW22948   0.919   3.117   4.009
 7350SOL    HW122949   0.940   3.020   4.023
 7350SOL    HW222950   0.834   3.139   4.056
 7351SOL     OW22951   4.375   5.073   6.411
 7351SOL    HW122952   4.458   5.055   6.464
 7351SOL    HW222953   4.339   4.987   6.374
 7352SOL     OW22954   1.658   2.522   3.652
 7352SOL    HW122955   1.663   2.505   3.751
 7352SOL    HW222956   1.739   2.484   3.608
 7353SOL     OW22957   0.903   0.951   5.400
 7353SOL    HW122958   0.993   0.936   5.360
 7353SOL    HW222959   0.838   0.887   5.360
 7354SOL     OW22960   0.501   0.821   6.645
 7354SOL    HW122961   0.526   0.725   6.662
 7354SOL    HW222962   0.546   0.853   6.562
 7355SOL     OW22963   1.833   6.510   6.929
 7355SOL    HW122964   1.825   6.434   6.864
 7355SOL    HW222965   1.889   6.482   7.007
 7356SOL     OW22966   5.103   2.392   6.464
 7356SOL    HW122967   5.161   2.452   6.518
 7356SOL    HW222968   5.135   2.390   6.369
 7357SOL     OW22969   4.516   0.864   1.078
 7357SOL    HW122970   4.612   0.839   1.095
 7357SOL    HW222971   4.463   0.848   1.161
 7358SOL     OW22972   2.030   1.940   2.351
 7358SOL    HW122973   2.072   1.904   2.268
 7358SOL    HW222974   2.099   1.988   2.405
 7359SOL     OW22975   3.727   2.103   1.294
 7359SOL    HW122976   3.786   2.076   1.370
 7359SOL    HW222977   3.682   2.190   1.316
 7360SOL     OW22978   2.827   1.929   5.402
 7360SOL    HW122979   2.784   2.019   5.413
 7360SOL    HW222980   2.924   1.936   5.425
 7361SOL     OW22981   4.713   6.216   1.853
 7361SOL    HW122982   4.653   6.261   1.787
 7361SOL    HW222983   4.793   6.273   1.869
 7362SOL     OW22984   0.424   6.685   4.803
 7362SOL    HW122985   0.439   6.708   4.707
 7362SOL    HW222986   0.374   6.759   4.849
 7363SOL     OW22987   4.236   1.784   0.803
 7363SOL    HW122988   4.250   1.748   0.711
 7363SOL    HW222989   4.162   1.734   0.848
 7364SOL     OW22990   3.795   0.057   0.957
 7364SOL    HW122991   3.708   0.088   0.918
 7364SOL    HW222992   3.777   7.023   1.034
 7365SOL     OW22993   1.659   5.816   2.183
 7365SOL    HW122994   1.562   5.825   2.204
 7365SOL    HW222995   1.702   5.907   2.182
 7366SOL     OW22996   1.612   5.618   0.458
 7366SOL    HW122997   1.559   5.622   0.374
 7366SOL    HW222998   1.659   5.705   0.472
 7367SOL     OW22999   4.146   3.611   1.458
 7367SOL    HW123000   4.067   3.593   1.516
 7367SOL    HW223001   4.116   3.654   1.372
 7368SOL     OW23002   3.371   2.957   3.804
 7368SOL    HW123003   3.291   2.981   3.858
 7368SOL    HW223004   3.424   2.886   3.852
 7369SOL     OW23005   5.137   3.290   0.926
 7369SOL    HW123006   5.226   3.254   0.953
 7369SOL    HW223007   5.065   3.229   0.958
 7370SOL     OW23008   2.150   0.905   5.630
 7370SOL    HW123009   2.165   0.916   5.532
 7370SOL    HW223010   2.155   0.994   5.676
 7371SOL     OW23011   2.753   5.614   3.919
 7371SOL    HW123012   2.793   5.703   3.900
 7371SOL    HW223013   2.725   5.571   3.833
 7372SOL     OW23014   2.583   0.772   5.557
 7372SOL    HW123015   2.589   0.826   5.473
 7372SOL    HW223016   2.626   0.822   5.632
 7373SOL     OW23017   4.839   1.323   3.641
 7373SOL    HW123018   4.854   1.382   3.562
 7373SOL    HW223019   4.796   1.238   3.612
 7374SOL     OW23020   2.768   2.655   5.415
 7374SOL    HW123021   2.800   2.745   5.386
 7374SOL    HW223022   2.685   2.632   5.365
 7375SOL     OW23023   2.005   2.025   3.398
 7375SOL    HW123024   1.912   1.994   3.418
 7375SOL    HW223025   2.003   2.121   3.369
 7376SOL     OW23026   3.965   1.905   0.339
 7376SOL    HW123027   3.961   1.813   0.380
 7376SOL    HW223028   4.052   1.948   0.365
 7377SOL     OW23029   4.890   6.005   1.815
 7377SOL    HW123030   4.859   5.919   1.855
 7377SOL    HW223031   4.812   6.068   1.808
 7378SOL     OW23032   0.187   2.390   4.503
 7378SOL    HW123033   0.169   2.328   4.427
 7378SOL    HW223034   0.172   2.484   4.473
 7379SOL     OW23035   4.363   2.013   3.233
 7379SOL    HW123036   4.287   2.073   3.207
 7379SOL    HW223037   4.337   1.961   3.315
 7380SOL     OW23038   7.023   3.478   5.300
 7380SOL    HW123039   7.020   3.555   5.363
 7380SOL    HW223040   6.930   3.452   5.274
 7381SOL     OW23041   5.017   3.484   2.483
 7381SOL    HW123042   4.992   3.444   2.395
 7381SOL    HW223043   5.070   3.418   2.536
 7382SOL     OW23044   0.291   5.348   5.639
 7382SOL    HW123045   0.349   5.308   5.568
 7382SOL    HW223046   0.202   5.374   5.599
 7383SOL     OW23047   0.274   6.848   2.589
 7383SOL    HW123048   0.238   6.824   2.679
 7383SOL    HW223049   0.215   6.811   2.517
 7384SOL     OW23050   4.471   0.583   2.021
 7384SOL    HW123051   4.373   0.564   2.022
 7384SOL    HW223052   4.492   0.655   2.087
 7385SOL     OW23053   3.600   6.521   2.015
 7385SOL    HW123054   3.690   6.538   2.054
 7385SOL    HW223055   3.600   6.433   1.968
 7386SOL     OW23056   0.337   2.706   5.130
 7386SOL    HW123057   0.386   2.638   5.184
 7386SOL    HW223058   0.402   2.759   5.075
 7387SOL     OW23059   4.324   6.995   4.668
 7387SOL    HW123060   4.298   6.942   4.749
 7387SOL    HW223061   4.243   7.020   4.616
 7388SOL     OW23062   6.606   5.651   3.628
 7388SOL    HW123063   6.684   5.603   3.588
 7388SOL    HW223064   6.581   5.608   3.715
 7389SOL     OW23065   1.014   4.981   6.545
 7389SOL    HW123066   0.972   4.891   6.532
 7389SOL    HW223067   0.944   5.046   6.576
 7390SOL     OW23068   1.729   1.479   6.402
 7390SOL    HW123069   1.639   1.502   6.366
 7390SOL    HW223070   1.763   1.397   6.356
 7391SOL     OW23071   4.902   4.530   4.893
 7391SOL    HW123072   4.970   4.458   4.912
 7391SOL    HW223073   4.934   4.586   4.817
 7392SOL     OW23074   2.864   6.086   6.450
 7392SOL    HW123075   2.881   5.992   6.420
 7392SOL    HW223076   2.782   6.121   6.406
 7393SOL     OW23077   5.908   5.459   1.643
 7393SOL    HW123078   5.938   5.553   1.635
 7393SOL    HW223079   5.902   5.418   1.552
 7394SOL     OW23080   3.139   2.765   6.251
 7394SOL    HW123081   3.211   2.802   6.192
 7394SOL    HW223082   3.051   2.770   6.203
 7395SOL     OW23083   1.596   1.100   6.918
 7395SOL    HW123084   1.598   1.078   7.016
 7395SOL    HW223085   1.628   1.193   6.904
 7396SOL     OW23086   1.184   0.675   0.169
 7396SOL    HW123087   1.217   0.699   0.077
 7396SOL    HW223088   1.166   0.759   0.221
 7397SOL     OW23089   5.096   5.217   4.788
 7397SOL    HW123090   5.171   5.187   4.847
 7397SOL    HW223091   5.079   5.147   4.719
 7398SOL     OW23092   2.961   4.861   4.157
 7398SOL    HW123093   2.872   4.901   4.137
 7398SOL    HW223094   3.004   4.829   4.072
 7399SOL     OW23095   0.496   3.339   5.306
 7399SOL    HW123096   0.515   3.321   5.402
 7399SOL    HW223097   0.407   3.383   5.297
 7400SOL     OW23098   3.244   3.714   6.531
 7400SOL    HW123099   3.209   3.757   6.448
 7400SOL    HW223100   3.338   3.684   6.516
 7401SOL     OW23101   0.598   1.041   3.510
 7401SOL    HW123102   0.567   1.067   3.601
 7401SOL    HW223103   0.556   1.101   3.442
 7402SOL     OW23104   1.838   5.729   4.653
 7402SOL    HW123105   1.859   5.713   4.749
 7402SOL    HW223106   1.842   5.827   4.634
 7403SOL     OW23107   1.783   3.649   3.080
 7403SOL    HW123108   1.826   3.574   3.131
 7403SOL    HW223109   1.693   3.620   3.049
 7404SOL     OW23110   2.152   6.138   1.431
 7404SOL    HW123111   2.237   6.124   1.379
 7404SOL    HW223112   2.097   6.209   1.386
 7405SOL     OW23113   1.636   5.038   4.615
 7405SOL    HW123114   1.733   5.041   4.639
 7405SOL    HW223115   1.625   5.062   4.518
 7406SOL     OW23116   1.663   3.695   2.420
 7406SOL    HW123117   1.593   3.687   2.348
 7406SOL    HW223118   1.630   3.757   2.491
 7407SOL     OW23119   0.036   5.985   4.886
 7407SOL    HW123120   0.130   5.984   4.919
 7407SOL    HW223121   0.032   6.019   4.793
 7408SOL     OW23122   0.857   4.042   5.757
 7408SOL    HW123123   0.910   3.989   5.691
 7408SOL    HW223124   0.879   4.139   5.749
 7409SOL     OW23125   0.232   0.602   4.619
 7409SOL    HW123126   0.154   0.577   4.562
 7409SOL    HW223127   0.304   0.640   4.561
 7410SOL     OW23128   6.931   4.526   0.932
 7410SOL    HW123129   6.932   4.592   1.007
 7410SOL    HW223130   6.882   4.564   0.854
 7411SOL     OW23131   3.198   6.509   4.275
 7411SOL    HW123132   3.139   6.567   4.219
 7411SOL    HW223133   3.235   6.435   4.219
 7412SOL     OW23134   4.072   1.079   1.851
 7412SOL    HW123135   3.989   1.037   1.816
 7412SOL    HW223136   4.152   1.030   1.815
 7413SOL     OW23137   6.282   5.554   4.339
 7413SOL    HW123138   6.255   5.625   4.404
 7413SOL    HW223139   6.220   5.476   4.346
 7414SOL     OW23140   0.159   0.168   3.258
 7414SOL    HW123141   0.068   0.131   3.275
 7414SOL    HW223142   0.154   0.268   3.252
 7415SOL     OW23143   0.810   4.096   3.420
 7415SOL    HW123144   0.788   4.087   3.517
 7415SOL    HW223145   0.746   4.160   3.377
 7416SOL     OW23146   2.808   0.572   4.251
 7416SOL    HW123147   2.796   0.507   4.176
 7416SOL    HW223148   2.905   0.575   4.277
 7417SOL     OW23149   1.655   0.337   6.422
 7417SOL    HW123150   1.559   0.323   6.397
 7417SOL    HW223151   1.670   0.302   6.515
 7418SOL     OW23152   4.084   5.072   1.188
 7418SOL    HW123153   4.071   4.979   1.153
 7418SOL    HW223154   4.123   5.129   1.116
 7419SOL     OW23155   6.408   2.411   4.433
 7419SOL    HW123156   6.393   2.501   4.472
 7419SOL    HW223157   6.412   2.418   4.333
 7420SOL     OW23158   6.391   6.672   2.214
 7420SOL    HW123159   6.425   6.592   2.164
 7420SOL    HW223160   6.299   6.652   2.250
 7421SOL     OW23161   2.997   3.345   1.792
 7421SOL    HW123162   3.058   3.266   1.796
 7421SOL    HW223163   2.965   3.367   1.884
 7422SOL     OW23164   0.209   3.944   2.237
 7422SOL    HW123165   0.193   3.964   2.334
 7422SOL    HW223166   0.263   3.861   2.228
 7423SOL     OW23167   6.714   3.689   6.364
 7423SOL    HW123168   6.802   3.687   6.316
 7423SOL    HW223169   6.723   3.743   6.448
 7424SOL     OW23170   6.457   0.846   4.170
 7424SOL    HW123171   6.426   0.753   4.186
 7424SOL    HW223172   6.377   0.907   4.162
 7425SOL     OW23173   4.341   5.549   6.253
 7425SOL    HW123174   4.371   5.520   6.344
 7425SOL    HW223175   4.245   5.576   6.256
 7426SOL     OW23176   0.863   2.241   6.632
 7426SOL    HW123177   0.772   2.271   6.607
 7426SOL    HW223178   0.913   2.316   6.676
 7427SOL     OW23179   3.334   5.966   4.631
 7427SOL    HW123180   3.361   5.869   4.631
 7427SOL    HW223181   3.314   5.994   4.725
 7428SOL     OW23182   3.729   1.586   5.105
 7428SOL    HW123183   3.820   1.599   5.144
 7428SOL    HW223184   3.737   1.545   5.014
 7429SOL     OW23185   5.393   0.577   3.514
 7429SOL    HW123186   5.356   0.637   3.444
 7429SOL    HW223187   5.372   0.482   3.491
 7430SOL     OW23188   6.801   4.607   6.479
 7430SOL    HW123189   6.781   4.667   6.556
 7430SOL    HW223190   6.734   4.533   6.476
 7431SOL     OW23191   0.614   3.959   1.904
 7431SOL    HW123192   0.552   4.038   1.907
 7431SOL    HW223193   0.562   3.876   1.922
 7432SOL     OW23194   0.135   6.920   3.109
 7432SOL    HW123195   0.063   6.950   3.172
 7432SOL    HW223196   0.220   6.969   3.130
 7433SOL     OW23197   6.664   5.554   0.870
 7433SOL    HW123198   6.662   5.651   0.848
 7433SOL    HW223199   6.752   5.515   0.842
 7434SOL     OW23200   4.368   1.266   6.522
 7434SOL    HW123201   4.305   1.316   6.461
 7434SOL    HW223202   4.457   1.311   6.522
 7435SOL     OW23203   3.768   6.063   6.683
 7435SOL    HW123204   3.793   6.153   6.717
 7435SOL    HW223205   3.669   6.053   6.681
 7436SOL     OW23206   5.714   3.180   6.350
 7436SOL    HW123207   5.706   3.192   6.251
 7436SOL    HW223208   5.651   3.109   6.380
 7437SOL     OW23209   0.201   5.970   6.915
 7437SOL    HW123210   0.240   5.901   6.976
 7437SOL    HW223211   0.199   6.059   6.961
 7438SOL     OW23212   0.929   4.845   0.457
 7438SOL    HW123213   0.947   4.942   0.473
 7438SOL    HW223214   0.947   4.794   0.541
 7439SOL     OW23215   1.700   6.476   4.766
 7439SOL    HW123216   1.775   6.517   4.715
 7439SOL    HW223217   1.691   6.380   4.741
 7440SOL     OW23218   1.216   3.005   4.458
 7440SOL    HW123219   1.210   3.045   4.366
 7440SOL    HW223220   1.156   3.055   4.520
 7441SOL     OW23221   5.618   6.113   4.638
 7441SOL    HW123222   5.568   6.179   4.695
 7441SOL    HW223223   5.636   6.154   4.549
 7442SOL     OW23224   1.164   1.307   6.301
 7442SOL    HW123225   1.238   1.276   6.361
 7442SOL    HW223226   1.100   1.231   6.285
 7443SOL     OW23227   0.146   1.470   1.535
 7443SOL    HW123228   0.083   1.416   1.591
 7443SOL    HW223229   0.107   1.560   1.519
 7444SOL     OW23230   6.606   3.688   5.245
 7444SOL    HW123231   6.515   3.726   5.227
 7444SOL    HW223232   6.653   3.747   5.311
 7445SOL     OW23233   3.357   0.926   1.644
 7445SOL    HW123234   3.411   0.991   1.591
 7445SOL    HW223235   3.285   0.975   1.694
 7446SOL     OW23236   5.519   4.253   0.426
 7446SOL    HW123237   5.538   4.227   0.521
 7446SOL    HW223238   5.537   4.351   0.414
 7447SOL     OW23239   1.696   3.298   5.702
 7447SOL    HW123240   1.638   3.370   5.741
 7447SOL    HW223241   1.704   3.223   5.768
 7448SOL     OW23242   5.515   6.617   5.599
 7448SOL    HW123243   5.572   6.688   5.641
 7448SOL    HW223244   5.545   6.601   5.505
 7449SOL     OW23245   5.877   2.696   2.109
 7449SOL    HW123246   5.954   2.738   2.060
 7449SOL    HW223247   5.910   2.620   2.164
 7450SOL     OW23248   5.227   1.924   4.345
 7450SOL    HW123249   5.323   1.899   4.339
 7450SOL    HW223250   5.220   2.017   4.382
 7451SOL     OW23251   2.489   0.435   2.910
 7451SOL    HW123252   2.398   0.473   2.893
 7451SOL    HW223253   2.517   0.456   3.004
 7452SOL     OW23254   0.832   6.550   4.792
 7452SOL    HW123255   0.784   6.634   4.819
 7452SOL    HW223256   0.806   6.475   4.852
 7453SOL     OW23257   5.016   5.749   6.504
 7453SOL    HW123258   5.116   5.756   6.500
 7453SOL    HW223259   4.985   5.684   6.434
 7454SOL     OW23260   0.873   2.865   1.905
 7454SOL    HW123261   0.846   2.896   1.813
 7454SOL    HW223262   0.973   2.861   1.910
 7455SOL     OW23263   6.789   1.588   1.824
 7455SOL    HW123264   6.761   1.534   1.744
 7455SOL    HW223265   6.827   1.675   1.793
 7456SOL     OW23266   0.797   2.136   4.208
 7456SOL    HW123267   0.863   2.207   4.182
 7456SOL    HW223268   0.845   2.060   4.252
 7457SOL     OW23269   3.630   0.354   5.604
 7457SOL    HW123270   3.635   0.297   5.522
 7457SOL    HW223271   3.586   0.303   5.678
 7458SOL     OW23272   1.728   0.355   6.088
 7458SOL    HW123273   1.781   0.429   6.130
 7458SOL    HW223274   1.760   0.339   5.995
 7459SOL     OW23275   4.772   0.204   0.586
 7459SOL    HW123276   4.763   0.290   0.537
 7459SOL    HW223277   4.763   0.128   0.522
 7460SOL     OW23278   1.429   4.600   1.254
 7460SOL    HW123279   1.364   4.541   1.302
 7460SOL    HW223280   1.478   4.546   1.185
 7461SOL     OW23281   6.043   1.431   6.266
 7461SOL    HW123282   6.037   1.439   6.167
 7461SOL    HW223283   5.983   1.499   6.308
 7462SOL     OW23284   2.179   2.983   2.353
 7462SOL    HW123285   2.177   3.075   2.394
 7462SOL    HW223286   2.141   2.917   2.418
 7463SOL     OW23287   3.160   4.783   1.300
 7463SOL    HW123288   3.115   4.710   1.248
 7463SOL    HW223289   3.239   4.745   1.349
 7464SOL     OW23290   3.193   6.847   6.380
 7464SOL    HW123291   3.268   6.841   6.314
 7464SOL    HW223292   3.202   6.932   6.433
 7465SOL     OW23293   1.603   6.822   0.353
 7465SOL    HW123294   1.569   6.869   0.271
 7465SOL    HW223295   1.623   6.726   0.330
 7466SOL     OW23296   0.602   0.239   6.637
 7466SOL    HW123297   0.631   0.150   6.671
 7466SOL    HW223298   0.525   0.227   6.574
 7467SOL     OW23299   6.807   1.346   0.787
 7467SOL    HW123300   6.763   1.282   0.850
 7467SOL    HW223301   6.760   1.342   0.699
 7468SOL     OW23302   5.647   3.080   2.954
 7468SOL    HW123303   5.733   3.121   2.922
 7468SOL    HW223304   5.621   3.121   3.042
 7469SOL     OW23305   0.166   6.916   0.691
 7469SOL    HW123306   0.200   6.873   0.774
 7469SOL    HW223307   0.114   6.998   0.714
 7470SOL     OW23308   0.531   3.051   4.440
 7470SOL    HW123309   0.563   3.021   4.350
 7470SOL    HW223310   0.526   2.972   4.501
 7471SOL     OW23311   5.746   6.355   5.674
 7471SOL    HW123312   5.719   6.439   5.627
 7471SOL    HW223313   5.777   6.377   5.766
 7472SOL     OW23314   5.975   6.349   4.402
 7472SOL    HW123315   5.969   6.265   4.348
 7472SOL    HW223316   5.905   6.413   4.371
 7473SOL     OW23317   0.707   4.223   2.888
 7473SOL    HW123318   0.798   4.239   2.927
 7473SOL    HW223319   0.648   4.183   2.958
 7474SOL     OW23320   2.470   1.748   5.017
 7474SOL    HW123321   2.550   1.778   5.068
 7474SOL    HW223322   2.439   1.821   4.956
 7475SOL     OW23323   3.366   1.663   2.545
 7475SOL    HW123324   3.388   1.621   2.634
 7475SOL    HW223325   3.285   1.618   2.507
 7476SOL     OW23326   3.379   6.175   4.427
 7476SOL    HW123327   3.348   6.083   4.454
 7476SOL    HW223328   3.325   6.244   4.475
 7477SOL     OW23329   6.274   1.131   4.456
 7477SOL    HW123330   6.320   1.215   4.486
 7477SOL    HW223331   6.190   1.119   4.508
 7478SOL     OW23332   4.145   4.594   6.908
 7478SOL    HW123333   4.140   4.605   7.007
 7478SOL    HW223334   4.149   4.684   6.864
 7479SOL     OW23335   4.622   2.577   1.076
 7479SOL    HW123336   4.571   2.582   0.991
 7479SOL    HW223337   4.606   2.660   1.130
 7480SOL     OW23338   6.973   3.948   1.698
 7480SOL    HW123339   6.944   4.009   1.624
 7480SOL    HW223340   7.010   4.002   1.774
 7481SOL     OW23341   5.770   4.913   2.166
 7481SOL    HW123342   5.754   5.010   2.181
 7481SOL    HW223343   5.869   4.896   2.160
 7482SOL     OW23344   5.501   1.624   3.081
 7482SOL    HW123345   5.522   1.535   3.124
 7482SOL    HW223346   5.448   1.609   2.998
 7483SOL     OW23347   4.515   2.332   5.183
 7483SOL    HW123348   4.571   2.311   5.263
 7483SOL    HW223349   4.530   2.263   5.112
 7484SOL     OW23350   0.335   0.031   2.899
 7484SOL    HW123351   0.350   0.050   2.996
 7484SOL    HW223352   0.397   0.086   2.844
 7485SOL     OW23353   3.335   6.334   5.119
 7485SOL    HW123354   3.378   6.314   5.030
 7485SOL    HW223355   3.244   6.292   5.122
 7486SOL     OW23356   2.843   0.609   6.264
 7486SOL    HW123357   2.892   0.545   6.324
 7486SOL    HW223358   2.764   0.563   6.224
 7487SOL     OW23359   2.305   6.277   2.040
 7487SOL    HW123360   2.207   6.272   2.021
 7487SOL    HW223361   2.321   6.342   2.114
 7488SOL     OW23362   1.901   6.837   4.740
 7488SOL    HW123363   1.870   6.865   4.649
 7488SOL    HW223364   1.835   6.867   4.809
 7489SOL     OW23365   5.600   2.040   4.921
 7489SOL    HW123366   5.644   2.069   5.006
 7489SOL    HW223367   5.666   2.046   4.846
 7490SOL     OW23368   0.816   1.593   1.214
 7490SOL    HW123369   0.904   1.582   1.167
 7490SOL    HW223370   0.809   1.686   1.249
 7491SOL     OW23371   6.764   4.117   0.406
 7491SOL    HW123372   6.826   4.052   0.361
 7491SOL    HW223373   6.672   4.106   0.370
 7492SOL     OW23374   2.853   1.212   4.629
 7492SOL    HW123375   2.794   1.269   4.686
 7492SOL    HW223376   2.937   1.262   4.608
 7493SOL     OW23377   0.149   4.343   6.941
 7493SOL    HW123378   0.132   4.435   6.905
 7493SOL    HW223379   0.079   4.320   7.009
 7494SOL     OW23380   6.065   1.023   2.429
 7494SOL    HW123381   6.093   0.933   2.396
 7494SOL    HW223382   5.997   1.062   2.368
 7495SOL     OW23383   2.614   1.082   0.987
 7495SOL    HW123384   2.635   0.984   0.994
 7495SOL    HW223385   2.656   1.119   0.904
 7496SOL     OW23386   0.601   3.290   6.604
 7496SOL    HW123387   0.545   3.305   6.522
 7496SOL    HW223388   0.652   3.373   6.625
 7497SOL     OW23389   2.816   4.347   0.672
 7497SOL    HW123390   2.744   4.299   0.623
 7497SOL    HW223391   2.776   4.415   0.733
 7498SOL     OW23392   2.190   1.302   4.994
 7498SOL    HW123393   2.196   1.397   4.964
 7498SOL    HW223394   2.238   1.243   4.928
 7499SOL     OW23395   4.970   0.744   3.386
 7499SOL    HW123396   4.889   0.802   3.373
 7499SOL    HW223397   5.038   0.794   3.441
 7500SOL     OW23398   3.562   5.985   4.105
 7500SOL    HW123399   3.652   6.021   4.082
 7500SOL    HW223400   3.496   6.061   4.108
 7501SOL     OW23401   6.715   4.485   4.242
 7501SOL    HW123402   6.807   4.523   4.231
 7501SOL    HW223403   6.657   4.551   4.289
 7502SOL     OW23404   1.196   0.333   5.055
 7502SOL    HW123405   1.156   0.387   4.981
 7502SOL    HW223406   1.291   0.312   5.034
 7503SOL     OW23407   2.106   1.127   0.382
 7503SOL    HW123408   2.034   1.181   0.338
 7503SOL    HW223409   2.192   1.140   0.334
 7504SOL     OW23410   2.604   0.239   3.842
 7504SOL    HW123411   2.585   0.306   3.770
 7504SOL    HW223412   2.560   0.152   3.819
 7505SOL     OW23413   1.882   1.500   5.583
 7505SOL    HW123414   1.924   1.429   5.639
 7505SOL    HW223415   1.817   1.458   5.519
 7506SOL     OW23416   4.529   6.416   3.092
 7506SOL    HW123417   4.584   6.483   3.043
 7506SOL    HW223418   4.528   6.439   3.189
 7507SOL     OW23419   0.876   0.407   1.276
 7507SOL    HW123420   0.782   0.415   1.308
 7507SOL    HW223421   0.937   0.455   1.339
 7508SOL     OW23422   6.548   6.862   2.126
 7508SOL    HW123423   6.490   6.939   2.153
 7508SOL    HW223424   6.508   6.777   2.161
 7509SOL     OW23425   5.804   4.210   1.299
 7509SOL    HW123426   5.794   4.277   1.372
 7509SOL    HW223427   5.721   4.208   1.244
 7510SOL     OW23428   2.875   4.628   5.405
 7510SOL    HW123429   2.908   4.604   5.314
 7510SOL    HW223430   2.902   4.558   5.471
 7511SOL     OW23431   1.791   0.138   3.540
 7511SOL    HW123432   1.859   0.066   3.549
 7511SOL    HW223433   1.717   0.123   3.606
 7512SOL     OW23434   3.544   4.492   0.310
 7512SOL    HW123435   3.602   4.424   0.355
 7512SOL    HW223436   3.525   4.463   0.216
 7513SOL     OW23437   2.243   1.983   1.148
 7513SOL    HW123438   2.168   1.997   1.212
 7513SOL    HW223439   2.298   2.066   1.141
 7514SOL     OW23440   2.372   5.197   2.052
 7514SOL    HW123441   2.400   5.147   1.970
 7514SOL    HW223442   2.325   5.281   2.025
 7515SOL     OW23443   0.676   5.829   2.148
 7515SOL    HW123444   0.609   5.854   2.218
 7515SOL    HW223445   0.677   5.729   2.137
 7516SOL     OW23446   6.630   6.227   4.274
 7516SOL    HW123447   6.694   6.262   4.343
 7516SOL    HW223448   6.540   6.215   4.316
 7517SOL     OW23449   0.384   3.005   1.213
 7517SOL    HW123450   0.450   3.051   1.153
 7517SOL    HW223451   0.291   3.031   1.186
 7518SOL     OW23452   3.821   5.115   3.532
 7518SOL    HW123453   3.807   5.166   3.616
 7518SOL    HW223454   3.751   5.044   3.523
 7519SOL     OW23455   0.449   6.519   3.662
 7519SOL    HW123456   0.451   6.448   3.592
 7519SOL    HW223457   0.373   6.582   3.642
 7520SOL     OW23458   3.256   6.984   2.073
 7520SOL    HW123459   3.332   6.927   2.103
 7520SOL    HW223460   3.170   6.939   2.097
 7521SOL     OW23461   4.601   5.090   6.596
 7521SOL    HW123462   4.655   5.162   6.641
 7521SOL    HW223463   4.650   5.059   6.514
 7522SOL     OW23464   2.132   6.718   6.324
 7522SOL    HW123465   2.082   6.804   6.330
 7522SOL    HW223466   2.230   6.737   6.314
 7523SOL     OW23467   5.645   0.395   6.351
 7523SOL    HW123468   5.622   0.318   6.293
 7523SOL    HW223469   5.737   0.382   6.388
 7524SOL     OW23470   1.360   2.247   6.614
 7524SOL    HW123471   1.319   2.156   6.619
 7524SOL    HW223472   1.428   2.257   6.687
 7525SOL     OW23473   2.411   6.936   6.645
 7525SOL    HW123474   2.490   6.997   6.642
 7525SOL    HW223475   2.342   6.973   6.705
 7526SOL     OW23476   3.295   2.911   2.439
 7526SOL    HW123477   3.357   2.979   2.477
 7526SOL    HW223478   3.216   2.901   2.500
 7527SOL     OW23479   4.052   5.610   3.298
 7527SOL    HW123480   3.954   5.618   3.316
 7527SOL    HW223481   4.074   5.517   3.270
 7528SOL     OW23482   4.268   1.688   6.687
 7528SOL    HW123483   4.209   1.626   6.636
 7528SOL    HW223484   4.221   1.776   6.699
 7529SOL     OW23485   5.704   0.767   4.557
 7529SOL    HW123486   5.800   0.795   4.564
 7529SOL    HW223487   5.689   0.720   4.470
 7530SOL     OW23488   6.905   4.286   2.460
 7530SOL    HW123489   6.843   4.209   2.469
 7530SOL    HW223490   6.853   4.371   2.455
 7531SOL     OW23491   4.925   2.340   4.071
 7531SOL    HW123492   4.985   2.409   4.032
 7531SOL    HW223493   4.838   2.340   4.021
 7532SOL     OW23494   5.342   5.325   1.325
 7532SOL    HW123495   5.270   5.394   1.330
 7532SOL    HW223496   5.356   5.285   1.416
 7533SOL     OW23497   2.501   1.257   2.742
 7533SOL    HW123498   2.552   1.243   2.657
 7533SOL    HW223499   2.502   1.354   2.766
 7534SOL     OW23500   3.685   6.602   6.138
 7534SOL    HW123501   3.620   6.674   6.163
 7534SOL    HW223502   3.778   6.630   6.165
 7535SOL     OW23503   2.943   0.816   5.653
 7535SOL    HW123504   2.973   0.721   5.660
 7535SOL    HW223505   2.856   0.827   5.701
 7536SOL     OW23506   5.366   5.316   5.120
 7536SOL    HW123507   5.305   5.391   5.094
 7536SOL    HW223508   5.417   5.341   5.202
 7537SOL     OW23509   2.660   5.205   3.771
 7537SOL    HW123510   2.709   5.261   3.704
 7537SOL    HW223511   2.609   5.264   3.832
 7538SOL     OW23512   3.310   3.185   2.212
 7538SOL    HW123513   3.297   3.092   2.180
 7538SOL    HW223514   3.238   3.209   2.277
 7539SOL     OW23515   2.387   2.425   4.155
 7539SOL    HW123516   2.380   2.399   4.059
 7539SOL    HW223517   2.398   2.343   4.211
 7540SOL     OW23518   2.973   0.225   5.613
 7540SOL    HW123519   2.915   0.304   5.637
 7540SOL    HW223520   3.026   0.247   5.531
 7541SOL     OW23521   0.165   3.927   4.497
 7541SOL    HW123522   0.133   3.846   4.545
 7541SOL    HW223523   0.122   4.008   4.537
 7542SOL     OW23524   0.477   5.427   0.062
 7542SOL    HW123525   0.495   5.508   0.006
 7542SOL    HW223526   0.519   5.347   0.019
 7543SOL     OW23527   4.309   2.011   1.019
 7543SOL    HW123528   4.215   1.977   1.010
 7543SOL    HW223529   4.307   2.111   1.029
 7544SOL     OW23530   0.177   2.485   3.476
 7544SOL    HW123531   0.216   2.402   3.514
 7544SOL    HW223532   0.228   2.513   3.395
 7545SOL     OW23533   5.934   6.437   2.264
 7545SOL    HW123534   5.906   6.386   2.346
 7545SOL    HW223535   6.016   6.395   2.226
 7546SOL     OW23536   3.824   0.700   1.837
 7546SOL    HW123537   3.818   0.664   1.744
 7546SOL    HW223538   3.741   0.677   1.888
 7547SOL     OW23539   4.313   0.334   0.400
 7547SOL    HW123540   4.344   0.258   0.343
 7547SOL    HW223541   4.258   0.298   0.475
 7548SOL     OW23542   3.573   2.099   0.128
 7548SOL    HW123543   3.613   2.079   0.217
 7548SOL    HW223544   3.479   2.131   0.139
 7549SOL     OW23545   5.621   1.370   1.070
 7549SOL    HW123546   5.613   1.458   1.024
 7549SOL    HW223547   5.533   1.345   1.111
 7550SOL     OW23548   2.440   4.785   2.255
 7550SOL    HW123549   2.522   4.761   2.203
 7550SOL    HW223550   2.373   4.826   2.195
 7551SOL     OW23551   4.889   3.961   6.894
 7551SOL    HW123552   4.918   3.922   6.981
 7551SOL    HW223553   4.902   3.893   6.821
 7552SOL     OW23554   1.629   5.823   3.385
 7552SOL    HW123555   1.641   5.906   3.440
 7552SOL    HW223556   1.661   5.839   3.292
 7553SOL     OW23557   4.561   4.789   5.507
 7553SOL    HW123558   4.485   4.817   5.449
 7553SOL    HW223559   4.644   4.784   5.452
 7554SOL     OW23560   4.890   0.208   1.110
 7554SOL    HW123561   4.959   0.145   1.145
 7554SOL    HW223562   4.851   0.171   1.025
 7555SOL     OW23563   1.977   5.199   5.225
 7555SOL    HW123564   1.968   5.124   5.159
 7555SOL    HW223565   1.937   5.171   5.313
 7556SOL     OW23566   0.448   3.032   5.506
 7556SOL    HW123567   0.392   2.974   5.448
 7556SOL    HW223568   0.391   3.069   5.580
 7557SOL     OW23569   4.925   2.524   6.211
 7557SOL    HW123570   4.902   2.427   6.208
 7557SOL    HW223571   4.943   2.557   6.118
 7558SOL     OW23572   2.037   2.924   3.824
 7558SOL    HW123573   2.108   2.867   3.866
 7558SOL    HW223574   1.998   2.876   3.745
 7559SOL     OW23575   6.140   5.113   6.970
 7559SOL    HW123576   6.198   5.161   6.904
 7559SOL    HW223577   6.143   5.015   6.952
 7560SOL     OW23578   4.445   6.571   0.438
 7560SOL    HW123579   4.483   6.521   0.360
 7560SOL    HW223580   4.360   6.527   0.468
 7561SOL     OW23581   0.774   2.799   0.079
 7561SOL    HW123582   0.852   2.747   0.043
 7561SOL    HW223583   0.789   2.896   0.065
 7562SOL     OW23584   5.528   6.140   5.167
 7562SOL    HW123585   5.628   6.142   5.159
 7562SOL    HW223586   5.502   6.165   5.260
 7563SOL     OW23587   2.416   6.217   0.660
 7563SOL    HW123588   2.504   6.200   0.614
 7563SOL    HW223589   2.381   6.132   0.698
 7564SOL     OW23590   5.519   1.344   2.659
 7564SOL    HW123591   5.488   1.315   2.750
 7564SOL    HW223592   5.500   1.441   2.647
 7565SOL     OW23593   5.090   4.311   0.078
 7565SOL    HW123594   5.002   4.311   0.125
 7565SOL    HW223595   5.140   4.395   0.101
 7566SOL     OW23596   6.988   5.352   3.791
 7566SOL    HW123597   0.017   5.279   3.751
 7566SOL    HW223598   6.891   5.330   3.778
 7567SOL     OW23599   1.663   2.744   4.947
 7567SOL    HW123600   1.693   2.837   4.969
 7567SOL    HW223601   1.639   2.739   4.850
 7568SOL     OW23602   5.597   6.164   2.999
 7568SOL    HW123603   5.533   6.231   3.035
 7568SOL    HW223604   5.577   6.146   2.902
 7569SOL     OW23605   4.378   4.778   6.661
 7569SOL    HW123606   4.291   4.789   6.708
 7569SOL    HW223607   4.438   4.719   6.715
 7570SOL     OW23608   5.315   4.766   5.440
 7570SOL    HW123609   5.380   4.760   5.364
 7570SOL    HW223610   5.309   4.678   5.487
 7571SOL     OW23611   4.647   5.436   2.837
 7571SOL    HW123612   4.697   5.370   2.893
 7571SOL    HW223613   4.611   5.508   2.897
 7572SOL     OW23614   4.594   1.019   3.111
 7572SOL    HW123615   4.620   1.082   3.184
 7572SOL    HW223616   4.668   0.954   3.095
 7573SOL     OW23617   6.456   6.595   4.768
 7573SOL    HW123618   6.369   6.636   4.742
 7573SOL    HW223619   6.489   6.537   4.694
 7574SOL     OW23620   6.775   0.720   4.463
 7574SOL    HW123621   6.758   0.760   4.373
 7574SOL    HW223622   6.708   0.756   4.529
 7575SOL     OW23623   3.872   0.473   5.709
 7575SOL    HW123624   3.883   0.433   5.800
 7575SOL    HW223625   3.805   0.420   5.657
 7576SOL     OW23626   6.412   5.342   0.135
 7576SOL    HW123627   6.475   5.319   0.060
 7576SOL    HW223628   6.383   5.437   0.126
 7577SOL     OW23629   0.317   6.323   6.061
 7577SOL    HW123630   0.252   6.395   6.087
 7577SOL    HW223631   0.404   6.365   6.035
 7578SOL     OW23632   2.823   5.976   2.491
 7578SOL    HW123633   2.735   5.966   2.446
 7578SOL    HW223634   2.895   5.941   2.432
 7579SOL     OW23635   5.525   2.550   2.292
 7579SOL    HW123636   5.533   2.605   2.209
 7579SOL    HW223637   5.475   2.602   2.361
 7580SOL     OW23638   0.830   4.581   4.025
 7580SOL    HW123639   0.890   4.569   3.946
 7580SOL    HW223640   0.824   4.495   4.075
 7581SOL     OW23641   6.211   6.991   1.103
 7581SOL    HW123642   6.113   7.007   1.095
 7581SOL    HW223643   6.259   0.052   1.110
 7582SOL     OW23644   2.737   1.114   0.363
 7582SOL    HW123645   2.781   1.203   0.367
 7582SOL    HW223646   2.806   1.042   0.372
 7583SOL     OW23647   6.476   3.235   1.376
 7583SOL    HW123648   6.559   3.211   1.425
 7583SOL    HW223649   6.499   3.262   1.282
 7584SOL     OW23650   2.568   6.541   0.737
 7584SOL    HW123651   2.468   6.540   0.737
 7584SOL    HW223652   2.603   6.499   0.821
 7585SOL     OW23653   2.037   3.207   6.009
 7585SOL    HW123654   1.937   3.212   6.007
 7585SOL    HW223655   2.071   3.257   6.088
 7586SOL     OW23656   3.653   0.749   3.365
 7586SOL    HW123657   3.753   0.752   3.374
 7586SOL    HW223658   3.613   0.714   3.449
 7587SOL     OW23659   3.023   1.934   6.700
 7587SOL    HW123660   3.030   2.028   6.667
 7587SOL    HW223661   3.039   1.932   6.799
 7588SOL     OW23662   1.554   3.103   2.878
 7588SOL    HW123663   1.632   3.161   2.903
 7588SOL    HW223664   1.470   3.141   2.916
 7589SOL     OW23665   6.854   6.800   1.607
 7589SOL    HW123666   6.802   6.851   1.676
 7589SOL    HW223667   6.939   6.849   1.587
 7590SOL     OW23668   3.825   2.189   6.677
 7590SOL    HW123669   3.791   2.277   6.712
 7590SOL    HW223670   3.895   2.153   6.740
 7591SOL     OW23671   0.146   4.386   0.443
 7591SOL    HW123672   0.212   4.374   0.369
 7591SOL    HW223673   0.053   4.378   0.407
 7592SOL     OW23674   6.507   3.986   6.172
 7592SOL    HW123675   6.471   3.902   6.213
 7592SOL    HW223676   6.584   4.020   6.226
 7593SOL     OW23677   5.871   2.521   1.476
 7593SOL    HW123678   5.921   2.529   1.562
 7593SOL    HW223679   5.936   2.529   1.400
 7594SOL     OW23680   0.012   4.551   2.305
 7594SOL    HW123681   0.077   4.483   2.270
 7594SOL    HW223682   0.059   4.639   2.318
 7595SOL     OW23683   6.944   3.011   5.789
 7595SOL    HW123684   7.002   2.961   5.725
 7595SOL    HW223685   6.870   2.952   5.821
 7596SOL     OW23686   4.792   5.917   3.333
 7596SOL    HW123687   4.829   5.840   3.384
 7596SOL    HW223688   4.693   5.922   3.347
 7597SOL     OW23689   2.418   6.486   2.240
 7597SOL    HW123690   2.388   6.548   2.312
 7597SOL    HW223691   2.466   6.537   2.170
 7598SOL     OW23692   0.153   1.788   3.530
 7598SOL    HW123693   0.171   1.730   3.451
 7598SOL    HW223694   0.239   1.813   3.573
 7599SOL     OW23695   5.881   1.620   3.069
 7599SOL    HW123696   5.962   1.643   3.123
 7599SOL    HW223697   5.843   1.533   3.101
 7600SOL     OW23698   1.675   1.341   2.603
 7600SOL    HW123699   1.715   1.426   2.639
 7600SOL    HW223700   1.694   1.266   2.666
 7601SOL     OW23701   2.145   5.374   2.487
 7601SOL    HW123702   2.142   5.284   2.530
 7601SOL    HW223703   2.195   5.368   2.400
 7602SOL     OW23704   1.104   4.675   6.376
 7602SOL    HW123705   1.006   4.661   6.381
 7602SOL    HW223706   1.148   4.593   6.339
 7603SOL     OW23707   1.759   5.327   5.903
 7603SOL    HW123708   1.727   5.304   5.811
 7603SOL    HW223709   1.805   5.416   5.901
 7604SOL     OW23710   1.710   4.551   4.616
 7604SOL    HW123711   1.751   4.498   4.690
 7604SOL    HW223712   1.641   4.613   4.654
 7605SOL     OW23713   0.526   6.860   0.800
 7605SOL    HW123714   0.558   6.954   0.796
 7605SOL    HW223715   0.552   6.812   0.716
 7606SOL     OW23716   6.761   3.246   3.629
 7606SOL    HW123717   6.727   3.155   3.652
 7606SOL    HW223718   6.832   3.239   3.559
 7607SOL     OW23719   4.838   5.224   0.615
 7607SOL    HW123720   4.861   5.317   0.585
 7607SOL    HW223721   4.900   5.159   0.570
 7608SOL     OW23722   3.202   4.076   3.201
 7608SOL    HW123723   3.211   4.025   3.286
 7608SOL    HW223724   3.278   4.141   3.193
 7609SOL     OW23725   0.121   3.949   3.822
 7609SOL    HW123726   0.166   3.926   3.909
 7609SOL    HW223727   0.022   3.944   3.833
 7610SOL     OW23728   5.649   6.578   0.236
 7610SOL    HW123729   5.584   6.622   0.297
 7610SOL    HW223730   5.740   6.580   0.277
 7611SOL     OW23731   0.759   1.659   0.078
 7611SOL    HW123732   0.679   1.656   0.018
 7611SOL    HW223733   0.731   1.639   0.172
 7612SOL     OW23734   5.276   3.283   4.790
 7612SOL    HW123735   5.192   3.324   4.827
 7612SOL    HW223736   5.275   3.185   4.809
 7613SOL     OW23737   6.019   3.168   1.185
 7613SOL    HW123738   6.108   3.123   1.191
 7613SOL    HW223739   6.023   3.257   1.231
 7614SOL     OW23740   5.433   3.512   0.689
 7614SOL    HW123741   5.480   3.502   0.602
 7614SOL    HW223742   5.496   3.551   0.756
 7615SOL     OW23743   4.696   3.986   6.522
 7615SOL    HW123744   4.631   4.038   6.578
 7615SOL    HW223745   4.647   3.921   6.464
 7616SOL     OW23746   6.545   4.947   5.287
 7616SOL    HW123747   6.580   4.952   5.193
 7616SOL    HW223748   6.445   4.943   5.285
 7617SOL     OW23749   3.591   5.429   2.431
 7617SOL    HW123750   3.628   5.371   2.503
 7617SOL    HW223751   3.495   5.451   2.452
 7618SOL     OW23752   0.530   2.187   6.061
 7618SOL    HW123753   0.611   2.209   6.007
 7618SOL    HW223754   0.458   2.152   6.002
 7619SOL     OW23755   5.617   3.121   5.639
 7619SOL    HW123756   5.670   3.206   5.633
 7619SOL    HW223757   5.678   3.045   5.661
 7620SOL     OW23758   4.243   5.351   0.341
 7620SOL    HW123759   4.331   5.329   0.299
 7620SOL    HW223760   4.209   5.271   0.390
 7621SOL     OW23761   0.062   1.178   0.111
 7621SOL    HW123762   0.013   1.240   0.171
 7621SOL    HW223763   0.105   1.230   0.037
 7622SOL     OW23764   5.354   5.318   1.630
 7622SOL    HW123765   5.288   5.252   1.666
 7622SOL    HW223766   5.308   5.405   1.610
 7623SOL     OW23767   4.510   4.335   6.726
 7623SOL    HW123768   4.413   4.357   6.722
 7623SOL    HW223769   4.523   4.247   6.771
 7624SOL     OW23770   6.924   2.323   4.473
 7624SOL    HW123771   6.834   2.360   4.493
 7624SOL    HW223772   6.992   2.362   4.536
 7625SOL     OW23773   4.990   0.395   1.293
 7625SOL    HW123774   4.950   0.342   1.218
 7625SOL    HW223775   4.939   0.479   1.307
 7626SOL     OW23776   6.598   6.488   4.067
 7626SOL    HW123777   6.504   6.473   4.096
 7626SOL    HW223778   6.661   6.452   4.135
 7627SOL     OW23779   5.597   3.069   0.151
 7627SOL    HW123780   5.552   3.005   0.214
 7627SOL    HW223781   5.631   3.018   0.072
 7628SOL     OW23782   3.877   0.374   2.564
 7628SOL    HW123783   3.795   0.417   2.526
 7628SOL    HW223784   3.851   0.302   2.627
 7629SOL     OW23785   6.899   0.341   3.392
 7629SOL    HW123786   6.978   0.381   3.345
 7629SOL    HW223787   6.842   0.293   3.325
 7630SOL     OW23788   6.511   0.497   1.942
 7630SOL    HW123789   6.572   0.463   1.872
 7630SOL    HW223790   6.525   0.446   2.027
 7631SOL     OW23791   0.553   0.528   5.469
 7631SOL    HW123792   0.518   0.621   5.482
 7631SOL    HW223793   0.651   0.533   5.446
 7632SOL     OW23794   3.548   2.646   1.751
 7632SOL    HW123795   3.449   2.646   1.742
 7632SOL    HW223796   3.579   2.555   1.781
 7633SOL     OW23797   5.035   1.699   1.183
 7633SOL    HW123798   5.035   1.671   1.279
 7633SOL    HW223799   5.000   1.792   1.175
 7634SOL     OW23800   0.194   1.684   2.650
 7634SOL    HW123801   0.114   1.662   2.706
 7634SOL    HW223802   0.227   1.775   2.674
 7635SOL     OW23803   3.011   5.581   5.228
 7635SOL    HW123804   3.083   5.571   5.159
 7635SOL    HW223805   2.922   5.593   5.182
 7636SOL     OW23806   1.285   2.691   3.461
 7636SOL    HW123807   1.355   2.624   3.488
 7636SOL    HW223808   1.217   2.700   3.534
 7637SOL     OW23809   2.690   6.027   2.720
 7637SOL    HW123810   2.742   6.072   2.793
 7637SOL    HW223811   2.752   5.998   2.647
 7638SOL     OW23812   3.831   6.273   1.053
 7638SOL    HW123813   3.737   6.242   1.041
 7638SOL    HW223814   3.870   6.294   0.963
 7639SOL     OW23815   1.356   1.802   0.350
 7639SOL    HW123816   1.343   1.758   0.261
 7639SOL    HW223817   1.379   1.899   0.336
 7640SOL     OW23818   3.341   1.729   0.095
 7640SOL    HW123819   3.357   1.679   0.010
 7640SOL    HW223820   3.411   1.705   0.162
 7641SOL     OW23821   1.049   4.359   1.583
 7641SOL    HW123822   1.061   4.262   1.560
 7641SOL    HW223823   0.974   4.369   1.648
 7642SOL     OW23824   3.040   0.957   2.506
 7642SOL    HW123825   3.097   0.913   2.437
 7642SOL    HW223826   3.035   0.899   2.587
 7643SOL     OW23827   4.994   3.186   4.665
 7643SOL    HW123828   5.075   3.145   4.624
 7643SOL    HW223829   4.916   3.125   4.651
 7644SOL     OW23830   5.847   2.454   2.523
 7644SOL    HW123831   5.907   2.399   2.581
 7644SOL    HW223832   5.901   2.500   2.453
 7645SOL     OW23833   4.579   4.085   5.554
 7645SOL    HW123834   4.581   4.010   5.620
 7645SOL    HW223835   4.485   4.099   5.522
 7646SOL     OW23836   2.109   2.810   2.575
 7646SOL    HW123837   2.058   2.751   2.637
 7646SOL    HW223838   2.183   2.757   2.533
 7647SOL     OW23839   6.853   3.344   2.369
 7647SOL    HW123840   6.932   3.403   2.352
 7647SOL    HW223841   6.816   3.361   2.460
 7648SOL     OW23842   3.216   1.645   3.751
 7648SOL    HW123843   3.212   1.745   3.755
 7648SOL    HW223844   3.297   1.617   3.699
 7649SOL     OW23845   0.898   1.072   2.858
 7649SOL    HW123846   0.945   1.049   2.943
 7649SOL    HW223847   0.816   1.125   2.879
 7650SOL     OW23848   5.006   2.689   1.747
 7650SOL    HW123849   4.973   2.783   1.742
 7650SOL    HW223850   5.025   2.666   1.842
 7651SOL     OW23851   2.115   0.138   4.619
 7651SOL    HW123852   2.201   0.120   4.571
 7651SOL    HW223853   2.043   0.079   4.582
 7652SOL     OW23854   6.742   3.984   4.584
 7652SOL    HW123855   6.754   4.074   4.540
 7652SOL    HW223856   6.680   3.993   4.661
 7653SOL     OW23857   2.847   1.362   0.317
 7653SOL    HW123858   2.813   1.432   0.380
 7653SOL    HW223859   2.892   1.406   0.240
 7654SOL     OW23860   5.118   2.840   3.917
 7654SOL    HW123861   5.105   2.816   4.013
 7654SOL    HW223862   5.109   2.758   3.861
 7655SOL     OW23863   3.502   0.363   3.537
 7655SOL    HW123864   3.466   0.277   3.573
 7655SOL    HW223865   3.436   0.401   3.471
 7656SOL     OW23866   2.177   4.873   6.185
 7656SOL    HW123867   2.176   4.940   6.259
 7656SOL    HW223868   2.257   4.888   6.128
 7657SOL     OW23869   2.377   2.738   3.762
 7657SOL    HW123870   2.359   2.772   3.855
 7657SOL    HW223871   2.347   2.643   3.755
 7658SOL     OW23872   3.343   0.501   6.289
 7658SOL    HW123873   3.258   0.523   6.240
 7658SOL    HW223874   3.412   0.470   6.223
 7659SOL     OW23875   6.141   5.249   0.181
 7659SOL    HW123876   6.231   5.293   0.185
 7659SOL    HW223877   6.132   5.199   0.095
 7660SOL     OW23878   0.505   6.257   3.518
 7660SOL    HW123879   0.411   6.234   3.541
 7660SOL    HW223880   0.561   6.258   3.602
 7661SOL     OW23881   5.681   2.418   4.594
 7661SOL    HW123882   5.711   2.416   4.689
 7661SOL    HW223883   5.648   2.327   4.568
 7662SOL     OW23884   0.985   2.603   2.755
 7662SOL    HW123885   1.040   2.551   2.820
 7662SOL    HW223886   1.026   2.692   2.739
 7663SOL     OW23887   1.289   6.614   5.761
 7663SOL    HW123888   1.190   6.625   5.752
 7663SOL    HW223889   1.328   6.589   5.672
 7664SOL     OW23890   3.351   0.135   2.455
 7664SOL    HW123891   3.390   0.165   2.368
 7664SOL    HW223892   3.293   0.055   2.439
 7665SOL     OW23893   4.887   0.276   5.054
 7665SOL    HW123894   4.815   0.214   5.082
 7665SOL    HW223895   4.905   0.264   4.956
 7666SOL     OW23896   0.929   6.435   1.336
 7666SOL    HW123897   0.896   6.525   1.363
 7666SOL    HW223898   0.996   6.402   1.403
 7667SOL     OW23899   4.758   5.656   1.713
 7667SOL    HW123900   4.698   5.734   1.694
 7667SOL    HW223901   4.740   5.622   1.805
 7668SOL     OW23902   2.955   4.316   1.202
 7668SOL    HW123903   2.994   4.311   1.294
 7668SOL    HW223904   2.997   4.391   1.152
 7669SOL     OW23905   5.513   1.750   5.905
 7669SOL    HW123906   5.534   1.700   5.989
 7669SOL    HW223907   5.595   1.754   5.847
 7670SOL     OW23908   0.646   4.949   6.672
 7670SOL    HW123909   0.619   5.023   6.733
 7670SOL    HW223910   0.694   4.878   6.725
 7671SOL     OW23911   4.482   0.950   3.975
 7671SOL    HW123912   4.386   0.932   3.997
 7671SOL    HW223913   4.499   0.923   3.880
 7672SOL     OW23914   6.006   6.806   3.346
 7672SOL    HW123915   6.031   6.823   3.441
 7672SOL    HW223916   6.083   6.831   3.286
 7673SOL     OW23917   2.102   5.627   6.771
 7673SOL    HW123918   2.024   5.681   6.803
 7673SOL    HW223919   2.104   5.627   6.671
 7674SOL     OW23920   5.784   1.661   4.157
 7674SOL    HW123921   5.715   1.625   4.220
 7674SOL    HW223922   5.875   1.645   4.196
 7675SOL     OW23923   5.602   7.024   2.416
 7675SOL    HW123924   5.554   0.056   2.351
 7675SOL    HW223925   5.560   0.006   2.507
 7676SOL     OW23926   1.717   2.502   0.104
 7676SOL    HW123927   1.810   2.464   0.097
 7676SOL    HW223928   1.651   2.429   0.089
 7677SOL     OW23929   0.473   4.382   2.579
 7677SOL    HW123930   0.487   4.468   2.530
 7677SOL    HW223931   0.392   4.335   2.543
 7678SOL     OW23932   2.625   1.942   4.680
 7678SOL    HW123933   2.688   1.881   4.727
 7678SOL    HW223934   2.548   1.963   4.740
 7679SOL     OW23935   2.877   5.798   6.746
 7679SOL    HW123936   2.810   5.777   6.817
 7679SOL    HW223937   2.906   5.714   6.701
 7680SOL     OW23938   1.633   1.731   0.514
 7680SOL    HW123939   1.562   1.662   0.505
 7680SOL    HW223940   1.676   1.724   0.604
 7681SOL     OW23941   2.693   6.863   0.348
 7681SOL    HW123942   2.649   6.840   0.262
 7681SOL    HW223943   2.641   6.824   0.424
 7682SOL     OW23944   2.491   0.398   1.904
 7682SOL    HW123945   2.415   0.407   1.839
 7682SOL    HW223946   2.576   0.429   1.861
 7683SOL     OW23947   6.276   1.779   3.647
 7683SOL    HW123948   6.322   1.699   3.686
 7683SOL    HW223949   6.345   1.840   3.607
 7684SOL     OW23950   4.084   2.084   1.775
 7684SOL    HW123951   3.998   2.124   1.743
 7684SOL    HW223952   4.074   1.984   1.781
 7685SOL     OW23953   3.665   2.801   0.243
 7685SOL    HW123954   3.652   2.811   0.342
 7685SOL    HW223955   3.590   2.845   0.195
 7686SOL     OW23956   6.326   0.144   2.902
 7686SOL    HW123957   6.236   0.168   2.940
 7686SOL    HW223958   6.378   0.092   2.971
 7687SOL     OW23959   5.871   4.963   4.738
 7687SOL    HW123960   5.953   4.911   4.713
 7687SOL    HW223961   5.895   5.060   4.748
 7688SOL     OW23962   0.639   6.221   5.223
 7688SOL    HW123963   0.638   6.278   5.305
 7688SOL    HW223964   0.669   6.275   5.144
 7689SOL     OW23965   5.203   6.625   2.985
 7689SOL    HW123966   5.147   6.638   2.903
 7689SOL    HW223967   5.145   6.624   3.066
 7690SOL     OW23968   6.752   5.038   1.434
 7690SOL    HW123969   6.744   5.035   1.533
 7690SOL    HW223970   6.666   5.070   1.394
 7691SOL     OW23971   5.036   2.737   4.177
 7691SOL    HW123972   5.115   2.753   4.236
 7691SOL    HW223973   4.953   2.733   4.233
 7692SOL     OW23974   0.784   6.303   1.999
 7692SOL    HW123975   0.826   6.316   1.909
 7692SOL    HW223976   0.746   6.210   2.005
 7693SOL     OW23977   3.629   0.037   1.201
 7693SOL    HW123978   3.648   6.971   1.169
 7693SOL    HW223979   3.610   0.035   1.300
 7694SOL     OW23980   0.359   4.616   4.564
 7694SOL    HW123981   0.350   4.644   4.468
 7694SOL    HW223982   0.404   4.689   4.615
 7695SOL     OW23983   4.340   6.444   0.838
 7695SOL    HW123984   4.286   6.441   0.754
 7695SOL    HW223985   4.335   6.357   0.885
 7696SOL     OW23986   6.857   1.409   4.508
 7696SOL    HW123987   6.942   1.445   4.546
 7696SOL    HW223988   6.799   1.485   4.479
 7697SOL     OW23989   3.325   6.997   1.798
 7697SOL    HW123990   3.322   6.997   1.898
 7697SOL    HW223991   3.236   0.000   1.762
 7698SOL     OW23992   6.509   2.188   3.541
 7698SOL    HW123993   6.440   2.240   3.593
 7698SOL    HW223994   6.504   2.213   3.445
 7699SOL     OW23995   3.462   6.043   6.999
 7699SOL    HW123996   3.420   6.046   0.063
 7699SOL    HW223997   3.536   5.976   6.999
 7700SOL     OW23998   4.714   6.343   4.483
 7700SOL    HW123999   4.667   6.345   4.571
 7700SOL    HW224000   4.750   6.434   4.463
 7701SOL     OW24001   6.658   1.435   6.980
 7701SOL    HW124002   6.689   1.347   6.943
 7701SOL    HW224003   6.585   1.472   6.923
 7702SOL     OW24004   3.199   6.214   6.334
 7702SOL    HW124005   3.291   6.252   6.329
 7702SOL    HW224006   3.204   6.115   6.344
 7703SOL     OW24007   6.319   0.836   5.203
 7703SOL    HW124008   6.334   0.777   5.283
 7703SOL    HW224009   6.311   0.931   5.233
 7704SOL     OW24010   5.565   4.725   5.752
 7704SOL    HW124011   5.568   4.659   5.677
 7704SOL    HW224012   5.473   4.765   5.756
 7705SOL     OW24013   3.687   5.055   5.741
 7705SOL    HW124014   3.636   5.100   5.813
 7705SOL    HW224015   3.784   5.075   5.751
 7706SOL     OW24016   4.743   2.795   4.810
 7706SOL    HW124017   4.791   2.851   4.877
 7706SOL    HW224018   4.809   2.740   4.759
 7707SOL     OW24019   0.934   5.674   5.948
 7707SOL    HW124020   0.947   5.608   6.022
 7707SOL    HW224021   0.837   5.681   5.926
 7708SOL     OW24022   6.190   6.808   5.795
 7708SOL    HW124023   6.197   6.847   5.703
 7708SOL    HW224024   6.095   6.815   5.827
 7709SOL     OW24025   5.787   4.224   1.699
 7709SOL    HW124026   5.749   4.280   1.626
 7709SOL    HW224027   5.818   4.137   1.661
 7710SOL     OW24028   3.475   0.671   0.674
 7710SOL    HW124029   3.487   0.574   0.654
 7710SOL    HW224030   3.383   0.700   0.647
 7711SOL     OW24031   6.082   6.037   5.144
 7711SOL    HW124032   6.027   6.015   5.225
 7711SOL    HW224033   6.150   5.965   5.129
 7712SOL     OW24034   5.152   6.137   2.537
 7712SOL    HW124035   5.134   6.146   2.439
 7712SOL    HW224036   5.242   6.095   2.551
 7713SOL     OW24037   1.719   4.699   0.386
 7713SOL    HW124038   1.695   4.794   0.368
 7713SOL    HW224039   1.815   4.694   0.414
 7714SOL     OW24040   6.271   4.360   5.550
 7714SOL    HW124041   6.283   4.319   5.641
 7714SOL    HW224042   6.174   4.377   5.534
 7715SOL     OW24043   4.491   1.968   6.907
 7715SOL    HW124044   4.544   2.048   6.935
 7715SOL    HW224045   4.406   1.964   6.959
 7716SOL     OW24046   6.708   4.310   3.979
 7716SOL    HW124047   6.707   4.346   4.073
 7716SOL    HW224048   6.659   4.223   3.976
 7717SOL     OW24049   1.522   0.989   4.462
 7717SOL    HW124050   1.530   1.042   4.546
 7717SOL    HW224051   1.494   1.049   4.387
 7718SOL     OW24052   1.928   2.119   3.090
 7718SOL    HW124053   1.874   2.152   3.012
 7718SOL    HW224054   1.881   2.042   3.133
 7719SOL     OW24055   7.005   3.767   4.336
 7719SOL    HW124056   6.934   3.837   4.325
 7719SOL    HW224057   0.028   3.784   4.421
 7720SOL     OW24058   0.560   0.634   6.972
 7720SOL    HW124059   0.556   0.703   0.017
 7720SOL    HW224060   0.467   0.611   6.943
 7721SOL     OW24061   0.315   4.806   2.945
 7721SOL    HW124062   0.404   4.769   2.920
 7721SOL    HW224063   0.279   4.861   2.870
 7722SOL     OW24064   0.400   6.249   3.162
 7722SOL    HW124065   0.369   6.278   3.072
 7722SOL    HW224066   0.331   6.273   3.231
 7723SOL     OW24067   6.581   3.778   6.994
 7723SOL    HW124068   6.681   3.782   6.993
 7723SOL    HW224069   6.546   3.786   6.901
 7724SOL     OW24070   2.713   4.505   1.652
 7724SOL    HW124071   2.747   4.575   1.590
 7724SOL    HW224072   2.776   4.495   1.729
 7725SOL     OW24073   5.826   2.787   3.322
 7725SOL    HW124074   5.855   2.850   3.394
 7725SOL    HW224075   5.730   2.763   3.335
 7726SOL     OW24076   1.916   6.012   5.314
 7726SOL    HW124077   1.899   6.107   5.337
 7726SOL    HW224078   1.919   5.957   5.398
 7727SOL     OW24079   0.341   0.340   2.383
 7727SOL    HW124080   0.309   0.433   2.364
 7727SOL    HW224081   0.263   0.282   2.406
 7728SOL     OW24082   1.147   4.970   3.576
 7728SOL    HW124083   1.079   4.989   3.506
 7728SOL    HW224084   1.154   4.871   3.590
 7729SOL     OW24085   5.664   2.815   0.706
 7729SOL    HW124086   5.688   2.909   0.684
 7729SOL    HW224087   5.667   2.802   0.805
 7730SOL     OW24088   6.027   6.023   1.255
 7730SOL    HW124089   6.012   6.116   1.220
 7730SOL    HW224090   5.950   5.997   1.312
 7731SOL     OW24091   6.337   0.846   0.975
 7731SOL    HW124092   6.249   0.820   1.015
 7731SOL    HW224093   6.363   0.937   1.009
 7732SOL     OW24094   3.938   6.508   0.632
 7732SOL    HW124095   3.875   6.550   0.698
 7732SOL    HW224096   4.016   6.568   0.618
 7733SOL     OW24097   4.561   7.015   2.104
 7733SOL    HW124098   4.508   6.980   2.026
 7733SOL    HW224099   4.639   6.955   2.120
 7734SOL     OW24100   2.320   5.574   3.595
 7734SOL    HW124101   2.259   5.495   3.593
 7734SOL    HW224102   2.408   5.548   3.635
 7735SOL     OW24103   4.690   6.104   6.450
 7735SOL    HW124104   4.785   6.134   6.440
 7735SOL    HW224105   4.633   6.183   6.476
 7736SOL     OW24106   3.195   4.040   6.779
 7736SOL    HW124107   3.267   4.002   6.838
 7736SOL    HW224108   3.111   3.986   6.791
 7737SOL     OW24109   3.674   0.846   2.091
 7737SOL    HW124110   3.609   0.917   2.118
 7737SOL    HW224111   3.767   0.874   2.116
 7738SOL     OW24112   3.008   5.443   6.986
 7738SOL    HW124113   3.035   5.539   6.995
 7738SOL    HW224114   3.063   5.400   6.915
 7739SOL     OW24115   0.690   2.350   1.674
 7739SOL    HW124116   0.751   2.424   1.648
 7739SOL    HW224117   0.725   2.305   1.756
 7740SOL     OW24118   1.996   0.996   2.927
 7740SOL    HW124119   1.969   0.937   2.851
 7740SOL    HW224120   1.965   0.957   3.013
 7741SOL     OW24121   0.881   5.281   5.149
 7741SOL    HW124122   0.865   5.376   5.125
 7741SOL    HW224123   0.951   5.242   5.089
 7742SOL     OW24124   6.003   1.976   3.626
 7742SOL    HW124125   5.920   1.977   3.569
 7742SOL    HW224126   6.079   2.014   3.573
 7743SOL     OW24127   5.192   1.686   0.306
 7743SOL    HW124128   5.169   1.641   0.220
 7743SOL    HW224129   5.196   1.785   0.292
 7744SOL     OW24130   1.100   6.136   3.391
 7744SOL    HW124131   1.182   6.193   3.398
 7744SOL    HW224132   1.019   6.195   3.383
 7745SOL     OW24133   2.718   1.234   5.964
 7745SOL    HW124134   2.810   1.228   5.925
 7745SOL    HW224135   2.666   1.305   5.917
 7746SOL     OW24136   2.900   6.264   0.335
 7746SOL    HW124137   2.880   6.344   0.279
 7746SOL    HW224138   2.908   6.183   0.277
 7747SOL     OW24139   4.904   5.854   1.336
 7747SOL    HW124140   4.969   5.826   1.407
 7747SOL    HW224141   4.817   5.878   1.378
 7748SOL     OW24142   3.593   3.460   5.441
 7748SOL    HW124143   3.680   3.509   5.440
 7748SOL    HW224144   3.532   3.500   5.372
 7749SOL     OW24145   2.873   2.894   5.367
 7749SOL    HW124146   2.820   2.959   5.311
 7749SOL    HW224147   2.965   2.884   5.328
 7750SOL     OW24148   0.203   6.448   1.545
 7750SOL    HW124149   0.108   6.447   1.512
 7750SOL    HW224150   0.214   6.377   1.614
 7751SOL     OW24151   1.383   2.246   2.366
 7751SOL    HW124152   1.339   2.329   2.332
 7751SOL    HW224153   1.480   2.248   2.342
 7752SOL     OW24154   5.139   0.355   6.011
 7752SOL    HW124155   5.097   0.437   5.974
 7752SOL    HW224156   5.200   0.379   6.087
 7753SOL     OW24157   2.576   1.191   4.407
 7753SOL    HW124158   2.582   1.269   4.469
 7753SOL    HW224159   2.630   1.115   4.444
 7754SOL     OW24160   3.403   5.985   1.174
 7754SOL    HW124161   3.458   5.959   1.095
 7754SOL    HW224162   3.335   6.054   1.146
 7755SOL     OW24163   1.985   2.673   5.917
 7755SOL    HW124164   1.886   2.665   5.908
 7755SOL    HW224165   2.021   2.594   5.968
 7756SOL     OW24166   2.789   7.021   1.928
 7756SOL    HW124167   2.712   0.048   1.962
 7756SOL    HW224168   2.756   6.953   1.862
 7757SOL     OW24169   5.636   4.839   1.496
 7757SOL    HW124170   5.575   4.839   1.575
 7757SOL    HW224171   5.593   4.792   1.420
 7758SOL     OW24172   1.841   0.129   6.348
 7758SOL    HW124173   1.808   0.202   6.407
 7758SOL    HW224174   1.777   0.115   6.273
 7759SOL     OW24175   1.888   1.609   5.250
 7759SOL    HW124176   1.800   1.599   5.296
 7759SOL    HW224177   1.934   1.692   5.282
 7760SOL     OW24178   5.415   2.694   2.537
 7760SOL    HW124179   5.461   2.665   2.621
 7760SOL    HW224180   5.329   2.739   2.559
 7761SOL     OW24181   6.776   6.231   4.883
 7761SOL    HW124182   6.853   6.259   4.940
 7761SOL    HW224183   6.799   6.244   4.786
 7762SOL     OW24184   2.439   6.996   3.811
 7762SOL    HW124185   2.499   6.960   3.882
 7762SOL    HW224186   2.367   0.025   3.853
 7763SOL     OW24187   2.361   0.250   6.739
 7763SOL    HW124188   2.365   0.312   6.817
 7763SOL    HW224189   2.297   0.175   6.758
 7764SOL     OW24190   3.244   4.121   5.455
 7764SOL    HW124191   3.184   4.043   5.472
 7764SOL    HW224192   3.227   4.191   5.525
 7765SOL     OW24193   5.857   2.797   4.964
 7765SOL    HW124194   5.841   2.811   4.866
 7765SOL    HW224195   5.797   2.858   5.016
 7766SOL     OW24196   7.010   3.577   0.801
 7766SOL    HW124197   6.955   3.528   0.868
 7766SOL    HW224198   0.061   3.521   0.774
 7767SOL     OW24199   4.119   6.499   2.448
 7767SOL    HW124200   4.165   6.567   2.391
 7767SOL    HW224201   4.085   6.542   2.532
 7768SOL     OW24202   5.222   4.862   3.864
 7768SOL    HW124203   5.224   4.798   3.787
 7768SOL    HW224204   5.144   4.840   3.923
 7769SOL     OW24205   4.416   1.444   4.675
 7769SOL    HW124206   4.346   1.444   4.603
 7769SOL    HW224207   4.459   1.354   4.680
 7770SOL     OW24208   0.389   3.224   4.683
 7770SOL    HW124209   0.343   3.294   4.736
 7770SOL    HW224210   0.459   3.266   4.626
 7771SOL     OW24211   3.194   1.714   5.495
 7771SOL    HW124212   3.115   1.658   5.472
 7771SOL    HW224213   3.229   1.760   5.413
 7772SOL     OW24214   5.127   0.073   1.189
 7772SOL    HW124215   5.066   0.009   1.237
 7772SOL    HW224216   5.204   0.022   1.150
 7773SOL     OW24217   1.952   5.462   5.663
 7773SOL    HW124218   1.879   5.500   5.606
 7773SOL    HW224219   2.012   5.405   5.607
 7774SOL     OW24220   4.776   2.718   4.310
 7774SOL    HW124221   4.792   2.817   4.313
 7774SOL    HW224222   4.752   2.685   4.401
 7775SOL     OW24223   4.317   7.023   6.993
 7775SOL    HW124224   4.248   0.034   0.027
 7775SOL    HW224225   4.372   6.956   0.015
 7776SOL     OW24226   0.914   5.742   6.676
 7776SOL    HW124227   0.911   5.644   6.655
 7776SOL    HW224228   0.870   5.760   6.764
 7777SOL     OW24229   5.757   5.402   4.697
 7777SOL    HW124230   5.673   5.451   4.722
 7777SOL    HW224231   5.775   5.331   4.765
 7778SOL     OW24232   5.598   3.914   2.409
 7778SOL    HW124233   5.520   3.948   2.356
 7778SOL    HW224234   5.680   3.919   2.352
 7779SOL     OW24235   2.617   0.993   1.754
 7779SOL    HW124236   2.628   1.088   1.783
 7779SOL    HW224237   2.698   0.964   1.702
 7780SOL     OW24238   1.254   5.212   5.304
 7780SOL    HW124239   1.282   5.124   5.341
 7780SOL    HW224240   1.164   5.237   5.339
 7781SOL     OW24241   1.072   3.631   1.279
 7781SOL    HW124242   0.974   3.618   1.264
 7781SOL    HW224243   1.123   3.557   1.236
 7782SOL     OW24244   5.023   5.273   4.047
 7782SOL    HW124245   4.936   5.307   4.082
 7782SOL    HW224246   5.082   5.244   4.123
 7783SOL     OW24247   0.979   0.315   5.732
 7783SOL    HW124248   0.960   0.372   5.652
 7783SOL    HW224249   1.011   0.373   5.807
 7784SOL     OW24250   3.255   2.208   1.393
 7784SOL    HW124251   3.327   2.163   1.340
 7784SOL    HW224252   3.166   2.187   1.352
 7785SOL     OW24253   2.227   6.214   4.109
 7785SOL    HW124254   2.134   6.179   4.120
 7785SOL    HW224255   2.269   6.172   4.029
 7786SOL     OW24256   4.059   0.596   6.500
 7786SOL    HW124257   4.082   0.597   6.597
 7786SOL    HW224258   4.136   0.631   6.447
 7787SOL     OW24259   1.994   3.187   0.156
 7787SOL    HW124260   1.937   3.123   0.104
 7787SOL    HW224261   2.029   3.258   0.095
 7788SOL     OW24262   1.725   5.025   1.432
 7788SOL    HW124263   1.637   4.980   1.447
 7788SOL    HW224264   1.716   5.092   1.358
 7789SOL     OW24265   3.054   0.074   6.361
 7789SOL    HW124266   3.008   0.157   6.331
 7789SOL    HW224267   3.065   0.012   6.284
 7790SOL     OW24268   5.467   5.812   2.500
 7790SOL    HW124269   5.398   5.884   2.493
 7790SOL    HW224270   5.489   5.794   2.596
 7791SOL     OW24271   1.920   4.865   2.039
 7791SOL    HW124272   1.842   4.919   2.072
 7791SOL    HW224273   1.980   4.923   1.983
 7792SOL     OW24274   1.318   6.298   3.413
 7792SOL    HW124275   1.404   6.262   3.449
 7792SOL    HW224276   1.277   6.359   3.481
 7793SOL     OW24277   4.279   0.505   6.924
 7793SOL    HW124278   4.261   0.447   6.844
 7793SOL    HW224279   4.196   0.512   6.979
 7794SOL     OW24280   0.166   4.367   2.182
 7794SOL    HW124281   0.123   4.382   2.093
 7794SOL    HW224282   0.244   4.306   2.172
 7795SOL     OW24283   3.095   5.240   5.026
 7795SOL    HW124284   3.154   5.216   4.950
 7795SOL    HW224285   3.143   5.223   5.113
 7796SOL     OW24286   3.639   2.567   5.595
 7796SOL    HW124287   3.561   2.505   5.596
 7796SOL    HW224288   3.700   2.543   5.520
 7797SOL     OW24289   0.802   5.718   0.989
 7797SOL    HW124290   0.739   5.676   1.054
 7797SOL    HW224291   0.774   5.813   0.972
 7798SOL     OW24292   1.343   1.765   2.565
 7798SOL    HW124293   1.318   1.773   2.662
 7798SOL    HW224294   1.275   1.811   2.509
 7799SOL     OW24295   1.712   5.315   2.686
 7799SOL    HW124296   1.638   5.268   2.733
 7799SOL    HW224297   1.774   5.355   2.753
 7800SOL     OW24298   0.786   6.038   2.891
 7800SOL    HW124299   0.850   5.973   2.850
 7800SOL    HW224300   0.716   5.988   2.943
 7801SOL     OW24301   1.677   1.147   2.796
 7801SOL    HW124302   1.701   1.186   2.885
 7801SOL    HW224303   1.582   1.117   2.796
 7802SOL     OW24304   6.873   3.078   0.315
 7802SOL    HW124305   6.824   3.110   0.396
 7802SOL    HW224306   6.811   3.080   0.236
 7803SOL     OW24307   4.782   1.867   0.373
 7803SOL    HW124308   4.839   1.832   0.299
 7803SOL    HW224309   4.712   1.799   0.396
 7804SOL     OW24310   4.675   2.047   4.929
 7804SOL    HW124311   4.618   2.000   4.997
 7804SOL    HW224312   4.629   2.046   4.840
 7805SOL     OW24313   5.216   3.657   2.355
 7805SOL    HW124314   5.232   3.742   2.405
 7805SOL    HW224315   5.146   3.603   2.403
 7806SOL     OW24316   6.007   1.207   6.416
 7806SOL    HW124317   6.041   1.283   6.361
 7806SOL    HW224318   5.951   1.147   6.358
 7807SOL     OW24319   0.810   4.661   5.306
 7807SOL    HW124320   0.861   4.649   5.391
 7807SOL    HW224321   0.767   4.751   5.305
 7808SOL     OW24322   5.929   3.187   3.290
 7808SOL    HW124323   5.932   3.088   3.306
 7808SOL    HW224324   5.839   3.222   3.315
 7809SOL     OW24325   5.049   5.042   4.524
 7809SOL    HW124326   5.143   5.006   4.526
 7809SOL    HW224327   4.994   4.996   4.593
 7810SOL     OW24328   2.760   6.687   5.659
 7810SOL    HW124329   2.660   6.683   5.663
 7810SOL    HW224330   2.798   6.617   5.719
 7811SOL     OW24331   1.291   5.077   1.893
 7811SOL    HW124332   1.352   5.146   1.931
 7811SOL    HW224333   1.346   5.008   1.844
 7812SOL     OW24334   2.038   2.685   4.834
 7812SOL    HW124335   1.959   2.744   4.821
 7812SOL    HW224336   2.078   2.662   4.746
 7813SOL     OW24337   4.470   2.426   1.238
 7813SOL    HW124338   4.543   2.389   1.296
 7813SOL    HW224339   4.509   2.460   1.153
 7814SOL     OW24340   0.149   3.795   3.190
 7814SOL    HW124341   0.226   3.731   3.197
 7814SOL    HW224342   0.075   3.753   3.139
 7815SOL     OW24343   5.613   1.909   4.534
 7815SOL    HW124344   5.567   1.840   4.590
 7815SOL    HW224345   5.711   1.887   4.529
 7816SOL     OW24346   0.381   2.477   6.475
 7816SOL    HW124347   0.344   2.542   6.542
 7816SOL    HW224348   0.372   2.515   6.383
 7817SOL     OW24349   4.609   4.350   5.103
 7817SOL    HW124350   4.613   4.350   5.003
 7817SOL    HW224351   4.513   4.354   5.132
 7818SOL     OW24352   4.224   0.676   3.051
 7818SOL    HW124353   4.174   0.697   3.135
 7818SOL    HW224354   4.159   0.657   2.978
 7819SOL     OW24355   0.402   3.932   3.997
 7819SOL    HW124356   0.422   3.844   3.953
 7819SOL    HW224357   0.479   3.960   4.053
 7820SOL     OW24358   1.854   1.190   5.656
 7820SOL    HW124359   1.871   1.134   5.738
 7820SOL    HW224360   1.863   1.133   5.575
 7821SOL     OW24361   5.730   6.119   0.695
 7821SOL    HW124362   5.824   6.110   0.729
 7821SOL    HW224363   5.685   6.194   0.743
 7822SOL     OW24364   1.468   1.532   6.327
 7822SOL    HW124365   1.432   1.474   6.400
 7822SOL    HW224366   1.468   1.481   6.241
 7823SOL     OW24367   2.351   3.755   6.088
 7823SOL    HW124368   2.422   3.727   6.152
 7823SOL    HW224369   2.381   3.739   5.994
 7824SOL     OW24370   5.550   0.352   5.112
 7824SOL    HW124371   5.463   0.394   5.138
 7824SOL    HW224372   5.612   0.423   5.078
 7825SOL     OW24373   1.552   3.168   1.007
 7825SOL    HW124374   1.552   3.076   0.968
 7825SOL    HW224375   1.646   3.201   1.014
 7826SOL     OW24376   4.864   1.999   6.671
 7826SOL    HW124377   4.910   1.937   6.608
 7826SOL    HW224378   4.933   2.053   6.720
 7827SOL     OW24379   3.143   5.123   1.028
 7827SOL    HW124380   3.177   5.204   0.980
 7827SOL    HW224381   3.193   5.113   1.114
 7828SOL     OW24382   6.991   5.178   0.898
 7828SOL    HW124383   0.048   5.195   0.846
 7828SOL    HW224384   6.995   5.085   0.937
 7829SOL     OW24385   2.020   2.605   0.298
 7829SOL    HW124386   2.070   2.685   0.264
 7829SOL    HW224387   2.069   2.566   0.376
 7830SOL     OW24388   5.295   3.811   6.117
 7830SOL    HW124389   5.371   3.787   6.177
 7830SOL    HW224390   5.308   3.903   6.081
 7831SOL     OW24391   1.440   5.444   0.538
 7831SOL    HW124392   1.512   5.512   0.523
 7831SOL    HW224393   1.408   5.448   0.632
 7832SOL     OW24394   3.416   1.150   4.243
 7832SOL    HW124395   3.336   1.098   4.213
 7832SOL    HW224396   3.395   1.197   4.329
 7833SOL     OW24397   0.308   0.573   6.940
 7833SOL    HW124398   0.266   0.662   6.918
 7833SOL    HW224399   0.241   0.515   6.985
 7834SOL     OW24400   0.608   1.769   2.939
 7834SOL    HW124401   0.571   1.841   2.881
 7834SOL    HW224402   0.694   1.799   2.980
 7835SOL     OW24403   1.743   2.393   4.799
 7835SOL    HW124404   1.821   2.399   4.861
 7835SOL    HW224405   1.659   2.410   4.850
 7836SOL     OW24406   3.645   1.797   6.464
 7836SOL    HW124407   3.583   1.788   6.542
 7836SOL    HW224408   3.683   1.890   6.463
 7837SOL     OW24409   6.384   6.607   1.532
 7837SOL    HW124410   6.440   6.568   1.605
 7837SOL    HW224411   6.301   6.646   1.571
 7838SOL     OW24412   4.408   6.059   7.014
 7838SOL    HW124413   4.476   6.006   0.039
 7838SOL    HW224414   4.448   6.093   6.929
 7839SOL     OW24415   6.462   5.018   5.872
 7839SOL    HW124416   6.409   5.103   5.867
 7839SOL    HW224417   6.421   4.950   5.811
 7840SOL     OW24418   5.141   3.751   4.057
 7840SOL    HW124419   5.111   3.660   4.083
 7840SOL    HW224420   5.068   3.817   4.076
 7841SOL     OW24421   5.843   1.228   7.015
 7841SOL    HW124422   5.856   1.183   0.077
 7841SOL    HW224423   5.880   1.170   6.942
 7842SOL     OW24424   2.137   1.487   3.073
 7842SOL    HW124425   2.069   1.418   3.098
 7842SOL    HW224426   2.223   1.442   3.047
 7843SOL     OW24427   5.482   4.622   1.688
 7843SOL    HW124428   5.429   4.596   1.769
 7843SOL    HW224429   5.575   4.643   1.715
 7844SOL     OW24430   4.154   0.145   3.535
 7844SOL    HW124431   4.100   0.157   3.619
 7844SOL    HW224432   4.249   0.123   3.560
 7845SOL     OW24433   0.115   1.095   3.806
 7845SOL    HW124434   0.033   1.073   3.754
 7845SOL    HW224435   0.111   1.190   3.837
 7846SOL     OW24436   1.279   0.526   1.807
 7846SOL    HW124437   1.337   0.576   1.742
 7846SOL    HW224438   1.198   0.581   1.828
 7847SOL     OW24439   6.641   1.794   1.430
 7847SOL    HW124440   6.555   1.748   1.408
 7847SOL    HW224441   6.714   1.727   1.438
 7848SOL     OW24442   3.130   3.994   0.952
 7848SOL    HW124443   3.073   4.016   0.873
 7848SOL    HW224444   3.073   3.993   1.034
 7849SOL     OW24445   5.022   4.001   4.050
 7849SOL    HW124446   5.081   4.081   4.059
 7849SOL    HW224447   4.997   3.988   3.954
 7850SOL     OW24448   0.102   1.450   4.310
 7850SOL    HW124449   0.168   1.460   4.385
 7850SOL    HW224450   0.100   1.534   4.256
 7851SOL     OW24451   6.520   0.250   0.772
 7851SOL    HW124452   6.454   0.313   0.729
 7851SOL    HW224453   6.504   0.157   0.739
 7852SOL     OW24454   2.896   0.503   5.886
 7852SOL    HW124455   2.800   0.524   5.904
 7852SOL    HW224456   2.937   0.464   5.968
 7853SOL     OW24457   4.066   1.826   1.749
 7853SOL    HW124458   4.152   1.773   1.752
 7853SOL    HW224459   3.992   1.770   1.786
 7854SOL     OW24460   3.470   4.449   0.970
 7854SOL    HW124461   3.390   4.395   0.998
 7854SOL    HW224462   3.449   4.546   0.980
 7855SOL     OW24463   3.728   5.835   6.001
 7855SOL    HW124464   3.758   5.799   6.090
 7855SOL    HW224465   3.628   5.837   5.997
 7856SOL     OW24466   5.959   4.822   3.689
 7856SOL    HW124467   6.050   4.791   3.660
 7856SOL    HW224468   5.901   4.743   3.708
 7857SOL     OW24469   6.628   2.946   5.248
 7857SOL    HW124470   6.726   2.961   5.235
 7857SOL    HW224471   6.578   3.023   5.209
 7858SOL     OW24472   4.841   5.220   3.862
 7858SOL    HW124473   4.927   5.242   3.909
 7858SOL    HW224474   4.861   5.187   3.770
 7859SOL     OW24475   6.610   4.510   5.797
 7859SOL    HW124476   6.512   4.487   5.805
 7859SOL    HW224477   6.663   4.425   5.794
 7860SOL     OW24478   3.959   6.811   3.022
 7860SOL    HW124479   3.888   6.785   2.957
 7860SOL    HW224480   3.925   6.882   3.083
 7861SOL     OW24481   4.005   5.659   1.892
 7861SOL    HW124482   3.928   5.605   1.856
 7861SOL    HW224483   4.060   5.601   1.952
 7862SOL     OW24484   3.114   4.576   1.670
 7862SOL    HW124485   3.073   4.529   1.748
 7862SOL    HW224486   3.193   4.524   1.637
 7863SOL     OW24487   6.646   6.544   3.788
 7863SOL    HW124488   6.610   6.541   3.881
 7863SOL    HW224489   6.644   6.638   3.754
 7864SOL     OW24490   6.857   6.162   5.778
 7864SOL    HW124491   6.889   6.256   5.790
 7864SOL    HW224492   6.803   6.156   5.694
 7865SOL     OW24493   4.884   6.834   4.057
 7865SOL    HW124494   4.876   6.931   4.078
 7865SOL    HW224495   4.883   6.821   3.957
 7866SOL     OW24496   2.321   2.824   0.397
 7866SOL    HW124497   2.263   2.831   0.315
 7866SOL    HW224498   2.333   2.728   0.421
 7867SOL     OW24499   4.984   5.661   2.574
 7867SOL    HW124500   5.008   5.756   2.557
 7867SOL    HW224501   4.884   5.652   2.581
 7868SOL     OW24502   5.799   6.868   2.301
 7868SOL    HW124503   5.728   6.924   2.343
 7868SOL    HW224504   5.785   6.772   2.328
 7869SOL     OW24505   5.502   3.875   0.401
 7869SOL    HW124506   5.495   3.890   0.302
 7869SOL    HW224507   5.521   3.778   0.419
 7870SOL     OW24508   5.247   6.189   4.213
 7870SOL    HW124509   5.153   6.206   4.183
 7870SOL    HW224510   5.278   6.101   4.177
 7871SOL     OW24511   5.890   3.995   2.757
 7871SOL    HW124512   5.852   3.940   2.831
 7871SOL    HW224513   5.962   3.944   2.711
 7872SOL     OW24514   1.827   4.548   2.854
 7872SOL    HW124515   1.790   4.577   2.942
 7872SOL    HW224516   1.809   4.450   2.841
 7873SOL     OW24517   5.194   6.886   5.089
 7873SOL    HW124518   5.205   6.951   5.164
 7873SOL    HW224519   5.150   6.932   5.012
 7874SOL     OW24520   5.371   0.993   0.411
 7874SOL    HW124521   5.446   0.961   0.353
 7874SOL    HW224522   5.400   1.077   0.458
 7875SOL     OW24523   4.334   3.118   6.553
 7875SOL    HW124524   4.382   3.049   6.607
 7875SOL    HW224525   4.251   3.078   6.513
 7876SOL     OW24526   0.033   6.965   5.013
 7876SOL    HW124527   0.044   6.920   4.925
 7876SOL    HW224528   6.966   7.000   5.021
 7877SOL     OW24529   0.336   3.697   2.580
 7877SOL    HW124530   0.291   3.728   2.664
 7877SOL    HW224531   0.284   3.621   2.541
 7878SOL     OW24532   5.172   5.088   4.243
 7878SOL    HW124533   5.264   5.056   4.268
 7878SOL    HW224534   5.119   5.106   4.327
 7879SOL     OW24535   4.557   5.437   3.906
 7879SOL    HW124536   4.475   5.493   3.916
 7879SOL    HW224537   4.531   5.343   3.883
 7880SOL     OW24538   0.578   5.160   0.934
 7880SOL    HW124539   0.535   5.249   0.945
 7880SOL    HW224540   0.508   5.092   0.912
 7881SOL     OW24541   6.215   3.350   4.911
 7881SOL    HW124542   6.159   3.318   4.835
 7881SOL    HW224543   6.300   3.390   4.875
 7882SOL     OW24544   1.378   2.661   3.173
 7882SOL    HW124545   1.351   2.711   3.255
 7882SOL    HW224546   1.298   2.642   3.117
 7883SOL     OW24547   1.595   6.574   0.789
 7883SOL    HW124548   1.560   6.665   0.770
 7883SOL    HW224549   1.543   6.533   0.864
 7884SOL     OW24550   1.769   4.295   3.792
 7884SOL    HW124551   1.849   4.267   3.740
 7884SOL    HW224552   1.796   4.320   3.884
 7885SOL     OW24553   6.436   6.238   2.626
 7885SOL    HW124554   6.436   6.205   2.721
 7885SOL    HW224555   6.477   6.329   2.623
 7886SOL     OW24556   4.598   3.656   1.535
 7886SOL    HW124557   4.527   3.602   1.582
 7886SOL    HW224558   4.568   3.676   1.442
 7887SOL     OW24559   3.431   2.371   5.586
 7887SOL    HW124560   3.456   2.303   5.656
 7887SOL    HW224561   3.381   2.325   5.512
 7888SOL     OW24562   0.195   0.334   5.009
 7888SOL    HW124563   0.248   0.408   4.967
 7888SOL    HW224564   0.246   0.248   5.001
 7889SOL     OW24565   0.701   4.441   0.277
 7889SOL    HW124566   0.697   4.366   0.210
 7889SOL    HW224567   0.751   4.518   0.238
 7890SOL     OW24568   0.487   3.409   3.850
 7890SOL    HW124569   0.408   3.469   3.844
 7890SOL    HW224570   0.516   3.401   3.946
 7891SOL     OW24571   1.215   3.757   4.350
 7891SOL    HW124572   1.140   3.701   4.385
 7891SOL    HW224573   1.303   3.715   4.374
 7892SOL     OW24574   1.080   2.288   3.725
 7892SOL    HW124575   0.987   2.264   3.753
 7892SOL    HW224576   1.144   2.267   3.799
 7893SOL     OW24577   6.182   6.942   2.254
 7893SOL    HW124578   6.147   6.959   2.346
 7893SOL    HW224579   6.170   6.845   2.231
 7894SOL     OW24580   2.864   1.115   1.136
 7894SOL    HW124581   2.899   1.022   1.144
 7894SOL    HW224582   2.776   1.113   1.088
 7895SOL     OW24583   4.625   6.732   5.219
 7895SOL    HW124584   4.714   6.761   5.183
 7895SOL    HW224585   4.569   6.697   5.144
 7896SOL     OW24586   5.694   3.063   1.067
 7896SOL    HW124587   5.617   3.098   1.014
 7896SOL    HW224588   5.780   3.098   1.029
 7897SOL     OW24589   3.662   3.316   1.008
 7897SOL    HW124590   3.568   3.347   1.017
 7897SOL    HW224591   3.704   3.307   1.099
 7898SOL     OW24592   3.618   0.122   3.997
 7898SOL    HW124593   3.583   0.030   4.015
 7898SOL    HW224594   3.700   0.138   4.052
 7899SOL     OW24595   6.141   7.011   1.730
 7899SOL    HW124596   6.073   0.012   1.661
 7899SOL    HW224597   6.116   6.922   1.766
 7900SOL     OW24598   0.860   4.582   1.716
 7900SOL    HW124599   0.792   4.633   1.664
 7900SOL    HW224600   0.903   4.642   1.783
 7901SOL     OW24601   4.705   0.802   6.055
 7901SOL    HW124602   4.688   0.900   6.043
 7901SOL    HW224603   4.620   0.752   6.042
 7902SOL     OW24604   6.242   5.847   3.141
 7902SOL    HW124605   6.224   5.935   3.095
 7902SOL    HW224606   6.289   5.786   3.078
 7903SOL     OW24607   4.624   2.313   2.922
 7903SOL    HW124608   4.586   2.402   2.947
 7903SOL    HW224609   4.643   2.260   3.005
 7904SOL     OW24610   5.697   0.746   3.031
 7904SOL    HW124611   5.790   0.743   2.995
 7904SOL    HW224612   5.681   0.666   3.089
 7905SOL     OW24613   6.033   1.950   0.901
 7905SOL    HW124614   6.014   1.973   0.996
 7905SOL    HW224615   6.130   1.965   0.882
 7906SOL     OW24616   1.312   5.789   0.722
 7906SOL    HW124617   1.230   5.739   0.750
 7906SOL    HW224618   1.309   5.804   0.623
 7907SOL     OW24619   6.768   0.863   3.098
 7907SOL    HW124620   6.691   0.801   3.087
 7907SOL    HW224621   6.843   0.835   3.038
 7908SOL     OW24622   0.622   1.495   5.908
 7908SOL    HW124623   0.649   1.405   5.875
 7908SOL    HW224624   0.670   1.565   5.856
 7909SOL     OW24625   4.993   4.504   3.609
 7909SOL    HW124626   4.996   4.427   3.545
 7909SOL    HW224627   4.897   4.530   3.625
 7910SOL     OW24628   1.808   3.432   0.516
 7910SOL    HW124629   1.829   3.389   0.428
 7910SOL    HW224630   1.873   3.507   0.532
 7911SOL     OW24631   0.672   4.395   1.159
 7911SOL    HW124632   0.712   4.376   1.249
 7911SOL    HW224633   0.699   4.323   1.095
 7912SOL     OW24634   5.903   4.295   1.039
 7912SOL    HW124635   5.877   4.279   1.134
 7912SOL    HW224636   5.993   4.254   1.021
 7913SOL     OW24637   1.665   4.233   1.904
 7913SOL    HW124638   1.714   4.319   1.890
 7913SOL    HW224639   1.570   4.243   1.873
 7914SOL     OW24640   0.433   4.255   1.149
 7914SOL    HW124641   0.487   4.331   1.184
 7914SOL    HW224642   0.494   4.180   1.123
 7915SOL     OW24643   4.878   1.923   2.770
 7915SOL    HW124644   4.859   2.021   2.766
 7915SOL    HW224645   4.961   1.907   2.824
 7916SOL     OW24646   0.672   6.367   5.436
 7916SOL    HW124647   0.603   6.363   5.508
 7916SOL    HW224648   0.761   6.393   5.475
 7917SOL     OW24649   4.241   3.167   5.488
 7917SOL    HW124650   4.266   3.209   5.575
 7917SOL    HW224651   4.323   3.155   5.432
 7918SOL     OW24652   6.813   0.977   4.787
 7918SOL    HW124653   6.882   1.046   4.764
 7918SOL    HW224654   6.802   0.973   4.886
 7919SOL     OW24655   1.299   4.997   2.718
 7919SOL    HW124656   1.368   4.933   2.684
 7919SOL    HW224657   1.242   4.951   2.786
 7920SOL     OW24658   6.017   6.620   1.524
 7920SOL    HW124659   6.014   6.710   1.568
 7920SOL    HW224660   6.059   6.628   1.434
 7921SOL     OW24661   5.712   6.600   2.383
 7921SOL    HW124662   5.798   6.549   2.374
 7921SOL    HW224663   5.639   6.548   2.339
 7922SOL     OW24664   0.591   5.788   6.898
 7922SOL    HW124665   0.617   5.718   6.831
 7922SOL    HW224666   0.671   5.845   6.919
 7923SOL     OW24667   3.775   1.370   5.736
 7923SOL    HW124668   3.862   1.337   5.771
 7923SOL    HW224669   3.706   1.298   5.745
 7924SOL     OW24670   4.359   0.151   0.969
 7924SOL    HW124671   4.307   0.188   1.047
 7924SOL    HW224672   4.298   0.138   0.891
 7925SOL     OW24673   1.201   0.085   0.603
 7925SOL    HW124674   1.189   0.038   0.690
 7925SOL    HW224675   1.215   0.183   0.619
 7926SOL     OW24676   5.126   1.670   7.015
 7926SOL    HW124677   5.057   1.601   6.992
 7926SOL    HW224678   5.212   1.625   0.013
 7927SOL     OW24679   4.821   7.010   2.253
 7927SOL    HW124680   4.754   6.954   2.302
 7927SOL    HW224681   4.844   0.063   2.308
 7928SOL     OW24682   0.359   1.618   4.236
 7928SOL    HW124683   0.281   1.622   4.173
 7928SOL    HW224684   0.414   1.700   4.226
 7929SOL     OW24685   3.858   3.567   5.695
 7929SOL    HW124686   3.865   3.600   5.601
 7929SOL    HW224687   3.934   3.603   5.749
 7930SOL     OW24688   4.015   5.073   6.022
 7930SOL    HW124689   3.982   4.981   6.040
 7930SOL    HW224690   4.105   5.068   5.979
 7931SOL     OW24691   4.296   2.753   0.981
 7931SOL    HW124692   4.340   2.668   0.951
 7931SOL    HW224693   4.225   2.778   0.915
 7932SOL     OW24694   1.331   5.418   6.628
 7932SOL    HW124695   1.325   5.474   6.545
 7932SOL    HW224696   1.372   5.330   6.607
 7933SOL     OW24697   6.729   0.414   5.664
 7933SOL    HW124698   6.678   0.358   5.600
 7933SOL    HW224699   6.701   0.392   5.758
 7934SOL     OW24700   1.531   5.176   6.820
 7934SOL    HW124701   1.543   5.125   6.735
 7934SOL    HW224702   1.557   5.271   6.805
 7935SOL     OW24703   5.401   6.381   1.414
 7935SOL    HW124704   5.315   6.333   1.428
 7935SOL    HW224705   5.443   6.401   1.503
 7936SOL     OW24706   3.136   5.767   3.125
 7936SOL    HW124707   3.040   5.740   3.132
 7936SOL    HW224708   3.190   5.691   3.089
 7937SOL     OW24709   0.775   5.941   3.909
 7937SOL    HW124710   0.770   5.972   3.814
 7937SOL    HW224711   0.860   5.971   3.950
 7938SOL     OW24712   5.910   6.026   5.359
 7938SOL    HW124713   5.966   6.085   5.417
 7938SOL    HW224714   5.819   6.015   5.400
 7939SOL     OW24715   1.485   2.384   5.797
 7939SOL    HW124716   1.556   2.399   5.865
 7939SOL    HW224717   1.515   2.315   5.731
 7940SOL     OW24718   2.879   2.306   2.655
 7940SOL    HW124719   2.806   2.269   2.713
 7940SOL    HW224720   2.952   2.238   2.647
 7941SOL     OW24721   5.585   6.167   2.718
 7941SOL    HW124722   5.663   6.137   2.663
 7941SOL    HW224723   5.583   6.267   2.721
 7942SOL     OW24724   0.850   3.965   3.154
 7942SOL    HW124725   0.763   3.992   3.113
 7942SOL    HW224726   0.849   3.987   3.252
 7943SOL     OW24727   0.705   4.361   5.860
 7943SOL    HW124728   0.630   4.412   5.818
 7943SOL    HW224729   0.678   4.330   5.951
 7944SOL     OW24730   0.678   2.761   0.953
 7944SOL    HW124731   0.705   2.750   0.857
 7944SOL    HW224732   0.750   2.726   1.013
 7945SOL     OW24733   6.271   5.918   1.837
 7945SOL    HW124734   6.265   5.834   1.784
 7945SOL    HW224735   6.262   5.997   1.776
 7946SOL     OW24736   3.325   0.633   5.733
 7946SOL    HW124737   3.352   0.706   5.795
 7946SOL    HW224738   3.358   0.654   5.641
 7947SOL     OW24739   2.686   1.774   5.239
 7947SOL    HW124740   2.693   1.679   5.270
 7947SOL    HW224741   2.729   1.834   5.306
 7948SOL     OW24742   1.064   5.671   0.682
 7948SOL    HW124743   1.052   5.573   0.668
 7948SOL    HW224744   1.007   5.721   0.617
 7949SOL     OW24745   4.311   4.243   6.401
 7949SOL    HW124746   4.392   4.223   6.347
 7949SOL    HW224747   4.306   4.181   6.479
 7950SOL     OW24748   4.894   5.986   4.485
 7950SOL    HW124749   4.947   6.008   4.567
 7950SOL    HW224750   4.797   6.003   4.503
 7951SOL     OW24751   1.714   5.053   2.089
 7951SOL    HW124752   1.768   5.105   2.155
 7951SOL    HW224753   1.629   5.101   2.070
 7952SOL     OW24754   0.304   3.151   0.114
 7952SOL    HW124755   0.310   3.067   0.061
 7952SOL    HW224756   0.226   3.146   0.177
 7953SOL     OW24757   4.366   2.330   2.079
 7953SOL    HW124758   4.330   2.369   1.995
 7953SOL    HW224759   4.293   2.281   2.127
 7954SOL     OW24760   3.794   4.368   6.114
 7954SOL    HW124761   3.738   4.388   6.034
 7954SOL    HW224762   3.750   4.408   6.195
 7955SOL     OW24763   1.840   0.974   6.495
 7955SOL    HW124764   1.803   1.055   6.543
 7955SOL    HW224765   1.888   1.003   6.413
 7956SOL     OW24766   5.103   0.517   2.025
 7956SOL    HW124767   5.048   0.440   2.056
 7956SOL    HW224768   5.054   0.566   1.952
 7957SOL     OW24769   1.761   0.907   0.313
 7957SOL    HW124770   1.712   0.829   0.352
 7957SOL    HW224771   1.801   0.962   0.386
 7958SOL     OW24772   4.816   5.004   6.046
 7958SOL    HW124773   4.777   4.914   6.067
 7958SOL    HW224774   4.742   5.071   6.035
 7959SOL     OW24775   4.842   6.697   0.610
 7959SOL    HW124776   4.919   6.750   0.575
 7959SOL    HW224777   4.876   6.622   0.667
 7960SOL     OW24778   2.236   0.836   6.112
 7960SOL    HW124779   2.183   0.769   6.165
 7960SOL    HW224780   2.301   0.882   6.172
 7961SOL     OW24781   6.657   0.549   0.888
 7961SOL    HW124782   6.734   0.606   0.861
 7961SOL    HW224783   6.644   0.476   0.821
 7962SOL     OW24784   0.726   1.132   5.558
 7962SOL    HW124785   0.787   1.069   5.510
 7962SOL    HW224786   0.637   1.134   5.513
 7963SOL     OW24787   6.154   5.715   4.506
 7963SOL    HW124788   6.073   5.676   4.551
 7963SOL    HW224789   6.228   5.723   4.573
 7964SOL     OW24790   6.488   3.733   2.993
 7964SOL    HW124791   6.442   3.778   3.069
 7964SOL    HW224792   6.587   3.745   3.002
 7965SOL     OW24793   4.036   2.075   6.103
 7965SOL    HW124794   3.965   2.006   6.083
 7965SOL    HW224795   3.999   2.141   6.168
 7966SOL     OW24796   3.078   3.232   5.962
 7966SOL    HW124797   3.055   3.200   6.054
 7966SOL    HW224798   3.019   3.309   5.938
 7967SOL     OW24799   2.880   5.663   1.704
 7967SOL    HW124800   2.921   5.585   1.751
 7967SOL    HW224801   2.880   5.647   1.606
 7968SOL     OW24802   6.268   2.186   4.475
 7968SOL    HW124803   6.191   2.183   4.411
 7968SOL    HW224804   6.323   2.268   4.456
 7969SOL     OW24805   6.086   5.532   1.151
 7969SOL    HW124806   6.108   5.626   1.125
 7969SOL    HW224807   6.171   5.481   1.164
 7970SOL     OW24808   6.348   3.461   2.190
 7970SOL    HW124809   6.309   3.369   2.198
 7970SOL    HW224810   6.444   3.459   2.221
 7971SOL     OW24811   3.369   1.834   1.139
 7971SOL    HW124812   3.348   1.758   1.200
 7971SOL    HW224813   3.333   1.814   1.048
 7972SOL     OW24814   3.125   3.383   0.909
 7972SOL    HW124815   3.028   3.370   0.928
 7972SOL    HW224816   3.155   3.470   0.946
 7973SOL     OW24817   4.757   4.631   4.063
 7973SOL    HW124818   4.706   4.553   4.029
 7973SOL    HW224819   4.782   4.616   4.159
 7974SOL     OW24820   5.981   1.027   5.640
 7974SOL    HW124821   5.916   1.032   5.716
 7974SOL    HW224822   6.072   1.005   5.676
 7975SOL     OW24823   5.749   0.943   1.353
 7975SOL    HW124824   5.844   0.948   1.321
 7975SOL    HW224825   5.687   0.942   1.275
 7976SOL     OW24826   1.135   0.187   6.230
 7976SOL    HW124827   1.119   0.273   6.279
 7976SOL    HW224828   1.060   0.123   6.249
 7977SOL     OW24829   4.378   5.813   2.962
 7977SOL    HW124830   4.313   5.803   3.037
 7977SOL    HW224831   4.445   5.738   2.965
 7978SOL     OW24832   6.572   2.865   6.105
 7978SOL    HW124833   6.513   2.925   6.158
 7978SOL    HW224834   6.636   2.817   6.165
 7979SOL     OW24835   3.269   5.159   5.697
 7979SOL    HW124836   3.306   5.252   5.695
 7979SOL    HW224837   3.344   5.094   5.703
 7980SOL     OW24838   3.067   5.317   6.601
 7980SOL    HW124839   3.118   5.376   6.538
 7980SOL    HW224840   3.120   5.304   6.685
 7981SOL     OW24841   1.171   4.597   2.042
 7981SOL    HW124842   1.203   4.606   2.136
 7981SOL    HW224843   1.100   4.666   2.025
 7982SOL     OW24844   1.303   1.568   6.663
 7982SOL    HW124845   1.258   1.601   6.746
 7982SOL    HW224846   1.236   1.563   6.589
 7983SOL     OW24847   5.979   2.202   0.338
 7983SOL    HW124848   6.057   2.167   0.286
 7983SOL    HW224849   5.895   2.155   0.309
 7984SOL     OW24850   0.419   1.413   0.635
 7984SOL    HW124851   0.334   1.372   0.602
 7984SOL    HW224852   0.486   1.340   0.652
 7985SOL     OW24853   2.656   2.216   4.583
 7985SOL    HW124854   2.696   2.287   4.641
 7985SOL    HW224855   2.677   2.126   4.619
 7986SOL     OW24856   2.797   0.848   6.466
 7986SOL    HW124857   2.783   0.774   6.402
 7986SOL    HW224858   2.798   0.935   6.417
 7987SOL     OW24859   2.014   2.532   6.744
 7987SOL    HW124860   2.088   2.491   6.690
 7987SOL    HW224861   2.043   2.539   6.839
 7988SOL     OW24862   1.657   0.708   2.628
 7988SOL    HW124863   1.561   0.680   2.641
 7988SOL    HW224864   1.680   0.701   2.531
 7989SOL     OW24865   2.903   2.929   0.326
 7989SOL    HW124866   2.872   3.023   0.342
 7989SOL    HW224867   2.868   2.897   0.238
 7990SOL     OW24868   2.175   5.316   4.650
 7990SOL    HW124869   2.204   5.270   4.734
 7990SOL    HW224870   2.105   5.385   4.671
 7991SOL     OW24871   6.048   1.552   3.921
 7991SOL    HW124872   6.067   1.462   3.880
 7991SOL    HW224873   6.042   1.542   4.021
 7992SOL     OW24874   1.269   0.479   0.308
 7992SOL    HW124875   1.214   0.551   0.265
 7992SOL    HW224876   1.237   0.465   0.402
 7993SOL     OW24877   0.525   0.081   1.180
 7993SOL    HW124878   0.565   0.003   1.133
 7993SOL    HW224879   0.577   0.164   1.158
 7994SOL     OW24880   3.816   0.013   3.494
 7994SOL    HW124881   3.810   0.112   3.505
 7994SOL    HW224882   3.905   7.016   3.455
 7995SOL     OW24883   5.713   5.599   3.486
 7995SOL    HW124884   5.660   5.524   3.444
 7995SOL    HW224885   5.809   5.590   3.460
 7996SOL     OW24886   3.430   6.290   4.184
 7996SOL    HW124887   3.463   6.384   4.193
 7996SOL    HW224888   3.414   6.251   4.274
 7997SOL     OW24889   6.838   0.997   0.228
 7997SOL    HW124890   6.810   1.092   0.244
 7997SOL    HW224891   6.833   0.978   0.130
 7998SOL     OW24892   3.274   0.508   0.397
 7998SOL    HW124893   3.268   0.417   0.437
 7998SOL    HW224894   3.365   0.522   0.359
 7999SOL     OW24895   0.627   1.253   5.795
 7999SOL    HW124896   0.527   1.252   5.788
 7999SOL    HW224897   0.666   1.209   5.714
 8000SOL     OW24898   5.149   6.698   6.583
 8000SOL    HW124899   5.060   6.745   6.583
 8000SOL    HW224900   5.200   6.724   6.664
 8001SOL     OW24901   4.036   6.233   1.993
 8001SOL    HW124902   4.045   6.330   1.971
 8001SOL    HW224903   4.127   6.194   2.010
 8002SOL     OW24904   1.336   0.574   6.389
 8002SOL    HW124905   1.357   0.483   6.355
 8002SOL    HW224906   1.303   0.568   6.483
 8003SOL     OW24907   2.270   5.693   1.646
 8003SOL    HW124908   2.316   5.742   1.572
 8003SOL    HW224909   2.304   5.726   1.734
 8004SOL     OW24910   1.995   3.299   3.431
 8004SOL    HW124911   1.921   3.231   3.427
 8004SOL    HW224912   2.053   3.281   3.510
 8005SOL     OW24913   3.177   0.866   3.431
 8005SOL    HW124914   3.211   0.931   3.363
 8005SOL    HW224915   3.184   0.773   3.396
 8006SOL     OW24916   2.494   6.008   5.370
 8006SOL    HW124917   2.561   6.074   5.337
 8006SOL    HW224918   2.416   6.056   5.410
 8007SOL     OW24919   5.421   1.431   6.055
 8007SOL    HW124920   5.476   1.496   6.107
 8007SOL    HW224921   5.398   1.353   6.112
 8008SOL     OW24922   3.966   6.240   6.478
 8008SOL    HW124923   3.933   6.261   6.570
 8008SOL    HW224924   3.914   6.293   6.411
 8009SOL     OW24925   5.358   0.749   1.107
 8009SOL    HW124926   5.411   0.732   1.024
 8009SOL    HW224927   5.332   0.661   1.149
 8010SOL     OW24928   2.323   1.598   5.179
 8010SOL    HW124929   2.240   1.575   5.129
 8010SOL    HW224930   2.381   1.657   5.123
 8011SOL     OW24931   3.454   2.074   1.270
 8011SOL    HW124932   3.553   2.060   1.262
 8011SOL    HW224933   3.407   1.987   1.258
 8012SOL     OW24934   2.389   3.630   0.307
 8012SOL    HW124935   2.446   3.566   0.359
 8012SOL    HW224936   2.442   3.671   0.233
 8013SOL     OW24937   1.373   5.024   3.444
 8013SOL    HW124938   1.296   5.019   3.508
 8013SOL    HW224939   1.404   5.119   3.437
 8014SOL     OW24940   1.548   6.894   4.634
 8014SOL    HW124941   1.635   6.866   4.593
 8014SOL    HW224942   1.509   6.816   4.683
 8015SOL     OW24943   2.080   0.779   6.540
 8015SOL    HW124944   2.080   0.762   6.441
 8015SOL    HW224945   2.155   0.842   6.563
 8016SOL     OW24946   3.689   0.656   5.647
 8016SOL    HW124947   3.626   0.582   5.622
 8016SOL    HW224948   3.778   0.617   5.669
 8017SOL     OW24949   5.697   6.984   0.420
 8017SOL    HW124950   5.656   6.923   0.488
 8017SOL    HW224951   5.661   6.961   0.329
 8018SOL     OW24952   3.431   2.581   0.559
 8018SOL    HW124953   3.408   2.546   0.650
 8018SOL    HW224954   3.530   2.579   0.547
 8019SOL     OW24955   2.474   4.905   1.512
 8019SOL    HW124956   2.567   4.889   1.482
 8019SOL    HW224957   2.462   4.870   1.605
 8020SOL     OW24958   6.422   6.932   6.467
 8020SOL    HW124959   6.369   6.968   6.544
 8020SOL    HW224960   6.513   6.974   6.466
 8021SOL     OW24961   1.195   2.905   0.981
 8021SOL    HW124962   1.173   2.814   1.016
 8021SOL    HW224963   1.127   2.931   0.913
 8022SOL     OW24964   6.044   0.508   1.963
 8022SOL    HW124965   6.073   0.503   2.059
 8022SOL    HW224966   6.116   0.471   1.904
 8023SOL     OW24967   5.709   4.790   2.419
 8023SOL    HW124968   5.733   4.800   2.322
 8023SOL    HW224969   5.732   4.698   2.449
 8024SOL     OW24970   1.265   5.100   6.137
 8024SOL    HW124971   1.246   5.015   6.185
 8024SOL    HW224972   1.363   5.116   6.132
 8025SOL     OW24973   2.301   5.602   0.899
 8025SOL    HW124974   2.258   5.520   0.936
 8025SOL    HW224975   2.400   5.597   0.912
 8026SOL     OW24976   0.035   4.061   1.021
 8026SOL    HW124977   0.097   4.082   1.097
 8026SOL    HW224978   6.973   4.103   1.038
 8027SOL     OW24979   3.757   0.351   5.251
 8027SOL    HW124980   3.722   0.317   5.163
 8027SOL    HW224981   3.763   0.450   5.249
 8028SOL     OW24982   3.933   5.324   4.724
 8028SOL    HW124983   3.880   5.289   4.646
 8028SOL    HW224984   4.025   5.285   4.722
 8029SOL     OW24985   5.344   3.032   1.995
 8029SOL    HW124986   5.381   3.096   1.927
 8029SOL    HW224987   5.249   3.010   1.971
 8030SOL     OW24988   5.675   4.946   0.040
 8030SOL    HW124989   5.637   4.854   0.050
 8030SOL    HW224990   5.601   5.013   0.038
 8031SOL     OW24991   6.635   6.431   2.291
 8031SOL    HW124992   6.644   6.484   2.375
 8031SOL    HW224993   6.682   6.343   2.301
 8032SOL     OW24994   5.955   4.138   2.085
 8032SOL    HW124995   5.868   4.157   2.038
 8032SOL    HW224996   6.028   4.127   2.017
 8033SOL     OW24997   4.310   2.486   6.886
 8033SOL    HW124998   4.234   2.544   6.917
 8033SOL    HW224999   4.320   2.408   6.948
 8034SOL     OW25000   4.714   0.237   5.413
 8034SOL    HW125001   4.699   0.310   5.346
 8034SOL    HW225002   4.685   0.268   5.503
 8035SOL     OW25003   5.180   1.639   2.124
 8035SOL    HW125004   5.182   1.692   2.209
 8035SOL    HW225005   5.100   1.664   2.071
 8036SOL     OW25006   6.699   3.706   4.214
 8036SOL    HW125007   6.761   3.681   4.140
 8036SOL    HW225008   6.742   3.775   4.272
 8037SOL     OW25009   2.512   3.635   6.737
 8037SOL    HW125010   2.544   3.556   6.684
 8037SOL    HW225011   2.464   3.602   6.819
 8038SOL     OW25012   4.335   6.982   2.268
 8038SOL    HW125013   4.428   6.986   2.230
 8038SOL    HW225014   4.271   7.021   2.201
 8039SOL     OW25015   6.748   1.658   5.041
 8039SOL    HW125016   6.657   1.640   5.077
 8039SOL    HW225017   6.763   1.605   4.958
 8040SOL     OW25018   1.503   5.539   0.198
 8040SOL    HW125019   1.545   5.598   0.129
 8040SOL    HW225020   1.456   5.464   0.154
 8041SOL     OW25021   3.347   0.905   3.020
 8041SOL    HW125022   3.280   0.897   3.094
 8041SOL    HW225023   3.334   0.992   2.972
 8042SOL     OW25024   3.824   3.196   5.426
 8042SOL    HW125025   3.804   3.115   5.482
 8042SOL    HW225026   3.743   3.221   5.373
 8043SOL     OW25027   3.654   5.552   0.650
 8043SOL    HW125028   3.638   5.500   0.566
 8043SOL    HW225029   3.733   5.611   0.637
 8044SOL     OW25030   4.412   3.148   1.063
 8044SOL    HW125031   4.357   3.097   0.997
 8044SOL    HW225032   4.505   3.160   1.027
 8045SOL     OW25033   6.083   2.086   2.591
 8045SOL    HW125034   5.989   2.116   2.573
 8045SOL    HW225035   6.124   2.055   2.505
 8046SOL     OW25036   1.330   4.546   2.717
 8046SOL    HW125037   1.405   4.596   2.673
 8046SOL    HW225038   1.301   4.471   2.657
 8047SOL     OW25039   3.788   5.788   6.667
 8047SOL    HW125040   3.852   5.746   6.604
 8047SOL    HW225041   3.789   5.888   6.655
 8048SOL     OW25042   4.195   1.589   0.104
 8048SOL    HW125043   4.216   1.511   0.163
 8048SOL    HW225044   4.133   1.651   0.151
 8049SOL     OW25045   0.843   6.997   0.419
 8049SOL    HW125046   0.746   7.023   0.414
 8049SOL    HW225047   0.887   7.013   0.331
 8050SOL     OW25048   1.784   3.362   3.730
 8050SOL    HW125049   1.802   3.265   3.747
 8050SOL    HW225050   1.858   3.417   3.769
 8051SOL     OW25051   4.681   6.403   4.750
 8051SOL    HW125052   4.756   6.429   4.810
 8051SOL    HW225053   4.624   6.335   4.796
 8052SOL     OW25054   2.510   1.727   1.439
 8052SOL    HW125055   2.529   1.798   1.506
 8052SOL    HW225056   2.572   1.736   1.361
 8053SOL     OW25057   3.657   2.888   4.711
 8053SOL    HW125058   3.700   2.875   4.800
 8053SOL    HW225059   3.721   2.934   4.649
 8054SOL     OW25060   6.890   4.148   4.791
 8054SOL    HW125061   6.798   4.109   4.798
 8054SOL    HW225062   6.898   4.226   4.854
 8055SOL     OW25063   6.751   0.896   5.490
 8055SOL    HW125064   6.689   0.829   5.531
 8055SOL    HW225065   6.734   0.901   5.392
 8056SOL     OW25066   3.004   0.919   4.877
 8056SOL    HW125067   2.911   0.918   4.840
 8056SOL    HW225068   3.036   0.826   4.891
 8057SOL     OW25069   2.922   2.188   3.375
 8057SOL    HW125070   2.948   2.096   3.348
 8057SOL    HW225071   2.973   2.215   3.457
 8058SOL     OW25072   3.553   6.866   3.195
 8058SOL    HW125073   3.632   6.919   3.227
 8058SOL    HW225074   3.577   6.769   3.191
 8059SOL     OW25075   2.555   1.369   4.592
 8059SOL    HW125076   2.609   1.453   4.601
 8059SOL    HW225077   2.459   1.393   4.579
 8060SOL     OW25078   0.190   2.279   6.480
 8060SOL    HW125079   0.276   2.330   6.482
 8060SOL    HW225080   0.205   2.187   6.515
 8061SOL     OW25081   0.412   0.406   2.857
 8061SOL    HW125082   0.441   0.314   2.831
 8061SOL    HW225083   0.324   0.427   2.815
 8062SOL     OW25084   3.711   4.890   3.751
 8062SOL    HW125085   3.805   4.910   3.776
 8062SOL    HW225086   3.703   4.884   3.652
 8063SOL     OW25087   2.292   1.719   2.816
 8063SOL    HW125088   2.221   1.789   2.805
 8063SOL    HW225089   2.334   1.729   2.906
 8064SOL     OW25090   5.898   2.360   1.117
 8064SOL    HW125091   5.944   2.325   1.036
 8064SOL    HW225092   5.962   2.414   1.172
 8065SOL     OW25093   2.907   5.826   3.884
 8065SOL    HW125094   2.841   5.891   3.848
 8065SOL    HW225095   2.985   5.819   3.821
 8066SOL     OW25096   0.001   0.702   5.480
 8066SOL    HW125097   0.039   0.679   5.391
 8066SOL    HW225098   6.937   0.743   5.468
 8067SOL     OW25099   5.118   2.660   2.861
 8067SOL    HW125100   5.109   2.742   2.805
 8067SOL    HW225101   5.210   2.622   2.851
 8068SOL     OW25102   6.835   4.410   1.627
 8068SOL    HW125103   6.774   4.432   1.703
 8068SOL    HW225104   6.891   4.489   1.605
 8069SOL     OW25105   1.792   5.277   1.218
 8069SOL    HW125106   1.772   5.352   1.155
 8069SOL    HW225107   1.831   5.313   1.302
 8070SOL     OW25108   4.184   3.395   0.721
 8070SOL    HW125109   4.225   3.397   0.630
 8070SOL    HW225110   4.110   3.462   0.725
 8071SOL     OW25111   2.997   6.583   5.454
 8071SOL    HW125112   3.007   6.493   5.411
 8071SOL    HW225113   2.946   6.644   5.392
 8072SOL     OW25114   3.592   1.879   0.590
 8072SOL    HW125115   3.496   1.874   0.616
 8072SOL    HW225116   3.646   1.909   0.669
 8073SOL     OW25117   3.859   6.187   5.429
 8073SOL    HW125118   3.940   6.142   5.392
 8073SOL    HW225119   3.778   6.130   5.411
 8074SOL     OW25120   2.862   2.782   0.781
 8074SOL    HW125121   2.872   2.882   0.781
 8074SOL    HW225122   2.932   2.741   0.839
 8075SOL     OW25123   6.646   6.804   0.879
 8075SOL    HW125124   6.613   6.712   0.856
 8075SOL    HW225125   6.571   6.857   0.918
 8076SOL     OW25126   5.987   0.102   5.728
 8076SOL    HW125127   5.952   0.068   5.815
 8076SOL    HW225128   5.936   0.183   5.701
 8077SOL     OW25129   3.699   6.290   2.369
 8077SOL    HW125130   3.737   6.372   2.327
 8077SOL    HW225131   3.636   6.317   2.442
 8078SOL     OW25132   0.516   2.027   0.847
 8078SOL    HW125133   0.425   2.035   0.806
 8078SOL    HW225134   0.586   2.048   0.778
 8079SOL     OW25135   6.645   1.648   3.570
 8079SOL    HW125136   6.630   1.699   3.485
 8079SOL    HW225137   6.635   1.551   3.552
 8080SOL     OW25138   1.126   2.475   2.360
 8080SOL    HW125139   1.182   2.462   2.277
 8080SOL    HW225140   1.051   2.410   2.360
 8081SOL     OW25141   6.489   5.498   6.329
 8081SOL    HW125142   6.524   5.427   6.391
 8081SOL    HW225143   6.556   5.513   6.256
 8082SOL     OW25144   3.818   1.156   2.179
 8082SOL    HW125145   3.746   1.188   2.241
 8082SOL    HW225146   3.905   1.200   2.204
 8083SOL     OW25147   4.766   2.735   3.611
 8083SOL    HW125148   4.772   2.822   3.563
 8083SOL    HW225149   4.755   2.751   3.709
 8084SOL     OW25150   3.340   6.986   6.586
 8084SOL    HW125151   3.433   6.997   6.551
 8084SOL    HW225152   3.309   0.047   6.624
 8085SOL     OW25153   5.766   6.492   2.056
 8085SOL    HW125154   5.682   6.468   2.106
 8085SOL    HW225155   5.842   6.497   2.120
 8086SOL     OW25156   6.747   0.821   2.307
 8086SOL    HW125157   6.677   0.831   2.236
 8086SOL    HW225158   6.705   0.834   2.397
 8087SOL     OW25159   1.847   0.176   6.955
 8087SOL    HW125160   1.887   0.247   6.897
 8087SOL    HW225161   1.858   0.087   6.910
 8088SOL     OW25162   5.780   1.001   1.625
 8088SOL    HW125163   5.808   1.096   1.617
 8088SOL    HW225164   5.747   0.968   1.536
 8089SOL     OW25165   5.654   2.460   0.472
 8089SOL    HW125166   5.709   2.541   0.495
 8089SOL    HW225167   5.604   2.477   0.388
 8090SOL     OW25168   3.473   1.050   6.680
 8090SOL    HW125169   3.458   1.092   6.770
 8090SOL    HW225170   3.391   0.999   6.654
 8091SOL     OW25171   1.719   3.890   4.784
 8091SOL    HW125172   1.766   3.830   4.849
 8091SOL    HW225173   1.620   3.878   4.792
 8092SOL     OW25174   5.279   1.610   5.725
 8092SOL    HW125175   5.298   1.655   5.813
 8092SOL    HW225176   5.190   1.565   5.729
 8093SOL     OW25177   2.766   5.226   3.299
 8093SOL    HW125178   2.738   5.132   3.319
 8093SOL    HW225179   2.845   5.225   3.237
 8094SOL     OW25180   0.044   3.371   4.640
 8094SOL    HW125181   0.106   3.351   4.716
 8094SOL    HW225182   0.096   3.412   4.566
 8095SOL     OW25183   0.695   4.637   4.832
 8095SOL    HW125184   0.777   4.581   4.844
 8095SOL    HW225185   0.683   4.696   4.911
 8096SOL     OW25186   2.428   0.168   2.852
 8096SOL    HW125187   2.329   0.178   2.859
 8096SOL    HW225188   2.471   0.259   2.857
 8097SOL     OW25189   4.439   0.012   5.027
 8097SOL    HW125190   4.385   0.009   5.111
 8097SOL    HW225191   4.413   6.963   4.967
 8098SOL     OW25192   1.753   6.349   3.306
 8098SOL    HW125193   1.712   6.272   3.257
 8098SOL    HW225194   1.804   6.316   3.385
 8099SOL     OW25195   4.137   6.171   4.167
 8099SOL    HW125196   4.112   6.199   4.259
 8099SOL    HW225197   4.123   6.248   4.104
 8100SOL     OW25198   0.066   0.154   0.089
 8100SOL    HW125199   7.016   0.108   0.043
 8100SOL    HW225200   0.043   0.166   0.186
 8101SOL     OW25201   1.640   5.860   1.323
 8101SOL    HW125202   1.552   5.817   1.303
 8101SOL    HW225203   1.628   5.930   1.393
 8102SOL     OW25204   0.551   3.926   3.610
 8102SOL    HW125205   0.576   4.021   3.628
 8102SOL    HW225206   0.608   3.866   3.665
 8103SOL     OW25207   2.682   6.846   1.485
 8103SOL    HW125208   2.680   6.879   1.580
 8103SOL    HW225209   2.588   6.832   1.453
 8104SOL     OW25210   1.766   0.550   6.289
 8104SOL    HW125211   1.855   0.513   6.317
 8104SOL    HW225212   1.693   0.500   6.337
 8105SOL     OW25213   0.329   3.552   3.176
 8105SOL    HW125214   0.252   3.506   3.132
 8105SOL    HW225215   0.354   3.503   3.260
 8106SOL     OW25216   3.340   5.840   3.290
 8106SOL    HW125217   3.258   5.816   3.238
 8106SOL    HW225218   3.413   5.774   3.271
 8107SOL     OW25219   0.442   4.870   3.814
 8107SOL    HW125220   0.355   4.893   3.858
 8107SOL    HW225221   0.489   4.801   3.869
 8108SOL     OW25222   6.425   2.990   6.323
 8108SOL    HW125223   6.507   3.016   6.375
 8108SOL    HW225224   6.350   3.052   6.347
 8109SOL     OW25225   6.659   3.827   5.890
 8109SOL    HW125226   6.584   3.853   5.950
 8109SOL    HW225227   6.694   3.737   5.916
 8110SOL     OW25228   4.038   5.950   2.523
 8110SOL    HW125229   4.031   6.045   2.491
 8110SOL    HW225230   3.959   5.929   2.581
 8111SOL     OW25231   4.896   1.012   4.690
 8111SOL    HW125232   4.823   0.964   4.738
 8111SOL    HW225233   4.978   0.954   4.688
 8112SOL     OW25234   2.329   2.912   4.539
 8112SOL    HW125235   2.412   2.954   4.501
 8112SOL    HW225236   2.355   2.840   4.603
 8113SOL     OW25237   1.452   3.203   0.225
 8113SOL    HW125238   1.410   3.138   0.289
 8113SOL    HW225239   1.453   3.163   0.134
 8114SOL     OW25240   1.547   3.884   2.596
 8114SOL    HW125241   1.603   3.938   2.660
 8114SOL    HW225242   1.476   3.836   2.646
 8115SOL     OW25243   3.648   0.418   6.258
 8115SOL    HW125244   3.634   0.333   6.208
 8115SOL    HW225245   3.711   0.402   6.334
 8116SOL     OW25246   4.221   4.595   0.548
 8116SOL    HW125247   4.201   4.685   0.588
 8116SOL    HW225248   4.232   4.528   0.621
 8117SOL     OW25249   2.161   0.119   3.441
 8117SOL    HW125250   2.226   0.185   3.403
 8117SOL    HW225251   2.142   0.142   3.537
 8118SOL     OW25252   5.185   4.349   6.498
 8118SOL    HW125253   5.238   4.300   6.567
 8118SOL    HW225254   5.104   4.388   6.540
 8119SOL     OW25255   5.328   5.470   6.536
 8119SOL    HW125256   5.411   5.488   6.589
 8119SOL    HW225257   5.306   5.550   6.481
 8120SOL     OW25258   2.773   5.160   1.250
 8120SOL    HW125259   2.682   5.145   1.213
 8120SOL    HW225260   2.800   5.255   1.234
 8121SOL     OW25261   6.862   5.016   2.143
 8121SOL    HW125262   6.815   4.934   2.110
 8121SOL    HW225263   6.794   5.088   2.159
 8122SOL     OW25264   6.869   4.960   3.788
 8122SOL    HW125265   6.770   4.971   3.779
 8122SOL    HW225266   6.906   5.037   3.840
 8123SOL     OW25267   6.628   1.903   6.443
 8123SOL    HW125268   6.675   1.988   6.465
 8123SOL    HW225269   6.564   1.880   6.517
 8124SOL     OW25270   5.019   6.201   1.695
 8124SOL    HW125271   4.978   6.268   1.756
 8124SOL    HW225272   4.996   6.109   1.725
 8125SOL     OW25273   1.717   1.455   2.894
 8125SOL    HW125274   1.795   1.509   2.865
 8125SOL    HW225275   1.735   1.415   2.984
 8126SOL     OW25276   4.947   4.005   2.582
 8126SOL    HW125277   4.878   4.064   2.540
 8126SOL    HW225278   5.035   4.053   2.585
 8127SOL     OW25279   2.490   3.969   6.334
 8127SOL    HW125280   2.570   3.931   6.287
 8127SOL    HW225281   2.420   3.898   6.344
 8128SOL     OW25282   3.014   2.171   2.229
 8128SOL    HW125283   3.010   2.199   2.133
 8128SOL    HW225284   3.068   2.238   2.280
 8129SOL     OW25285   3.857   1.458   6.093
 8129SOL    HW125286   3.759   1.455   6.078
 8129SOL    HW225287   3.881   1.541   6.143
 8130SOL     OW25288   0.308   3.840   0.061
 8130SOL    HW125289   0.236   3.805   0.002
 8130SOL    HW225290   0.397   3.825   0.018
 8131SOL     OW25291   2.376   2.210   1.196
 8131SOL    HW125292   2.425   2.242   1.115
 8131SOL    HW225293   2.334   2.288   1.242
 8132SOL     OW25294   5.908   6.781   5.874
 8132SOL    HW125295   5.814   6.772   5.842
 8132SOL    HW225296   5.917   6.867   5.925
 8133SOL     OW25297   3.478   5.407   2.142
 8133SOL    HW125298   3.519   5.498   2.140
 8133SOL    HW225299   3.525   5.352   2.211
 8134SOL     OW25300   6.747   2.552   5.898
 8134SOL    HW125301   6.669   2.503   5.858
 8134SOL    HW225302   6.814   2.485   5.933
 8135SOL     OW25303   3.117   6.824   1.556
 8135SOL    HW125304   3.037   6.883   1.543
 8135SOL    HW225305   3.095   6.754   1.625
 8136SOL     OW25306   4.144   6.161   2.959
 8136SOL    HW125307   4.233   6.132   2.925
 8136SOL    HW225308   4.111   6.238   2.905
 8137SOL     OW25309   3.473   1.509   5.240
 8137SOL    HW125310   3.541   1.566   5.195
 8137SOL    HW225311   3.481   1.519   5.339
 8138SOL     OW25312   5.110   0.963   0.609
 8138SOL    HW125313   5.016   0.929   0.619
 8138SOL    HW225314   5.107   1.054   0.567
 8139SOL     OW25315   0.400   0.607   1.787
 8139SOL    HW125316   0.363   0.630   1.697
 8139SOL    HW225317   0.473   0.540   1.776
 8140SOL     OW25318   5.755   0.453   6.781
 8140SOL    HW125319   5.690   0.381   6.802
 8140SOL    HW225320   5.762   0.464   6.682
 8141SOL     OW25321   4.669   6.050   4.622
 8141SOL    HW125322   4.630   5.958   4.631
 8141SOL    HW225323   4.691   6.085   4.713
 8142SOL     OW25324   0.245   5.642   0.139
 8142SOL    HW125325   0.308   5.716   0.114
 8142SOL    HW225326   0.242   5.634   0.238
 8143SOL     OW25327   6.052   3.987   0.972
 8143SOL    HW125328   5.975   3.995   1.036
 8143SOL    HW225329   6.114   3.915   1.003
 8144SOL     OW25330   6.259   6.205   6.642
 8144SOL    HW125331   6.248   6.192   6.544
 8144SOL    HW225332   6.339   6.153   6.674
 8145SOL     OW25333   5.625   5.831   1.898
 8145SOL    HW125334   5.575   5.917   1.911
 8145SOL    HW225335   5.703   5.827   1.960
 8146SOL     OW25336   3.666   1.000   4.501
 8146SOL    HW125337   3.664   1.087   4.550
 8146SOL    HW225338   3.657   1.017   4.403
 8147SOL     OW25339   5.844   1.867   1.698
 8147SOL    HW125340   5.747   1.844   1.694
 8147SOL    HW225341   5.859   1.956   1.653
 8148SOL     OW25342   4.866   4.727   0.739
 8148SOL    HW125343   4.865   4.666   0.818
 8148SOL    HW225344   4.867   4.822   0.770
 8149SOL     OW25345   2.416   6.081   1.889
 8149SOL    HW125346   2.378   6.133   1.965
 8149SOL    HW225347   2.386   6.120   1.802
 8150SOL     OW25348   1.263   4.328   0.490
 8150SOL    HW125349   1.333   4.381   0.537
 8150SOL    HW225350   1.283   4.230   0.499
 8151SOL     OW25351   6.416   2.100   1.471
 8151SOL    HW125352   6.398   2.194   1.445
 8151SOL    HW225353   6.492   2.097   1.537
 8152SOL     OW25354   0.381   1.477   2.354
 8152SOL    HW125355   0.415   1.383   2.346
 8152SOL    HW225356   0.304   1.489   2.291
 8153SOL     OW25357   3.291   0.298   3.336
 8153SOL    HW125358   3.255   0.230   3.400
 8153SOL    HW225359   3.238   0.297   3.252
 8154SOL     OW25360   2.816   5.536   3.403
 8154SOL    HW125361   2.721   5.565   3.397
 8154SOL    HW225362   2.861   5.551   3.315
 8155SOL     OW25363   2.016   3.794   1.959
 8155SOL    HW125364   2.044   3.833   1.872
 8155SOL    HW225365   1.920   3.816   1.977
 8156SOL     OW25366   5.048   6.813   0.465
 8156SOL    HW125367   5.119   6.884   0.466
 8156SOL    HW225368   5.000   6.816   0.378
 8157SOL     OW25369   6.769   5.420   6.626
 8157SOL    HW125370   6.752   5.443   6.721
 8157SOL    HW225371   6.812   5.497   6.579
 8158SOL     OW25372   5.908   5.425   1.368
 8158SOL    HW125373   5.817   5.391   1.343
 8158SOL    HW225374   5.949   5.471   1.289
 8159SOL     OW25375   2.736   6.376   2.332
 8159SOL    HW125376   2.665   6.328   2.280
 8159SOL    HW225377   2.741   6.336   2.424
 8160SOL     OW25378   4.690   1.140   2.823
 8160SOL    HW125379   4.626   1.131   2.899
 8160SOL    HW225380   4.754   1.063   2.823
 8161SOL     OW25381   5.233   1.453   6.797
 8161SOL    HW125382   5.274   1.362   6.805
 8161SOL    HW225383   5.148   1.446   6.745
 8162SOL     OW25384   5.905   6.629   6.141
 8162SOL    HW125385   5.986   6.633   6.199
 8162SOL    HW225386   5.925   6.673   6.053
 8163SOL     OW25387   2.849   3.895   5.117
 8163SOL    HW125388   2.795   3.979   5.111
 8163SOL    HW225389   2.818   3.841   5.195
 8164SOL     OW25390   5.649   3.365   0.510
 8164SOL    HW125391   5.670   3.321   0.422
 8164SOL    HW225392   5.732   3.370   0.565
 8165SOL     OW25393   0.645   5.218   0.005
 8165SOL    HW125394   0.741   5.228   0.033
 8165SOL    HW225395   0.641   5.190   6.936
 8166SOL     OW25396   2.159   0.278   2.119
 8166SOL    HW125397   2.080   0.284   2.180
 8166SOL    HW225398   2.240   0.254   2.172
 8167SOL     OW25399   6.010   0.307   4.749
 8167SOL    HW125400   6.087   0.358   4.789
 8167SOL    HW225401   6.035   0.277   4.657
 8168SOL     OW25402   2.841   1.827   3.645
 8168SOL    HW125403   2.851   1.734   3.682
 8168SOL    HW225404   2.788   1.823   3.560
 8169SOL     OW25405   5.250   2.653   1.616
 8169SOL    HW125406   5.161   2.628   1.654
 8169SOL    HW225407   5.294   2.571   1.578
 8170SOL     OW25408   1.768   5.682   2.828
 8170SOL    HW125409   1.687   5.693   2.886
 8170SOL    HW225410   1.739   5.673   2.732
 8171SOL     OW25411   1.355   1.319   6.989
 8171SOL    HW125412   1.432   1.367   6.946
 8171SOL    HW225413   1.372   1.311   0.060
 8172SOL     OW25414   0.902   1.234   2.280
 8172SOL    HW125415   0.972   1.168   2.308
 8172SOL    HW225416   0.942   1.325   2.276
 8173SOL     OW25417   4.054   1.505   1.292
 8173SOL    HW125418   4.025   1.514   1.388
 8173SOL    HW225419   4.133   1.564   1.275
 8174SOL     OW25420   5.651   2.482   1.050
 8174SOL    HW125421   5.622   2.448   0.960
 8174SOL    HW225422   5.740   2.443   1.073
 8175SOL     OW25423   0.313   3.468   6.325
 8175SOL    HW125424   0.242   3.457   6.394
 8175SOL    HW225425   0.281   3.531   6.253
 8176SOL     OW25426   2.496   5.144   2.282
 8176SOL    HW125427   2.455   5.149   2.191
 8176SOL    HW225428   2.595   5.141   2.274
 8177SOL     OW25429   2.469   5.821   3.961
 8177SOL    HW125430   2.535   5.804   3.888
 8177SOL    HW225431   2.456   5.738   4.015
 8178SOL     OW25432   2.601   6.201   6.468
 8178SOL    HW125433   2.554   6.285   6.443
 8178SOL    HW225434   2.647   6.213   6.556
 8179SOL     OW25435   3.965   2.255   6.277
 8179SOL    HW125436   3.874   2.292   6.261
 8179SOL    HW225437   4.034   2.327   6.265
 8180SOL     OW25438   6.836   0.228   4.501
 8180SOL    HW125439   6.884   0.172   4.568
 8180SOL    HW225440   6.890   0.234   4.417
 8181SOL     OW25441   2.285   2.153   1.794
 8181SOL    HW125442   2.350   2.178   1.722
 8181SOL    HW225443   2.291   2.220   1.869
 8182SOL     OW25444   3.294   1.915   6.851
 8182SOL    HW125445   3.226   1.977   6.891
 8182SOL    HW225446   3.359   1.888   6.922
 8183SOL     OW25447   0.504   2.328   4.675
 8183SOL    HW125448   0.509   2.305   4.578
 8183SOL    HW225449   0.571   2.400   4.695
 8184SOL     OW25450   4.821   1.489   5.897
 8184SOL    HW125451   4.743   1.496   5.835
 8184SOL    HW225452   4.804   1.547   5.978
 8185SOL     OW25453   2.775   6.660   0.653
 8185SOL    HW125454   2.777   6.758   0.672
 8185SOL    HW225455   2.707   6.617   0.713
 8186SOL     OW25456   3.702   5.561   6.462
 8186SOL    HW125457   3.657   5.540   6.548
 8186SOL    HW225458   3.635   5.560   6.388
 8187SOL     OW25459   1.871   2.406   5.703
 8187SOL    HW125460   1.810   2.403   5.781
 8187SOL    HW225461   1.882   2.501   5.672
 8188SOL     OW25462   5.376   2.305   2.394
 8188SOL    HW125463   5.412   2.254   2.472
 8188SOL    HW225464   5.414   2.397   2.393
 8189SOL     OW25465   4.852   4.799   2.150
 8189SOL    HW125466   4.924   4.786   2.217
 8189SOL    HW225467   4.892   4.816   2.060
 8190SOL     OW25468   4.961   5.762   4.365
 8190SOL    HW125469   5.051   5.779   4.325
 8190SOL    HW225470   4.945   5.828   4.439
 8191SOL     OW25471   2.998   5.291   3.439
 8191SOL    HW125472   3.006   5.260   3.534
 8191SOL    HW225473   2.902   5.299   3.415
 8192SOL     OW25474   3.549   5.587   0.155
 8192SOL    HW125475   3.649   5.596   0.150
 8192SOL    HW225476   3.510   5.669   0.196
 8193SOL     OW25477   6.743   0.044   4.136
 8193SOL    HW125478   6.703   0.058   4.227
 8193SOL    HW225479   6.796   6.987   4.136
 8194SOL     OW25480   5.993   2.237   0.904
 8194SOL    HW125481   5.977   2.139   0.915
 8194SOL    HW225482   5.969   2.264   0.810
 8195SOL     OW25483   0.777   0.370   0.467
 8195SOL    HW125484   0.689   0.352   0.509
 8195SOL    HW225485   0.788   0.312   0.386
 8196SOL     OW25486   3.271   0.341   5.655
 8196SOL    HW125487   3.257   0.289   5.739
 8196SOL    HW225488   3.265   0.439   5.675
 8197SOL     OW25489   4.447   1.312   5.630
 8197SOL    HW125490   4.425   1.307   5.533
 8197SOL    HW225491   4.472   1.221   5.663
 8198SOL     OW25492   2.620   6.617   2.852
 8198SOL    HW125493   2.522   6.629   2.866
 8198SOL    HW225494   2.639   6.523   2.824
 8199SOL     OW25495   6.659   3.412   0.142
 8199SOL    HW125496   6.729   3.420   0.212
 8199SOL    HW225497   6.618   3.321   0.146
 8200SOL     OW25498   4.898   4.014   1.289
 8200SOL    HW125499   4.886   3.925   1.245
 8200SOL    HW225500   4.994   4.027   1.313
 8201SOL     OW25501   5.127   0.742   4.611
 8201SOL    HW125502   5.114   0.664   4.673
 8201SOL    HW225503   5.166   0.710   4.525
 8202SOL     OW25504   0.730   5.712   4.184
 8202SOL    HW125505   0.679   5.793   4.156
 8202SOL    HW225506   0.669   5.632   4.184
 8203SOL     OW25507   4.519   2.924   0.050
 8203SOL    HW125508   4.492   2.964   6.989
 8203SOL    HW225509   4.443   2.869   0.085
 8204SOL     OW25510   3.554   5.522   0.989
 8204SOL    HW125511   3.552   5.612   1.032
 8204SOL    HW225512   3.468   5.506   0.939
 8205SOL     OW25513   6.613   4.473   1.810
 8205SOL    HW125514   6.565   4.415   1.876
 8205SOL    HW225515   6.586   4.568   1.823
 8206SOL     OW25516   3.224   2.560   5.611
 8206SOL    HW125517   3.221   2.584   5.708
 8206SOL    HW225518   3.304   2.501   5.594
 8207SOL     OW25519   3.855   4.464   5.447
 8207SOL    HW125520   3.880   4.368   5.437
 8207SOL    HW225521   3.878   4.513   5.362
 8208SOL     OW25522   2.503   6.844   1.135
 8208SOL    HW125523   2.471   6.867   1.043
 8208SOL    HW225524   2.587   6.895   1.154
 8209SOL     OW25525   0.767   1.908   5.255
 8209SOL    HW125526   0.723   1.911   5.344
 8209SOL    HW225527   0.717   1.966   5.190
 8210SOL     OW25528   3.171   0.633   0.740
 8210SOL    HW125529   3.139   0.539   0.730
 8210SOL    HW225530   3.152   0.684   0.657
 8211SOL     OW25531   3.520   4.105   3.726
 8211SOL    HW125532   3.420   4.108   3.724
 8211SOL    HW225533   3.551   4.124   3.819
 8212SOL     OW25534   3.191   1.008   0.970
 8212SOL    HW125535   3.192   0.911   0.992
 8212SOL    HW225536   3.166   1.061   1.051
 8213SOL     OW25537   5.036   4.715   2.970
 8213SOL    HW125538   5.083   4.679   2.890
 8213SOL    HW225539   4.966   4.650   3.000
 8214SOL     OW25540   2.295   6.077   3.656
 8214SOL    HW125541   2.319   6.087   3.753
 8214SOL    HW225542   2.306   5.982   3.628
 8215SOL     OW25543   4.235   4.991   0.256
 8215SOL    HW125544   4.255   5.051   0.178
 8215SOL    HW225545   4.136   4.988   0.271
 8216SOL     OW25546   4.979   0.078   3.026
 8216SOL    HW125547   4.945   0.027   3.106
 8216SOL    HW225548   4.911   0.147   3.000
 8217SOL     OW25549   2.325   4.198   2.040
 8217SOL    HW125550   2.379   4.278   2.065
 8217SOL    HW225551   2.369   4.151   1.963
 8218SOL     OW25552   1.883   0.267   3.997
 8218SOL    HW125553   1.915   0.343   4.055
 8218SOL    HW225554   1.930   0.271   3.909
 8219SOL     OW25555   3.328   4.037   1.130
 8219SOL    HW125556   3.277   4.011   1.048
 8219SOL    HW225557   3.375   3.957   1.167
 8220SOL     OW25558   3.513   4.309   5.207
 8220SOL    HW125559   3.528   4.408   5.210
 8220SOL    HW225560   3.414   4.291   5.206
 8221SOL     OW25561   5.990   4.182   3.285
 8221SOL    HW125562   5.917   4.212   3.347
 8221SOL    HW225563   6.070   4.155   3.338
 8222SOL     OW25564   5.583   1.846   0.761
 8222SOL    HW125565   5.584   1.943   0.785
 8222SOL    HW225566   5.515   1.831   0.689
 8223SOL     OW25567   0.347   4.929   5.871
 8223SOL    HW125568   0.323   4.970   5.783
 8223SOL    HW225569   0.441   4.954   5.895
 8224SOL     OW25570   4.893   1.715   1.614
 8224SOL    HW125571   4.812   1.658   1.601
 8224SOL    HW225572   4.916   1.761   1.529
 8225SOL     OW25573   3.587   0.752   1.145
 8225SOL    HW125574   3.599   0.843   1.105
 8225SOL    HW225575   3.546   0.691   1.077
 8226SOL     OW25576   2.948   0.632   0.489
 8226SOL    HW125577   2.977   0.537   0.506
 8226SOL    HW225578   3.028   0.692   0.495
 8227SOL     OW25579   0.196   1.258   2.347
 8227SOL    HW125580   0.174   1.269   2.444
 8227SOL    HW225581   0.174   1.343   2.298
 8228SOL     OW25582   0.128   1.270   6.011
 8228SOL    HW125583   0.120   1.236   5.917
 8228SOL    HW225584   0.161   1.196   6.070
 8229SOL     OW25585   4.392   4.434   1.179
 8229SOL    HW125586   4.336   4.431   1.262
 8229SOL    HW225587   4.488   4.442   1.205
 8230SOL     OW25588   3.876   6.698   5.906
 8230SOL    HW125589   3.804   6.657   5.961
 8230SOL    HW225590   3.836   6.748   5.830
 8231SOL     OW25591   3.355   1.958   2.551
 8231SOL    HW125592   3.397   1.868   2.563
 8231SOL    HW225593   3.279   1.952   2.487
 8232SOL     OW25594   5.221   1.871   2.382
 8232SOL    HW125595   5.217   1.970   2.363
 8232SOL    HW225596   5.187   1.854   2.475
 8233SOL     OW25597   1.191   0.127   5.705
 8233SOL    HW125598   1.268   0.190   5.702
 8233SOL    HW225599   1.108   0.177   5.731
 8234SOL     OW25600   3.172   2.994   0.426
 8234SOL    HW125601   3.222   2.907   0.429
 8234SOL    HW225602   3.074   2.976   0.416
 8235SOL     OW25603   0.568   3.987   0.146
 8235SOL    HW125604   0.510   4.057   0.103
 8235SOL    HW225605   0.651   3.976   0.090
 8236SOL     OW25606   0.381   5.498   5.858
 8236SOL    HW125607   0.288   5.496   5.895
 8236SOL    HW225608   0.382   5.450   5.770
 8237SOL     OW25609   4.225   6.170   6.146
 8237SOL    HW125610   4.249   6.094   6.205
 8237SOL    HW225611   4.129   6.163   6.120
 8238SOL     OW25612   0.672   5.582   6.750
 8238SOL    HW125613   0.734   5.504   6.747
 8238SOL    HW225614   0.632   5.596   6.659
 8239SOL     OW25615   0.266   1.262   4.872
 8239SOL    HW125616   0.329   1.276   4.795
 8239SOL    HW225617   0.278   1.169   4.908
 8240SOL     OW25618   2.919   3.429   2.877
 8240SOL    HW125619   3.010   3.464   2.855
 8240SOL    HW225620   2.926   3.333   2.903
 8241SOL     OW25621   1.705   3.893   6.696
 8241SOL    HW125622   1.640   3.900   6.621
 8241SOL    HW225623   1.750   3.981   6.711
 8242SOL     OW25624   1.296   3.434   4.868
 8242SOL    HW125625   1.374   3.471   4.919
 8242SOL    HW225626   1.233   3.508   4.845
 8243SOL     OW25627   0.452   4.208   0.067
 8243SOL    HW125628   0.514   4.267   0.017
 8243SOL    HW225629   0.357   4.234   0.047
 8244SOL     OW25630   0.832   0.177   3.576
 8244SOL    HW125631   0.924   0.212   3.595
 8244SOL    HW225632   0.826   0.148   3.481
 8245SOL     OW25633   4.205   1.889   3.457
 8245SOL    HW125634   4.187   1.826   3.381
 8245SOL    HW225635   4.206   1.838   3.543
 8246SOL     OW25636   0.838   4.630   6.304
 8246SOL    HW125637   0.848   4.638   6.205
 8246SOL    HW225638   0.748   4.665   6.331
 8247SOL     OW25639   2.257   5.815   3.506
 8247SOL    HW125640   2.283   5.726   3.544
 8247SOL    HW225641   2.332   5.851   3.452
 8248SOL     OW25642   0.834   5.917   4.756
 8248SOL    HW125643   0.919   5.947   4.712
 8248SOL    HW225644   0.846   5.918   4.856
 8249SOL     OW25645   2.688   1.524   5.342
 8249SOL    HW125646   2.732   1.535   5.431
 8249SOL    HW225647   2.740   1.457   5.287
 8250SOL     OW25648   2.916   1.870   0.761
 8250SOL    HW125649   2.875   1.936   0.697
 8250SOL    HW225650   2.902   1.902   0.855
 8251SOL     OW25651   6.031   1.509   4.173
 8251SOL    HW125652   6.123   1.530   4.206
 8251SOL    HW225653   5.991   1.437   4.230
 8252SOL     OW25654   3.188   1.950   0.166
 8252SOL    HW125655   3.253   1.879   0.141
 8252SOL    HW225656   3.157   1.934   0.260
 8253SOL     OW25657   4.185   5.776   6.513
 8253SOL    HW125658   4.263   5.730   6.554
 8253SOL    HW225659   4.101   5.730   6.542
 8254SOL     OW25660   5.560   5.092   6.044
 8254SOL    HW125661   5.557   5.155   6.122
 8254SOL    HW225662   5.649   5.046   6.041
 8255SOL     OW25663   0.911   6.957   6.280
 8255SOL    HW125664   0.875   6.889   6.343
 8255SOL    HW225665   0.944   6.912   6.197
 8256SOL     OW25666   6.938   0.295   3.655
 8256SOL    HW125667   6.911   0.316   3.561
 8256SOL    HW225668   6.969   0.200   3.660
 8257SOL     OW25669   5.704   4.648   4.319
 8257SOL    HW125670   5.730   4.706   4.396
 8257SOL    HW225671   5.621   4.685   4.276
 8258SOL     OW25672   5.616   2.632   1.829
 8258SOL    HW125673   5.520   2.604   1.828
 8258SOL    HW225674   5.642   2.666   1.739
 8259SOL     OW25675   4.122   1.928   5.180
 8259SOL    HW125676   4.120   2.026   5.160
 8259SOL    HW225677   4.078   1.878   5.105
 8260SOL     OW25678   2.093   6.692   0.949
 8260SOL    HW125679   2.013   6.653   0.904
 8260SOL    HW225680   2.147   6.619   0.990
 8261SOL     OW25681   5.370   6.383   2.962
 8261SOL    HW125682   5.296   6.443   2.931
 8261SOL    HW225683   5.331   6.304   3.010
 8262SOL     OW25684   0.965   4.674   0.766
 8262SOL    HW125685   1.030   4.607   0.732
 8262SOL    HW225686   0.928   4.643   0.854
 8263SOL     OW25687   6.685   2.672   6.779
 8263SOL    HW125688   6.738   2.757   6.774
 8263SOL    HW225689   6.607   2.685   6.840
 8264SOL     OW25690   1.502   6.635   1.174
 8264SOL    HW125691   1.486   6.562   1.108
 8264SOL    HW225692   1.580   6.691   1.143
 8265SOL     OW25693   4.164   0.351   1.355
 8265SOL    HW125694   4.110   0.275   1.320
 8265SOL    HW225695   4.122   0.438   1.328
 8266SOL     OW25696   2.832   0.509   4.955
 8266SOL    HW125697   2.789   0.445   4.891
 8266SOL    HW225698   2.770   0.526   5.031
 8267SOL     OW25699   1.533   5.233   1.741
 8267SOL    HW125700   1.614   5.263   1.793
 8267SOL    HW225701   1.533   5.133   1.737
 8268SOL     OW25702   2.821   4.579   5.835
 8268SOL    HW125703   2.769   4.506   5.880
 8268SOL    HW225704   2.887   4.616   5.900
 8269SOL     OW25705   4.555   2.545   3.068
 8269SOL    HW125706   4.563   2.554   3.167
 8269SOL    HW225707   4.582   2.631   3.024
 8270SOL     OW25708   2.711   5.918   5.800
 8270SOL    HW125709   2.747   5.839   5.752
 8270SOL    HW225710   2.786   5.972   5.838
 8271SOL     OW25711   6.352   6.795   3.565
 8271SOL    HW125712   6.418   6.857   3.523
 8271SOL    HW225713   6.268   6.795   3.512
 8272SOL     OW25714   0.449   0.700   2.853
 8272SOL    HW125715   0.457   0.604   2.878
 8272SOL    HW225716   0.531   0.749   2.883
 8273SOL     OW25717   3.219   0.505   0.125
 8273SOL    HW125718   3.235   0.508   0.223
 8273SOL    HW225719   3.293   0.455   0.080
 8274SOL     OW25720   3.898   4.595   6.744
 8274SOL    HW125721   3.971   4.546   6.793
 8274SOL    HW225722   3.876   4.546   6.660
 8275SOL     OW25723   5.550   0.255   4.610
 8275SOL    HW125724   5.495   0.240   4.693
 8275SOL    HW225725   5.568   0.353   4.600
 8276SOL     OW25726   6.571   2.394   5.752
 8276SOL    HW125727   6.538   2.310   5.795
 8276SOL    HW225728   6.499   2.464   5.757
 8277SOL     OW25729   2.866   5.897   4.638
 8277SOL    HW125730   2.836   5.802   4.647
 8277SOL    HW225731   2.786   5.956   4.626
 8278SOL     OW25732   2.840   1.446   6.602
 8278SOL    HW125733   2.798   1.434   6.512
 8278SOL    HW225734   2.938   1.460   6.591
 8279SOL     OW25735   5.815   5.228   6.623
 8279SOL    HW125736   5.729   5.191   6.660
 8279SOL    HW225737   5.845   5.305   6.679
 8280SOL     OW25738   4.635   2.656   0.232
 8280SOL    HW125739   4.660   2.571   0.184
 8280SOL    HW225740   4.626   2.730   0.166
 8281SOL     OW25741   1.825   4.657   0.849
 8281SOL    HW125742   1.878   4.606   0.781
 8281SOL    HW225743   1.744   4.605   0.874
 8282SOL     OW25744   2.686   2.471   0.586
 8282SOL    HW125745   2.771   2.427   0.557
 8282SOL    HW225746   2.707   2.553   0.639
 8283SOL     OW25747   0.402   4.935   3.414
 8283SOL    HW125748   0.471   5.004   3.433
 8283SOL    HW225749   0.324   4.978   3.367
 8284SOL     OW25750   1.618   3.349   2.539
 8284SOL    HW125751   1.606   3.255   2.508
 8284SOL    HW225752   1.529   3.395   2.543
 8285SOL     OW25753   3.243   3.623   5.889
 8285SOL    HW125754   3.282   3.545   5.938
 8285SOL    HW225755   3.243   3.605   5.791
 8286SOL     OW25756   5.797   1.404   4.823
 8286SOL    HW125757   5.759   1.322   4.779
 8286SOL    HW225758   5.733   1.437   4.892
 8287SOL     OW25759   1.597   6.703   3.937
 8287SOL    HW125760   1.559   6.672   3.850
 8287SOL    HW225761   1.692   6.733   3.923
 8288SOL     OW25762   1.691   2.406   2.907
 8288SOL    HW125763   1.713   2.447   2.818
 8288SOL    HW225764   1.681   2.308   2.897
 8289SOL     OW25765   6.466   0.311   6.255
 8289SOL    HW125766   6.470   0.348   6.348
 8289SOL    HW225767   6.375   0.273   6.238
 8290SOL     OW25768   4.261   2.784   1.704
 8290SOL    HW125769   4.266   2.884   1.697
 8290SOL    HW225770   4.353   2.746   1.711
 8291SOL     OW25771   5.980   5.934   6.830
 8291SOL    HW125772   5.971   6.018   6.777
 8291SOL    HW225773   6.059   5.883   6.798
 8292SOL     OW25774   2.532   5.667   5.679
 8292SOL    HW125775   2.503   5.571   5.676
 8292SOL    HW225776   2.586   5.687   5.597
 8293SOL     OW25777   1.870   4.608   1.628
 8293SOL    HW125778   1.777   4.595   1.592
 8293SOL    HW225779   1.864   4.647   1.720
 8294SOL     OW25780   6.193   3.397   5.302
 8294SOL    HW125781   6.182   3.464   5.229
 8294SOL    HW225782   6.108   3.346   5.313
 8295SOL     OW25783   4.880   3.748   2.396
 8295SOL    HW125784   4.955   3.787   2.450
 8295SOL    HW225785   4.849   3.664   2.441
 8296SOL     OW25786   3.930   5.222   6.841
 8296SOL    HW125787   3.861   5.173   6.894
 8296SOL    HW225788   3.892   5.246   6.751
 8297SOL     OW25789   6.444   4.036   2.424
 8297SOL    HW125790   6.401   3.997   2.505
 8297SOL    HW225791   6.403   3.995   2.342
 8298SOL     OW25792   0.269   0.193   6.260
 8298SOL    HW125793   0.357   0.206   6.215
 8298SOL    HW225794   0.196   0.195   6.191
 8299SOL     OW25795   0.412   3.446   1.137
 8299SOL    HW125796   0.430   3.390   1.217
 8299SOL    HW225797   0.458   3.407   1.057
 8300SOL     OW25798   6.190   6.679   4.696
 8300SOL    HW125799   6.134   6.755   4.663
 8300SOL    HW225800   6.159   6.593   4.656
 8301SOL     OW25801   4.776   0.024   6.517
 8301SOL    HW125802   4.686   0.064   6.533
 8301SOL    HW225803   4.845   0.097   6.514
 8302SOL     OW25804   3.532   6.971   5.049
 8302SOL    HW125805   3.580   6.890   5.082
 8302SOL    HW225806   3.493   7.021   5.126
 8303SOL     OW25807   0.076   0.441   3.203
 8303SOL    HW125808   0.040   0.422   3.111
 8303SOL    HW225809   0.101   0.537   3.210
 8304SOL     OW25810   5.506   4.378   2.645
 8304SOL    HW125811   5.418   4.394   2.690
 8304SOL    HW225812   5.528   4.280   2.651
 8305SOL     OW25813   4.562   5.241   3.602
 8305SOL    HW125814   4.654   5.264   3.570
 8305SOL    HW225815   4.495   5.296   3.553
 8306SOL     OW25816   6.796   1.625   2.502
 8306SOL    HW125817   6.841   1.628   2.592
 8306SOL    HW225818   6.826   1.544   2.452
 8307SOL     OW25819   2.609   5.455   1.433
 8307SOL    HW125820   2.599   5.536   1.377
 8307SOL    HW225821   2.571   5.376   1.385
 8308SOL     OW25822   1.507   4.631   7.010
 8308SOL    HW125823   1.459   4.671   0.060
 8308SOL    HW225824   1.602   4.664   7.009
 8309SOL     OW25825   6.348   4.958   4.284
 8309SOL    HW125826   6.349   5.015   4.203
 8309SOL    HW225827   6.416   4.992   4.350
 8310SOL     OW25828   0.924   5.845   0.407
 8310SOL    HW125829   0.887   5.871   0.496
 8310SOL    HW225830   0.903   5.748   0.389
 8311SOL     OW25831   5.230   6.913   4.269
 8311SOL    HW125832   5.171   6.873   4.339
 8311SOL    HW225833   5.273   6.996   4.305
 8312SOL     OW25834   5.587   0.703   0.425
 8312SOL    HW125835   5.665   0.757   0.394
 8312SOL    HW225836   5.600   0.607   0.397
 8313SOL     OW25837   4.385   0.178   5.412
 8313SOL    HW125838   4.316   0.243   5.445
 8313SOL    HW225839   4.465   0.182   5.472
 8314SOL     OW25840   5.954   6.509   6.489
 8314SOL    HW125841   5.959   6.547   6.582
 8314SOL    HW225842   6.003   6.569   6.426
 8315SOL     OW25843   3.569   3.631   3.326
 8315SOL    HW125844   3.566   3.549   3.269
 8315SOL    HW225845   3.497   3.627   3.395
 8316SOL     OW25846   1.668   3.736   6.919
 8316SOL    HW125847   1.642   3.772   6.830
 8316SOL    HW225848   1.615   3.653   6.938
 8317SOL     OW25849   2.202   1.728   4.259
 8317SOL    HW125850   2.258   1.651   4.292
 8317SOL    HW225851   2.210   1.804   4.324
 8318SOL     OW25852   4.554   1.233   6.224
 8318SOL    HW125853   4.572   1.319   6.271
 8318SOL    HW225854   4.583   1.240   6.129
 8319SOL     OW25855   1.668   6.801   6.337
 8319SOL    HW125856   1.629   6.892   6.342
 8319SOL    HW225857   1.654   6.763   6.246
 8320SOL     OW25858   3.757   3.614   3.644
 8320SOL    HW125859   3.759   3.590   3.546
 8320SOL    HW225860   3.687   3.684   3.659
 8321SOL     OW25861   0.145   0.137   5.829
 8321SOL    HW125862   0.168   0.211   5.765
 8321SOL    HW225863   0.094   0.066   5.782
 8322SOL     OW25864   0.115   0.859   0.123
 8322SOL    HW125865   0.211   0.830   0.124
 8322SOL    HW225866   0.109   0.955   0.150
 8323SOL     OW25867   3.959   4.558   1.423
 8323SOL    HW125868   3.939   4.581   1.327
 8323SOL    HW225869   4.016   4.476   1.426
 8324SOL     OW25870   5.925   0.324   0.086
 8324SOL    HW125871   5.860   0.400   0.080
 8324SOL    HW225872   6.014   0.360   0.115
 8325SOL     OW25873   1.118   4.297   4.893
 8325SOL    HW125874   1.182   4.348   4.951
 8325SOL    HW225875   1.168   4.248   4.822
 8326SOL     OW25876   4.327   3.851   6.952
 8326SOL    HW125877   4.391   3.927   6.963
 8326SOL    HW225878   4.292   3.825   0.015
 8327SOL     OW25879   0.833   0.498   5.338
 8327SOL    HW125880   0.848   0.520   5.434
 8327SOL    HW225881   0.905   0.436   5.306
 8328SOL     OW25882   1.772   6.591   5.593
 8328SOL    HW125883   1.767   6.491   5.604
 8328SOL    HW225884   1.794   6.613   5.499
 8329SOL     OW25885   0.162   2.784   4.694
 8329SOL    HW125886   0.199   2.839   4.619
 8329SOL    HW225887   0.184   2.829   4.781
 8330SOL     OW25888   3.580   1.212   6.469
 8330SOL    HW125889   3.542   1.228   6.561
 8330SOL    HW225890   3.654   1.277   6.452
 8331SOL     OW25891   3.135   1.600   0.396
 8331SOL    HW125892   3.087   1.687   0.411
 8331SOL    HW225893   3.102   1.558   0.312
 8332SOL     OW25894   5.399   5.757   2.126
 8332SOL    HW125895   5.417   5.705   2.209
 8332SOL    HW225896   5.429   5.852   2.139
 8333SOL     OW25897   2.438   5.304   0.236
 8333SOL    HW125898   2.421   5.208   0.258
 8333SOL    HW225899   2.352   5.350   0.216
 8334SOL     OW25900   2.645   2.163   6.550
 8334SOL    HW125901   2.727   2.211   6.580
 8334SOL    HW225902   2.667   2.066   6.535
 8335SOL     OW25903   4.650   2.952   6.612
 8335SOL    HW125904   4.727   2.909   6.658
 8335SOL    HW225905   4.599   2.883   6.561
 8336SOL     OW25906   1.127   3.747   3.017
 8336SOL    HW125907   1.044   3.725   2.966
 8336SOL    HW225908   1.129   3.845   3.036
 8337SOL     OW25909   1.165   0.040   4.518
 8337SOL    HW125910   1.084   0.099   4.516
 8337SOL    HW225911   1.149   6.986   4.462
 8338SOL     OW25912   4.053   5.515   2.587
 8338SOL    HW125913   3.975   5.546   2.641
 8338SOL    HW225914   4.097   5.437   2.632
 8339SOL     OW25915   6.924   0.653   0.876
 8339SOL    HW125916   6.996   0.612   0.933
 8339SOL    HW225917   6.954   0.657   0.781
 8340SOL     OW25918   4.893   3.911   0.494
 8340SOL    HW125919   4.991   3.893   0.481
 8340SOL    HW225920   4.840   3.838   0.451
 8341SOL     OW25921   3.542   0.539   6.781
 8341SOL    HW125922   3.558   0.548   6.683
 8341SOL    HW225923   3.445   0.551   6.800
 8342SOL     OW25924   3.650   6.562   0.171
 8342SOL    HW125925   3.711   6.619   0.226
 8342SOL    HW225926   3.652   6.469   0.207
 8343SOL     OW25927   6.126   5.790   4.239
 8343SOL    HW125928   6.176   5.768   4.323
 8343SOL    HW225929   6.051   5.852   4.261
 8344SOL     OW25930   0.544   5.141   4.665
 8344SOL    HW125931   0.551   5.198   4.582
 8344SOL    HW225932   0.488   5.188   4.733
 8345SOL     OW25933   5.183   2.052   3.301
 8345SOL    HW125934   5.263   2.055   3.360
 8345SOL    HW225935   5.134   1.965   3.314
 8346SOL     OW25936   3.875   3.099   6.042
 8346SOL    HW125937   3.778   3.074   6.043
 8346SOL    HW225938   3.894   3.159   5.964
 8347SOL     OW25939   3.186   5.926   6.403
 8347SOL    HW125940   3.241   5.848   6.373
 8347SOL    HW225941   3.089   5.903   6.396
 8348SOL     OW25942   2.322   6.774   1.342
 8348SOL    HW125943   2.232   6.818   1.342
 8348SOL    HW225944   2.382   6.822   1.277
 8349SOL     OW25945   0.844   6.694   1.407
 8349SOL    HW125946   0.832   6.775   1.349
 8349SOL    HW225947   0.776   6.696   1.480
 8350SOL     OW25948   2.937   6.747   6.360
 8350SOL    HW125949   3.033   6.775   6.364
 8350SOL    HW225950   2.926   6.679   6.288
 8351SOL     OW25951   5.638   5.621   3.780
 8351SOL    HW125952   5.667   5.611   3.685
 8351SOL    HW225953   5.666   5.540   3.832
 8352SOL     OW25954   1.814   6.812   3.195
 8352SOL    HW125955   1.907   6.845   3.179
 8352SOL    HW225956   1.810   6.714   3.173
 8353SOL     OW25957   1.807   3.715   1.636
 8353SOL    HW125958   1.880   3.777   1.665
 8353SOL    HW225959   1.718   3.755   1.660
 8354SOL     OW25960   3.649   6.382   3.885
 8354SOL    HW125961   3.631   6.288   3.913
 8354SOL    HW225962   3.746   6.393   3.865
 8355SOL     OW25963   1.842   1.256   5.989
 8355SOL    HW125964   1.817   1.175   5.936
 8355SOL    HW225965   1.826   1.238   6.086
 8356SOL     OW25966   0.833   5.104   1.269
 8356SOL    HW125967   0.865   5.066   1.356
 8356SOL    HW225968   0.843   5.036   1.197
 8357SOL     OW25969   3.658   5.420   5.594
 8357SOL    HW125970   3.669   5.362   5.513
 8357SOL    HW225971   3.748   5.454   5.623
 8358SOL     OW25972   0.930   3.045   5.207
 8358SOL    HW125973   0.999   3.026   5.278
 8358SOL    HW225974   0.972   3.100   5.135
 8359SOL     OW25975   2.501   1.078   4.699
 8359SOL    HW125976   2.409   1.114   4.714
 8359SOL    HW225977   2.559   1.150   4.661
 8360SOL     OW25978   4.624   6.713   1.066
 8360SOL    HW125979   4.543   6.742   1.015
 8360SOL    HW225980   4.616   6.617   1.090
 8361SOL     OW25981   2.592   0.137   6.619
 8361SOL    HW125982   2.663   0.207   6.615
 8361SOL    HW225983   2.514   0.171   6.672
 8362SOL     OW25984   5.643   2.071   1.036
 8362SOL    HW125985   5.629   2.131   1.114
 8362SOL    HW225986   5.617   2.118   0.952
 8363SOL     OW25987   4.926   1.581   0.892
 8363SOL    HW125988   5.008   1.533   0.860
 8363SOL    HW225989   4.952   1.654   0.954
 8364SOL     OW25990   0.464   3.584   3.584
 8364SOL    HW125991   0.550   3.536   3.603
 8364SOL    HW225992   0.387   3.525   3.607
 8365SOL     OW25993   1.377   1.836   2.836
 8365SOL    HW125994   1.448   1.769   2.811
 8365SOL    HW225995   1.421   1.920   2.869
 8366SOL     OW25996   3.795   5.145   0.938
 8366SOL    HW125997   3.724   5.149   1.008
 8366SOL    HW225998   3.810   5.236   0.900
 8367SOL     OW25999   3.254   5.154   4.816
 8367SOL    HW126000   3.282   5.134   4.722
 8367SOL    HW226001   3.317   5.109   4.879
 8368SOL     OW26002   1.441   5.805   6.774
 8368SOL    HW126003   1.345   5.779   6.782
 8368SOL    HW226004   1.469   5.801   6.678
 8369SOL     OW26005   0.760   1.525   0.483
 8369SOL    HW126006   0.779   1.432   0.451
 8369SOL    HW226007   0.677   1.526   0.538
 8370SOL     OW26008   2.345   1.134   6.503
 8370SOL    HW126009   2.299   1.192   6.570
 8370SOL    HW226010   2.331   1.038   6.525
 8371SOL     OW26011   2.106   3.420   6.315
 8371SOL    HW126012   2.167   3.359   6.265
 8371SOL    HW226013   2.116   3.513   6.281
 8372SOL     OW26014   1.653   5.645   1.982
 8372SOL    HW126015   1.724   5.579   2.009
 8372SOL    HW226016   1.635   5.707   2.058
 8373SOL     OW26017   1.559   1.164   4.694
 8373SOL    HW126018   1.514   1.170   4.783
 8373SOL    HW226019   1.547   1.250   4.645
 8374SOL     OW26020   0.504   0.722   4.509
 8374SOL    HW126021   0.527   0.820   4.508
 8374SOL    HW226022   0.478   0.693   4.417
 8375SOL     OW26023   3.422   0.438   5.933
 8375SOL    HW126024   3.401   0.508   5.864
 8375SOL    HW226025   3.476   0.479   6.006
 8376SOL     OW26026   1.916   1.329   4.030
 8376SOL    HW126027   1.926   1.339   4.129
 8376SOL    HW226028   1.845   1.390   3.997
 8377SOL     OW26029   6.255   5.669   0.383
 8377SOL    HW126030   6.228   5.617   0.464
 8377SOL    HW226031   6.300   5.754   0.411
 8378SOL     OW26032   4.863   5.066   3.566
 8378SOL    HW126033   4.838   5.057   3.469
 8378SOL    HW226034   4.901   4.980   3.598
 8379SOL     OW26035   4.653   2.176   2.061
 8379SOL    HW126036   4.574   2.205   2.115
 8379SOL    HW226037   4.662   2.236   1.981
 8380SOL     OW26038   0.620   6.434   6.670
 8380SOL    HW126039   0.567   6.348   6.666
 8380SOL    HW226040   0.650   6.458   6.578
 8381SOL     OW26041   6.924   2.471   3.502
 8381SOL    HW126042   6.900   2.390   3.449
 8381SOL    HW226043   7.023   2.476   3.515
 8382SOL     OW26044   2.481   0.091   0.630
 8382SOL    HW126045   2.387   0.123   0.619
 8382SOL    HW226046   2.532   0.104   0.545
 8383SOL     OW26047   2.010   0.490   5.386
 8383SOL    HW126048   2.002   0.554   5.462
 8383SOL    HW226049   1.966   0.403   5.411
 8384SOL     OW26050   0.013   0.845   0.364
 8384SOL    HW126051   6.964   0.906   0.338
 8384SOL    HW226052   0.049   0.801   0.282
 8385SOL     OW26053   4.616   2.087   0.403
 8385SOL    HW126054   4.596   2.051   0.494
 8385SOL    HW226055   4.669   2.020   0.352
 8386SOL     OW26056   1.915   5.620   1.226
 8386SOL    HW126057   1.818   5.612   1.252
 8386SOL    HW226058   1.954   5.529   1.215
 8387SOL     OW26059   1.737   1.612   1.382
 8387SOL    HW126060   1.672   1.570   1.445
 8387SOL    HW226061   1.766   1.545   1.314
 8388SOL     OW26062   1.295   0.261   0.831
 8388SOL    HW126063   1.233   0.340   0.831
 8388SOL    HW226064   1.319   0.238   0.925
 8389SOL     OW26065   0.671   3.188   4.101
 8389SOL    HW126066   0.621   3.270   4.126
 8389SOL    HW226067   0.615   3.131   4.041
 8390SOL     OW26068   4.298   0.052   6.716
 8390SOL    HW126069   4.314   0.017   6.809
 8390SOL    HW226070   4.201   0.043   6.693
 8391SOL     OW26071   4.975   5.174   0.920
 8391SOL    HW126072   5.019   5.220   0.843
 8391SOL    HW226073   5.036   5.178   1.000
 8392SOL     OW26074   6.860   5.596   5.853
 8392SOL    HW126075   6.814   5.680   5.825
 8392SOL    HW226076   6.926   5.617   5.927
 8393SOL     OW26077   0.075   0.048   4.176
 8393SOL    HW126078   0.116   0.034   4.267
 8393SOL    HW226079   0.030   0.137   4.174
 8394SOL     OW26080   0.260   2.470   1.359
 8394SOL    HW126081   0.210   2.544   1.403
 8394SOL    HW226082   0.358   2.483   1.374
 8395SOL     OW26083   1.859   6.821   4.007
 8395SOL    HW126084   1.854   6.822   3.907
 8395SOL    HW226085   1.829   6.910   4.043
 8396SOL     OW26086   4.583   4.448   2.300
 8396SOL    HW126087   4.612   4.542   2.282
 8396SOL    HW226088   4.553   4.405   2.215
 8397SOL     OW26089   2.827   0.459   3.249
 8397SOL    HW126090   2.797   0.393   3.180
 8397SOL    HW226091   2.916   0.497   3.222
 8398SOL     OW26092   3.563   1.876   6.976
 8398SOL    HW126093   3.635   1.808   6.984
 8398SOL    HW226094   3.586   1.955   0.007
 8399SOL     OW26095   6.199   6.852   6.922
 8399SOL    HW126096   6.185   6.863   7.020
 8399SOL    HW226097   6.282   6.799   6.905
 8400SOL     OW26098   1.566   0.588   3.713
 8400SOL    HW126099   1.502   0.635   3.653
 8400SOL    HW226100   1.596   0.650   3.786
 8401SOL     OW26101   3.416   2.579   6.514
 8401SOL    HW126102   3.457   2.489   6.525
 8401SOL    HW226103   3.319   2.568   6.493
 8402SOL     OW26104   3.359   1.921   6.056
 8402SOL    HW126105   3.304   1.991   6.011
 8402SOL    HW226106   3.314   1.894   6.141
 8403SOL     OW26107   0.589   2.242   3.188
 8403SOL    HW126108   0.595   2.218   3.285
 8403SOL    HW226109   0.496   2.224   3.155
 8404SOL     OW26110   5.325   5.702   6.932
 8404SOL    HW126111   5.228   5.699   6.910
 8404SOL    HW226112   5.376   5.648   6.866
 8405SOL     OW26113   1.725   1.507   6.673
 8405SOL    HW126114   1.762   1.597   6.696
 8405SOL    HW226115   1.687   1.510   6.581
 8406SOL     OW26116   3.831   0.718   0.609
 8406SOL    HW126117   3.889   0.798   0.622
 8406SOL    HW226118   3.745   0.731   0.658
 8407SOL     OW26119   5.683   5.943   4.272
 8407SOL    HW126120   5.693   5.889   4.188
 8407SOL    HW226121   5.637   6.029   4.252
 8408SOL     OW26122   5.041   1.721   3.478
 8408SOL    HW126123   5.002   1.763   3.559
 8408SOL    HW226124   5.008   1.769   3.396
 8409SOL     OW26125   6.472   2.763   3.633
 8409SOL    HW126126   6.536   2.688   3.649
 8409SOL    HW226127   6.427   2.751   3.544
 8410SOL     OW26128   4.070   0.619   1.354
 8410SOL    HW126129   4.002   0.625   1.281
 8410SOL    HW226130   4.024   0.618   1.443
 8411SOL     OW26131   1.692   5.461   4.170
 8411SOL    HW126132   1.593   5.474   4.167
 8411SOL    HW226133   1.730   5.511   4.249
 8412SOL     OW26134   4.472   1.890   1.689
 8412SOL    HW126135   4.480   1.848   1.598
 8412SOL    HW226136   4.433   1.981   1.679
 8413SOL     OW26137   5.038   4.206   0.640
 8413SOL    HW126138   4.994   4.257   0.714
 8413SOL    HW226139   4.969   4.161   0.584
 8414SOL     OW26140   4.495   6.670   2.723
 8414SOL    HW126141   4.423   6.601   2.721
 8414SOL    HW226142   4.583   6.627   2.703
 8415SOL     OW26143   6.468   5.300   4.196
 8415SOL    HW126144   6.435   5.277   4.288
 8415SOL    HW226145   6.507   5.392   4.196
 8416SOL     OW26146   5.308   4.232   3.823
 8416SOL    HW126147   5.358   4.299   3.768
 8416SOL    HW226148   5.223   4.207   3.777
 8417SOL     OW26149   1.661   5.305   5.193
 8417SOL    HW126150   1.660   5.393   5.146
 8417SOL    HW226151   1.727   5.244   5.150
 8418SOL     OW26152   5.826   5.520   1.988
 8418SOL    HW126153   5.868   5.461   2.056
 8418SOL    HW226154   5.815   5.612   2.025
 8419SOL     OW26155   4.409   1.010   2.316
 8419SOL    HW126156   4.443   0.998   2.409
 8419SOL    HW226157   4.310   1.019   2.317
 8420SOL     OW26158   3.563   0.502   1.017
 8420SOL    HW126159   3.507   0.455   0.950
 8420SOL    HW226160   3.658   0.504   0.986
 8421SOL     OW26161   2.736   6.443   0.985
 8421SOL    HW126162   2.809   6.479   0.927
 8421SOL    HW226163   2.775   6.406   1.069
 8422SOL     OW26164   4.918   6.534   1.536
 8422SOL    HW126165   4.914   6.527   1.436
 8422SOL    HW226166   5.013   6.539   1.565
 8423SOL     OW26167   4.193   3.649   5.978
 8423SOL    HW126168   4.176   3.678   5.883
 8423SOL    HW226169   4.263   3.707   6.018
 8424SOL     OW26170   2.335   2.732   2.783
 8424SOL    HW126171   2.383   2.785   2.853
 8424SOL    HW226172   2.245   2.773   2.766
 8425SOL     OW26173   5.734   5.681   1.246
 8425SOL    HW126174   5.743   5.777   1.219
 8425SOL    HW226175   5.728   5.674   1.345
 8426SOL     OW26176   3.497   3.013   4.480
 8426SOL    HW126177   3.526   2.938   4.539
 8426SOL    HW226178   3.398   3.009   4.467
 8427SOL     OW26179   2.022   3.613   5.866
 8427SOL    HW126180   1.973   3.549   5.807
 8427SOL    HW226181   2.033   3.700   5.819
 8428SOL     OW26182   6.385   4.080   1.807
 8428SOL    HW126183   6.449   4.078   1.883
 8428SOL    HW226184   6.428   4.043   1.724
 8429SOL     OW26185   2.272   4.642   3.984
 8429SOL    HW126186   2.186   4.676   4.023
 8429SOL    HW226187   2.346   4.705   4.007
 8430SOL     OW26188   4.219   5.720   3.773
 8430SOL    HW126189   4.228   5.650   3.702
 8430SOL    HW226190   4.127   5.714   3.814
 8431SOL     OW26191   2.600   5.042   0.719
 8431SOL    HW126192   2.636   5.080   0.634
 8431SOL    HW226193   2.514   5.087   0.742
 8432SOL     OW26194   4.639   6.266   5.255
 8432SOL    HW126195   4.572   6.310   5.195
 8432SOL    HW226196   4.597   6.251   5.345
 8433SOL     OW26197   6.340   2.749   6.392
 8433SOL    HW126198   6.359   2.831   6.337
 8433SOL    HW226199   6.416   2.733   6.455
 8434SOL     OW26200   2.828   0.052   5.060
 8434SOL    HW126201   2.747   0.107   5.083
 8434SOL    HW226202   2.875   0.093   4.982
 8435SOL     OW26203   4.863   0.836   0.680
 8435SOL    HW126204   4.891   0.809   0.773
 8435SOL    HW226205   4.800   0.913   0.686
 8436SOL     OW26206   3.272   6.751   4.362
 8436SOL    HW126207   3.250   6.665   4.315
 8436SOL    HW226208   3.218   6.825   4.322
 8437SOL     OW26209   2.068   0.187   3.013
 8437SOL    HW126210   1.986   0.202   3.069
 8437SOL    HW226211   2.046   0.124   2.938
 8438SOL     OW26212   3.318   5.172   2.348
 8438SOL    HW126213   3.241   5.148   2.407
 8438SOL    HW226214   3.290   5.165   2.253
 8439SOL     OW26215   6.942   5.371   1.229
 8439SOL    HW126216   6.916   5.444   1.291
 8439SOL    HW226217   0.005   5.390   1.191
 8440SOL     OW26218   0.278   1.295   3.557
 8440SOL    HW126219   0.232   1.378   3.588
 8440SOL    HW226220   0.213   1.237   3.509
 8441SOL     OW26221   6.715   6.721   0.059
 8441SOL    HW126222   6.683   6.815   0.067
 8441SOL    HW226223   6.699   6.673   0.145
 8442SOL     OW26224   3.228   2.497   6.144
 8442SOL    HW126225   3.180   2.578   6.178
 8442SOL    HW226226   3.207   2.484   6.047
 8443SOL     OW26227   1.308   6.703   3.254
 8443SOL    HW126228   1.337   6.622   3.202
 8443SOL    HW226229   1.310   6.783   3.194
 8444SOL     OW26230   3.592   5.739   3.556
 8444SOL    HW126231   3.615   5.739   3.653
 8444SOL    HW226232   3.621   5.825   3.514
 8445SOL     OW26233   3.642   5.280   1.893
 8445SOL    HW126234   3.634   5.369   1.938
 8445SOL    HW226235   3.572   5.218   1.929
 8446SOL     OW26236   5.131   5.484   1.359
 8446SOL    HW126237   5.062   5.475   1.286
 8446SOL    HW226238   5.085   5.499   1.446
 8447SOL     OW26239   5.470   1.883   2.281
 8447SOL    HW126240   5.377   1.862   2.311
 8447SOL    HW226241   5.518   1.798   2.257
 8448SOL     OW26242   5.996   4.335   4.953
 8448SOL    HW126243   6.074   4.390   4.983
 8448SOL    HW226244   5.923   4.342   5.020
 8449SOL     OW26245   6.631   2.633   4.305
 8449SOL    HW126246   6.631   2.719   4.356
 8449SOL    HW226247   6.632   2.651   4.207
 8450SOL     OW26248   1.281   5.824   1.882
 8450SOL    HW126249   1.300   5.903   1.940
 8450SOL    HW226250   1.366   5.791   1.842
 8451SOL     OW26251   4.886   3.102   6.997
 8451SOL    HW126252   4.830   3.114   0.052
 8451SOL    HW226253   4.970   3.155   7.006
 8452SOL     OW26254   0.005   0.478   1.598
 8452SOL    HW126255   0.092   0.429   1.603
 8452SOL    HW226256   6.963   0.427   1.650
 8453SOL     OW26257   6.538   4.011   6.600
 8453SOL    HW126258   6.584   4.098   6.580
 8453SOL    HW226259   6.440   4.020   6.581
 8454SOL     OW26260   0.939   6.130   0.881
 8454SOL    HW126261   0.989   6.071   0.945
 8454SOL    HW226262   1.001   6.161   0.809
 8455SOL     OW26263   5.236   1.553   1.060
 8455SOL    HW126264   5.167   1.615   1.097
 8455SOL    HW226265   5.213   1.459   1.087
 8456SOL     OW26266   5.009   4.293   2.669
 8456SOL    HW126267   5.027   4.296   2.767
 8456SOL    HW226268   4.916   4.262   2.653
 8457SOL     OW26269   6.948   6.585   5.487
 8457SOL    HW126270   6.948   6.599   5.388
 8457SOL    HW226271   6.998   6.501   5.509
 8458SOL     OW26272   2.309   0.889   6.655
 8458SOL    HW126273   2.388   0.829   6.645
 8458SOL    HW226274   2.287   0.900   6.752
 8459SOL     OW26275   3.299   6.932   1.329
 8459SOL    HW126276   3.262   6.918   1.421
 8459SOL    HW226277   3.263   7.018   1.292
 8460SOL     OW26278   4.224   2.236   5.699
 8460SOL    HW126279   4.290   2.242   5.774
 8460SOL    HW226280   4.205   2.327   5.663
 8461SOL     OW26281   1.004   4.088   2.246
 8461SOL    HW126282   0.998   4.178   2.288
 8461SOL    HW226283   1.056   4.094   2.161
 8462SOL     OW26284   3.697   2.637   0.556
 8462SOL    HW126285   3.729   2.547   0.525
 8462SOL    HW226286   3.776   2.693   0.581
 8463SOL     OW26287   6.628   0.665   0.584
 8463SOL    HW126288   6.617   0.698   0.491
 8463SOL    HW226289   6.569   0.717   0.645
 8464SOL     OW26290   6.676   4.289   5.366
 8464SOL    HW126291   6.590   4.327   5.401
 8464SOL    HW226292   6.673   4.290   5.266
 8465SOL     OW26293   3.268   2.460   1.168
 8465SOL    HW126294   3.299   2.498   1.081
 8465SOL    HW226295   3.223   2.373   1.152
 8466SOL     OW26296   5.978   6.219   5.547
 8466SOL    HW126297   6.065   6.239   5.591
 8466SOL    HW226298   5.903   6.255   5.603
 8467SOL     OW26299   3.732   0.971   1.453
 8467SOL    HW126300   3.746   0.966   1.355
 8467SOL    HW226301   3.813   0.937   1.501
 8468SOL     OW26302   4.862   2.922   6.807
 8468SOL    HW126303   4.847   2.977   6.890
 8468SOL    HW226304   4.916   2.974   6.742
 8469SOL     OW26305   2.524   1.558   5.632
 8469SOL    HW126306   2.479   1.496   5.568
 8469SOL    HW226307   2.552   1.641   5.584
 8470SOL     OW26308   1.246   4.988   0.170
 8470SOL    HW126309   1.267   5.028   0.081
 8470SOL    HW226310   1.257   4.888   0.165
 8471SOL     OW26311   3.927   0.031   5.714
 8471SOL    HW126312   3.903   7.019   5.803
 8471SOL    HW226313   3.974   0.118   5.728
 8472SOL     OW26314   6.096   0.408   5.576
 8472SOL    HW126315   6.153   0.337   5.533
 8472SOL    HW226316   6.026   0.439   5.512
 8473SOL     OW26317   6.592   5.820   0.822
 8473SOL    HW126318   6.587   5.852   0.917
 8473SOL    HW226319   6.610   5.897   0.762
 8474SOL     OW26320   3.298   3.480   1.979
 8474SOL    HW126321   3.371   3.503   2.044
 8474SOL    HW226322   3.313   3.388   1.944
 8475SOL     OW26323   6.920   2.717   3.204
 8475SOL    HW126324   6.841   2.760   3.162
 8475SOL    HW226325   6.900   2.697   3.300
 8476SOL     OW26326   6.496   1.654   0.904
 8476SOL    HW126327   6.581   1.639   0.955
 8476SOL    HW226328   6.439   1.721   0.953
 8477SOL     OW26329   4.714   6.577   2.590
 8477SOL    HW126330   4.680   6.590   2.497
 8477SOL    HW226331   4.775   6.652   2.614
 8478SOL     OW26332   1.530   0.528   5.380
 8478SOL    HW126333   1.512   0.504   5.285
 8478SOL    HW226334   1.617   0.576   5.387
 8479SOL     OW26335   1.597   3.677   0.859
 8479SOL    HW126336   1.646   3.761   0.835
 8479SOL    HW226337   1.524   3.661   0.791
 8480SOL     OW26338   5.133   3.360   6.548
 8480SOL    HW126339   5.091   3.447   6.520
 8480SOL    HW226340   5.128   3.295   6.472
 8481SOL     OW26341   4.602   2.404   4.910
 8481SOL    HW126342   4.695   2.366   4.903
 8481SOL    HW226343   4.607   2.498   4.944
 8482SOL     OW26344   5.014   0.093   2.574
 8482SOL    HW126345   4.919   0.102   2.603
 8482SOL    HW226346   5.032   0.157   2.498
 8483SOL     OW26347   3.326   6.121   2.311
 8483SOL    HW126348   3.239   6.162   2.283
 8483SOL    HW226349   3.400   6.188   2.302
 8484SOL     OW26350   6.851   6.471   3.628
 8484SOL    HW126351   6.859   6.540   3.556
 8484SOL    HW226352   6.783   6.502   3.695
 8485SOL     OW26353   4.062   2.600   0.137
 8485SOL    HW126354   4.051   2.608   0.038
 8485SOL    HW226355   4.019   2.515   0.169
 8486SOL     OW26356   2.637   1.269   2.509
 8486SOL    HW126357   2.654   1.288   2.412
 8486SOL    HW226358   2.724   1.268   2.559
 8487SOL     OW26359   5.961   2.371   6.055
 8487SOL    HW126360   5.897   2.437   6.015
 8487SOL    HW226361   5.911   2.310   6.117
 8488SOL     OW26362   5.528   6.114   1.924
 8488SOL    HW126363   5.613   6.166   1.925
 8488SOL    HW226364   5.450   6.177   1.920
 8489SOL     OW26365   5.997   1.627   1.779
 8489SOL    HW126366   5.953   1.716   1.790
 8489SOL    HW226367   6.020   1.590   1.869
 8490SOL     OW26368   3.226   6.585   5.875
 8490SOL    HW126369   3.159   6.601   5.948
 8490SOL    HW226370   3.312   6.553   5.915
 8491SOL     OW26371   1.924   5.793   2.043
 8491SOL    HW126372   1.906   5.735   2.122
 8491SOL    HW226373   1.841   5.843   2.018
 8492SOL     OW26374   5.993   4.638   5.316
 8492SOL    HW126375   5.960   4.551   5.355
 8492SOL    HW226376   5.926   4.710   5.334
 8493SOL     OW26377   2.240   2.541   5.802
 8493SOL    HW126378   2.332   2.578   5.810
 8493SOL    HW226379   2.237   2.449   5.840
 8494SOL     OW26380   4.273   5.430   1.747
 8494SOL    HW126381   4.287   5.512   1.803
 8494SOL    HW226382   4.175   5.411   1.740
 8495SOL     OW26383   0.293   4.831   1.281
 8495SOL    HW126384   0.273   4.753   1.222
 8495SOL    HW226385   0.392   4.847   1.282
 8496SOL     OW26386   0.829   1.611   2.550
 8496SOL    HW126387   0.907   1.551   2.530
 8496SOL    HW226388   0.780   1.576   2.629
 8497SOL     OW26389   0.171   1.533   3.684
 8497SOL    HW126390   0.111   1.609   3.658
 8497SOL    HW226391   0.138   1.493   3.770
 8498SOL     OW26392   6.512   6.363   3.309
 8498SOL    HW126393   6.559   6.289   3.358
 8498SOL    HW226394   6.425   6.330   3.273
 8499SOL     OW26395   2.172   3.702   6.834
 8499SOL    HW126396   2.226   3.764   6.777
 8499SOL    HW226397   2.078   3.737   6.841
 8500SOL     OW26398   1.802   6.216   5.976
 8500SOL    HW126399   1.728   6.189   5.914
 8500SOL    HW226400   1.772   6.203   6.071
 8501SOL     OW26401   0.086   2.824   5.665
 8501SOL    HW126402   0.084   2.733   5.706
 8501SOL    HW226403   0.168   2.833   5.608
 8502SOL     OW26404   0.609   2.774   1.544
 8502SOL    HW126405   0.575   2.863   1.514
 8502SOL    HW226406   0.547   2.736   1.613
 8503SOL     OW26407   0.533   5.635   4.693
 8503SOL    HW126408   0.522   5.592   4.603
 8503SOL    HW226409   0.618   5.688   4.694
 8504SOL     OW26410   1.837   5.214   2.251
 8504SOL    HW126411   1.929   5.175   2.248
 8504SOL    HW226412   1.795   5.194   2.340
 8505SOL     OW26413   6.153   3.873   3.313
 8505SOL    HW126414   6.064   3.857   3.356
 8505SOL    HW226415   6.195   3.785   3.290
 8506SOL     OW26416   1.174   1.684   6.921
 8506SOL    HW126417   1.252   1.698   6.983
 8506SOL    HW226418   1.099   1.641   6.971
 8507SOL     OW26419   3.634   6.525   5.355
 8507SOL    HW126420   3.573   6.446   5.359
 8507SOL    HW226421   3.655   6.556   5.448
 8508SOL     OW26422   4.701   1.644   4.760
 8508SOL    HW126423   4.733   1.668   4.851
 8508SOL    HW226424   4.697   1.726   4.703
 8509SOL     OW26425   5.006   0.510   3.528
 8509SOL    HW126426   5.005   0.596   3.478
 8509SOL    HW226427   4.978   0.436   3.467
 8510SOL     OW26428   5.698   4.221   3.332
 8510SOL    HW126429   5.659   4.301   3.288
 8510SOL    HW226430   5.673   4.139   3.281
 8511SOL     OW26431   6.090   3.795   2.872
 8511SOL    HW126432   6.100   3.739   2.790
 8511SOL    HW226433   6.000   3.777   2.914
 8512SOL     OW26434   2.953   0.881   2.747
 8512SOL    HW126435   2.872   0.822   2.736
 8512SOL    HW226436   2.925   0.977   2.744
 8513SOL     OW26437   6.905   4.718   1.149
 8513SOL    HW126438   6.925   4.808   1.111
 8513SOL    HW226439   6.840   4.727   1.224
 8514SOL     OW26440   2.387   0.943   3.701
 8514SOL    HW126441   2.471   0.952   3.648
 8514SOL    HW226442   2.391   1.004   3.781
 8515SOL     OW26443   4.856   2.538   1.532
 8515SOL    HW126444   4.908   2.587   1.602
 8515SOL    HW226445   4.858   2.591   1.447
 8516SOL     OW26446   0.125   1.491   2.201
 8516SOL    HW126447   0.070   1.563   2.243
 8516SOL    HW226448   0.086   1.465   2.113
 8517SOL     OW26449   0.512   2.868   5.025
 8517SOL    HW126450   0.509   2.884   4.927
 8517SOL    HW226451   0.541   2.952   5.072
 8518SOL     OW26452   4.761   4.303   6.580
 8518SOL    HW126453   4.800   4.211   6.578
 8518SOL    HW226454   4.670   4.300   6.623
 8519SOL     OW26455   1.461   5.209   2.073
 8519SOL    HW126456   1.466   5.207   2.173
 8519SOL    HW226457   1.444   5.302   2.042
 8520SOL     OW26458   3.775   1.203   1.042
 8520SOL    HW126459   3.742   1.286   0.996
 8520SOL    HW226460   3.845   1.228   1.109
 8521SOL     OW26461   2.039   5.646   5.870
 8521SOL    HW126462   2.122   5.699   5.889
 8521SOL    HW226463   2.039   5.618   5.774
 8522SOL     OW26464   0.905   5.971   1.656
 8522SOL    HW126465   0.944   5.909   1.724
 8522SOL    HW226466   0.936   6.064   1.675
 8523SOL     OW26467   2.999   6.400   0.035
 8523SOL    HW126468   2.929   6.443   0.091
 8523SOL    HW226469   2.991   6.433   6.968
 8524SOL     OW26470   1.328   2.586   4.876
 8524SOL    HW126471   1.242   2.555   4.918
 8524SOL    HW226472   1.404   2.537   4.917
 8525SOL     OW26473   5.943   4.447   3.929
 8525SOL    HW126474   5.962   4.352   3.905
 8525SOL    HW226475   5.909   4.495   3.848
 8526SOL     OW26476   2.815   4.057   0.885
 8526SOL    HW126477   2.858   4.042   0.974
 8526SOL    HW226478   2.749   4.132   0.892
 8527SOL     OW26479   3.361   0.291   5.000
 8527SOL    HW126480   3.278   0.332   5.039
 8527SOL    HW226481   3.359   0.299   4.900
 8528SOL     OW26482   4.895   3.236   6.245
 8528SOL    HW126483   4.870   3.143   6.274
 8528SOL    HW226484   4.970   3.269   6.303
 8529SOL     OW26485   0.843   6.782   6.496
 8529SOL    HW126486   0.837   6.750   6.590
 8529SOL    HW226487   0.751   6.787   6.456
 8530SOL     OW26488   1.086   4.463   5.977
 8530SOL    HW126489   1.183   4.458   5.952
 8530SOL    HW226490   1.075   4.442   6.074
 8531SOL     OW26491   5.551   4.702   2.788
 8531SOL    HW126492   5.624   4.689   2.854
 8531SOL    HW226493   5.587   4.747   2.706
 8532SOL     OW26494   3.873   5.230   4.988
 8532SOL    HW126495   3.871   5.261   4.893
 8532SOL    HW226496   3.779   5.218   5.021
 8533SOL     OW26497   1.571   0.439   5.759
 8533SOL    HW126498   1.627   0.368   5.716
 8533SOL    HW226499   1.506   0.396   5.822
 8534SOL     OW26500   0.006   3.497   3.436
 8534SOL    HW126501   0.053   3.580   3.404
 8534SOL    HW226502   6.982   3.519   3.519
 8535SOL     OW26503   0.622   2.091   5.130
 8535SOL    HW126504   0.694   2.111   5.064
 8535SOL    HW226505   0.564   2.171   5.142
 8536SOL     OW26506   6.104   2.079   5.092
 8536SOL    HW126507   6.083   1.988   5.058
 8536SOL    HW226508   6.025   2.114   5.144
 8537SOL     OW26509   5.740   1.827   1.141
 8537SOL    HW126510   5.666   1.761   1.154
 8537SOL    HW226511   5.705   1.906   1.091
 8538SOL     OW26512   0.296   0.997   4.984
 8538SOL    HW126513   0.209   0.959   5.014
 8538SOL    HW226514   0.317   0.963   4.892
 8539SOL     OW26515   6.007   2.100   2.048
 8539SOL    HW126516   5.958   2.012   2.048
 8539SOL    HW226517   6.073   2.101   1.973
 8540SOL     OW26518   3.315   1.577   0.596
 8540SOL    HW126519   3.252   1.548   0.525
 8540SOL    HW226520   3.263   1.599   0.679
 8541SOL     OW26521   2.705   1.849   4.411
 8541SOL    HW126522   2.697   1.750   4.399
 8541SOL    HW226523   2.674   1.873   4.503
 8542SOL     OW26524   2.694   4.555   6.654
 8542SOL    HW126525   2.672   4.498   6.575
 8542SOL    HW226526   2.772   4.614   6.632
 8543SOL     OW26527   2.924   1.554   5.851
 8543SOL    HW126528   2.947   1.647   5.822
 8543SOL    HW226529   2.986   1.526   5.924
 8544SOL     OW26530   5.366   3.035   4.592
 8544SOL    HW126531   5.333   3.021   4.685
 8544SOL    HW226532   5.464   3.055   4.594
 8545SOL     OW26533   3.545   6.631   4.768
 8545SOL    HW126534   3.603   6.559   4.807
 8545SOL    HW226535   3.475   6.656   4.834
 8546SOL     OW26536   6.769   0.109   1.973
 8546SOL    HW126537   6.784   0.208   1.977
 8546SOL    HW226538   6.673   0.090   1.997
 8547SOL     OW26539   0.084   0.413   5.250
 8547SOL    HW126540   0.154   0.412   5.322
 8547SOL    HW226541   0.123   0.377   5.165
 8548SOL     OW26542   0.115   3.280   5.811
 8548SOL    HW126543   0.018   3.289   5.786
 8548SOL    HW226544   0.158   3.370   5.812
 8549SOL     OW26545   0.857   2.722   3.830
 8549SOL    HW126546   0.813   2.668   3.758
 8549SOL    HW226547   0.872   2.815   3.797
 8550SOL     OW26548   1.435   3.843   6.232
 8550SOL    HW126549   1.337   3.860   6.240
 8550SOL    HW226550   1.461   3.766   6.290
 8551SOL     OW26551   2.981   3.075   0.069
 8551SOL    HW126552   3.046   3.006   0.037
 8551SOL    HW226553   3.031   3.154   0.105
 8552SOL     OW26554   2.620   0.233   2.585
 8552SOL    HW126555   2.525   0.262   2.588
 8552SOL    HW226556   2.625   0.141   2.547
 8553SOL     OW26557   4.424   4.478   0.105
 8553SOL    HW126558   4.518   4.494   0.075
 8553SOL    HW226559   4.376   4.565   0.113
 8554SOL     OW26560   0.364   5.824   1.232
 8554SOL    HW126561   0.369   5.890   1.306
 8554SOL    HW226562   0.313   5.744   1.262
 8555SOL     OW26563   3.837   1.756   3.050
 8555SOL    HW126564   3.763   1.714   3.104
 8555SOL    HW226565   3.848   1.851   3.079
 8556SOL     OW26566   2.172   6.129   5.197
 8556SOL    HW126567   2.168   6.143   5.098
 8556SOL    HW226568   2.085   6.092   5.228
 8557SOL     OW26569   6.858   0.393   1.313
 8557SOL    HW126570   6.929   0.421   1.377
 8557SOL    HW226571   6.791   0.467   1.304
 8558SOL     OW26572   2.098   5.501   3.039
 8558SOL    HW126573   2.176   5.553   3.005
 8558SOL    HW226574   2.080   5.525   3.134
 8559SOL     OW26575   1.477   6.099   2.472
 8559SOL    HW126576   1.513   6.181   2.428
 8559SOL    HW226577   1.478   6.023   2.407
 8560SOL     OW26578   1.171   5.269   1.558
 8560SOL    HW126579   1.183   5.359   1.600
 8560SOL    HW226580   1.147   5.202   1.629
 8561SOL     OW26581   3.433   6.941   4.000
 8561SOL    HW126582   3.345   6.963   4.042
 8561SOL    HW226583   3.438   6.842   3.983
 8562SOL     OW26584   3.556   7.013   6.811
 8562SOL    HW126585   3.564   6.928   6.758
 8562SOL    HW226586   3.482   7.003   6.878
 8563SOL     OW26587   0.859   4.924   1.781
 8563SOL    HW126588   0.863   4.843   1.839
 8563SOL    HW226589   0.796   4.990   1.820
 8564SOL     OW26590   3.514   6.327   5.787
 8564SOL    HW126591   3.583   6.341   5.717
 8564SOL    HW226592   3.558   6.317   5.876
 8565SOL     OW26593   3.824   5.380   0.834
 8565SOL    HW126594   3.829   5.416   0.927
 8565SOL    HW226595   3.759   5.435   0.781
 8566SOL     OW26596   1.808   0.220   2.117
 8566SOL    HW126597   1.762   0.200   2.203
 8566SOL    HW226598   1.766   0.167   2.043
 8567SOL     OW26599   0.935   2.206   2.341
 8567SOL    HW126600   0.868   2.132   2.332
 8567SOL    HW226601   1.012   2.174   2.397
 8568SOL     OW26602   5.658   1.446   0.730
 8568SOL    HW126603   5.624   1.498   0.809
 8568SOL    HW226604   5.655   1.504   0.649
 8569SOL     OW26605   5.440   2.004   5.919
 8569SOL    HW126606   5.341   2.006   5.906
 8569SOL    HW226607   5.471   1.909   5.925
 8570SOL     OW26608   1.267   1.570   4.900
 8570SOL    HW126609   1.266   1.664   4.934
 8570SOL    HW226610   1.190   1.520   4.939
 8571SOL     OW26611   0.754   0.008   4.922
 8571SOL    HW126612   0.835   0.034   4.974
 8571SOL    HW226613   0.703   0.089   4.895
 8572SOL     OW26614   1.735   4.234   5.212
 8572SOL    HW126615   1.716   4.228   5.114
 8572SOL    HW226616   1.829   4.266   5.226
 8573SOL     OW26617   2.903   5.817   6.411
 8573SOL    HW126618   2.929   5.726   6.444
 8573SOL    HW226619   2.835   5.807   6.338
 8574SOL     OW26620   6.378   6.817   6.047
 8574SOL    HW126621   6.365   6.731   6.096
 8574SOL    HW226622   6.341   6.809   5.954
 8575SOL     OW26623   3.385   1.639   3.419
 8575SOL    HW126624   3.294   1.680   3.410
 8575SOL    HW226625   3.435   1.685   3.493
 8576SOL     OW26626   1.825   4.635   4.056
 8576SOL    HW126627   1.837   4.701   4.131
 8576SOL    HW226628   1.733   4.597   4.059
 8577SOL     OW26629   1.471   0.425   6.180
 8577SOL    HW126630   1.569   0.417   6.163
 8577SOL    HW226631   1.428   0.472   6.103
 8578SOL     OW26632   6.840   4.780   5.972
 8578SOL    HW126633   6.823   4.703   6.034
 8578SOL    HW226634   6.836   4.748   5.877
 8579SOL     OW26635   0.990   5.849   1.905
 8579SOL    HW126636   0.991   5.893   1.995
 8579SOL    HW226637   1.084   5.831   1.876
 8580SOL     OW26638   2.334   5.938   0.692
 8580SOL    HW126639   2.297   5.845   0.691
 8580SOL    HW226640   2.412   5.942   0.754
 8581SOL     OW26641   3.828   4.865   1.517
 8581SOL    HW126642   3.821   4.765   1.513
 8581SOL    HW226643   3.775   4.905   1.442
 8582SOL     OW26644   4.543   4.574   5.698
 8582SOL    HW126645   4.544   4.643   5.625
 8582SOL    HW226646   4.583   4.489   5.663
 8583SOL     OW26647   2.753   6.716   2.624
 8583SOL    HW126648   2.722   6.678   2.711
 8583SOL    HW226649   2.818   6.653   2.581
 8584SOL     OW26650   0.746   6.791   5.378
 8584SOL    HW126651   0.668   6.760   5.323
 8584SOL    HW226652   0.722   6.788   5.475
 8585SOL     OW26653   6.410   1.511   0.697
 8585SOL    HW126654   6.380   1.419   0.723
 8585SOL    HW226655   6.439   1.560   0.779
 8586SOL     OW26656   3.934   6.956   1.349
 8586SOL    HW126657   3.996   6.914   1.283
 8586SOL    HW226658   3.840   6.927   1.329
 8587SOL     OW26659   0.931   1.241   5.170
 8587SOL    HW126660   0.941   1.167   5.103
 8587SOL    HW226661   0.985   1.219   5.251
 8588SOL     OW26662   4.903   1.166   6.836
 8588SOL    HW126663   4.880   1.090   6.774
 8588SOL    HW226664   4.999   1.159   6.862
 8589SOL     OW26665   6.522   2.704   5.330
 8589SOL    HW126666   6.532   2.657   5.242
 8589SOL    HW226667   6.558   2.797   5.322
 8590SOL     OW26668   0.816   1.244   2.565
 8590SOL    HW126669   0.832   1.231   2.467
 8590SOL    HW226670   0.720   1.225   2.586
 8591SOL     OW26671   0.326   4.098   0.429
 8591SOL    HW126672   0.424   4.083   0.429
 8591SOL    HW226673   0.280   4.022   0.476
 8592SOL     OW26674   6.361   2.304   0.183
 8592SOL    HW126675   6.420   2.267   0.112
 8592SOL    HW226676   6.267   2.307   0.150
 8593SOL     OW26677   2.820   1.117   6.373
 8593SOL    HW126678   2.764   1.161   6.444
 8593SOL    HW226679   2.907   1.165   6.364
 8594SOL     OW26680   6.235   2.364   6.096
 8594SOL    HW126681   6.139   2.390   6.088
 8594SOL    HW226682   6.284   2.392   6.013
 8595SOL     OW26683   6.170   1.005   3.772
 8595SOL    HW126684   6.256   0.957   3.788
 8595SOL    HW226685   6.148   1.005   3.675
 8596SOL     OW26686   1.496   4.562   3.199
 8596SOL    HW126687   1.505   4.465   3.178
 8596SOL    HW226688   1.453   4.573   3.288
 8597SOL     OW26689   5.005   1.942   1.449
 8597SOL    HW126690   4.988   2.018   1.511
 8597SOL    HW226691   5.041   1.976   1.363
 8598SOL     OW26692   5.912   0.002   5.980
 8598SOL    HW126693   5.947   7.016   6.073
 8598SOL    HW226694   5.820   0.042   5.984
 8599SOL     OW26695   1.298   2.532   4.619
 8599SOL    HW126696   1.334   2.547   4.711
 8599SOL    HW226697   1.353   2.584   4.553
 8600SOL     OW26698   5.403   3.363   6.870
 8600SOL    HW126699   5.458   3.441   6.838
 8600SOL    HW226700   5.306   3.383   6.856
 8601SOL     OW26701   0.469   1.640   3.843
 8601SOL    HW126702   0.555   1.655   3.794
 8601SOL    HW226703   0.459   1.542   3.863
 8602SOL     OW26704   2.568   6.583   2.024
 8602SOL    HW126705   2.547   6.583   1.926
 8602SOL    HW226706   2.666   6.574   2.038
 8603SOL     OW26707   5.204   0.006   0.424
 8603SOL    HW126708   5.271   0.024   0.352
 8603SOL    HW226709   5.122   0.060   0.408
 8604SOL     OW26710   1.121   2.305   6.020
 8604SOL    HW126711   1.125   2.383   6.083
 8604SOL    HW226712   1.175   2.230   6.057
 8605SOL     OW26713   1.702   5.367   3.640
 8605SOL    HW126714   1.654   5.394   3.724
 8605SOL    HW226715   1.688   5.437   3.570
 8606SOL     OW26716   2.065   2.530   7.021
 8606SOL    HW126717   2.051   2.581   0.079
 8606SOL    HW226718   2.159   2.496   7.017
 8607SOL     OW26719   2.507   4.626   6.115
 8607SOL    HW126720   2.445   4.704   6.103
 8607SOL    HW226721   2.586   4.654   6.168
 8608SOL     OW26722   2.178   4.625   2.384
 8608SOL    HW126723   2.237   4.704   2.369
 8608SOL    HW226724   2.095   4.635   2.329
 8609SOL     OW26725   4.831   0.243   3.919
 8609SOL    HW126726   4.864   0.309   3.986
 8609SOL    HW226727   4.909   0.193   3.881
 8610SOL     OW26728   6.762   0.661   3.475
 8610SOL    HW126729   6.859   0.663   3.454
 8610SOL    HW226730   6.749   0.658   3.574
 8611SOL     OW26731   3.028   1.576   4.271
 8611SOL    HW126732   3.081   1.594   4.354
 8611SOL    HW226733   2.952   1.515   4.293
 8612SOL     OW26734   2.408   3.631   1.297
 8612SOL    HW126735   2.367   3.552   1.343
 8612SOL    HW226736   2.446   3.602   1.209
 8613SOL     OW26737   3.000   1.908   1.063
 8613SOL    HW126738   3.025   1.812   1.080
 8613SOL    HW226739   3.083   1.960   1.042
 8614SOL     OW26740   1.114   2.847   2.774
 8614SOL    HW126741   1.115   2.896   2.686
 8614SOL    HW226742   1.101   2.912   2.848
 8615SOL     OW26743   4.938   2.073   5.062
 8615SOL    HW126744   4.929   2.001   5.131
 8615SOL    HW226745   4.864   2.065   4.995
 8616SOL     OW26746   2.931   4.789   1.860
 8616SOL    HW126747   2.865   4.848   1.814
 8616SOL    HW226748   2.884   4.711   1.901
 8617SOL     OW26749   6.252   1.007   4.214
 8617SOL    HW126750   6.282   1.034   4.306
 8617SOL    HW226751   6.159   1.040   4.198
 8618SOL     OW26752   6.395   4.311   1.372
 8618SOL    HW126753   6.394   4.313   1.272
 8618SOL    HW226754   6.482   4.275   1.404
 8619SOL     OW26755   4.039   5.071   2.953
 8619SOL    HW126756   4.132   5.099   2.930
 8619SOL    HW226757   4.027   4.974   2.932
 8620SOL     OW26758   1.991   6.098   4.144
 8620SOL    HW126759   1.998   6.005   4.107
 8620SOL    HW226760   1.897   6.131   4.135
 8621SOL     OW26761   4.924   2.939   2.238
 8621SOL    HW126762   4.859   2.877   2.194
 8621SOL    HW226763   4.874   3.014   2.282
 8622SOL     OW26764   5.283   4.394   1.366
 8622SOL    HW126765   5.302   4.296   1.358
 8622SOL    HW226766   5.368   4.443   1.385
 8623SOL     OW26767   0.694   4.460   5.152
 8623SOL    HW126768   0.741   4.526   5.211
 8623SOL    HW226769   0.611   4.501   5.116
 8624SOL     OW26770   2.934   4.178   5.641
 8624SOL    HW126771   2.972   4.101   5.590
 8624SOL    HW226772   2.835   4.184   5.625
 8625SOL     OW26773   4.872   0.610   5.238
 8625SOL    HW126774   4.793   0.548   5.237
 8625SOL    HW226775   4.930   0.588   5.316
 8626SOL     OW26776   4.100   2.951   6.889
 8626SOL    HW126777   4.148   3.011   6.952
 8626SOL    HW226778   4.160   2.877   6.860
 8627SOL     OW26779   2.369   1.831   2.126
 8627SOL    HW126780   2.400   1.747   2.170
 8627SOL    HW226781   2.405   1.834   2.033
 8628SOL     OW26782   6.005   6.593   7.025
 8628SOL    HW126783   5.975   6.521   0.060
 8628SOL    HW226784   5.990   6.682   0.041
 8629SOL     OW26785   1.832   6.635   5.300
 8629SOL    HW126786   1.863   6.630   5.205
 8629SOL    HW226787   1.869   6.717   5.343
 8630SOL     OW26788   5.050   3.497   4.088
 8630SOL    HW126789   5.024   3.442   4.009
 8630SOL    HW226790   5.051   3.441   4.171
 8631SOL     OW26791   1.351   5.632   6.395
 8631SOL    HW126792   1.422   5.561   6.399
 8631SOL    HW226793   1.287   5.611   6.321
 8632SOL     OW26794   3.953   4.681   5.286
 8632SOL    HW126795   3.958   4.724   5.376
 8632SOL    HW226796   4.013   4.730   5.223
 8633SOL     OW26797   5.571   2.707   5.834
 8633SOL    HW126798   5.527   2.681   5.748
 8633SOL    HW226799   5.642   2.775   5.816
 8634SOL     OW26800   4.974   4.077   6.561
 8634SOL    HW126801   5.033   4.021   6.619
 8634SOL    HW226802   4.904   4.019   6.519
 8635SOL     OW26803   5.698   2.951   6.926
 8635SOL    HW126804   5.707   3.020   6.854
 8635SOL    HW226805   5.739   2.865   6.895
 8636SOL     OW26806   5.309   6.278   1.163
 8636SOL    HW126807   5.236   6.217   1.195
 8636SOL    HW226808   5.343   6.333   1.239
 8637SOL     OW26809   2.022   1.858   6.813
 8637SOL    HW126810   1.978   1.774   6.782
 8637SOL    HW226811   1.977   1.937   6.771
 8638SOL     OW26812   3.969   2.221   5.471
 8638SOL    HW126813   4.001   2.188   5.560
 8638SOL    HW226814   4.034   2.195   5.400
 8639SOL     OW26815   4.834   3.309   6.634
 8639SOL    HW126816   4.741   3.283   6.606
 8639SOL    HW226817   4.834   3.333   6.731
 8640SOL     OW26818   4.094   3.804   0.617
 8640SOL    HW126819   4.068   3.708   0.630
 8640SOL    HW226820   4.189   3.817   0.647
 8641SOL     OW26821   4.080   4.787   4.187
 8641SOL    HW126822   4.119   4.830   4.106
 8641SOL    HW226823   4.030   4.705   4.160
 8642SOL     OW26824   1.282   6.693   3.899
 8642SOL    HW126825   1.326   6.655   3.981
 8642SOL    HW226826   1.190   6.656   3.891
 8643SOL     OW26827   1.465   0.265   6.934
 8643SOL    HW126828   1.538   0.303   6.991
 8643SOL    HW226829   1.385   0.246   6.991
 8644SOL     OW26830   5.260   2.746   6.156
 8644SOL    HW126831   5.195   2.772   6.084
 8644SOL    HW226832   5.351   2.779   6.133
 8645SOL     OW26833   4.283   5.099   1.743
 8645SOL    HW126834   4.373   5.138   1.722
 8645SOL    HW226835   4.294   5.017   1.799
 8646SOL     OW26836   0.309   1.468   6.927
 8646SOL    HW126837   0.387   1.506   6.976
 8646SOL    HW226838   0.322   1.482   6.829
 8647SOL     OW26839   2.777   5.077   0.090
 8647SOL    HW126840   2.827   5.114   0.168
 8647SOL    HW226841   2.795   4.978   0.083
 8648SOL     OW26842   6.398   0.367   1.567
 8648SOL    HW126843   6.391   0.297   1.496
 8648SOL    HW226844   6.311   0.373   1.616
 8649SOL     OW26845   6.065   5.908   0.579
 8649SOL    HW126846   5.990   5.859   0.535
 8649SOL    HW226847   6.030   5.992   0.621
 8650SOL     OW26848   1.685   6.844   4.905
 8650SOL    HW126849   1.620   6.773   4.878
 8650SOL    HW226850   1.676   6.862   5.003
 8651SOL     OW26851   3.850   1.577   1.112
 8651SOL    HW126852   3.833   1.667   1.152
 8651SOL    HW226853   3.914   1.526   1.169
 8652SOL     OW26854   0.978   4.929   3.222
 8652SOL    HW126855   1.042   4.853   3.225
 8652SOL    HW226856   0.893   4.899   3.179
 8653SOL     OW26857   6.539   1.366   6.038
 8653SOL    HW126858   6.535   1.435   5.966
 8653SOL    HW226859   6.598   1.398   6.112
 8654SOL     OW26860   0.318   4.795   1.847
 8654SOL    HW126861   0.293   4.755   1.759
 8654SOL    HW226862   0.320   4.895   1.838
 8655SOL     OW26863   5.686   0.080   4.469
 8655SOL    HW126864   5.777   0.120   4.462
 8655SOL    HW226865   5.637   0.121   4.546
 8656SOL     OW26866   6.376   1.258   2.224
 8656SOL    HW126867   6.413   1.350   2.212
 8656SOL    HW226868   6.360   1.240   2.321
 8657SOL     OW26869   5.891   6.140   0.297
 8657SOL    HW126870   5.806   6.105   0.337
 8657SOL    HW226871   5.895   6.115   0.200
 8658SOL     OW26872   6.656   5.441   0.251
 8658SOL    HW126873   6.683   5.420   0.345
 8658SOL    HW226874   6.561   5.412   0.236
 8659SOL     OW26875   5.292   2.086   2.669
 8659SOL    HW126876   5.199   2.123   2.676
 8659SOL    HW226877   5.305   2.049   2.577
 8660SOL     OW26878   6.624   3.445   2.272
 8660SOL    HW126879   6.661   3.464   2.181
 8660SOL    HW226880   6.692   3.397   2.327
 8661SOL     OW26881   6.010   3.742   2.083
 8661SOL    HW126882   5.964   3.658   2.111
 8661SOL    HW226883   6.025   3.741   1.984
 8662SOL     OW26884   3.900   6.038   1.831
 8662SOL    HW126885   3.944   6.118   1.872
 8662SOL    HW226886   3.965   5.990   1.771
 8663SOL     OW26887   2.498   5.503   2.488
 8663SOL    HW126888   2.428   5.453   2.438
 8663SOL    HW226889   2.553   5.557   2.424
 8664SOL     OW26890   2.156   4.710   1.715
 8664SOL    HW126891   2.089   4.698   1.642
 8664SOL    HW226892   2.109   4.714   1.803
 8665SOL     OW26893   5.993   5.591   4.667
 8665SOL    HW126894   6.081   5.555   4.697
 8665SOL    HW226895   5.925   5.518   4.667
 8666SOL     OW26896   5.635   0.190   4.037
 8666SOL    HW126897   5.547   0.230   4.013
 8666SOL    HW226898   5.680   0.247   4.106
 8667SOL     OW26899   5.131   1.714   3.881
 8667SOL    HW126900   5.077   1.631   3.894
 8667SOL    HW226901   5.228   1.690   3.877
 8668SOL     OW26902   5.293   3.877   4.521
 8668SOL    HW126903   5.320   3.811   4.450
 8668SOL    HW226904   5.200   3.857   4.550
 8669SOL     OW26905   0.442   6.231   6.647
 8669SOL    HW126906   0.350   6.244   6.609
 8669SOL    HW226907   0.464   6.134   6.647
 8670SOL     OW26908   4.394   5.379   6.046
 8670SOL    HW126909   4.465   5.309   6.055
 8670SOL    HW226910   4.374   5.418   6.136
 8671SOL     OW26911   0.715   1.866   2.580
 8671SOL    HW126912   0.765   1.780   2.590
 8671SOL    HW226913   0.777   1.943   2.595
 8672SOL     OW26914   0.505   6.721   3.304
 8672SOL    HW126915   0.476   6.735   3.209
 8672SOL    HW226916   0.432   6.677   3.355
 8673SOL     OW26917   6.203   1.732   0.586
 8673SOL    HW126918   6.179   1.698   0.677
 8673SOL    HW226919   6.197   1.657   0.520
 8674SOL     OW26920   5.874   5.046   2.909
 8674SOL    HW126921   5.940   4.983   2.867
 8674SOL    HW226922   5.788   5.042   2.858
 8675SOL     OW26923   4.772   1.348   5.190
 8675SOL    HW126924   4.711   1.419   5.226
 8675SOL    HW226925   4.753   1.334   5.093
 8676SOL     OW26926   4.749   0.137   2.655
 8676SOL    HW126927   4.701   0.049   2.656
 8676SOL    HW226928   4.683   0.211   2.646
 8677SOL     OW26929   2.111   5.677   5.518
 8677SOL    HW126930   2.146   5.583   5.518
 8677SOL    HW226931   2.178   5.737   5.562
 8678SOL     OW26932   1.038   0.347   0.498
 8678SOL    HW126933   0.942   0.336   0.520
 8678SOL    HW226934   1.049   0.357   0.399
 8679SOL     OW26935   1.422   1.586   3.539
 8679SOL    HW126936   1.462   1.495   3.551
 8679SOL    HW226937   1.463   1.630   3.460
 8680SOL     OW26938   5.903   3.605   0.119
 8680SOL    HW126939   5.832   3.627   0.052
 8680SOL    HW226940   5.877   3.641   0.209
 8681SOL     OW26941   4.927   5.484   1.570
 8681SOL    HW126942   4.845   5.533   1.600
 8681SOL    HW226943   4.902   5.390   1.546
 8682SOL     OW26944   6.600   0.812   2.082
 8682SOL    HW126945   6.541   0.739   2.119
 8682SOL    HW226946   6.567   0.839   1.991
 8683SOL     OW26947   1.445   2.632   6.014
 8683SOL    HW126948   1.439   2.640   6.114
 8683SOL    HW226949   1.435   2.536   5.988
 8684SOL     OW26950   6.067   3.212   4.757
 8684SOL    HW126951   6.076   3.115   4.738
 8684SOL    HW226952   5.971   3.239   4.748
 8685SOL     OW26953   5.507   2.685   6.575
 8685SOL    HW126954   5.498   2.689   6.675
 8685SOL    HW226955   5.422   2.651   6.535
 8686SOL     OW26956   6.716   0.634   1.320
 8686SOL    HW126957   6.783   0.686   1.373
 8686SOL    HW226958   6.624   0.657   1.351
 8687SOL     OW26959   5.031   4.718   2.646
 8687SOL    HW126960   4.974   4.765   2.713
 8687SOL    HW226961   5.124   4.755   2.648
 8688SOL     OW26962   1.307   4.736   6.849
 8688SOL    HW126963   1.310   4.737   6.749
 8688SOL    HW226964   1.395   4.704   6.884
 8689SOL     OW26965   4.324   2.723   0.245
 8689SOL    HW126966   4.246   2.687   0.195
 8689SOL    HW226967   4.389   2.649   0.262
 8690SOL     OW26968   1.026   3.458   3.553
 8690SOL    HW126969   1.020   3.471   3.455
 8690SOL    HW226970   0.943   3.414   3.587
 8691SOL     OW26971   3.552   1.845   5.762
 8691SOL    HW126972   3.627   1.789   5.729
 8691SOL    HW226973   3.564   1.863   5.860
 8692SOL     OW26974   3.533   0.807   4.623
 8692SOL    HW126975   3.579   0.886   4.584
 8692SOL    HW226976   3.504   0.827   4.716
 8693SOL     OW26977   5.912   0.155   6.859
 8693SOL    HW126978   5.922   0.189   6.953
 8693SOL    HW226979   6.001   0.162   6.812
 8694SOL     OW26980   6.064   1.408   4.918
 8694SOL    HW126981   6.072   1.422   5.017
 8694SOL    HW226982   5.968   1.418   4.891
 8695SOL     OW26983   3.759   2.817   6.202
 8695SOL    HW126984   3.737   2.874   6.122
 8695SOL    HW226985   3.697   2.739   6.205
 8696SOL     OW26986   3.143   5.692   5.423
 8696SOL    HW126987   3.151   5.617   5.489
 8696SOL    HW226988   3.106   5.657   5.337
 8697SOL     OW26989   0.245   4.159   6.370
 8697SOL    HW126990   0.254   4.168   6.271
 8697SOL    HW226991   0.174   4.221   6.404
 8698SOL     OW26992   5.052   6.204   5.031
 8698SOL    HW126993   5.064   6.145   5.112
 8698SOL    HW226994   4.956   6.227   5.021
 8699SOL     OW26995   1.801   3.545   5.277
 8699SOL    HW126996   1.817   3.524   5.373
 8699SOL    HW226997   1.704   3.568   5.264
 8700SOL     OW26998   0.654   0.587   4.729
 8700SOL    HW126999   0.599   0.651   4.676
 8700SOL    HW227000   0.625   0.588   4.824
 8701SOL     OW27001   1.762   1.314   0.820
 8701SOL    HW127002   1.706   1.367   0.757
 8701SOL    HW227003   1.768   1.362   0.908
 8702SOL     OW27004   5.157   5.193   1.875
 8702SOL    HW127005   5.141   5.110   1.821
 8702SOL    HW227006   5.202   5.168   1.961
 8703SOL     OW27007   2.953   4.496   0.162
 8703SOL    HW127008   2.903   4.498   0.248
 8703SOL    HW227009   2.975   4.402   0.138
 8704SOL     OW27010   6.690   4.134   3.327
 8704SOL    HW127011   6.786   4.154   3.305
 8704SOL    HW227012   6.670   4.164   3.420
 8705SOL     OW27013   4.441   2.122   6.360
 8705SOL    HW127014   4.488   2.047   6.408
 8705SOL    HW227015   4.459   2.208   6.407
 8706SOL     OW27016   4.926   1.896   0.631
 8706SOL    HW127017   4.838   1.898   0.583
 8706SOL    HW227018   4.990   1.838   0.581
 8707SOL     OW27019   1.145   2.612   3.986
 8707SOL    HW127020   1.063   2.628   3.931
 8707SOL    HW227021   1.143   2.520   4.023
 8708SOL     OW27022   4.315   1.594   3.494
 8708SOL    HW127023   4.279   1.620   3.404
 8708SOL    HW227024   4.308   1.494   3.504
 8709SOL     OW27025   6.477   6.817   6.753
 8709SOL    HW127026   6.451   6.735   6.702
 8709SOL    HW227027   6.416   6.892   6.728
 8710SOL     OW27028   2.329   2.823   3.500
 8710SOL    HW127029   2.354   2.817   3.597
 8710SOL    HW227030   2.396   2.774   3.445
 8711SOL     OW27031   2.055   6.555   2.876
 8711SOL    HW127032   2.111   6.479   2.843
 8711SOL    HW227033   2.112   6.616   2.933
 8712SOL     OW27034   3.573   1.558   4.717
 8712SOL    HW127035   3.533   1.635   4.668
 8712SOL    HW227036   3.671   1.552   4.696
 8713SOL     OW27037   6.333   3.917   2.193
 8713SOL    HW127038   6.259   3.883   2.252
 8713SOL    HW227039   6.370   3.841   2.140
 8714SOL     OW27040   1.386   0.266   6.373
 8714SOL    HW127041   1.295   0.225   6.375
 8714SOL    HW227042   1.399   0.313   6.286
 8715SOL     OW27043   4.017   1.672   0.912
 8715SOL    HW127044   3.950   1.708   0.847
 8715SOL    HW227045   3.969   1.630   0.989
 8716SOL     OW27046   0.634   6.380   0.492
 8716SOL    HW127047   0.729   6.378   0.459
 8716SOL    HW227048   0.574   6.408   0.417
 8717SOL     OW27049   2.336   3.487   5.326
 8717SOL    HW127050   2.255   3.530   5.286
 8717SOL    HW227051   2.310   3.404   5.374
 8718SOL     OW27052   1.473   2.377   5.472
 8718SOL    HW127053   1.440   2.451   5.531
 8718SOL    HW227054   1.489   2.295   5.527
 8719SOL     OW27055   3.437   0.881   0.151
 8719SOL    HW127056   3.530   0.893   0.187
 8719SOL    HW227057   3.439   0.817   0.074
 8720SOL     OW27058   0.809   6.469   5.952
 8720SOL    HW127059   0.714   6.457   5.978
 8720SOL    HW227060   0.868   6.415   6.012
 8721SOL     OW27061   6.410   1.086   0.244
 8721SOL    HW127062   6.389   0.991   0.266
 8721SOL    HW227063   6.389   1.145   0.322
 8722SOL     OW27064   3.057   1.068   0.759
 8722SOL    HW127065   2.959   1.049   0.770
 8722SOL    HW227066   3.106   1.031   0.838
 8723SOL     OW27067   5.138   0.237   2.133
 8723SOL    HW127068   5.221   0.292   2.122
 8723SOL    HW227069   5.106   0.207   2.043
 8724SOL     OW27070   6.194   0.102   4.324
 8724SOL    HW127071   6.254   0.052   4.387
 8724SOL    HW227072   6.185   0.051   4.238
 8725SOL     OW27073   1.230   5.613   5.357
 8725SOL    HW127074   1.183   5.598   5.270
 8725SOL    HW227075   1.319   5.655   5.341
 8726SOL     OW27076   6.873   1.002   1.231
 8726SOL    HW127077   6.845   0.935   1.163
 8726SOL    HW227078   6.798   1.067   1.246
 8727SOL     OW27079   6.227   0.137   0.800
 8727SOL    HW127080   6.302   0.095   0.852
 8727SOL    HW227081   6.202   0.078   0.723
 8728SOL     OW27082   5.389   1.603   2.392
 8728SOL    HW127083   5.316   1.671   2.388
 8728SOL    HW227084   5.417   1.589   2.487
 8729SOL     OW27085   3.451   5.164   5.066
 8729SOL    HW127086   3.491   5.075   5.086
 8729SOL    HW227087   3.385   5.188   5.137
 8730SOL     OW27088   5.126   4.517   3.269
 8730SOL    HW127089   5.183   4.468   3.204
 8730SOL    HW227090   5.067   4.451   3.317
 8731SOL     OW27091   1.125   4.031   3.151
 8731SOL    HW127092   1.148   4.128   3.146
 8731SOL    HW227093   1.028   4.019   3.131
 8732SOL     OW27094   5.192   4.153   2.387
 8732SOL    HW127095   5.132   4.232   2.399
 8732SOL    HW227096   5.178   4.114   2.296
 8733SOL     OW27097   1.331   5.818   0.443
 8733SOL    HW127098   1.319   5.729   0.400
 8733SOL    HW227099   1.331   5.889   0.371
 8734SOL     OW27100   0.355   3.679   2.878
 8734SOL    HW127101   0.426   3.737   2.918
 8734SOL    HW227102   0.374   3.583   2.897
 8735SOL     OW27103   0.710   2.674   5.427
 8735SOL    HW127104   0.684   2.762   5.386
 8735SOL    HW227105   0.802   2.649   5.396
 8736SOL     OW27106   6.680   5.212   2.189
 8736SOL    HW127107   6.742   5.289   2.174
 8736SOL    HW227108   6.642   5.218   2.282
 8737SOL     OW27109   2.559   6.483   6.815
 8737SOL    HW127110   2.490   6.532   6.868
 8737SOL    HW227111   2.611   6.548   6.760
 8738SOL     OW27112   2.400   5.993   3.308
 8738SOL    HW127113   2.364   6.086   3.305
 8738SOL    HW227114   2.495   5.992   3.279
 8739SOL     OW27115   5.481   5.375   5.749
 8739SOL    HW127116   5.539   5.294   5.744
 8739SOL    HW227117   5.441   5.382   5.840
 8740SOL     OW27118   4.247   2.293   3.247
 8740SOL    HW127119   4.299   2.336   3.320
 8740SOL    HW227120   4.261   2.343   3.162
 8741SOL     OW27121   2.681   0.636   2.860
 8741SOL    HW127122   2.600   0.694   2.869
 8741SOL    HW227123   2.653   0.540   2.859
 8742SOL     OW27124   4.135   0.535   1.756
 8742SOL    HW127125   4.182   0.535   1.668
 8742SOL    HW227126   4.047   0.489   1.747
 8743SOL     OW27127   2.051   0.656   1.230
 8743SOL    HW127128   2.119   0.722   1.200
 8743SOL    HW227129   2.082   0.611   1.314
 8744SOL     OW27130   4.450   2.932   0.837
 8744SOL    HW127131   4.405   2.885   0.913
 8744SOL    HW227132   4.390   3.004   0.802
 8745SOL     OW27133   6.640   2.446   6.248
 8745SOL    HW127134   6.558   2.398   6.279
 8745SOL    HW227135   6.710   2.379   6.223
 8746SOL     OW27136   4.635   5.903   4.269
 8746SOL    HW127137   4.729   5.936   4.276
 8746SOL    HW227138   4.630   5.833   4.198
 8747SOL     OW27139   0.449   1.203   2.245
 8747SOL    HW127140   0.469   1.125   2.185
 8747SOL    HW227141   0.359   1.192   2.285
 8748SOL     OW27142   1.262   1.922   4.329
 8748SOL    HW127143   1.285   1.917   4.426
 8748SOL    HW227144   1.285   2.013   4.294
 8749SOL     OW27145   1.715   0.720   5.328
 8749SOL    HW127146   1.779   0.726   5.404
 8749SOL    HW227147   1.709   0.809   5.282
 8750SOL     OW27148   3.522   3.249   5.796
 8750SOL    HW127149   3.521   3.149   5.787
 8750SOL    HW227150   3.613   3.284   5.773
 8751SOL     OW27151   6.536   1.384   1.838
 8751SOL    HW127152   6.477   1.315   1.881
 8751SOL    HW227153   6.619   1.340   1.804
 8752SOL     OW27154   4.474   3.031   6.815
 8752SOL    HW127155   4.464   3.130   6.825
 8752SOL    HW227156   4.548   3.012   6.751
 8753SOL     OW27157   2.674   2.664   6.352
 8753SOL    HW127158   2.607   2.665   6.277
 8753SOL    HW227159   2.755   2.613   6.323
 8754SOL     OW27160   2.618   4.414   5.702
 8754SOL    HW127161   2.594   4.432   5.797
 8754SOL    HW227162   2.633   4.316   5.689
 8755SOL     OW27163   2.087   0.094   1.383
 8755SOL    HW127164   2.172   0.146   1.394
 8755SOL    HW227165   2.024   0.116   1.457
 8756SOL     OW27166   0.942   3.158   3.332
 8756SOL    HW127167   0.948   3.258   3.330
 8756SOL    HW227168   0.966   3.121   3.242
 8757SOL     OW27169   4.816   5.912   6.978
 8757SOL    HW127170   4.891   5.972   6.951
 8757SOL    HW227171   4.806   5.838   6.912
 8758SOL     OW27172   4.232   6.483   2.880
 8758SOL    HW127173   4.161   6.504   2.946
 8758SOL    HW227174   4.312   6.445   2.927
 8759SOL     OW27175   6.359   3.246   6.991
 8759SOL    HW127176   6.428   3.204   6.932
 8759SOL    HW227177   6.284   3.281   6.935
 8760SOL     OW27178   3.084   0.632   4.907
 8760SOL    HW127179   3.145   0.575   4.963
 8760SOL    HW227180   2.994   0.589   4.901
 8761SOL     OW27181   6.266   1.747   1.070
 8761SOL    HW127182   6.248   1.813   0.996
 8761SOL    HW227183   6.193   1.754   1.138
 8762SOL     OW27184   1.020   6.026   4.344
 8762SOL    HW127185   1.096   6.012   4.280
 8762SOL    HW227186   0.986   5.938   4.376
 8763SOL     OW27187   5.934   0.233   5.232
 8763SOL    HW127188   6.001   0.252   5.160
 8763SOL    HW227189   5.979   0.183   5.306
 8764SOL     OW27190   4.333   6.642   6.007
 8764SOL    HW127191   4.432   6.658   6.006
 8764SOL    HW227192   4.312   6.564   6.066
 8765SOL     OW27193   4.917   1.356   4.169
 8765SOL    HW127194   4.869   1.301   4.238
 8765SOL    HW227195   4.892   1.325   4.078
 8766SOL     OW27196   4.198   4.228   5.297
 8766SOL    HW127197   4.265   4.287   5.251
 8766SOL    HW227198   4.127   4.202   5.231
 8767SOL     OW27199   4.882   6.386   3.129
 8767SOL    HW127200   4.860   6.366   3.033
 8767SOL    HW227201   4.826   6.327   3.188
 8768SOL     OW27202   1.147   2.661   1.018
 8768SOL    HW127203   1.073   2.603   1.052
 8768SOL    HW227204   1.219   2.604   0.978
 8769SOL     OW27205   6.796   1.148   1.805
 8769SOL    HW127206   6.818   1.057   1.769
 8769SOL    HW227207   6.777   1.141   1.903
 8770SOL     OW27208   4.792   4.624   2.574
 8770SOL    HW127209   4.794   4.525   2.579
 8770SOL    HW227210   4.879   4.661   2.608
 8771SOL     OW27211   0.364   2.576   6.206
 8771SOL    HW127212   0.294   2.575   6.134
 8771SOL    HW227213   0.450   2.540   6.169
 8772SOL     OW27214   5.006   0.602   6.000
 8772SOL    HW127215   5.032   0.698   5.988
 8772SOL    HW227216   4.921   0.584   5.951
 8773SOL     OW27217   5.201   2.716   3.135
 8773SOL    HW127218   5.148   2.703   3.051
 8773SOL    HW227219   5.298   2.716   3.114
 8774SOL     OW27220   0.616   0.389   0.157
 8774SOL    HW127221   0.545   0.376   0.226
 8774SOL    HW227222   0.581   0.449   0.085
 8775SOL     OW27223   5.236   0.944   5.679
 8775SOL    HW127224   5.161   0.975   5.620
 8775SOL    HW227225   5.316   1.002   5.663
 8776SOL     OW27226   5.079   3.477   1.571
 8776SOL    HW127227   5.155   3.475   1.505
 8776SOL    HW227228   5.011   3.544   1.542
 8777SOL     OW27229   6.549   4.065   3.966
 8777SOL    HW127230   6.457   4.103   3.956
 8777SOL    HW227231   6.567   4.002   3.890
 8778SOL     OW27232   5.272   3.345   5.349
 8778SOL    HW127233   5.314   3.268   5.397
 8778SOL    HW227234   5.233   3.314   5.263
 8779SOL     OW27235   1.948   5.505   2.182
 8779SOL    HW127236   1.983   5.458   2.263
 8779SOL    HW227237   1.877   5.449   2.140
 8780SOL     OW27238   0.160   6.816   2.824
 8780SOL    HW127239   0.064   6.843   2.816
 8780SOL    HW227240   0.208   6.882   2.882
 8781SOL     OW27241   4.630   0.017   3.829
 8781SOL    HW127242   4.700   0.079   3.795
 8781SOL    HW227243   4.668   6.951   3.835
 8782SOL     OW27244   6.248   1.284   1.852
 8782SOL    HW127245   6.176   1.224   1.888
 8782SOL    HW227246   6.209   1.372   1.825
 8783SOL     OW27247   6.558   4.067   4.246
 8783SOL    HW127248   6.557   4.095   4.150
 8783SOL    HW227249   6.475   4.014   4.266
 8784SOL     OW27250   6.692   6.369   6.085
 8784SOL    HW127251   6.602   6.379   6.043
 8784SOL    HW227252   6.748   6.307   6.030
 8785SOL     OW27253   6.919   5.698   6.636
 8785SOL    HW127254   6.855   5.768   6.604
 8785SOL    HW227255   6.999   5.695   6.576
 8786SOL     OW27256   3.200   1.112   1.759
 8786SOL    HW127257   3.167   1.176   1.829
 8786SOL    HW227258   3.233   1.164   1.680
 8787SOL     OW27259   3.489   0.783   2.466
 8787SOL    HW127260   3.490   0.771   2.366
 8787SOL    HW227261   3.519   0.875   2.488
 8788SOL     OW27262   6.907   1.495   5.403
 8788SOL    HW127263   6.849   1.573   5.379
 8788SOL    HW227264   6.978   1.485   5.334
 8789SOL     OW27265   6.425   4.549   5.407
 8789SOL    HW127266   6.387   4.470   5.456
 8789SOL    HW227267   6.371   4.630   5.428
 8790SOL     OW27268   6.418   0.955   6.386
 8790SOL    HW127269   6.370   1.029   6.337
 8790SOL    HW227270   6.447   0.885   6.320
 8791SOL     OW27271   4.912   6.668   4.729
 8791SOL    HW127272   4.993   6.720   4.702
 8791SOL    HW227273   4.863   6.638   4.647
 8792SOL     OW27274   3.022   5.340   2.625
 8792SOL    HW127275   3.039   5.430   2.666
 8792SOL    HW227276   2.948   5.348   2.557
 8793SOL     OW27277   1.181   4.711   3.561
 8793SOL    HW127278   1.227   4.703   3.473
 8793SOL    HW227279   1.096   4.659   3.560
 8794SOL     OW27280   5.538   1.110   3.450
 8794SOL    HW127281   5.501   1.046   3.518
 8794SOL    HW227282   5.486   1.196   3.454
 8795SOL     OW27283   1.297   4.718   5.040
 8795SOL    HW127284   1.220   4.734   4.978
 8795SOL    HW227285   1.268   4.733   5.134
 8796SOL     OW27286   5.904   2.610   3.023
 8796SOL    HW127287   5.936   2.654   3.107
 8796SOL    HW227288   5.840   2.670   2.976
 8797SOL     OW27289   6.930   6.660   5.194
 8797SOL    HW127290   6.900   6.754   5.212
 8797SOL    HW227291   6.850   6.600   5.190
 8798SOL     OW27292   4.130   5.943   6.301
 8798SOL    HW127293   4.173   5.887   6.230
 8798SOL    HW227294   4.152   5.905   6.391
 8799SOL     OW27295   2.717   5.339   2.775
 8799SOL    HW127296   2.741   5.315   2.681
 8799SOL    HW227297   2.712   5.256   2.831
 8800SOL     OW27298   5.562   5.640   6.002
 8800SOL    HW127299   5.580   5.637   5.903
 8800SOL    HW227300   5.483   5.699   6.019
 8801SOL     OW27301   6.424   1.344   4.541
 8801SOL    HW127302   6.516   1.345   4.502
 8801SOL    HW227303   6.402   1.436   4.574
 8802SOL     OW27304   1.865   5.937   5.822
 8802SOL    HW127305   1.835   5.947   5.917
 8802SOL    HW227306   1.923   6.014   5.797
 8803SOL     OW27307   6.684   7.004   6.778
 8803SOL    HW127308   6.629   6.920   6.781
 8803SOL    HW227309   6.711   7.022   6.683
 8804SOL     OW27310   2.163   5.866   1.315
 8804SOL    HW127311   2.228   5.932   1.278
 8804SOL    HW227312   2.174   5.778   1.269
 8805SOL     OW27313   3.705   5.337   3.376
 8805SOL    HW127314   3.736   5.243   3.394
 8805SOL    HW227315   3.606   5.342   3.391
 8806SOL     OW27316   2.035   4.771   0.985
 8806SOL    HW127317   1.968   4.708   0.947
 8806SOL    HW227318   2.092   4.723   1.051
 8807SOL     OW27319   4.363   1.443   0.314
 8807SOL    HW127320   4.388   1.421   0.220
 8807SOL    HW227321   4.385   1.538   0.333
 8808SOL     OW27322   6.903   2.349   5.991
 8808SOL    HW127323   6.920   2.275   5.926
 8808SOL    HW227324   6.859   2.312   6.073
 8809SOL     OW27325   2.338   4.604   3.693
 8809SOL    HW127326   2.316   4.651   3.779
 8809SOL    HW227327   2.312   4.507   3.701
 8810SOL     OW27328   5.705   1.213   5.115
 8810SOL    HW127329   5.629   1.274   5.091
 8810SOL    HW227330   5.761   1.256   5.185
 8811SOL     OW27331   2.895   0.593   2.671
 8811SOL    HW127332   2.857   0.549   2.589
 8811SOL    HW227333   2.830   0.583   2.747
 8812SOL     OW27334   3.020   0.228   0.349
 8812SOL    HW127335   3.106   0.235   0.400
 8812SOL    HW227336   2.996   0.131   0.338
 8813SOL     OW27337   1.984   5.140   2.895
 8813SOL    HW127338   1.958   5.236   2.884
 8813SOL    HW227339   2.058   5.133   2.962
 8814SOL     OW27340   6.141   6.975   0.619
 8814SOL    HW127341   6.186   6.913   0.683
 8814SOL    HW227342   6.048   6.945   0.601
 8815SOL     OW27343   5.708   6.837   0.870
 8815SOL    HW127344   5.786   6.896   0.849
 8815SOL    HW227345   5.671   6.862   0.960
 8816SOL     OW27346   0.736   0.131   6.344
 8816SOL    HW127347   0.805   0.062   6.321
 8816SOL    HW227348   0.662   0.127   6.278
 8817SOL     OW27349   0.127   3.892   4.108
 8817SOL    HW127350   0.096   3.828   4.179
 8817SOL    HW227351   0.227   3.892   4.106
 8818SOL     OW27352   0.990   6.092   3.651
 8818SOL    HW127353   0.998   6.187   3.682
 8818SOL    HW227354   1.024   6.084   3.557
 8819SOL     OW27355   6.298   4.450   6.202
 8819SOL    HW127356   6.239   4.426   6.279
 8819SOL    HW227357   6.271   4.540   6.166
 8820SOL     OW27358   2.771   1.517   4.655
 8820SOL    HW127359   2.846   1.470   4.608
 8820SOL    HW227360   2.759   1.479   4.746
 8821SOL     OW27361   1.022   5.410   0.522
 8821SOL    HW127362   0.952   5.472   0.486
 8821SOL    HW227363   1.046   5.343   0.452
 8822SOL     OW27364   0.755   0.504   3.592
 8822SOL    HW127365   0.803   0.419   3.614
 8822SOL    HW227366   0.700   0.490   3.509
 8823SOL     OW27367   2.489   1.522   2.807
 8823SOL    HW127368   2.581   1.559   2.795
 8823SOL    HW227369   2.422   1.596   2.805
 8824SOL     OW27370   1.508   1.070   0.646
 8824SOL    HW127371   1.465   0.983   0.622
 8824SOL    HW227372   1.545   1.112   0.563
 8825SOL     OW27373   0.823   1.132   1.483
 8825SOL    HW127374   0.730   1.103   1.506
 8825SOL    HW227375   0.824   1.172   1.391
 8826SOL     OW27376   1.218   3.242   0.841
 8826SOL    HW127377   1.141   3.235   0.905
 8826SOL    HW227378   1.298   3.277   0.890
 8827SOL     OW27379   3.734   0.050   3.201
 8827SOL    HW127380   3.670   0.111   3.248
 8827SOL    HW227381   3.758   0.089   3.112
 8828SOL     OW27382   4.131   4.870   6.802
 8828SOL    HW127383   4.058   4.875   6.870
 8828SOL    HW227384   4.150   4.961   6.767
 8829SOL     OW27385   5.656   1.609   1.554
 8829SOL    HW127386   5.583   1.548   1.584
 8829SOL    HW227387   5.632   1.703   1.578
 8830SOL     OW27388   2.343   1.760   2.455
 8830SOL    HW127389   2.380   1.752   2.548
 8830SOL    HW227390   2.379   1.685   2.399
 8831SOL     OW27391   6.153   2.715   2.788
 8831SOL    HW127392   6.181   2.619   2.782
 8831SOL    HW227393   6.121   2.735   2.881
 8832SOL     OW27394   6.945   6.184   4.674
 8832SOL    HW127395   0.002   6.235   4.655
 8832SOL    HW227396   6.959   6.088   4.652
 8833SOL     OW27397   3.634   3.960   6.486
 8833SOL    HW127398   3.645   4.049   6.529
 8833SOL    HW227399   3.569   3.905   6.538
 8834SOL     OW27400   5.719   4.391   4.728
 8834SOL    HW127401   5.660   4.351   4.658
 8834SOL    HW227402   5.699   4.349   4.817
 8835SOL     OW27403   5.775   0.845   6.203
 8835SOL    HW127404   5.692   0.802   6.239
 8835SOL    HW227405   5.838   0.863   6.279
 8836SOL     OW27406   4.798   2.344   1.040
 8836SOL    HW127407   4.740   2.425   1.036
 8836SOL    HW227408   4.744   2.267   1.074
 8837SOL     OW27409   0.108   0.441   1.960
 8837SOL    HW127410   0.177   0.373   1.986
 8837SOL    HW227411   0.120   0.466   1.864
 8838SOL     OW27412   1.614   4.572   2.630
 8838SOL    HW127413   1.584   4.480   2.603
 8838SOL    HW227414   1.650   4.569   2.723
 8839SOL     OW27415   3.665   6.262   1.948
 8839SOL    HW127416   3.605   6.233   1.874
 8839SOL    HW227417   3.655   6.199   2.026
 8840SOL     OW27418   6.812   0.394   2.755
 8840SOL    HW127419   6.821   0.358   2.662
 8840SOL    HW227420   6.741   0.343   2.804
 8841SOL     OW27421   6.129   1.683   3.140
 8841SOL    HW127422   6.156   1.674   3.236
 8841SOL    HW227423   6.209   1.670   3.082
 8842SOL     OW27424   3.269   3.743   3.306
 8842SOL    HW127425   3.199   3.813   3.290
 8842SOL    HW227426   3.358   3.777   3.274
 8843SOL     OW27427   1.278   3.766   4.624
 8843SOL    HW127428   1.250   3.811   4.539
 8843SOL    HW227429   1.344   3.694   4.602
 8844SOL     OW27430   6.855   1.478   4.841
 8844SOL    HW127431   6.845   1.398   4.900
 8844SOL    HW227432   6.927   1.461   4.774
 8845SOL     OW27433   2.319   4.184   0.709
 8845SOL    HW127434   2.232   4.233   0.716
 8845SOL    HW227435   2.301   4.087   0.691
 8846SOL     OW27436   4.569   4.923   3.759
 8846SOL    HW127437   4.627   4.871   3.696
 8846SOL    HW227438   4.621   4.949   3.840
 8847SOL     OW27439   2.126   1.723   3.737
 8847SOL    HW127440   2.149   1.648   3.674
 8847SOL    HW227441   2.151   1.696   3.830
 8848SOL     OW27442   3.056   1.695   2.488
 8848SOL    HW127443   3.013   1.723   2.574
 8848SOL    HW227444   3.082   1.777   2.436
 8849SOL     OW27445   3.639   4.954   3.243
 8849SOL    HW127446   3.593   4.907   3.168
 8849SOL    HW227447   3.713   5.011   3.206
 8850SOL     OW27448   2.988   1.622   0.809
 8850SOL    HW127449   2.980   1.561   0.731
 8850SOL    HW227450   2.970   1.716   0.780
 8851SOL     OW27451   1.014   4.882   2.164
 8851SOL    HW127452   1.037   4.848   2.256
 8851SOL    HW227453   1.060   4.969   2.149
 8852SOL     OW27454   4.460   3.403   5.888
 8852SOL    HW127455   4.486   3.307   5.885
 8852SOL    HW227456   4.523   3.452   5.949
 8853SOL     OW27457   3.080   0.248   5.375
 8853SOL    HW127458   3.049   0.161   5.337
 8853SOL    HW227459   3.180   0.249   5.380
 8854SOL     OW27460   2.332   0.575   6.296
 8854SOL    HW127461   2.334   0.500   6.362
 8854SOL    HW227462   2.259   0.558   6.229
 8855SOL     OW27463   6.965   6.407   0.421
 8855SOL    HW127464   0.027   6.445   0.394
 8855SOL    HW227465   6.956   6.413   0.521
 8856SOL     OW27466   5.537   0.331   6.022
 8856SOL    HW127467   5.560   0.428   6.014
 8856SOL    HW227468   5.449   0.322   6.070
 8857SOL     OW27469   6.527   1.833   4.047
 8857SOL    HW127470   6.432   1.807   4.032
 8857SOL    HW227471   6.577   1.825   3.961
 8858SOL     OW27472   1.297   2.840   5.891
 8858SOL    HW127473   1.281   2.905   5.965
 8858SOL    HW227474   1.372   2.779   5.916
 8859SOL     OW27475   0.374   0.090   4.677
 8859SOL    HW127476   0.391   0.041   4.592
 8859SOL    HW227477   0.296   0.151   4.666
 8860SOL     OW27478   1.759   3.962   2.758
 8860SOL    HW127479   1.770   3.870   2.795
 8860SOL    HW227480   1.848   4.007   2.753
 8861SOL     OW27481   3.653   2.205   6.295
 8861SOL    HW127482   3.568   2.167   6.333
 8861SOL    HW227483   3.642   2.221   6.197
 8862SOL     OW27484   6.414   1.287   3.667
 8862SOL    HW127485   6.420   1.380   3.703
 8862SOL    HW227486   6.342   1.237   3.716
 8863SOL     OW27487   1.849   6.000   4.541
 8863SOL    HW127488   1.942   5.998   4.504
 8863SOL    HW227489   1.787   5.951   4.480
 8864SOL     OW27490   2.254   3.152   6.297
 8864SOL    HW127491   2.308   3.072   6.273
 8864SOL    HW227492   2.190   3.129   6.370
 8865SOL     OW27493   3.260   1.883   5.727
 8865SOL    HW127494   3.357   1.878   5.753
 8865SOL    HW227495   3.249   1.849   5.633
 8866SOL     OW27496   5.619   6.760   4.098
 8866SOL    HW127497   5.531   6.781   4.056
 8866SOL    HW227498   5.644   6.665   4.077
 8867SOL     OW27499   5.158   3.496   3.302
 8867SOL    HW127500   5.060   3.515   3.296
 8867SOL    HW227501   5.173   3.399   3.322
 8868SOL     OW27502   6.243   3.338   0.588
 8868SOL    HW127503   6.190   3.391   0.655
 8868SOL    HW227504   6.233   3.380   0.498
 8869SOL     OW27505   4.546   5.724   3.707
 8869SOL    HW127506   4.492   5.730   3.623
 8869SOL    HW227507   4.546   5.629   3.739
 8870SOL     OW27508   3.941   0.030   0.327
 8870SOL    HW127509   3.900   6.997   0.397
 8870SOL    HW227510   3.919   0.125   0.347
 8871SOL     OW27511   2.418   0.964   4.142
 8871SOL    HW127512   2.513   0.939   4.156
 8871SOL    HW227513   2.408   1.063   4.149
 8872SOL     OW27514   1.547   4.365   4.913
 8872SOL    HW127515   1.638   4.404   4.898
 8872SOL    HW227516   1.545   4.271   4.877
 8873SOL     OW27517   0.033   5.200   2.131
 8873SOL    HW127518   7.004   5.117   2.130
 8873SOL    HW227519   7.019   5.267   2.068
 8874SOL     OW27520   2.441   6.305   1.275
 8874SOL    HW127521   2.498   6.277   1.353
 8874SOL    HW227522   2.441   6.404   1.268
 8875SOL     OW27523   6.880   3.074   5.109
 8875SOL    HW127524   6.976   3.100   5.117
 8875SOL    HW227525   6.871   2.995   5.048
 8876SOL     OW27526   1.855   0.267   4.327
 8876SOL    HW127527   1.903   0.323   4.259
 8876SOL    HW227528   1.864   0.171   4.303
 8877SOL     OW27529   2.412   1.548   4.240
 8877SOL    HW127530   2.444   1.597   4.159
 8877SOL    HW227531   2.490   1.527   4.299
 8878SOL     OW27532   0.165   5.683   0.960
 8878SOL    HW127533   0.127   5.625   0.887
 8878SOL    HW227534   0.244   5.732   0.926
 8879SOL     OW27535   5.382   5.380   1.044
 8879SOL    HW127536   5.368   5.337   1.133
 8879SOL    HW227537   5.472   5.424   1.042
 8880SOL     OW27538   6.528   5.858   4.289
 8880SOL    HW127539   6.551   5.806   4.372
 8880SOL    HW227540   6.470   5.936   4.314
 8881SOL     OW27541   6.053   6.894   4.610
 8881SOL    HW127542   6.006   6.898   4.698
 8881SOL    HW227543   6.133   6.954   4.612
 8882SOL     OW27544   5.449   1.279   0.490
 8882SOL    HW127545   5.420   1.295   0.584
 8882SOL    HW227546   5.375   1.306   0.428
 8883SOL     OW27547   1.442   0.515   5.113
 8883SOL    HW127548   1.447   0.420   5.083
 8883SOL    HW227549   1.466   0.576   5.037
 8884SOL     OW27550   6.026   5.124   6.440
 8884SOL    HW127551   5.939   5.137   6.488
 8884SOL    HW227552   6.079   5.209   6.442
 8885SOL     OW27553   0.162   3.383   1.034
 8885SOL    HW127554   0.097   3.433   1.091
 8885SOL    HW227555   0.255   3.409   1.059
 8886SOL     OW27556   3.364   6.661   5.524
 8886SOL    HW127557   3.333   6.647   5.430
 8886SOL    HW227558   3.460   6.636   5.531
 8887SOL     OW27559   3.128   0.812   1.492
 8887SOL    HW127560   3.071   0.879   1.445
 8887SOL    HW227561   3.202   0.859   1.540
 8888SOL     OW27562   1.759   1.791   1.158
 8888SOL    HW127563   1.767   1.725   1.232
 8888SOL    HW227564   1.818   1.870   1.176
 8889SOL     OW27565   5.410   6.909   5.366
 8889SOL    HW127566   5.471   6.832   5.385
 8889SOL    HW227567   5.457   6.977   5.310
 8890SOL     OW27568   5.727   5.530   4.383
 8890SOL    HW127569   5.808   5.549   4.328
 8890SOL    HW227570   5.723   5.593   4.460
 8891SOL     OW27571   5.112   3.374   5.648
 8891SOL    HW127572   5.187   3.432   5.680
 8891SOL    HW227573   5.083   3.404   5.557
 8892SOL     OW27574   3.474   5.934   2.709
 8892SOL    HW127575   3.379   5.967   2.712
 8892SOL    HW227576   3.514   5.938   2.800
 8893SOL     OW27577   1.044   0.387   2.757
 8893SOL    HW127578   1.058   0.306   2.814
 8893SOL    HW227579   1.080   0.370   2.666
 8894SOL     OW27580   4.192   2.509   5.615
 8894SOL    HW127581   4.135   2.582   5.578
 8894SOL    HW227582   4.288   2.536   5.613
 8895SOL     OW27583   6.202   1.918   1.444
 8895SOL    HW127584   6.192   1.846   1.375
 8895SOL    HW227585   6.294   1.957   1.438
 8896SOL     OW27586   1.863   3.431   5.537
 8896SOL    HW127587   1.794   3.382   5.591
 8896SOL    HW227588   1.914   3.366   5.481
 8897SOL     OW27589   2.139   2.486   3.253
 8897SOL    HW127590   2.166   2.568   3.303
 8897SOL    HW227591   2.217   2.450   3.202
 8898SOL     OW27592   5.916   3.712   4.710
 8898SOL    HW127593   5.820   3.730   4.686
 8898SOL    HW227594   5.975   3.752   4.640
 8899SOL     OW27595   1.840   4.915   0.081
 8899SOL    HW127596   1.903   4.920   0.159
 8899SOL    HW227597   1.830   5.006   0.041
 8900SOL     OW27598   5.508   2.661   2.783
 8900SOL    HW127599   5.448   2.596   2.830
 8900SOL    HW227600   5.597   2.619   2.768
 8901SOL     OW27601   2.440   1.219   4.193
 8901SOL    HW127602   2.492   1.200   4.276
 8901SOL    HW227603   2.393   1.307   4.202
 8902SOL     OW27604   3.407   6.582   6.881
 8902SOL    HW127605   3.379   6.499   6.833
 8902SOL    HW227606   3.507   6.581   6.893
 8903SOL     OW27607   0.914   1.192   4.626
 8903SOL    HW127608   0.864   1.195   4.540
 8903SOL    HW227609   0.884   1.113   4.680
 8904SOL     OW27610   6.098   5.653   3.810
 8904SOL    HW127611   6.160   5.703   3.869
 8904SOL    HW227612   6.058   5.716   3.743
 8905SOL     OW27613   1.957   3.787   4.651
 8905SOL    HW127614   2.036   3.838   4.684
 8905SOL    HW227615   1.873   3.835   4.678
 8906SOL     OW27616   0.117   6.686   6.815
 8906SOL    HW127617   0.212   6.659   6.806
 8906SOL    HW227618   0.073   6.634   6.888
 8907SOL     OW27619   3.412   1.956   4.867
 8907SOL    HW127620   3.465   2.024   4.918
 8907SOL    HW227621   3.357   2.002   4.797
 8908SOL     OW27622   1.569   2.939   6.302
 8908SOL    HW127623   1.472   2.959   6.290
 8908SOL    HW227624   1.605   2.899   6.217
 8909SOL     OW27625   1.722   1.184   5.267
 8909SOL    HW127626   1.708   1.261   5.329
 8909SOL    HW227627   1.801   1.200   5.209
 8910SOL     OW27628   1.341   3.156   5.833
 8910SOL    HW127629   1.411   3.087   5.849
 8910SOL    HW227630   1.275   3.154   5.908
 8911SOL     OW27631   4.369   2.330   4.809
 8911SOL    HW127632   4.307   2.368   4.878
 8911SOL    HW227633   4.463   2.337   4.842
 8912SOL     OW27634   4.660   1.708   0.784
 8912SOL    HW127635   4.751   1.671   0.796
 8912SOL    HW227636   4.621   1.733   0.873
 8913SOL     OW27637   4.608   4.996   0.128
 8913SOL    HW127638   4.605   5.094   0.106
 8913SOL    HW227639   4.584   4.944   0.046
 8914SOL     OW27640   4.118   0.658   4.985
 8914SOL    HW127641   4.192   0.684   5.048
 8914SOL    HW227642   4.088   0.738   4.934
 8915SOL     OW27643   0.834   2.227   3.811
 8915SOL    HW127644   0.746   2.229   3.858
 8915SOL    HW227645   0.824   2.267   3.719
 8916SOL     OW27646   0.218   3.525   1.359
 8916SOL    HW127647   0.270   3.440   1.362
 8916SOL    HW227648   0.128   3.508   1.318
 8917SOL     OW27649   5.897   4.102   5.921
 8917SOL    HW127650   5.991   4.070   5.934
 8917SOL    HW227651   5.846   4.091   6.007
 8918SOL     OW27652   0.243   4.171   1.600
 8918SOL    HW127653   0.162   4.217   1.565
 8918SOL    HW227654   0.217   4.089   1.651
 8919SOL     OW27655   4.297   3.990   0.999
 8919SOL    HW127656   4.267   4.020   0.909
 8919SOL    HW227657   4.259   3.900   1.019
 8920SOL     OW27658   0.798   6.442   6.438
 8920SOL    HW127659   0.871   6.376   6.421
 8920SOL    HW227660   0.834   6.534   6.423
 8921SOL     OW27661   2.512   1.948   2.902
 8921SOL    HW127662   2.479   1.888   2.975
 8921SOL    HW227663   2.608   1.972   2.920
 8922SOL     OW27664   3.258   5.390   1.663
 8922SOL    HW127665   3.160   5.372   1.673
 8922SOL    HW227666   3.277   5.415   1.568
 8923SOL     OW27667   1.456   3.699   5.966
 8923SOL    HW127668   1.459   3.638   6.045
 8923SOL    HW227669   1.406   3.782   5.991
 8924SOL     OW27670   3.628   6.035   5.412
 8924SOL    HW127671   3.639   5.986   5.499
 8924SOL    HW227672   3.606   5.969   5.340
 8925SOL     OW27673   0.719   0.680   2.699
 8925SOL    HW127674   0.650   0.635   2.642
 8925SOL    HW227675   0.674   0.739   2.766
 8926SOL     OW27676   5.890   3.405   6.715
 8926SOL    HW127677   5.963   3.461   6.753
 8926SOL    HW227678   5.868   3.436   6.623
 8927SOL     OW27679   1.049   1.876   4.536
 8927SOL    HW127680   1.103   1.947   4.491
 8927SOL    HW227681   0.953   1.905   4.540
 8928SOL     OW27682   6.673   0.923   5.211
 8928SOL    HW127683   6.644   0.870   5.131
 8928SOL    HW227684   6.594   0.969   5.251
 8929SOL     OW27685   6.970   3.259   4.015
 8929SOL    HW127686   6.932   3.346   3.984
 8929SOL    HW227687   6.982   3.197   3.937
 8930SOL     OW27688   2.032   4.420   4.254
 8930SOL    HW127689   2.068   4.346   4.310
 8930SOL    HW227690   2.104   4.488   4.236
 8931SOL     OW27691   3.475   3.096   1.300
 8931SOL    HW127692   3.460   3.189   1.332
 8931SOL    HW227693   3.394   3.040   1.316
 8932SOL     OW27694   5.514   0.605   7.024
 8932SOL    HW127695   5.453   0.606   0.077
 8932SOL    HW227696   5.464   0.638   6.943
 8933SOL     OW27697   0.842   2.270   5.732
 8933SOL    HW127698   0.754   2.245   5.693
 8933SOL    HW227699   0.878   2.195   5.787
 8934SOL     OW27700   3.055   5.555   3.563
 8934SOL    HW127701   2.959   5.575   3.541
 8934SOL    HW227702   3.088   5.482   3.503
 8935SOL     OW27703   5.399   4.078   1.758
 8935SOL    HW127704   5.486   4.034   1.735
 8935SOL    HW227705   5.396   4.170   1.718
 8936SOL     OW27706   1.124   3.249   1.182
 8936SOL    HW127707   1.173   3.336   1.180
 8936SOL    HW227708   1.189   3.173   1.179
 8937SOL     OW27709   0.648   0.465   4.384
 8937SOL    HW127710   0.637   0.498   4.478
 8937SOL    HW227711   0.664   0.543   4.323
 8938SOL     OW27712   6.918   0.739   0.033
 8938SOL    HW127713   7.004   0.767   0.076
 8938SOL    HW227714   6.924   0.753   6.960
 8939SOL     OW27715   6.212   3.408   4.593
 8939SOL    HW127716   6.144   3.343   4.625
 8939SOL    HW227717   6.207   3.415   4.493
 8940SOL     OW27718   5.982   1.978   1.163
 8940SOL    HW127719   5.917   1.904   1.182
 8940SOL    HW227720   5.973   2.048   1.234
 8941SOL     OW27721   6.151   2.788   2.232
 8941SOL    HW127722   6.120   2.788   2.137
 8941SOL    HW227723   6.249   2.769   2.235
 8942SOL     OW27724   0.947   5.704   4.356
 8942SOL    HW127725   0.934   5.616   4.401
 8942SOL    HW227726   0.879   5.715   4.283
 8943SOL     OW27727   3.794   5.491   0.367
 8943SOL    HW127728   3.806   5.590   0.376
 8943SOL    HW227729   3.771   5.468   0.272
 8944SOL     OW27730   4.831   5.501   4.356
 8944SOL    HW127731   4.792   5.482   4.265
 8944SOL    HW227732   4.887   5.584   4.350
 8945SOL     OW27733   6.820   2.055   4.498
 8945SOL    HW127734   6.765   2.024   4.576
 8945SOL    HW227735   6.861   2.143   4.519
 8946SOL     OW27736   3.968   0.963   4.018
 8946SOL    HW127737   3.955   0.871   4.054
 8946SOL    HW227738   3.978   0.960   3.919
 8947SOL     OW27739   2.222   3.335   5.843
 8947SOL    HW127740   2.238   3.288   5.756
 8947SOL    HW227741   2.141   3.297   5.888
 8948SOL     OW27742   6.171   5.947   2.884
 8948SOL    HW127743   6.126   5.857   2.888
 8948SOL    HW227744   6.250   5.942   2.824
 8949SOL     OW27745   4.051   5.891   0.858
 8949SOL    HW127746   4.108   5.938   0.792
 8949SOL    HW227747   4.106   5.827   0.912
 8950SOL     OW27748   4.506   2.835   1.202
 8950SOL    HW127749   4.479   2.921   1.247
 8950SOL    HW227750   4.424   2.787   1.170
 8951SOL     OW27751   2.023   1.353   4.709
 8951SOL    HW127752   2.019   1.452   4.703
 8951SOL    HW227753   1.932   1.317   4.730
 8952SOL     OW27754   0.559   5.158   3.380
 8952SOL    HW127755   0.594   5.142   3.287
 8952SOL    HW227756   0.621   5.219   3.428
 8953SOL     OW27757   1.499   4.281   1.303
 8953SOL    HW127758   1.416   4.227   1.313
 8953SOL    HW227759   1.541   4.262   1.215
 8954SOL     OW27760   0.261   6.801   3.988
 8954SOL    HW127761   0.294   6.794   4.082
 8954SOL    HW227762   0.339   6.803   3.925
 8955SOL     OW27763   0.114   3.783   2.892
 8955SOL    HW127764   0.198   3.729   2.893
 8955SOL    HW227765   0.137   3.881   2.896
 8956SOL     OW27766   1.371   0.627   5.622
 8956SOL    HW127767   1.329   0.576   5.697
 8956SOL    HW227768   1.429   0.566   5.568
 8957SOL     OW27769   2.330   4.381   1.158
 8957SOL    HW127770   2.382   4.381   1.243
 8957SOL    HW227771   2.371   4.446   1.094
 8958SOL     OW27772   0.602   2.473   5.581
 8958SOL    HW127773   0.669   2.409   5.543
 8958SOL    HW227774   0.627   2.566   5.553
 8959SOL     OW27775   1.821   3.523   2.561
 8959SOL    HW127776   1.762   3.443   2.571
 8959SOL    HW227777   1.773   3.594   2.510
 8960SOL     OW27778   5.925   5.502   3.980
 8960SOL    HW127779   5.976   5.543   3.905
 8960SOL    HW227780   5.849   5.448   3.944
 8961SOL     OW27781   4.212   1.755   3.702
 8961SOL    HW127782   4.230   1.738   3.799
 8961SOL    HW227783   4.237   1.674   3.649
 8962SOL     OW27784   6.780   5.662   1.523
 8962SOL    HW127785   6.825   5.720   1.455
 8962SOL    HW227786   6.831   5.576   1.531
 8963SOL     OW27787   3.282   6.573   5.281
 8963SOL    HW127788   3.338   6.510   5.228
 8963SOL    HW227789   3.220   6.622   5.219
 8964SOL     OW27790   5.472   3.422   3.119
 8964SOL    HW127791   5.471   3.505   3.174
 8964SOL    HW227792   5.497   3.445   3.025
 8965SOL     OW27793   3.615   4.606   0.731
 8965SOL    HW127794   3.624   4.704   0.743
 8965SOL    HW227795   3.566   4.567   0.810
 8966SOL     OW27796   6.945   4.646   0.223
 8966SOL    HW127797   6.864   4.643   0.164
 8966SOL    HW227798   6.955   4.558   0.269
 8967SOL     OW27799   4.201   1.838   3.001
 8967SOL    HW127800   4.125   1.859   2.939
 8967SOL    HW227801   4.164   1.814   3.091
 8968SOL     OW27802   2.832   5.374   2.255
 8968SOL    HW127803   2.926   5.352   2.227
 8968SOL    HW227804   2.782   5.412   2.177
 8969SOL     OW27805   0.275   0.300   3.715
 8969SOL    HW127806   0.324   0.311   3.801
 8969SOL    HW227807   0.231   0.386   3.690
 8970SOL     OW27808   1.188   2.356   0.095
 8970SOL    HW127809   1.180   2.401   0.184
 8970SOL    HW227810   1.201   2.257   0.109
 8971SOL     OW27811   5.446   6.684   1.790
 8971SOL    HW127812   5.382   6.674   1.866
 8971SOL    HW227813   5.462   6.782   1.772
 8972SOL     OW27814   5.177   3.825   0.490
 8972SOL    HW127815   5.250   3.886   0.520
 8972SOL    HW227816   5.206   3.730   0.499
 8973SOL     OW27817   0.431   3.272   2.099
 8973SOL    HW127818   0.509   3.210   2.088
 8973SOL    HW227819   0.449   3.336   2.174
 8974SOL     OW27820   1.701   3.523   4.366
 8974SOL    HW127821   1.769   3.498   4.435
 8974SOL    HW227822   1.668   3.441   4.320
 8975SOL     OW27823   1.166   6.107   6.499
 8975SOL    HW127824   1.259   6.082   6.525
 8975SOL    HW227825   1.103   6.032   6.520
 8976SOL     OW27826   6.987   6.125   0.618
 8976SOL    HW127827   0.002   6.086   0.700
 8976SOL    HW227828   6.945   6.213   0.641
 8977SOL     OW27829   6.747   4.289   0.032
 8977SOL    HW127830   6.681   4.259   0.101
 8977SOL    HW227831   6.828   4.231   0.036
 8978SOL     OW27832   5.133   6.836   4.681
 8978SOL    HW127833   5.213   6.784   4.713
 8978SOL    HW227834   5.162   6.928   4.655
 8979SOL     OW27835   1.448   5.495   5.843
 8979SOL    HW127836   1.478   5.405   5.809
 8979SOL    HW227837   1.348   5.495   5.852
 8980SOL     OW27838   5.405   2.348   5.496
 8980SOL    HW127839   5.413   2.281   5.570
 8980SOL    HW227840   5.404   2.440   5.535
 8981SOL     OW27841   5.011   1.658   5.412
 8981SOL    HW127842   5.085   1.684   5.474
 8981SOL    HW227843   5.022   1.562   5.385
 8982SOL     OW27844   0.178   1.989   1.440
 8982SOL    HW127845   0.269   1.951   1.423
 8982SOL    HW227846   0.187   2.083   1.473
 8983SOL     OW27847   0.719   5.334   1.308
 8983SOL    HW127848   0.772   5.253   1.286
 8983SOL    HW227849   0.633   5.332   1.258
 8984SOL     OW27850   6.266   0.054   4.627
 8984SOL    HW127851   6.296   0.042   4.722
 8984SOL    HW227852   6.249   0.151   4.610
 8985SOL     OW27853   3.045   2.178   1.187
 8985SOL    HW127854   2.987   2.098   1.180
 8985SOL    HW227855   2.989   2.259   1.207
 8986SOL     OW27856   4.827   4.899   2.745
 8986SOL    HW127857   4.805   4.964   2.672
 8986SOL    HW227858   4.754   4.831   2.752
 8987SOL     OW27859   2.932   0.601   1.252
 8987SOL    HW127860   2.951   0.502   1.250
 8987SOL    HW227861   2.834   0.616   1.256
 8988SOL     OW27862   1.908   5.400   6.952
 8988SOL    HW127863   1.982   5.447   6.905
 8988SOL    HW227864   1.877   5.454   0.003
 8989SOL     OW27865   4.903   3.253   2.752
 8989SOL    HW127866   4.991   3.261   2.705
 8989SOL    HW227867   4.870   3.159   2.744
 8990SOL     OW27868   2.050   5.608   1.542
 8990SOL    HW127869   1.993   5.690   1.538
 8990SOL    HW227870   2.135   5.628   1.589
 8991SOL     OW27871   2.628   1.548   1.633
 8991SOL    HW127872   2.597   1.590   1.548
 8991SOL    HW227873   2.679   1.615   1.687
 8992SOL     OW27874   6.989   2.625   0.481
 8992SOL    HW127875   7.008   2.723   0.470
 8992SOL    HW227876   6.917   2.612   0.549
 8993SOL     OW27877   4.911   2.490   3.192
 8993SOL    HW127878   4.937   2.571   3.243
 8993SOL    HW227879   4.888   2.515   3.098
 8994SOL     OW27880   1.685   5.803   3.744
 8994SOL    HW127881   1.756   5.825   3.677
 8994SOL    HW227882   1.662   5.706   3.738
 8995SOL     OW27883   1.216   2.461   5.768
 8995SOL    HW127884   1.155   2.465   5.847
 8995SOL    HW227885   1.301   2.415   5.795
 8996SOL     OW27886   0.564   4.352   2.176
 8996SOL    HW127887   0.613   4.289   2.115
 8996SOL    HW227888   0.466   4.334   2.169
 8997SOL     OW27889   4.720   0.913   6.469
 8997SOL    HW127890   4.627   0.938   6.443
 8997SOL    HW227891   4.781   0.925   6.390
 8998SOL     OW27892   0.446   1.900   4.748
 8998SOL    HW127893   0.474   1.811   4.785
 8998SOL    HW227894   0.451   1.897   4.648
 8999SOL     OW27895   4.362   0.778   6.949
 8999SOL    HW127896   4.307   0.854   6.914
 8999SOL    HW227897   4.308   0.694   6.950
 9000SOL     OW27898   2.810   4.052   6.082
 9000SOL    HW127899   2.752   4.133   6.078
 9000SOL    HW227900   2.893   4.067   6.028
 9001SOL     OW27901   1.478   5.350   2.970
 9001SOL    HW127902   1.537   5.329   3.049
 9001SOL    HW227903   1.474   5.270   2.910
 9002SOL     OW27904   0.954   5.564   5.634
 9002SOL    HW127905   1.042   5.520   5.612
 9002SOL    HW227906   0.950   5.654   5.590
 9003SOL     OW27907   5.925   2.956   1.319
 9003SOL    HW127908   5.941   3.044   1.275
 9003SOL    HW227909   5.888   2.972   1.411
 9004SOL     OW27910   4.584   6.390   1.615
 9004SOL    HW127911   4.567   6.468   1.555
 9004SOL    HW227912   4.497   6.345   1.636
 9005SOL     OW27913   6.264   1.752   3.969
 9005SOL    HW127914   6.217   1.833   3.935
 9005SOL    HW227915   6.231   1.671   3.920
 9006SOL     OW27916   1.350   6.000   0.916
 9006SOL    HW127917   1.351   6.083   0.859
 9006SOL    HW227918   1.375   5.921   0.861
 9007SOL     OW27919   3.768   5.618   3.359
 9007SOL    HW127920   3.784   5.519   3.368
 9007SOL    HW227921   3.723   5.652   3.441
 9008SOL     OW27922   6.143   5.336   3.203
 9008SOL    HW127923   6.082   5.415   3.201
 9008SOL    HW227924   6.117   5.271   3.131
 9009SOL     OW27925   3.420   6.509   0.482
 9009SOL    HW127926   3.347   6.462   0.431
 9009SOL    HW227927   3.414   6.608   0.464
 9010SOL     OW27928   0.999   6.872   5.101
 9010SOL    HW127929   0.950   6.925   5.171
 9010SOL    HW227930   1.017   6.931   5.022
 9011SOL     OW27931   3.922   2.378   1.329
 9011SOL    HW127932   3.932   2.328   1.415
 9011SOL    HW227933   3.937   2.317   1.252
 9012SOL     OW27934   2.856   5.404   1.123
 9012SOL    HW127935   2.956   5.398   1.124
 9012SOL    HW227936   2.828   5.492   1.161
 9013SOL     OW27937   6.117   6.028   4.776
 9013SOL    HW127938   6.185   6.074   4.832
 9013SOL    HW227939   6.151   6.019   4.682
 9014SOL     OW27940   1.218   1.420   0.440
 9014SOL    HW127941   1.179   1.328   0.437
 9014SOL    HW227942   1.146   1.488   0.426
 9015SOL     OW27943   6.188   0.425   0.446
 9015SOL    HW127944   6.180   0.425   0.346
 9015SOL    HW227945   6.111   0.474   0.486
 9016SOL     OW27946   6.465   6.432   5.971
 9016SOL    HW127947   6.494   6.422   5.876
 9016SOL    HW227948   6.371   6.399   5.981
 9017SOL     OW27949   5.398   2.339   3.488
 9017SOL    HW127950   5.413   2.313   3.584
 9017SOL    HW227951   5.462   2.289   3.430
 9018SOL     OW27952   4.194   1.298   5.454
 9018SOL    HW127953   4.108   1.298   5.404
 9018SOL    HW227954   4.177   1.289   5.552
 9019SOL     OW27955   1.309   6.684   0.605
 9019SOL    HW127956   1.368   6.723   0.675
 9019SOL    HW227957   1.246   6.755   0.571
 9020SOL     OW27958   1.650   3.451   1.999
 9020SOL    HW127959   1.702   3.391   1.938
 9020SOL    HW227960   1.711   3.493   2.066
 9021SOL     OW27961   6.539   0.152   3.988
 9021SOL    HW127962   6.554   0.237   3.938
 9021SOL    HW227963   6.617   0.135   4.048
 9022SOL     OW27964   2.667   0.686   0.590
 9022SOL    HW127965   2.620   0.598   0.587
 9022SOL    HW227966   2.752   0.681   0.538
 9023SOL     OW27967   4.046   3.251   3.038
 9023SOL    HW127968   4.066   3.191   2.961
 9023SOL    HW227969   4.062   3.346   3.012
 9024SOL     OW27970   1.822   5.672   6.023
 9024SOL    HW127971   1.903   5.659   5.966
 9024SOL    HW227972   1.836   5.752   6.082
 9025SOL     OW27973   6.276   6.010   0.934
 9025SOL    HW127974   6.360   5.993   0.986
 9025SOL    HW227975   6.289   6.089   0.875
 9026SOL     OW27976   3.842   3.582   3.378
 9026SOL    HW127977   3.750   3.617   3.362
 9026SOL    HW227978   3.845   3.484   3.358
 9027SOL     OW27979   3.128   2.155   3.865
 9027SOL    HW127980   3.135   2.057   3.846
 9027SOL    HW227981   3.047   2.173   3.921
 9028SOL     OW27982   2.498   4.492   6.369
 9028SOL    HW127983   2.451   4.403   6.372
 9028SOL    HW227984   2.519   4.515   6.274
 9029SOL     OW27985   3.762   5.692   4.638
 9029SOL    HW127986   3.714   5.704   4.552
 9029SOL    HW227987   3.837   5.626   4.625
 9030SOL     OW27988   1.979   1.094   2.618
 9030SOL    HW127989   1.944   1.167   2.559
 9030SOL    HW227990   1.903   1.035   2.646
 9031SOL     OW27991   4.277   5.536   5.557
 9031SOL    HW127992   4.283   5.476   5.477
 9031SOL    HW227993   4.211   5.498   5.622
 9032SOL     OW27994   3.929   2.740   0.608
 9032SOL    HW127995   3.990   2.665   0.633
 9032SOL    HW227996   3.951   2.771   0.515
 9033SOL     OW27997   1.251   3.582   4.021
 9033SOL    HW127998   1.182   3.522   3.982
 9033SOL    HW227999   1.263   3.662   3.962
 9034SOL     OW28000   2.721   6.390   4.859
 9034SOL    HW128001   2.667   6.448   4.799
 9034SOL    HW228002   2.732   6.300   4.817
 9035SOL     OW28003   0.547   6.504   4.986
 9035SOL    HW128004   0.483   6.557   4.932
 9035SOL    HW228005   0.641   6.526   4.958
 9036SOL     OW28006   1.642   1.914   4.476
 9036SOL    HW128007   1.641   1.883   4.380
 9036SOL    HW228008   1.548   1.925   4.508
 9037SOL     OW28009   1.338   3.390   6.309
 9037SOL    HW128010   1.424   3.349   6.338
 9037SOL    HW228011   1.339   3.403   6.209
 9038SOL     OW28012   5.222   0.116   5.904
 9038SOL    HW128013   5.153   0.052   5.873
 9038SOL    HW228014   5.178   0.196   5.944
 9039SOL     OW28015   1.558   4.720   4.973
 9039SOL    HW128016   1.534   4.659   4.898
 9039SOL    HW228017   1.475   4.757   5.013
 9040SOL     OW28018   2.816   1.935   3.252
 9040SOL    HW128019   2.752   1.890   3.315
 9040SOL    HW228020   2.766   1.997   3.192
 9041SOL     OW28021   0.997   1.813   2.244
 9041SOL    HW128022   0.988   1.742   2.174
 9041SOL    HW228023   0.917   1.873   2.242
 9042SOL     OW28024   2.855   6.177   3.398
 9042SOL    HW128025   2.908   6.181   3.483
 9042SOL    HW228026   2.915   6.152   3.322
 9043SOL     OW28027   2.409   1.488   5.409
 9043SOL    HW128028   2.345   1.515   5.337
 9043SOL    HW228029   2.503   1.504   5.378
 9044SOL     OW28030   6.309   1.202   1.378
 9044SOL    HW128031   6.215   1.211   1.413
 9044SOL    HW228032   6.368   1.267   1.426
 9045SOL     OW28033   3.117   1.846   1.855
 9045SOL    HW128034   3.179   1.768   1.854
 9045SOL    HW228035   3.066   1.849   1.769
 9046SOL     OW28036   3.345   4.135   4.446
 9046SOL    HW128037   3.355   4.041   4.479
 9046SOL    HW228038   3.289   4.187   4.509
 9047SOL     OW28039   1.287   3.908   5.780
 9047SOL    HW128040   1.379   3.944   5.768
 9047SOL    HW228041   1.232   3.928   5.699
 9048SOL     OW28042   6.637   3.065   6.463
 9048SOL    HW128043   6.686   2.991   6.509
 9048SOL    HW228044   6.694   3.103   6.391
 9049SOL     OW28045   4.549   6.432   6.823
 9049SOL    HW128046   4.584   6.526   6.828
 9049SOL    HW228047   4.619   6.368   6.853
 9050SOL     OW28048   1.473   5.402   6.308
 9050SOL    HW128049   1.520   5.361   6.229
 9050SOL    HW228050   1.486   5.344   6.388
 9051SOL     OW28051   4.506   6.267   1.233
 9051SOL    HW128052   4.463   6.243   1.320
 9051SOL    HW228053   4.471   6.209   1.160
 9052SOL     OW28054   2.085   4.151   4.352
 9052SOL    HW128055   2.000   4.099   4.361
 9052SOL    HW228056   2.141   4.137   4.434
 9053SOL     OW28057   2.377   1.823   3.093
 9053SOL    HW128058   2.313   1.896   3.068
 9053SOL    HW228059   2.386   1.820   3.193
 9054SOL     OW28060   2.042   0.152   1.871
 9054SOL    HW128061   1.974   0.217   1.837
 9054SOL    HW228062   2.086   0.191   1.952
 9055SOL     OW28063   0.275   3.951   3.621
 9055SOL    HW128064   0.223   3.940   3.706
 9055SOL    HW228065   0.371   3.930   3.638
 9056SOL     OW28066   4.898   0.267   2.301
 9056SOL    HW128067   4.990   0.256   2.263
 9056SOL    HW228068   4.834   0.290   2.227
 9057SOL     OW28069   6.542   5.285   6.489
 9057SOL    HW128070   6.561   5.212   6.423
 9057SOL    HW228071   6.625   5.304   6.542
 9058SOL     OW28072   2.496   1.671   3.996
 9058SOL    HW128073   2.501   1.771   4.009
 9058SOL    HW228074   2.516   1.649   3.901
 9059SOL     OW28075   0.130   0.815   3.815
 9059SOL    HW128076   0.142   0.907   3.854
 9059SOL    HW228077   0.069   0.762   3.873
 9060SOL     OW28078   6.711   3.893   2.221
 9060SOL    HW128079   6.764   3.956   2.277
 9060SOL    HW228080   6.622   3.877   2.264
 9061SOL     OW28081   3.736   5.667   2.608
 9061SOL    HW128082   3.649   5.673   2.558
 9061SOL    HW228083   3.765   5.758   2.636
 9062SOL     OW28084   1.584   4.861   2.708
 9062SOL    HW128085   1.606   4.861   2.805
 9062SOL    HW228086   1.632   4.786   2.663
 9063SOL     OW28087   2.746   0.532   2.433
 9063SOL    HW128088   2.685   0.465   2.473
 9063SOL    HW228089   2.693   0.602   2.386
 9064SOL     OW28090   6.298   4.112   4.446
 9064SOL    HW128091   6.356   4.042   4.488
 9064SOL    HW228092   6.357   4.179   4.399
 9065SOL     OW28093   2.974   5.587   6.559
 9065SOL    HW128094   2.963   5.489   6.576
 9065SOL    HW228095   3.057   5.620   6.603
 9066SOL     OW28096   5.777   0.119   6.600
 9066SOL    HW128097   5.830   0.163   6.673
 9066SOL    HW228098   5.682   0.108   6.630
 9067SOL     OW28099   5.817   6.196   5.138
 9067SOL    HW128100   5.819   6.171   5.042
 9067SOL    HW228101   5.855   6.122   5.193
 9068SOL     OW28102   3.219   0.490   5.223
 9068SOL    HW128103   3.306   0.495   5.271
 9068SOL    HW228104   3.160   0.566   5.253
 9069SOL     OW28105   3.532   2.006   2.103
 9069SOL    HW128106   3.578   2.088   2.067
 9069SOL    HW228107   3.535   1.933   2.034
 9070SOL     OW28108   0.700   3.162   5.815
 9070SOL    HW128109   0.742   3.104   5.745
 9070SOL    HW228110   0.626   3.112   5.860
 9071SOL     OW28111   5.177   6.808   0.830
 9071SOL    HW128112   5.236   6.727   0.826
 9071SOL    HW228113   5.202   6.871   0.756
 9072SOL     OW28114   4.798   0.303   1.666
 9072SOL    HW128115   4.773   0.233   1.733
 9072SOL    HW228116   4.726   0.309   1.596
 9073SOL     OW28117   3.514   0.092   0.956
 9073SOL    HW128118   3.416   0.074   0.947
 9073SOL    HW228119   3.543   0.072   1.050
 9074SOL     OW28120   1.696   0.608   1.215
 9074SOL    HW128121   1.785   0.640   1.185
 9074SOL    HW228122   1.703   0.514   1.249
 9075SOL     OW28123   0.127   0.127   1.364
 9075SOL    HW128124   0.056   0.099   1.429
 9075SOL    HW228125   0.193   0.187   1.411
 9076SOL     OW28126   5.327   1.632   5.024
 9076SOL    HW128127   5.287   1.622   4.933
 9076SOL    HW228128   5.389   1.555   5.041
 9077SOL     OW28129   5.324   1.194   6.774
 9077SOL    HW128130   5.268   1.118   6.807
 9077SOL    HW228131   5.420   1.178   6.799
 9078SOL     OW28132   5.060   3.412   0.354
 9078SOL    HW128133   5.001   3.463   0.418
 9078SOL    HW228134   5.049   3.449   0.262
 9079SOL     OW28135   1.789   6.665   4.245
 9079SOL    HW128136   1.837   6.723   4.180
 9079SOL    HW228137   1.845   6.585   4.266
 9080SOL     OW28138   5.920   2.664   7.015
 9080SOL    HW128139   5.961   2.573   7.015
 9080SOL    HW228140   5.965   2.722   0.057
 9081SOL     OW28141   3.150   0.370   2.278
 9081SOL    HW128142   3.239   0.402   2.309
 9081SOL    HW228143   3.113   0.304   2.343
 9082SOL     OW28144   2.659   6.452   5.436
 9082SOL    HW128145   2.562   6.469   5.454
 9082SOL    HW228146   2.696   6.525   5.380
 9083SOL     OW28147   3.645   4.366   5.659
 9083SOL    HW128148   3.685   4.410   5.579
 9083SOL    HW228149   3.644   4.267   5.646
 9084SOL     OW28150   1.778   2.364   6.362
 9084SOL    HW128151   1.777   2.265   6.349
 9084SOL    HW228152   1.704   2.391   6.422
 9085SOL     OW28153   1.643   5.485   1.073
 9085SOL    HW128154   1.546   5.507   1.080
 9085SOL    HW228155   1.683   5.533   0.996
 9086SOL     OW28156   6.598   4.160   1.455
 9086SOL    HW128157   6.665   4.161   1.530
 9086SOL    HW228158   6.530   4.089   1.473
 9087SOL     OW28159   4.953   3.225   2.005
 9087SOL    HW128160   4.873   3.166   1.997
 9087SOL    HW228161   5.012   3.214   1.925
 9088SOL     OW28162   6.951   6.371   0.717
 9088SOL    HW128163   6.877   6.394   0.781
 9088SOL    HW228164   0.008   6.417   0.744
 9089SOL     OW28165   3.993   6.133   6.018
 9089SOL    HW128166   4.050   6.087   5.951
 9089SOL    HW228167   3.915   6.176   5.972
 9090SOL     OW28168   5.894   0.202   3.733
 9090SOL    HW128169   5.863   0.137   3.664
 9090SOL    HW228170   5.827   0.277   3.740
 9091SOL     OW28171   2.545   3.494   0.480
 9091SOL    HW128172   2.538   3.394   0.475
 9091SOL    HW228173   2.639   3.521   0.500
 9092SOL     OW28174   0.057   1.399   6.946
 9092SOL    HW128175   0.037   1.353   6.860
 9092SOL    HW228176   0.156   1.418   6.951
 9093SOL     OW28177   1.707   6.107   6.199
 9093SOL    HW128178   1.771   6.041   6.160
 9093SOL    HW228179   1.728   6.121   6.296
 9094SOL     OW28180   0.299   5.069   3.099
 9094SOL    HW128181   0.255   5.026   3.178
 9094SOL    HW228182   0.285   5.012   3.018
 9095SOL     OW28183   3.857   3.939   6.092
 9095SOL    HW128184   3.806   3.994   6.157
 9095SOL    HW228185   3.936   3.897   6.138
 9096SOL     OW28186   5.434   4.258   2.371
 9096SOL    HW128187   5.473   4.275   2.461
 9096SOL    HW228188   5.337   4.235   2.380
 9097SOL     OW28189   0.330   2.731   6.581
 9097SOL    HW128190   0.400   2.765   6.519
 9097SOL    HW228191   0.316   2.797   6.655
 9098SOL     OW28192   4.021   2.570   6.893
 9098SOL    HW128193   4.066   2.547   6.807
 9098SOL    HW228194   3.978   2.659   6.885
 9099SOL     OW28195   3.996   4.003   0.440
 9099SOL    HW128196   4.032   3.930   0.499
 9099SOL    HW228197   3.908   4.034   0.476
 9100SOL     OW28198   0.991   3.464   3.278
 9100SOL    HW128199   1.075   3.504   3.241
 9100SOL    HW228200   0.919   3.534   3.281
 9101SOL     OW28201   2.457   2.663   3.312
 9101SOL    HW128202   2.394   2.708   3.249
 9101SOL    HW228203   2.528   2.615   3.260
 9102SOL     OW28204   2.489   0.079   1.806
 9102SOL    HW128205   2.475   0.108   1.901
 9102SOL    HW228206   2.401   0.076   1.759
 9103SOL     OW28207   6.351   3.894   0.414
 9103SOL    HW128208   6.258   3.875   0.381
 9103SOL    HW228209   6.417   3.846   0.357
 9104SOL     OW28210   5.724   6.834   2.846
 9104SOL    HW128211   5.676   6.802   2.765
 9104SOL    HW228212   5.789   6.906   2.820
 9105SOL     OW28213   1.765   1.026   0.819
 9105SOL    HW128214   1.829   1.023   0.895
 9105SOL    HW228215   1.728   1.119   0.811
 9106SOL     OW28216   6.290   4.431   0.680
 9106SOL    HW128217   6.378   4.406   0.639
 9106SOL    HW228218   6.219   4.426   0.610
 9107SOL     OW28219   3.099   0.644   6.132
 9107SOL    HW128220   3.085   0.724   6.074
 9107SOL    HW228221   3.011   0.614   6.169
 9108SOL     OW28222   5.084   3.926   5.866
 9108SOL    HW128223   5.141   3.951   5.945
 9108SOL    HW228224   4.988   3.920   5.894
 9109SOL     OW28225   0.613   2.632   2.917
 9109SOL    HW128226   0.521   2.628   2.955
 9109SOL    HW228227   0.679   2.645   2.991
 9110SOL     OW28228   1.955   4.034   4.076
 9110SOL    HW128229   1.934   4.045   4.174
 9110SOL    HW228230   1.920   3.946   4.045
 9111SOL     OW28231   4.269   2.334   0.413
 9111SOL    HW128232   4.258   2.423   0.457
 9111SOL    HW228233   4.211   2.266   0.460
 9112SOL     OW28234   0.953   4.970   5.039
 9112SOL    HW128235   1.027   4.957   4.973
 9112SOL    HW228236   0.884   5.031   4.999
 9113SOL     OW28237   4.599   0.305   1.477
 9113SOL    HW128238   4.526   0.345   1.533
 9113SOL    HW228239   4.603   0.351   1.389
 9114SOL     OW28240   1.425   4.467   1.985
 9114SOL    HW128241   1.423   4.379   1.938
 9114SOL    HW228242   1.331   4.503   1.991
 9115SOL     OW28243   0.818   5.124   5.377
 9115SOL    HW128244   0.772   5.182   5.444
 9115SOL    HW228245   0.852   5.181   5.302
 9116SOL     OW28246   6.213   1.239   0.494
 9116SOL    HW128247   6.237   1.206   0.585
 9116SOL    HW228248   6.126   1.199   0.466
 9117SOL     OW28249   5.943   2.211   0.622
 9117SOL    HW128250   6.006   2.135   0.637
 9117SOL    HW228251   5.942   2.235   0.524
 9118SOL     OW28252   6.524   4.634   0.380
 9118SOL    HW128253   6.475   4.584   0.310
 9118SOL    HW228254   6.473   4.632   0.466
 9119SOL     OW28255   4.278   0.601   1.528
 9119SOL    HW128256   4.205   0.603   1.460
 9119SOL    HW228257   4.363   0.636   1.488
 9120SOL     OW28258   5.960   1.794   6.336
 9120SOL    HW128259   5.967   1.718   6.401
 9120SOL    HW228260   5.931   1.759   6.247
 9121SOL     OW28261   2.587   2.224   5.015
 9121SOL    HW128262   2.492   2.195   5.018
 9121SOL    HW228263   2.647   2.149   5.042
 9122SOL     OW28264   1.964   4.208   2.444
 9122SOL    HW128265   1.899   4.132   2.443
 9122SOL    HW228266   1.937   4.276   2.375
 9123SOL     OW28267   2.667   0.249   4.276
 9123SOL    HW128268   2.635   0.296   4.193
 9123SOL    HW228269   2.621   0.161   4.284
 9124SOL     OW28270   5.627   6.231   6.803
 9124SOL    HW128271   5.718   6.204   6.771
 9124SOL    HW228272   5.616   6.205   6.899
 9125SOL     OW28273   5.081   4.488   1.500
 9125SOL    HW128274   5.066   4.430   1.580
 9125SOL    HW228275   5.148   4.444   1.439
 9126SOL     OW28276   5.484   3.193   1.813
 9126SOL    HW128277   5.583   3.210   1.808
 9126SOL    HW228278   5.456   3.137   1.735
 9127SOL     OW28279   6.147   1.192   5.832
 9127SOL    HW128280   6.237   1.176   5.873
 9127SOL    HW228281   6.076   1.175   5.900
 9128SOL     OW28282   5.693   1.847   5.735
 9128SOL    HW128283   5.748   1.792   5.672
 9128SOL    HW228284   5.629   1.903   5.682
 9129SOL     OW28285   0.164   2.417   0.442
 9129SOL    HW128286   0.083   2.476   0.449
 9129SOL    HW228287   0.163   2.351   0.517
 9130SOL     OW28288   0.109   3.445   0.411
 9130SOL    HW128289   0.155   3.488   0.489
 9130SOL    HW228290   0.120   3.502   0.330
 9131SOL     OW28291   5.883   2.830   5.324
 9131SOL    HW128292   5.820   2.869   5.257
 9131SOL    HW228293   5.944   2.902   5.358
 9132SOL     OW28294   0.999   5.439   4.196
 9132SOL    HW128295   0.962   5.421   4.287
 9132SOL    HW228296   0.984   5.535   4.172
 9133SOL     OW28297   4.130   5.770   2.289
 9133SOL    HW128298   4.099   5.676   2.281
 9133SOL    HW228299   4.068   5.821   2.350
 9134SOL     OW28300   5.258   5.466   0.647
 9134SOL    HW128301   5.252   5.387   0.708
 9134SOL    HW228302   5.336   5.454   0.585
 9135SOL     OW28303   6.514   6.925   1.752
 9135SOL    HW128304   6.586   6.912   1.820
 9135SOL    HW228305   6.451   6.847   1.754
 9136SOL     OW28306   5.467   5.231   6.537
 9136SOL    HW128307   5.405   5.309   6.542
 9136SOL    HW228308   5.485   5.196   6.629
 9137SOL     OW28309   5.178   1.242   1.052
 9137SOL    HW128310   5.252   1.183   1.019
 9137SOL    HW228311   5.091   1.194   1.044
 9138SOL     OW28312   0.649   5.654   6.100
 9138SOL    HW128313   0.561   5.639   6.055
 9138SOL    HW228314   0.685   5.567   6.134
 9139SOL     OW28315   2.786   1.748   3.963
 9139SOL    HW128316   2.861   1.786   4.019
 9139SOL    HW228317   2.702   1.799   3.981
 9140SOL     OW28318   6.249   3.965   3.068
 9140SOL    HW128319   6.208   3.919   3.147
 9140SOL    HW228320   6.227   3.915   2.985
 9141SOL     OW28321   5.619   0.145   0.607
 9141SOL    HW128322   5.688   0.133   0.536
 9141SOL    HW228323   5.543   0.082   0.591
 9142SOL     OW28324   0.764   2.453   1.173
 9142SOL    HW128325   0.829   2.427   1.245
 9142SOL    HW228326   0.671   2.441   1.207
 9143SOL     OW28327   6.603   3.403   6.848
 9143SOL    HW128328   6.673   3.332   6.844
 9143SOL    HW228329   6.528   3.373   6.906
 9144SOL     OW28330   2.392   4.901   5.216
 9144SOL    HW128331   2.365   4.943   5.303
 9144SOL    HW228332   2.400   4.802   5.228
 9145SOL     OW28333   6.898   5.672   0.458
 9145SOL    HW128334   6.863   5.609   0.389
 9145SOL    HW228335   6.858   5.762   0.444
 9146SOL     OW28336   5.164   2.985   3.309
 9146SOL    HW128337   5.249   2.933   3.318
 9146SOL    HW228338   5.119   2.959   3.224
 9147SOL     OW28339   5.601   0.539   4.675
 9147SOL    HW128340   5.642   0.625   4.644
 9147SOL    HW228341   5.672   0.477   4.707
 9148SOL     OW28342   5.104   6.123   1.239
 9148SOL    HW128343   5.103   6.040   1.183
 9148SOL    HW228344   5.012   6.162   1.242
 9149SOL     OW28345   5.966   3.572   3.687
 9149SOL    HW128346   6.008   3.529   3.607
 9149SOL    HW228347   5.869   3.588   3.669
 9150SOL     OW28348   3.201   5.692   1.652
 9150SOL    HW128349   3.188   5.624   1.579
 9150SOL    HW228350   3.299   5.705   1.668
 9151SOL     OW28351   1.940   4.620   3.269
 9151SOL    HW128352   1.966   4.714   3.291
 9151SOL    HW228353   1.901   4.576   3.350
 9152SOL     OW28354   1.888   4.190   4.576
 9152SOL    HW128355   1.870   4.286   4.554
 9152SOL    HW228356   1.925   4.184   4.669
 9153SOL     OW28357   1.514   3.234   6.468
 9153SOL    HW128358   1.466   3.278   6.544
 9153SOL    HW228359   1.494   3.136   6.468
 9154SOL     OW28360   4.530   4.946   6.910
 9154SOL    HW128361   4.488   5.022   6.861
 9154SOL    HW228362   4.537   4.867   6.849
 9155SOL     OW28363   1.528   3.646   2.156
 9155SOL    HW128364   1.585   3.607   2.083
 9155SOL    HW228365   1.431   3.635   2.132
 9156SOL     OW28366   0.803   2.278   0.017
 9156SOL    HW128367   0.809   2.179   0.015
 9156SOL    HW228368   0.830   2.312   0.107
 9157SOL     OW28369   0.243   4.057   6.091
 9157SOL    HW128370   0.175   4.108   6.038
 9157SOL    HW228371   0.321   4.037   6.032
 9158SOL     OW28372   5.753   3.152   4.361
 9158SOL    HW128373   5.737   3.168   4.264
 9158SOL    HW228374   5.829   3.089   4.373
 9159SOL     OW28375   1.829   0.545   2.389
 9159SOL    HW128376   1.857   0.637   2.361
 9159SOL    HW228377   1.854   0.480   2.318
 9160SOL     OW28378   5.712   6.994   5.475
 9160SOL    HW128379   5.791   6.951   5.519
 9160SOL    HW228380   5.634   6.993   5.537
 9161SOL     OW28381   5.008   4.292   4.309
 9161SOL    HW128382   5.012   4.391   4.299
 9161SOL    HW228383   5.037   4.249   4.223
 9162SOL     OW28384   4.492   1.349   3.829
 9162SOL    HW128385   4.522   1.445   3.826
 9162SOL    HW228386   4.413   1.341   3.890
 9163SOL     OW28387   1.342   2.118   4.762
 9163SOL    HW128388   1.297   2.166   4.837
 9163SOL    HW228389   1.441   2.115   4.778
 9164SOL     OW28390   2.429   6.700   6.314
 9164SOL    HW128391   2.452   6.721   6.219
 9164SOL    HW228392   2.506   6.722   6.373
 9165SOL     OW28393   6.211   1.381   5.571
 9165SOL    HW128394   6.248   1.427   5.490
 9165SOL    HW228395   6.165   1.448   5.629
 9166SOL     OW28396   3.656   5.960   1.725
 9166SOL    HW128397   3.607   6.047   1.716
 9166SOL    HW228398   3.739   5.975   1.780
 9167SOL     OW28399   1.915   2.486   6.143
 9167SOL    HW128400   1.863   2.453   6.222
 9167SOL    HW228401   2.007   2.512   6.173
 9168SOL     OW28402   6.805   6.308   6.353
 9168SOL    HW128403   6.796   6.365   6.271
 9168SOL    HW228404   6.840   6.363   6.428
 9169SOL     OW28405   6.288   6.912   5.532
 9169SOL    HW128406   6.376   6.873   5.504
 9169SOL    HW228407   6.302   7.007   5.561
 9170SOL     OW28408   1.343   6.628   6.604
 9170SOL    HW128409   1.300   6.604   6.692
 9170SOL    HW228410   1.387   6.548   6.565
 9171SOL     OW28411   4.275   5.139   0.632
 9171SOL    HW128412   4.210   5.214   0.615
 9171SOL    HW228413   4.301   5.138   0.728
 9172SOL     OW28414   4.365   1.415   2.532
 9172SOL    HW128415   4.417   1.422   2.616
 9172SOL    HW228416   4.413   1.463   2.459
 9173SOL     OW28417   6.321   3.578   6.077
 9173SOL    HW128418   6.411   3.609   6.108
 9173SOL    HW228419   6.253   3.648   6.098
 9174SOL     OW28420   6.158   4.166   1.387
 9174SOL    HW128421   6.135   4.123   1.300
 9174SOL    HW228422   6.255   4.191   1.387
 9175SOL     OW28423   0.847   0.117   5.591
 9175SOL    HW128424   0.906   0.056   5.538
 9175SOL    HW228425   0.904   0.182   5.641
 9176SOL     OW28426   2.549   1.015   3.490
 9176SOL    HW128427   2.540   1.112   3.513
 9176SOL    HW228428   2.519   1.000   3.396
 9177SOL     OW28429   0.687   4.736   4.360
 9177SOL    HW128430   0.597   4.713   4.324
 9177SOL    HW228431   0.752   4.747   4.285
 9178SOL     OW28432   2.213   5.701   0.683
 9178SOL    HW128433   2.241   5.648   0.604
 9178SOL    HW228434   2.259   5.665   0.765
 9179SOL     OW28435   1.977   4.549   3.833
 9179SOL    HW128436   2.076   4.540   3.822
 9179SOL    HW228437   1.953   4.538   3.930
 9180SOL     OW28438   6.662   2.606   3.435
 9180SOL    HW128439   6.680   2.701   3.408
 9180SOL    HW228440   6.746   2.565   3.470
 9181SOL     OW28441   5.790   2.536   4.965
 9181SOL    HW128442   5.852   2.491   4.901
 9181SOL    HW228443   5.812   2.634   4.969
 9182SOL     OW28444   2.335   6.679   2.428
 9182SOL    HW128445   2.325   6.776   2.407
 9182SOL    HW228446   2.251   6.646   2.472
 9183SOL     OW28447   4.213   4.872   0.552
 9183SOL    HW128448   4.262   4.877   0.464
 9183SOL    HW228449   4.223   4.959   0.600
 9184SOL     OW28450   4.989   2.279   0.764
 9184SOL    HW128451   4.926   2.350   0.733
 9184SOL    HW228452   5.024   2.302   0.855
 9185SOL     OW28453   5.040   6.655   4.965
 9185SOL    HW128454   4.984   6.664   4.883
 9185SOL    HW228455   5.058   6.745   5.003
 9186SOL     OW28456   6.133   5.670   5.094
 9186SOL    HW128457   6.074   5.660   5.174
 9186SOL    HW228458   6.076   5.691   5.014
 9187SOL     OW28459   2.976   1.823   0.415
 9187SOL    HW128460   2.992   1.900   0.477
 9187SOL    HW228461   2.897   1.842   0.357
 9188SOL     OW28462   1.639   7.006   1.308
 9188SOL    HW128463   1.580   7.002   1.228
 9188SOL    HW228464   1.691   0.065   1.306
 9189SOL     OW28465   2.705   6.134   1.947
 9189SOL    HW128466   2.618   6.089   1.927
 9189SOL    HW228467   2.780   6.078   1.912
 9190SOL     OW28468   1.933   4.378   5.511
 9190SOL    HW128469   1.988   4.362   5.429
 9190SOL    HW228470   1.845   4.331   5.503
 9191SOL     OW28471   6.176   1.208   6.639
 9191SOL    HW128472   6.096   1.206   6.580
 9191SOL    HW228473   6.244   1.272   6.602
 9192SOL     OW28474   0.343   2.118   5.821
 9192SOL    HW128475   0.296   2.206   5.812
 9192SOL    HW228476   0.279   2.043   5.805
 9193SOL     OW28477   3.880   3.880   5.206
 9193SOL    HW128478   3.808   3.946   5.229
 9193SOL    HW228479   3.839   3.800   5.162
 9194SOL     OW28480   3.648   1.271   2.911
 9194SOL    HW128481   3.586   1.281   2.989
 9194SOL    HW228482   3.632   1.182   2.868
 9195SOL     OW28483   0.426   2.669   2.553
 9195SOL    HW128484   0.376   2.756   2.557
 9195SOL    HW228485   0.489   2.664   2.631
 9196SOL     OW28486   5.858   0.604   3.441
 9196SOL    HW128487   5.871   0.603   3.540
 9196SOL    HW228488   5.924   0.542   3.398
 9197SOL     OW28489   2.403   4.800   1.129
 9197SOL    HW128490   2.366   4.880   1.176
 9197SOL    HW228491   2.333   4.762   1.068
 9198SOL     OW28492   6.266   4.577   6.873
 9198SOL    HW128493   6.235   4.482   6.870
 9198SOL    HW228494   6.261   4.616   6.780
 9199SOL     OW28495   0.542   3.122   5.134
 9199SOL    HW128496   0.447   3.120   5.102
 9199SOL    HW228497   0.562   3.213   5.171
 9200SOL     OW28498   3.265   6.207   6.911
 9200SOL    HW128499   3.250   6.255   6.998
 9200SOL    HW228500   3.346   6.150   6.919
 9201SOL     OW28501   0.334   3.428   0.091
 9201SOL    HW128502   0.263   3.358   0.101
 9201SOL    HW228503   0.331   3.489   0.170
 9202SOL     OW28504   0.676   6.204   2.664
 9202SOL    HW128505   0.757   6.198   2.721
 9202SOL    HW228506   0.597   6.170   2.714
 9203SOL     OW28507   0.065   3.162   6.047
 9203SOL    HW128508   0.095   3.208   5.963
 9203SOL    HW228509   7.003   3.198   6.075
 9204SOL     OW28510   4.539   3.416   5.320
 9204SOL    HW128511   4.478   3.481   5.364
 9204SOL    HW228512   4.599   3.463   5.255
 9205SOL     OW28513   5.155   6.351   3.148
 9205SOL    HW128514   5.058   6.374   3.148
 9205SOL    HW228515   5.191   6.361   3.241
 9206SOL     OW28516   3.348   4.923   3.461
 9206SOL    HW128517   3.266   4.873   3.487
 9206SOL    HW228518   3.357   4.926   3.362
 9207SOL     OW28519   5.399   4.543   6.440
 9207SOL    HW128520   5.413   4.581   6.531
 9207SOL    HW228521   5.345   4.460   6.447
 9208SOL     OW28522   5.787   4.626   3.752
 9208SOL    HW128523   5.699   4.629   3.799
 9208SOL    HW228524   5.773   4.602   3.656
 9209SOL     OW28525   4.284   0.677   0.457
 9209SOL    HW128526   4.220   0.691   0.382
 9209SOL    HW228527   4.331   0.589   0.446
 9210SOL     OW28528   1.043   1.965   1.904
 9210SOL    HW128529   0.961   1.907   1.897
 9210SOL    HW228530   1.119   1.920   1.858
 9211SOL     OW28531   6.791   3.227   5.607
 9211SOL    HW128532   6.816   3.150   5.666
 9211SOL    HW228533   6.797   3.199   5.511
 9212SOL     OW28534   3.991   5.584   4.323
 9212SOL    HW128535   3.975   5.675   4.284
 9212SOL    HW228536   4.010   5.593   4.421
 9213SOL     OW28537   5.588   4.086   5.321
 9213SOL    HW128538   5.656   4.115   5.254
 9213SOL    HW228539   5.558   3.993   5.300
 9214SOL     OW28540   0.185   3.748   5.638
 9214SOL    HW128541   0.091   3.751   5.604
 9214SOL    HW228542   0.248   3.781   5.568
 9215SOL     OW28543   2.003   2.987   2.100
 9215SOL    HW128544   2.030   3.045   2.177
 9215SOL    HW228545   1.968   3.045   2.026
 9216SOL     OW28546   2.943   0.056   2.710
 9216SOL    HW128547   2.960   0.004   2.793
 9216SOL    HW228548   2.856   0.026   2.669
 9217SOL     OW28549   6.830   3.224   6.870
 9217SOL    HW128550   6.907   3.218   6.934
 9217SOL    HW228551   6.862   3.212   6.777
 9218SOL     OW28552   2.274   0.809   6.918
 9218SOL    HW128553   2.292   0.899   6.958
 9218SOL    HW228554   2.317   0.739   6.975
 9219SOL     OW28555   5.942   3.776   6.872
 9219SOL    HW128556   5.923   3.809   6.964
 9219SOL    HW228557   5.856   3.758   6.825
 9220SOL     OW28558   0.954   5.661   1.298
 9220SOL    HW128559   0.927   5.757   1.285
 9220SOL    HW228560   0.991   5.625   1.212
 9221SOL     OW28561   2.221   0.787   2.977
 9221SOL    HW128562   2.140   0.846   2.979
 9221SOL    HW228563   2.204   0.708   2.918
 9222SOL     OW28564   2.554   5.728   5.964
 9222SOL    HW128565   2.589   5.635   5.951
 9222SOL    HW228566   2.597   5.789   5.898
 9223SOL     OW28567   1.001   2.025   3.915
 9223SOL    HW128568   1.039   1.981   3.834
 9223SOL    HW228569   0.928   2.087   3.888
 9224SOL     OW28570   1.235   5.481   3.949
 9224SOL    HW128571   1.158   5.527   3.992
 9224SOL    HW228572   1.208   5.446   3.859
 9225SOL     OW28573   3.021   6.317   6.523
 9225SOL    HW128574   2.950   6.250   6.544
 9225SOL    HW228575   3.091   6.274   6.465
 9226SOL     OW28576   6.018   6.301   1.213
 9226SOL    HW128577   5.978   6.392   1.227
 9226SOL    HW228578   6.087   6.284   1.284
 9227SOL     OW28579   2.092   6.179   1.060
 9227SOL    HW128580   2.025   6.177   0.986
 9227SOL    HW228581   2.051   6.223   1.140
 9228SOL     OW28582   2.622   1.618   6.091
 9228SOL    HW128583   2.608   1.526   6.126
 9228SOL    HW228584   2.712   1.651   6.120
 9229SOL     OW28585   1.623   5.573   5.055
 9229SOL    HW128586   1.711   5.616   5.074
 9229SOL    HW228587   1.584   5.612   4.971
 9230SOL     OW28588   5.647   2.545   3.475
 9230SOL    HW128589   5.569   2.560   3.414
 9230SOL    HW228590   5.697   2.463   3.446
 9231SOL     OW28591   1.003   2.856   4.384
 9231SOL    HW128592   1.086   2.890   4.429
 9231SOL    HW228593   0.923   2.895   4.429
 9232SOL     OW28594   3.759   5.789   0.357
 9232SOL    HW128595   3.666   5.812   0.328
 9232SOL    HW228596   3.806   5.871   0.389
 9233SOL     OW28597   5.876   5.814   2.026
 9233SOL    HW128598   5.942   5.888   2.020
 9233SOL    HW228599   5.894   5.759   2.107
 9234SOL     OW28600   3.594   5.411   6.662
 9234SOL    HW128601   3.589   5.432   6.759
 9234SOL    HW228602   3.556   5.320   6.645
 9235SOL     OW28603   1.164   3.268   3.719
 9235SOL    HW128604   1.249   3.246   3.671
 9235SOL    HW228605   1.103   3.317   3.657
 9236SOL     OW28606   1.742   4.108   6.212
 9236SOL    HW128607   1.721   4.027   6.156
 9236SOL    HW228608   1.841   4.112   6.228
 9237SOL     OW28609   0.712   6.279   4.196
 9237SOL    HW128610   0.622   6.255   4.160
 9237SOL    HW228611   0.729   6.228   4.281
 9238SOL     OW28612   2.111   2.072   0.177
 9238SOL    HW128613   2.202   2.104   0.149
 9238SOL    HW228614   2.088   1.990   0.126
 9239SOL     OW28615   6.749   3.992   0.174
 9239SOL    HW128616   6.793   3.945   0.098
 9239SOL    HW228617   6.684   3.931   0.218
 9240SOL     OW28618   5.100   2.365   1.986
 9240SOL    HW128619   5.135   2.456   1.962
 9240SOL    HW228620   5.012   2.374   2.031
 9241SOL     OW28621   1.521   5.346   5.404
 9241SOL    HW128622   1.438   5.290   5.398
 9241SOL    HW228623   1.585   5.318   5.332
 9242SOL     OW28624   1.097   4.643   0.220
 9242SOL    HW128625   0.999   4.662   0.217
 9242SOL    HW228626   1.112   4.545   0.222
 9243SOL     OW28627   0.292   6.713   1.596
 9243SOL    HW128628   0.255   6.624   1.571
 9243SOL    HW228629   0.366   6.737   1.533
 9244SOL     OW28630   3.787   5.316   6.345
 9244SOL    HW128631   3.746   5.407   6.357
 9244SOL    HW228632   3.881   5.326   6.311
 9245SOL     OW28633   1.744   4.848   3.444
 9245SOL    HW128634   1.708   4.796   3.522
 9245SOL    HW228635   1.733   4.946   3.461
 9246SOL     OW28636   6.217   5.396   2.582
 9246SOL    HW128637   6.277   5.476   2.575
 9246SOL    HW228638   6.197   5.379   2.678
 9247SOL     OW28639   1.720   6.579   3.449
 9247SOL    HW128640   1.632   6.626   3.445
 9247SOL    HW228641   1.716   6.497   3.393
 9248SOL     OW28642   2.303   2.500   4.670
 9248SOL    HW128643   2.340   2.590   4.692
 9248SOL    HW228644   2.222   2.511   4.612
 9249SOL     OW28645   3.525   3.880   0.476
 9249SOL    HW128646   3.570   3.943   0.540
 9249SOL    HW228647   3.431   3.864   0.506
 9250SOL     OW28648   5.954   2.897   4.028
 9250SOL    HW128649   5.914   2.806   4.022
 9250SOL    HW228650   5.989   2.912   4.120
 9251SOL     OW28651   3.604   1.838   2.804
 9251SOL    HW128652   3.588   1.933   2.779
 9251SOL    HW228653   3.606   1.782   2.721
 9252SOL     OW28654   5.026   0.025   3.857
 9252SOL    HW128655   5.118   0.024   3.896
 9252SOL    HW228656   5.032   0.030   3.757
 9253SOL     OW28657   5.732   6.466   5.988
 9253SOL    HW128658   5.809   6.510   6.035
 9253SOL    HW228659   5.730   6.369   6.013
 9254SOL     OW28660   5.933   4.639   2.697
 9254SOL    HW128661   5.868   4.608   2.628
 9254SOL    HW228662   5.993   4.562   2.722
 9255SOL     OW28663   4.671   3.952   0.178
 9255SOL    HW128664   4.630   3.861   0.172
 9255SOL    HW228665   4.768   3.946   0.152
 9256SOL     OW28666   3.055   0.521   3.123
 9256SOL    HW128667   3.052   0.504   3.025
 9256SOL    HW228668   3.150   0.538   3.150
 9257SOL     OW28669   0.276   4.025   3.161
 9257SOL    HW128670   0.230   3.936   3.157
 9257SOL    HW228671   0.243   4.076   3.241
 9258SOL     OW28672   3.160   3.140   2.622
 9258SOL    HW128673   3.239   3.091   2.660
 9258SOL    HW228674   3.107   3.180   2.697
 9259SOL     OW28675   1.005   2.103   0.413
 9259SOL    HW128676   1.039   2.065   0.499
 9259SOL    HW228677   0.960   2.191   0.431
 9260SOL     OW28678   6.201   1.251   4.745
 9260SOL    HW128679   6.149   1.193   4.682
 9260SOL    HW228680   6.137   1.303   4.802
 9261SOL     OW28681   2.482   1.450   0.206
 9261SOL    HW128682   2.534   1.534   0.199
 9261SOL    HW228683   2.477   1.421   0.301
 9262SOL     OW28684   6.953   5.144   5.468
 9262SOL    HW128685   7.004   5.153   5.383
 9262SOL    HW228686   6.855   5.150   5.449
 9263SOL     OW28687   4.926   6.912   0.932
 9263SOL    HW128688   4.893   6.831   0.979
 9263SOL    HW228689   5.002   6.887   0.872
 9264SOL     OW28690   4.490   5.087   0.347
 9264SOL    HW128691   4.540   5.062   0.264
 9264SOL    HW228692   4.395   5.058   0.339
 9265SOL     OW28693   3.713   1.822   0.886
 9265SOL    HW128694   3.704   1.796   0.982
 9265SOL    HW228695   3.693   1.919   0.875
 9266SOL     OW28696   1.874   0.108   1.165
 9266SOL    HW128697   1.888   0.046   1.088
 9266SOL    HW228698   1.943   0.090   1.235
 9267SOL     OW28699   6.847   2.993   4.550
 9267SOL    HW128700   6.759   2.950   4.531
 9267SOL    HW228701   6.879   3.041   4.468
 9268SOL     OW28702   0.749   5.265   2.434
 9268SOL    HW128703   0.758   5.180   2.486
 9268SOL    HW228704   0.795   5.256   2.346
 9269SOL     OW28705   3.408   1.548   6.569
 9269SOL    HW128706   3.361   1.494   6.500
 9269SOL    HW228707   3.468   1.489   6.623
 9270SOL     OW28708   4.647   6.762   6.262
 9270SOL    HW128709   4.636   6.837   6.197
 9270SOL    HW228710   4.567   6.758   6.322
 9271SOL     OW28711   5.915   6.853   0.532
 9271SOL    HW128712   5.956   6.799   0.460
 9271SOL    HW228713   5.830   6.895   0.498
 9272SOL     OW28714   1.356   5.868   5.001
 9272SOL    HW128715   1.379   5.831   4.911
 9272SOL    HW228716   1.422   5.835   5.069
 9273SOL     OW28717   5.968   6.986   2.772
 9273SOL    HW128718   6.042   0.005   2.821
 9273SOL    HW228719   5.895   0.025   2.754
 9274SOL     OW28720   6.433   1.978   6.816
 9274SOL    HW128721   6.444   2.075   6.796
 9274SOL    HW228722   6.349   1.965   6.869
 9275SOL     OW28723   6.327   0.815   0.331
 9275SOL    HW128724   6.302   0.803   0.427
 9275SOL    HW228725   6.374   0.733   0.299
 9276SOL     OW28726   1.831   3.606   2.191
 9276SOL    HW128727   1.931   3.611   2.194
 9276SOL    HW228728   1.793   3.639   2.277
 9277SOL     OW28729   4.883   3.633   0.213
 9277SOL    HW128730   4.868   3.603   0.307
 9277SOL    HW228731   4.795   3.639   0.166
 9278SOL     OW28732   1.929   0.704   5.523
 9278SOL    HW128733   1.851   0.689   5.584
 9278SOL    HW228734   1.998   0.759   5.570
 9279SOL     OW28735   4.502   1.195   2.163
 9279SOL    HW128736   4.483   1.138   2.242
 9279SOL    HW228737   4.524   1.288   2.193
 9280SOL     OW28738   2.220   2.045   3.047
 9280SOL    HW128739   2.145   2.074   3.107
 9280SOL    HW228740   2.251   2.122   2.992
 9281SOL     OW28741   2.810   3.919   6.975
 9281SOL    HW128742   2.767   4.009   6.975
 9281SOL    HW228743   2.746   3.851   6.938
 9282SOL     OW28744   5.108   1.128   3.609
 9282SOL    HW128745   5.041   1.141   3.682
 9282SOL    HW228746   5.069   1.159   3.522
 9283SOL     OW28747   5.637   0.377   4.258
 9283SOL    HW128748   5.691   0.341   4.334
 9283SOL    HW228749   5.631   0.477   4.267
 9284SOL     OW28750   3.366   3.363   5.578
 9284SOL    HW128751   3.445   3.388   5.523
 9284SOL    HW228752   3.393   3.357   5.674
 9285SOL     OW28753   5.022   2.760   0.716
 9285SOL    HW128754   4.994   2.723   0.805
 9285SOL    HW228755   4.989   2.701   0.643
 9286SOL     OW28756   5.361   5.910   0.669
 9286SOL    HW128757   5.342   5.949   0.759
 9286SOL    HW228758   5.354   5.981   0.599
 9287SOL     OW28759   3.124   4.813   0.072
 9287SOL    HW128760   3.215   4.812   0.031
 9287SOL    HW228761   3.125   4.759   0.156
 9288SOL     OW28762   4.977   1.224   3.387
 9288SOL    HW128763   5.049   1.193   3.324
 9288SOL    HW228764   4.954   1.319   3.366
 9289SOL     OW28765   3.989   1.352   2.028
 9289SOL    HW128766   4.076   1.304   2.013
 9289SOL    HW228767   3.981   1.376   2.125
 9290SOL     OW28768   5.629   1.428   3.242
 9290SOL    HW128769   5.656   1.406   3.336
 9290SOL    HW228770   5.705   1.405   3.180
 9291SOL     OW28771   1.462   6.227   4.184
 9291SOL    HW128772   1.554   6.202   4.214
 9291SOL    HW228773   1.441   6.320   4.215
 9292SOL     OW28774   2.304   2.892   6.554
 9292SOL    HW128775   2.268   2.853   6.638
 9292SOL    HW228776   2.399   2.862   6.541
 9293SOL     OW28777   5.523   3.134   6.659
 9293SOL    HW128778   5.463   3.092   6.727
 9293SOL    HW228779   5.617   3.130   6.691
 9294SOL     OW28780   4.387   0.918   5.489
 9294SOL    HW128781   4.314   0.854   5.465
 9294SOL    HW228782   4.388   0.994   5.424
 9295SOL     OW28783   5.190   1.757   4.803
 9295SOL    HW128784   5.138   1.809   4.735
 9295SOL    HW228785   5.190   1.807   4.890
 9296SOL     OW28786   1.593   5.662   6.990
 9296SOL    HW128787   1.679   5.623   7.021
 9296SOL    HW228788   1.606   5.710   6.904
 9297SOL     OW28789   6.618   0.196   1.670
 9297SOL    HW128790   6.555   0.257   1.622
 9297SOL    HW228791   6.630   0.113   1.616
 9298SOL     OW28792   1.132   7.000   5.470
 9298SOL    HW128793   1.173   0.030   5.541
 9298SOL    HW228794   1.177   6.910   5.469
 9299SOL     OW28795   0.456   2.556   5.313
 9299SOL    HW128796   0.532   2.595   5.366
 9299SOL    HW228797   0.490   2.483   5.254
 9300SOL     OW28798   0.070   4.647   5.849
 9300SOL    HW128799   0.060   4.711   5.926
 9300SOL    HW228800   0.069   4.697   5.763
 9301SOL     OW28801   5.120   5.536   3.877
 9301SOL    HW128802   5.211   5.578   3.879
 9301SOL    HW228803   5.122   5.450   3.928
 9302SOL     OW28804   2.274   2.827   4.003
 9302SOL    HW128805   2.260   2.918   4.042
 9302SOL    HW228806   2.311   2.766   4.073
 9303SOL     OW28807   2.583   4.281   0.969
 9303SOL    HW128808   2.658   4.320   1.022
 9303SOL    HW228809   2.508   4.347   0.963
 9304SOL     OW28810   4.022   5.239   1.662
 9304SOL    HW128811   4.109   5.188   1.662
 9304SOL    HW228812   3.949   5.179   1.696
 9305SOL     OW28813   3.283   1.422   0.980
 9305SOL    HW128814   3.261   1.511   0.941
 9305SOL    HW228815   3.206   1.391   1.037
 9306SOL     OW28816   0.395   5.293   4.831
 9306SOL    HW128817   0.312   5.347   4.816
 9306SOL    HW228818   0.465   5.351   4.872
 9307SOL     OW28819   1.740   3.439   1.579
 9307SOL    HW128820   1.764   3.533   1.604
 9307SOL    HW228821   1.767   3.422   1.484
 9308SOL     OW28822   2.413   3.264   0.143
 9308SOL    HW128823   2.365   3.269   0.055
 9308SOL    HW228824   2.484   3.333   0.147
 9309SOL     OW28825   3.796   4.588   5.824
 9309SOL    HW128826   3.858   4.511   5.837
 9309SOL    HW228827   3.702   4.554   5.815
 9310SOL     OW28828   4.789   5.233   6.705
 9310SOL    HW128829   4.884   5.231   6.674
 9310SOL    HW228830   4.786   5.261   6.801
 9311SOL     OW28831   4.295   4.891   1.880
 9311SOL    HW128832   4.367   4.882   1.948
 9311SOL    HW228833   4.296   4.811   1.819
 9312SOL     OW28834   1.257   3.480   1.131
 9312SOL    HW128835   1.264   3.533   1.047
 9312SOL    HW228836   1.339   3.424   1.143
 9313SOL     OW28837   0.550   0.895   0.958
 9313SOL    HW128838   0.458   0.928   0.938
 9313SOL    HW228839   0.545   0.813   1.014
 9314SOL     OW28840   5.523   5.063   6.767
 9314SOL    HW128841   5.512   5.086   6.864
 9314SOL    HW228842   5.443   5.013   6.735
 9315SOL     OW28843   6.174   0.517   5.279
 9315SOL    HW128844   6.163   0.437   5.220
 9315SOL    HW228845   6.101   0.583   5.261
 9316SOL     OW28846   4.954   6.415   5.725
 9316SOL    HW128847   4.923   6.396   5.632
 9316SOL    HW228848   5.051   6.395   5.732
 9317SOL     OW28849   5.409   5.298   3.886
 9317SOL    HW128850   5.424   5.246   3.969
 9317SOL    HW228851   5.497   5.327   3.848
 9318SOL     OW28852   5.989   0.402   6.022
 9318SOL    HW128853   5.916   0.455   5.979
 9318SOL    HW228854   5.950   0.326   6.073
 9319SOL     OW28855   2.136   2.963   6.951
 9319SOL    HW128856   2.159   3.057   6.978
 9319SOL    HW228857   2.037   2.955   6.939
 9320SOL     OW28858   3.872   0.738   5.300
 9320SOL    HW128859   3.956   0.699   5.337
 9320SOL    HW228860   3.839   0.680   5.225
 9321SOL     OW28861   0.470   0.267   4.192
 9321SOL    HW128862   0.516   0.341   4.241
 9321SOL    HW228863   0.536   0.193   4.176
 9322SOL     OW28864   7.024   3.593   6.715
 9322SOL    HW128865   6.924   3.593   6.714
 9322SOL    HW228866   0.030   3.500   6.696
 9323SOL     OW28867   1.496   0.814   5.788
 9323SOL    HW128868   1.437   0.851   5.860
 9323SOL    HW228869   1.446   0.746   5.735
 9324SOL     OW28870   1.238   4.131   1.220
 9324SOL    HW128871   1.188   4.067   1.278
 9324SOL    HW228872   1.180   4.161   1.146
 9325SOL     OW28873   5.772   0.592   0.017
 9325SOL    HW128874   5.798   0.556   6.955
 9325SOL    HW228875   5.672   0.590   0.027
 9326SOL     OW28876   2.350   5.303   0.650
 9326SOL    HW128877   2.378   5.387   0.604
 9326SOL    HW228878   2.400   5.225   0.611
 9327SOL     OW28879   5.179   0.278   2.863
 9327SOL    HW128880   5.108   0.271   2.792
 9327SOL    HW228881   5.205   0.374   2.874
 9328SOL     OW28882   2.467   1.322   5.170
 9328SOL    HW128883   2.393   1.371   5.216
 9328SOL    HW228884   2.483   1.363   5.080
 9329SOL     OW28885   6.180   3.615   1.259
 9329SOL    HW128886   6.139   3.545   1.318
 9329SOL    HW228887   6.126   3.699   1.264
 9330SOL     OW28888   6.714   7.010   5.504
 9330SOL    HW128889   6.730   6.979   5.597
 9330SOL    HW228890   6.677   0.076   5.505
 9331SOL     OW28891   1.882   0.681   0.197
 9331SOL    HW128892   1.827   0.760   0.170
 9331SOL    HW228893   1.979   0.704   0.193
 9332SOL     OW28894   4.293   4.080   1.261
 9332SOL    HW128895   4.389   4.074   1.289
 9332SOL    HW228896   4.284   4.047   1.167
 9333SOL     OW28897   3.990   4.032   0.160
 9333SOL    HW128898   3.998   4.006   0.256
 9333SOL    HW228899   4.081   4.036   0.119
 9334SOL     OW28900   5.910   6.044   3.325
 9334SOL    HW128901   5.945   6.088   3.408
 9334SOL    HW228902   5.878   6.113   3.261
 9335SOL     OW28903   0.989   0.900   6.878
 9335SOL    HW128904   0.916   0.842   6.841
 9335SOL    HW228905   1.029   0.955   6.805
 9336SOL     OW28906   3.486   5.702   6.012
 9336SOL    HW128907   3.476   5.620   6.068
 9336SOL    HW228908   3.419   5.701   5.938
 9337SOL     OW28909   3.846   1.544   4.644
 9337SOL    HW128910   3.861   1.558   4.546
 9337SOL    HW228911   3.934   1.529   4.690
 9338SOL     OW28912   5.432   6.937   1.655
 9338SOL    HW128913   5.417   0.003   1.689
 9338SOL    HW228914   5.364   6.916   1.584
 9339SOL     OW28915   5.714   6.470   1.100
 9339SOL    HW128916   5.662   6.515   1.172
 9339SOL    HW228917   5.722   6.372   1.121
 9340SOL     OW28918   4.425   4.517   3.792
 9340SOL    HW128919   4.434   4.613   3.819
 9340SOL    HW228920   4.390   4.511   3.699
 9341SOL     OW28921   0.159   5.448   1.145
 9341SOL    HW128922   0.166   5.529   1.087
 9341SOL    HW228923   0.226   5.380   1.117
 9342SOL     OW28924   2.882   6.218   3.867
 9342SOL    HW128925   2.883   6.203   3.966
 9342SOL    HW228926   2.926   6.306   3.847
 9343SOL     OW28927   5.682   4.181   1.980
 9343SOL    HW128928   5.682   4.139   1.890
 9343SOL    HW228929   5.588   4.182   2.016
 9344SOL     OW28930   4.800   6.695   2.941
 9344SOL    HW128931   4.877   6.662   2.995
 9344SOL    HW228932   4.833   6.725   2.851
 9345SOL     OW28933   6.813   5.788   1.982
 9345SOL    HW128934   6.859   5.846   1.914
 9345SOL    HW228935   6.718   5.773   1.955
 9346SOL     OW28936   5.434   1.241   1.353
 9346SOL    HW128937   5.392   1.267   1.440
 9346SOL    HW228938   5.529   1.271   1.351
 9347SOL     OW28939   2.966   3.840   0.174
 9347SOL    HW128940   2.919   3.881   0.097
 9347SOL    HW228941   2.937   3.884   0.259
 9348SOL     OW28942   2.693   6.680   2.309
 9348SOL    HW128943   2.761   6.703   2.378
 9348SOL    HW228944   2.635   6.605   2.342
 9349SOL     OW28945   6.291   4.955   3.046
 9349SOL    HW128946   6.293   4.956   2.946
 9349SOL    HW228947   6.363   5.015   3.081
 9350SOL     OW28948   6.969   2.844   4.981
 9350SOL    HW128949   6.941   2.826   4.886
 9350SOL    HW228950   6.918   2.783   5.042
 9351SOL     OW28951   2.914   6.471   6.828
 9351SOL    HW128952   2.977   6.488   6.752
 9351SOL    HW228953   2.857   6.552   6.843
 9352SOL     OW28954   3.605   1.855   6.166
 9352SOL    HW128955   3.515   1.859   6.122
 9352SOL    HW228956   3.593   1.832   6.263
 9353SOL     OW28957   0.615   4.048   1.111
 9353SOL    HW128958   0.642   4.008   1.199
 9353SOL    HW228959   0.647   3.989   1.037
 9354SOL     OW28960   0.193   1.543   6.268
 9354SOL    HW128961   0.131   1.475   6.309
 9354SOL    HW228962   0.180   1.631   6.314
 9355SOL     OW28963   0.369   2.050   4.434
 9355SOL    HW128964   0.443   2.112   4.406
 9355SOL    HW228965   0.282   2.084   4.399
 9356SOL     OW28966   4.564   6.933   2.641
 9356SOL    HW128967   4.531   6.848   2.681
 9356SOL    HW228968   4.491   6.977   2.590
 9357SOL     OW28969   1.623   3.513   6.124
 9357SOL    HW128970   1.575   3.486   6.041
 9357SOL    HW228971   1.698   3.450   6.142
 9358SOL     OW28972   0.155   2.952   1.854
 9358SOL    HW128973   0.227   2.949   1.785
 9358SOL    HW228974   0.165   3.036   1.909
 9359SOL     OW28975   1.819   4.049   5.407
 9359SOL    HW128976   1.795   4.098   5.324
 9359SOL    HW228977   1.900   3.993   5.390
 9360SOL     OW28978   0.679   4.710   6.828
 9360SOL    HW128979   0.708   4.656   6.907
 9360SOL    HW228980   0.587   4.746   6.845
 9361SOL     OW28981   1.198   5.326   2.818
 9361SOL    HW128982   1.183   5.290   2.910
 9361SOL    HW228983   1.296   5.342   2.805
 9362SOL     OW28984   1.990   2.630   2.792
 9362SOL    HW128985   1.962   2.614   2.887
 9362SOL    HW228986   2.065   2.568   2.768
 9363SOL     OW28987   3.173   6.376   1.533
 9363SOL    HW128988   3.149   6.371   1.436
 9363SOL    HW228989   3.218   6.291   1.561
 9364SOL     OW28990   3.023   3.136   6.476
 9364SOL    HW128991   3.081   3.204   6.521
 9364SOL    HW228992   3.067   3.046   6.482
 9365SOL     OW28993   2.571   1.946   3.993
 9365SOL    HW128994   2.583   1.990   4.082
 9365SOL    HW228995   2.485   1.978   3.952
 9366SOL     OW28996   4.030   5.342   6.223
 9366SOL    HW128997   3.988   5.343   6.132
 9366SOL    HW228998   4.076   5.429   6.240
 9367SOL     OW28999   6.908   6.628   2.630
 9367SOL    HW129000   7.004   6.605   2.650
 9367SOL    HW229001   6.878   6.577   2.550
 9368SOL     OW29002   3.384   0.475   3.065
 9368SOL    HW129003   3.377   0.521   2.976
 9368SOL    HW229004   3.476   0.486   3.101
 9369SOL     OW29005   0.058   6.625   4.010
 9369SOL    HW129006   0.132   6.690   3.994
 9369SOL    HW229007   0.042   6.570   3.928
 9370SOL     OW29008   5.529   0.633   4.348
 9370SOL    HW129009   5.469   0.696   4.298
 9370SOL    HW229010   5.480   0.547   4.364
 9371SOL     OW29011   2.413   4.748   0.474
 9371SOL    HW129012   2.413   4.784   0.381
 9371SOL    HW229013   2.380   4.818   0.537
 9372SOL     OW29014   4.765   0.047   1.354
 9372SOL    HW129015   4.727   0.075   1.266
 9372SOL    HW229016   4.736   0.110   1.426
 9373SOL     OW29017   4.762   2.143   1.644
 9373SOL    HW129018   4.843   2.169   1.592
 9373SOL    HW229019   4.768   2.047   1.671
 9374SOL     OW29020   0.207   2.693   0.145
 9374SOL    HW129021   0.158   2.663   0.226
 9374SOL    HW229022   0.165   2.777   0.110
 9375SOL     OW29023   0.376   1.685   1.156
 9375SOL    HW129024   0.392   1.623   1.232
 9375SOL    HW229025   0.449   1.674   1.088
 9376SOL     OW29026   2.214   4.050   1.396
 9376SOL    HW129027   2.254   3.963   1.424
 9376SOL    HW229028   2.198   4.107   1.477
 9377SOL     OW29029   1.883   5.275   3.307
 9377SOL    HW129030   1.906   5.350   3.368
 9377SOL    HW229031   1.836   5.311   3.226
 9378SOL     OW29032   2.444   1.328   3.506
 9378SOL    HW129033   2.385   1.293   3.433
 9378SOL    HW229034   2.389   1.351   3.586
 9379SOL     OW29035   4.903   6.849   5.392
 9379SOL    HW129036   4.960   6.928   5.417
 9379SOL    HW229037   4.808   6.879   5.380
 9380SOL     OW29038   3.909   5.722   5.827
 9380SOL    HW129039   3.871   5.736   5.736
 9380SOL    HW229040   3.850   5.768   5.894
 9381SOL     OW29041   4.835   2.807   5.926
 9381SOL    HW129042   4.799   2.865   5.999
 9381SOL    HW229043   4.819   2.850   5.838
 9382SOL     OW29044   4.222   0.335   4.230
 9382SOL    HW129045   4.143   0.278   4.254
 9382SOL    HW229046   4.207   0.375   4.139
 9383SOL     OW29047   5.587   5.133   4.505
 9383SOL    HW129048   5.543   5.223   4.502
 9383SOL    HW229049   5.601   5.106   4.601
 9384SOL     OW29050   4.128   0.247   1.865
 9384SOL    HW129051   4.084   0.333   1.894
 9384SOL    HW229052   4.092   0.219   1.776
 9385SOL     OW29053   4.541   1.709   3.591
 9385SOL    HW129054   4.455   1.679   3.550
 9385SOL    HW229055   4.539   1.691   3.690
 9386SOL     OW29056   3.272   5.930   5.143
 9386SOL    HW129057   3.354   5.894   5.099
 9386SOL    HW229058   3.250   5.873   5.223
 9387SOL     OW29059   2.522   2.086   0.341
 9387SOL    HW129060   2.563   2.147   0.409
 9387SOL    HW229061   2.562   2.104   0.251
 9388SOL     OW29062   2.660   6.021   3.249
 9388SOL    HW129063   2.677   6.005   3.152
 9388SOL    HW229064   2.739   6.067   3.290
 9389SOL     OW29065   2.331   6.970   3.227
 9389SOL    HW129066   2.382   6.911   3.288
 9389SOL    HW229067   2.309   0.029   3.274
 9390SOL     OW29068   5.328   4.743   6.781
 9390SOL    HW129069   5.420   4.710   6.761
 9390SOL    HW229070   5.263   4.668   6.774
 9391SOL     OW29071   0.932   0.814   5.983
 9391SOL    HW129072   0.980   0.853   5.904
 9391SOL    HW229073   0.842   0.857   5.990
 9392SOL     OW29074   5.100   5.420   5.721
 9392SOL    HW129075   5.095   5.321   5.710
 9392SOL    HW229076   5.161   5.442   5.797
 9393SOL     OW29077   2.441   0.280   6.137
 9393SOL    HW129078   2.518   0.230   6.177
 9393SOL    HW229079   2.426   0.364   6.189
 9394SOL     OW29080   6.444   1.154   1.667
 9394SOL    HW129081   6.363   1.206   1.692
 9394SOL    HW229082   6.416   1.063   1.634
 9395SOL     OW29083   2.425   0.742   0.900
 9395SOL    HW129084   2.434   0.796   0.816
 9395SOL    HW229085   2.445   0.646   0.880
 9396SOL     OW29086   1.975   4.177   4.834
 9396SOL    HW129087   2.048   4.230   4.878
 9396SOL    HW229088   2.002   4.081   4.828
 9397SOL     OW29089   3.426   5.951   6.106
 9397SOL    HW129090   3.426   5.861   6.064
 9397SOL    HW229091   3.413   6.021   6.036
 9398SOL     OW29092   6.111   1.189   5.445
 9398SOL    HW129093   6.063   1.125   5.505
 9398SOL    HW229094   6.150   1.263   5.500
 9399SOL     OW29095   1.002   2.727   5.095
 9399SOL    HW129096   1.081   2.784   5.071
 9399SOL    HW229097   0.968   2.753   5.185
 9400SOL     OW29098   5.139   0.911   1.205
 9400SOL    HW129099   5.061   0.950   1.155
 9400SOL    HW229100   5.191   0.851   1.144
 9401SOL     OW29101   6.752   1.891   2.868
 9401SOL    HW129102   6.660   1.856   2.852
 9401SOL    HW229103   6.792   1.923   2.782
 9402SOL     OW29104   1.627   4.325   3.119
 9402SOL    HW129105   1.654   4.278   3.203
 9402SOL    HW229106   1.708   4.346   3.065
 9403SOL     OW29107   6.038   1.546   2.024
 9403SOL    HW129108   6.050   1.467   2.085
 9403SOL    HW229109   6.026   1.629   2.079
 9404SOL     OW29110   0.666   1.981   1.095
 9404SOL    HW129111   0.597   2.014   1.029
 9404SOL    HW229112   0.757   1.991   1.056
 9405SOL     OW29113   2.206   4.378   3.742
 9405SOL    HW129114   2.132   4.368   3.676
 9405SOL    HW229115   2.213   4.295   3.797
 9406SOL     OW29116   0.782   2.626   6.436
 9406SOL    HW129117   0.755   2.531   6.419
 9406SOL    HW229118   0.848   2.655   6.366
 9407SOL     OW29119   2.448   4.850   3.859
 9407SOL    HW129120   2.383   4.926   3.847
 9407SOL    HW229121   2.488   4.827   3.771
 9408SOL     OW29122   6.752   3.567   5.979
 9408SOL    HW129123   6.812   3.552   6.058
 9408SOL    HW229124   6.789   3.520   5.899
 9409SOL     OW29125   6.633   5.758   1.267
 9409SOL    HW129126   6.707   5.700   1.234
 9409SOL    HW229127   6.611   5.735   1.362
 9410SOL     OW29128   2.646   0.706   2.238
 9410SOL    HW129129   2.697   0.752   2.310
 9410SOL    HW229130   2.650   0.762   2.154
 9411SOL     OW29131   3.842   3.318   3.316
 9411SOL    HW129132   3.933   3.304   3.354
 9411SOL    HW229133   3.773   3.290   3.383
 9412SOL     OW29134   1.761   1.134   2.188
 9412SOL    HW129135   1.772   1.111   2.091
 9412SOL    HW229136   1.814   1.071   2.243
 9413SOL     OW29137   4.616   4.744   3.448
 9413SOL    HW129138   4.587   4.833   3.412
 9413SOL    HW229139   4.536   4.689   3.470
 9414SOL     OW29140   2.806   1.558   3.687
 9414SOL    HW129141   2.717   1.592   3.719
 9414SOL    HW229142   2.865   1.541   3.766
 9415SOL     OW29143   2.213   6.971   2.479
 9415SOL    HW129144   2.229   6.985   2.381
 9415SOL    HW229145   2.121   6.934   2.493
 9416SOL     OW29146   0.398   0.899   5.836
 9416SOL    HW129147   0.341   0.859   5.764
 9416SOL    HW229148   0.494   0.880   5.817
 9417SOL     OW29149   3.185   0.721   1.001
 9417SOL    HW129150   3.181   0.683   0.909
 9417SOL    HW229151   3.214   0.651   1.066
 9418SOL     OW29152   2.288   1.099   1.090
 9418SOL    HW129153   2.378   1.102   1.134
 9418SOL    HW229154   2.239   1.184   1.109
 9419SOL     OW29155   2.247   3.782   6.526
 9419SOL    HW129156   2.330   3.803   6.579
 9419SOL    HW229157   2.258   3.694   6.480
 9420SOL     OW29158   5.914   4.365   0.433
 9420SOL    HW129159   5.921   4.465   0.435
 9420SOL    HW229160   5.898   4.334   0.339
 9421SOL     OW29161   3.316   6.065   4.870
 9421SOL    HW129162   3.302   6.160   4.844
 9421SOL    HW229163   3.283   6.051   4.964
 9422SOL     OW29164   3.217   5.573   2.998
 9422SOL    HW129165   3.182   5.612   2.913
 9422SOL    HW229166   3.309   5.536   2.982
 9423SOL     OW29167   4.293   6.223   3.465
 9423SOL    HW129168   4.233   6.299   3.439
 9423SOL    HW229169   4.383   6.259   3.491
 9424SOL     OW29170   5.032   1.890   4.607
 9424SOL    HW129171   4.937   1.878   4.577
 9424SOL    HW229172   5.093   1.847   4.541
 9425SOL     OW29173   5.462   4.341   1.647
 9425SOL    HW129174   5.481   4.436   1.671
 9425SOL    HW229175   5.470   4.329   1.548
 9426SOL     OW29176   3.267   1.441   6.335
 9426SOL    HW129177   3.351   1.445   6.280
 9426SOL    HW229178   3.232   1.348   6.336
 9427SOL     OW29179   2.971   5.209   3.096
 9427SOL    HW129180   3.034   5.287   3.099
 9427SOL    HW229181   2.974   5.169   3.005
 9428SOL     OW29182   0.479   0.486   0.919
 9428SOL    HW129183   0.453   0.548   0.993
 9428SOL    HW229184   0.406   0.419   0.904
 9429SOL     OW29185   2.083   3.599   4.144
 9429SOL    HW129186   2.112   3.688   4.107
 9429SOL    HW229187   1.987   3.606   4.173
 9430SOL     OW29188   0.299   2.374   5.009
 9430SOL    HW129189   0.300   2.283   4.966
 9430SOL    HW229190   0.292   2.444   4.938
 9431SOL     OW29191   6.764   4.681   1.661
 9431SOL    HW129192   6.852   4.689   1.615
 9431SOL    HW229193   6.706   4.616   1.612
 9432SOL     OW29194   6.722   0.640   4.127
 9432SOL    HW129195   6.653   0.664   4.058
 9432SOL    HW229196   6.681   0.581   4.196
 9433SOL     OW29197   3.187   6.592   2.822
 9433SOL    HW129198   3.092   6.565   2.832
 9433SOL    HW229199   3.192   6.684   2.783
 9434SOL     OW29200   5.666   5.944   2.296
 9434SOL    HW129201   5.638   5.895   2.378
 9434SOL    HW229202   5.763   5.968   2.304
 9435SOL     OW29203   6.843   1.791   3.118
 9435SOL    HW129204   6.808   1.808   3.025
 9435SOL    HW229205   6.942   1.779   3.115
 9436SOL     OW29206   1.592   1.771   2.458
 9436SOL    HW129207   1.617   1.860   2.496
 9436SOL    HW229208   1.505   1.741   2.497
 9437SOL     OW29209   0.106   6.122   3.118
 9437SOL    HW129210   0.134   6.194   3.182
 9437SOL    HW229211   0.057   6.163   3.041
 9438SOL     OW29212   0.946   0.177   1.954
 9438SOL    HW129213   0.978   0.206   2.044
 9438SOL    HW229214   0.943   0.256   1.893
 9439SOL     OW29215   1.016   2.950   0.772
 9439SOL    HW129216   0.922   2.985   0.770
 9439SOL    HW229217   1.024   2.874   0.707
 9440SOL     OW29218   3.922   4.863   3.261
 9440SOL    HW129219   3.913   4.963   3.252
 9440SOL    HW229220   3.850   4.829   3.321
 9441SOL     OW29221   6.594   5.049   6.302
 9441SOL    HW129222   6.511   5.026   6.250
 9441SOL    HW229223   6.668   5.070   6.238
 9442SOL     OW29224   5.021   3.651   1.859
 9442SOL    HW129225   4.936   3.610   1.827
 9442SOL    HW229226   5.068   3.587   1.920
 9443SOL     OW29227   2.581   5.753   0.510
 9443SOL    HW129228   2.531   5.838   0.490
 9443SOL    HW229229   2.658   5.745   0.446
 9444SOL     OW29230   1.698   3.955   0.833
 9444SOL    HW129231   1.681   3.941   0.931
 9444SOL    HW229232   1.785   4.002   0.821
 9445SOL     OW29233   6.727   3.417   3.328
 9445SOL    HW129234   6.750   3.456   3.417
 9445SOL    HW229235   6.669   3.337   3.340
 9446SOL     OW29236   6.639   5.674   4.490
 9446SOL    HW129237   6.698   5.602   4.453
 9446SOL    HW229238   6.670   5.697   4.583
 9447SOL     OW29239   5.542   4.634   3.931
 9447SOL    HW129240   5.531   4.687   4.015
 9447SOL    HW229241   5.452   4.612   3.893
 9448SOL     OW29242   6.645   0.343   5.910
 9448SOL    HW129243   6.711   0.308   5.976
 9448SOL    HW229244   6.583   0.268   5.882
 9449SOL     OW29245   5.397   6.569   0.092
 9449SOL    HW129246   5.429   6.609   0.178
 9449SOL    HW229247   5.388   6.470   0.103
 9450SOL     OW29248   2.358   5.718   3.202
 9450SOL    HW129249   2.366   5.704   3.104
 9450SOL    HW229250   2.377   5.814   3.224
 9451SOL     OW29251   3.948   5.487   5.131
 9451SOL    HW129252   3.948   5.438   5.218
 9451SOL    HW229253   3.855   5.520   5.112
 9452SOL     OW29254   1.280   4.056   0.286
 9452SOL    HW129255   1.319   4.079   0.197
 9452SOL    HW229256   1.353   4.048   0.353
 9453SOL     OW29257   3.104   5.595   2.744
 9453SOL    HW129258   3.094   5.695   2.740
 9453SOL    HW229259   3.187   5.568   2.696
 9454SOL     OW29260   3.804   3.749   6.420
 9454SOL    HW129261   3.750   3.833   6.433
 9454SOL    HW229262   3.889   3.772   6.372
 9455SOL     OW29263   2.596   2.137   3.144
 9455SOL    HW129264   2.621   2.194   3.222
 9455SOL    HW229265   2.506   2.096   3.159
 9456SOL     OW29266   6.784   3.749   0.815
 9456SOL    HW129267   6.810   3.813   0.887
 9456SOL    HW229268   6.858   3.683   0.800
 9457SOL     OW29269   0.792   4.790   4.605
 9457SOL    HW129270   0.745   4.780   4.518
 9457SOL    HW229271   0.752   4.727   4.672
 9458SOL     OW29272   0.565   3.915   6.834
 9458SOL    HW129273   0.588   3.818   6.834
 9458SOL    HW229274   0.556   3.948   6.740
 9459SOL     OW29275   5.463   4.747   4.214
 9459SOL    HW129276   5.460   4.834   4.263
 9459SOL    HW229277   5.405   4.680   4.261
 9460SOL     OW29278   1.818   3.744   4.999
 9460SOL    HW129279   1.778   3.727   5.089
 9460SOL    HW229280   1.916   3.725   5.002
 9461SOL     OW29281   0.616   1.982   1.811
 9461SOL    HW129282   0.644   1.886   1.806
 9461SOL    HW229283   0.533   1.995   1.757
 9462SOL     OW29284   1.321   2.958   3.370
 9462SOL    HW129285   1.403   3.013   3.358
 9462SOL    HW229286   1.347   2.869   3.409
 9463SOL     OW29287   5.575   0.253   1.478
 9463SOL    HW129288   5.560   0.351   1.468
 9463SOL    HW229289   5.631   0.235   1.559
 9464SOL     OW29290   5.911   0.475   0.785
 9464SOL    HW129291   5.899   0.463   0.686
 9464SOL    HW229292   5.829   0.516   0.824
 9465SOL     OW29293   0.349   3.242   1.791
 9465SOL    HW129294   0.376   3.222   1.886
 9465SOL    HW229295   0.357   3.159   1.736
 9466SOL     OW29296   3.524   4.570   5.283
 9466SOL    HW129297   3.595   4.573   5.353
 9466SOL    HW229298   3.474   4.657   5.283
 9467SOL     OW29299   0.814   3.213   1.005
 9467SOL    HW129300   0.831   3.129   1.057
 9467SOL    HW229301   0.803   3.289   1.068
 9468SOL     OW29302   5.709   3.808   6.717
 9468SOL    HW129303   5.711   3.908   6.711
 9468SOL    HW229304   5.620   3.778   6.752
 9469SOL     OW29305   0.655   5.676   1.210
 9469SOL    HW129306   0.567   5.713   1.181
 9469SOL    HW229307   0.650   5.649   1.306
 9470SOL     OW29308   5.059   3.510   0.062
 9470SOL    HW129309   4.990   3.575   0.093
 9470SOL    HW229310   5.049   3.494   6.991
 9471SOL     OW29311   6.438   2.090   4.685
 9471SOL    HW129312   6.381   2.146   4.626
 9471SOL    HW229313   6.380   2.035   4.746
 9472SOL     OW29314   0.243   3.740   5.194
 9472SOL    HW129315   0.305   3.816   5.213
 9472SOL    HW229316   0.149   3.768   5.213
 9473SOL     OW29317   3.366   4.542   0.558
 9473SOL    HW129318   3.463   4.546   0.582
 9473SOL    HW229319   3.341   4.448   0.532
 9474SOL     OW29320   6.364   3.460   1.532
 9474SOL    HW129321   6.446   3.474   1.588
 9474SOL    HW229322   6.376   3.378   1.475
 9475SOL     OW29323   4.005   3.276   1.076
 9475SOL    HW129324   4.068   3.200   1.064
 9475SOL    HW229325   4.004   3.304   1.172
 9476SOL     OW29326   3.932   3.960   4.663
 9476SOL    HW129327   4.002   4.018   4.705
 9476SOL    HW229328   3.976   3.897   4.599
 9477SOL     OW29329   0.130   2.604   0.764
 9477SOL    HW129330   0.079   2.645   0.839
 9477SOL    HW229331   0.173   2.676   0.709
 9478SOL     OW29332   5.549   3.258   0.832
 9478SOL    HW129333   5.508   3.265   0.741
 9478SOL    HW229334   5.477   3.254   0.901
 9479SOL     OW29335   4.413   6.706   0.889
 9479SOL    HW129336   4.425   6.748   0.799
 9479SOL    HW229337   4.392   6.609   0.877
 9480SOL     OW29338   6.431   5.048   0.639
 9480SOL    HW129339   6.449   5.073   0.544
 9480SOL    HW229340   6.374   5.118   0.682
 9481SOL     OW29341   5.084   2.670   2.551
 9481SOL    HW129342   5.120   2.744   2.607
 9481SOL    HW229343   5.084   2.699   2.455
 9482SOL     OW29344   0.175   1.009   3.169
 9482SOL    HW129345   0.209   0.959   3.089
 9482SOL    HW229346   0.251   1.029   3.230
 9483SOL     OW29347   1.583   0.628   0.541
 9483SOL    HW129348   1.661   0.582   0.583
 9483SOL    HW229349   1.560   0.583   0.454
 9484SOL     OW29350   3.517   0.438   4.710
 9484SOL    HW129351   3.431   0.395   4.739
 9484SOL    HW229352   3.566   0.378   4.648
 9485SOL     OW29353   0.388   1.445   1.410
 9485SOL    HW129354   0.402   1.348   1.391
 9485SOL    HW229355   0.312   1.456   1.475
 9486SOL     OW29356   4.449   6.084   1.050
 9486SOL    HW129357   4.374   6.033   1.093
 9486SOL    HW229358   4.423   6.111   0.958
 9487SOL     OW29359   3.243   4.132   3.737
 9487SOL    HW129360   3.274   4.213   3.786
 9487SOL    HW229361   3.196   4.070   3.801
 9488SOL     OW29362   2.861   0.014   0.987
 9488SOL    HW129363   2.933   0.081   1.003
 9488SOL    HW229364   2.784   0.032   1.047
 9489SOL     OW29365   5.318   4.143   1.287
 9489SOL    HW129366   5.303   4.080   1.362
 9489SOL    HW229367   5.321   4.093   1.201
 9490SOL     OW29368   6.396   5.552   3.488
 9490SOL    HW129369   6.456   5.627   3.517
 9490SOL    HW229370   6.385   5.487   3.563
 9491SOL     OW29371   5.128   5.428   3.619
 9491SOL    HW129372   5.126   5.458   3.715
 9491SOL    HW229373   5.034   5.409   3.589
 9492SOL     OW29374   3.360   3.517   4.410
 9492SOL    HW129375   3.312   3.514   4.498
 9492SOL    HW229376   3.458   3.531   4.426
 9493SOL     OW29377   3.046   5.701   4.263
 9493SOL    HW129378   2.948   5.698   4.283
 9493SOL    HW229379   3.063   5.653   4.176
 9494SOL     OW29380   5.758   2.804   2.926
 9494SOL    HW129381   5.767   2.899   2.955
 9494SOL    HW229382   5.764   2.799   2.827
 9495SOL     OW29383   6.485   1.993   2.617
 9495SOL    HW129384   6.578   1.976   2.585
 9495SOL    HW229385   6.463   1.929   2.690
 9496SOL     OW29386   5.611   3.572   1.549
 9496SOL    HW129387   5.622   3.645   1.617
 9496SOL    HW229388   5.544   3.505   1.582
 9497SOL     OW29389   4.957   5.856   4.903
 9497SOL    HW129390   5.015   5.922   4.856
 9497SOL    HW229391   4.868   5.897   4.921
 9498SOL     OW29392   5.630   5.102   4.785
 9498SOL    HW129393   5.720   5.061   4.767
 9498SOL    HW229394   5.628   5.139   4.878
 9499SOL     OW29395   1.592   5.820   5.448
 9499SOL    HW129396   1.690   5.833   5.440
 9499SOL    HW229397   1.568   5.805   5.544
 9500SOL     OW29398   4.170   6.763   0.299
 9500SOL    HW129399   4.153   6.761   0.397
 9500SOL    HW229400   4.093   6.722   0.251
 9501SOL     OW29401   2.453   1.473   4.934
 9501SOL    HW129402   2.487   1.434   4.849
 9501SOL    HW229403   2.483   1.568   4.941
 9502SOL     OW29404   5.562   3.229   4.840
 9502SOL    HW129405   5.484   3.290   4.824
 9502SOL    HW229406   5.571   3.165   4.764
 9503SOL     OW29407   6.777   2.396   0.745
 9503SOL    HW129408   6.796   2.336   0.667
 9503SOL    HW229409   6.847   2.383   0.815
 9504SOL     OW29410   6.853   3.730   1.303
 9504SOL    HW129411   6.793   3.683   1.239
 9504SOL    HW229412   6.840   3.828   1.294
 9505SOL     OW29413   5.198   4.549   5.240
 9505SOL    HW129414   5.126   4.480   5.234
 9505SOL    HW229415   5.160   4.639   5.222
 9506SOL     OW29416   1.602   2.314   0.382
 9506SOL    HW129417   1.657   2.396   0.398
 9506SOL    HW229418   1.662   2.239   0.354
 9507SOL     OW29419   0.518   0.990   2.046
 9507SOL    HW129420   0.525   0.890   2.045
 9507SOL    HW229421   0.609   1.029   2.031
 9508SOL     OW29422   5.831   1.854   2.437
 9508SOL    HW129423   5.814   1.949   2.463
 9508SOL    HW229424   5.897   1.851   2.362
 9509SOL     OW29425   0.408   0.869   3.756
 9509SOL    HW129426   0.454   0.786   3.726
 9509SOL    HW229427   0.327   0.846   3.809
 9510SOL     OW29428   1.274   3.792   3.843
 9510SOL    HW129429   1.343   3.803   3.771
 9510SOL    HW229430   1.230   3.880   3.861
 9511SOL     OW29431   2.125   0.182   0.513
 9511SOL    HW129432   2.029   0.184   0.483
 9511SOL    HW229433   2.175   0.257   0.470
 9512SOL     OW29434   6.826   1.699   0.547
 9512SOL    HW129435   6.812   1.672   0.642
 9512SOL    HW229436   6.913   1.662   0.514
 9513SOL     OW29437   2.834   4.079   6.364
 9513SOL    HW129438   2.921   4.058   6.410
 9513SOL    HW229439   2.838   4.047   6.269
 9514SOL     OW29440   2.306   4.938   6.592
 9514SOL    HW129441   2.330   4.861   6.533
 9514SOL    HW229442   2.261   5.009   6.538
 9515SOL     OW29443   1.767   6.069   1.959
 9515SOL    HW129444   1.861   6.100   1.947
 9515SOL    HW229445   1.741   6.079   2.056
 9516SOL     OW29446   5.772   4.903   6.710
 9516SOL    HW129447   5.854   4.961   6.711
 9516SOL    HW229448   5.694   4.957   6.741
 9517SOL     OW29449   1.777   4.099   1.339
 9517SOL    HW129450   1.838   4.177   1.355
 9517SOL    HW229451   1.709   4.095   1.412
 9518SOL     OW29452   1.740   1.492   1.009
 9518SOL    HW129453   1.812   1.561   1.002
 9518SOL    HW229454   1.651   1.537   1.019
 9519SOL     OW29455   3.512   3.023   5.128
 9519SOL    HW129456   3.526   2.996   5.223
 9519SOL    HW229457   3.452   2.958   5.083
 9520SOL     OW29458   2.589   1.053   2.962
 9520SOL    HW129459   2.661   1.068   3.030
 9520SOL    HW229460   2.542   1.140   2.944
 9521SOL     OW29461   4.938   5.951   2.589
 9521SOL    HW129462   4.858   6.004   2.618
 9521SOL    HW229463   5.010   6.013   2.558
 9522SOL     OW29464   2.980   5.831   1.389
 9522SOL    HW129465   3.013   5.874   1.473
 9522SOL    HW229466   2.954   5.736   1.408
 9523SOL     OW29467   3.536   5.264   4.658
 9523SOL    HW129468   3.524   5.181   4.603
 9523SOL    HW229469   3.552   5.341   4.597
 9524SOL     OW29470   3.961   2.213   1.081
 9524SOL    HW129471   3.962   2.116   1.059
 9524SOL    HW229472   4.055   2.247   1.087
 9525SOL     OW29473   2.757   2.787   5.792
 9525SOL    HW129474   2.784   2.857   5.858
 9525SOL    HW229475   2.837   2.755   5.742
 9526SOL     OW29476   4.988   5.818   1.619
 9526SOL    HW129477   4.939   5.889   1.669
 9526SOL    HW229478   4.949   5.728   1.640
 9527SOL     OW29479   0.518   0.152   2.758
 9527SOL    HW129480   0.611   0.131   2.788
 9527SOL    HW229481   0.506   0.125   2.663
 9528SOL     OW29482   6.914   0.700   0.597
 9528SOL    HW129483   6.939   0.745   0.512
 9528SOL    HW229484   6.817   0.678   0.597
 9529SOL     OW29485   6.186   2.895   5.555
 9529SOL    HW129486   6.272   2.947   5.554
 9529SOL    HW229487   6.134   2.914   5.472
 9530SOL     OW29488   1.913   3.073   3.223
 9530SOL    HW129489   2.009   3.072   3.249
 9530SOL    HW229490   1.856   3.055   3.303
 9531SOL     OW29491   4.008   5.841   2.987
 9531SOL    HW129492   3.971   5.931   3.010
 9531SOL    HW229493   4.105   5.837   3.011
 9532SOL     OW29494   0.515   6.929   1.887
 9532SOL    HW129495   0.497   6.831   1.895
 9532SOL    HW229496   0.553   6.964   1.973
 9533SOL     OW29497   6.873   0.539   4.807
 9533SOL    HW129498   6.775   0.560   4.801
 9533SOL    HW229499   6.924   0.601   4.747
 9534SOL     OW29500   5.518   3.201   5.138
 9534SOL    HW129501   5.512   3.206   5.038
 9534SOL    HW229502   5.553   3.288   5.174
 9535SOL     OW29503   2.644   1.203   5.491
 9535SOL    HW129504   2.698   1.220   5.408
 9535SOL    HW229505   2.594   1.117   5.481
 9536SOL     OW29506   2.910   4.994   5.315
 9536SOL    HW129507   2.952   4.920   5.262
 9536SOL    HW229508   2.980   5.062   5.337
 9537SOL     OW29509   2.297   6.929   2.202
 9537SOL    HW129510   2.320   6.857   2.136
 9537SOL    HW229511   2.381   6.970   2.237
 9538SOL     OW29512   6.512   2.021   4.264
 9538SOL    HW129513   6.539   2.114   4.241
 9538SOL    HW229514   6.515   1.964   4.181
 9539SOL     OW29515   1.961   3.822   5.388
 9539SOL    HW129516   1.869   3.796   5.359
 9539SOL    HW229517   2.024   3.815   5.310
 9540SOL     OW29518   4.758   4.174   4.796
 9540SOL    HW129519   4.744   4.132   4.886
 9540SOL    HW229520   4.721   4.266   4.796
 9541SOL     OW29521   2.251   1.679   5.688
 9541SOL    HW129522   2.232   1.751   5.755
 9541SOL    HW229523   2.349   1.660   5.685
 9542SOL     OW29524   4.896   3.902   4.926
 9542SOL    HW129525   4.866   3.806   4.924
 9542SOL    HW229526   4.829   3.956   4.977
 9543SOL     OW29527   3.666   1.032   4.210
 9543SOL    HW129528   3.584   1.088   4.218
 9543SOL    HW229529   3.670   0.992   4.118
 9544SOL     OW29530   6.881   1.360   2.450
 9544SOL    HW129531   6.876   1.263   2.475
 9544SOL    HW229532   6.840   1.373   2.360
 9545SOL     OW29533   6.452   4.743   3.868
 9545SOL    HW129534   6.507   4.660   3.856
 9545SOL    HW229535   6.356   4.723   3.848
 9546SOL     OW29536   2.543   2.616   5.877
 9546SOL    HW129537   2.550   2.543   5.809
 9546SOL    HW229538   2.588   2.699   5.843
 9547SOL     OW29539   1.709   6.056   4.264
 9547SOL    HW129540   1.707   6.018   4.172
 9547SOL    HW229541   1.693   5.983   4.331
 9548SOL     OW29542   6.416   6.017   4.854
 9548SOL    HW129543   6.399   6.105   4.809
 9548SOL    HW229544   6.512   6.011   4.881
 9549SOL     OW29545   2.810   4.082   1.465
 9549SOL    HW129546   2.768   4.156   1.413
 9549SOL    HW229547   2.846   4.013   1.402
 9550SOL     OW29548   7.010   1.301   6.690
 9550SOL    HW129549   0.065   1.264   6.647
 9550SOL    HW229550   6.939   1.317   6.621
 9551SOL     OW29551   0.122   0.051   4.461
 9551SOL    HW129552   0.132   0.141   4.505
 9551SOL    HW229553   0.027   0.020   4.470
 9552SOL     OW29554   0.585   6.330   2.153
 9552SOL    HW129555   0.667   6.318   2.097
 9552SOL    HW229556   0.600   6.402   2.221
 9553SOL     OW29557   5.859   4.056   6.525
 9553SOL    HW129558   5.788   4.066   6.595
 9553SOL    HW229559   5.815   4.048   6.435
 9554SOL     OW29560   2.460   0.723   1.284
 9554SOL    HW129561   2.476   0.785   1.360
 9554SOL    HW229562   2.385   0.758   1.228
 9555SOL     OW29563   0.029   1.435   0.691
 9555SOL    HW129564   6.970   1.409   0.733
 9555SOL    HW229565   0.042   1.534   0.701
 9556SOL     OW29566   2.341   2.654   1.284
 9556SOL    HW129567   2.318   2.558   1.304
 9556SOL    HW229568   2.381   2.659   1.192
 9557SOL     OW29569   6.395   0.889   2.931
 9557SOL    HW129570   6.481   0.938   2.942
 9557SOL    HW229571   6.339   0.936   2.862
 9558SOL     OW29572   5.514   5.184   4.119
 9558SOL    HW129573   5.599   5.154   4.076
 9558SOL    HW229574   5.524   5.279   4.148
 9559SOL     OW29575   7.008   3.404   1.505
 9559SOL    HW129576   0.066   3.418   1.557
 9559SOL    HW229577   6.939   3.471   1.535
 9560SOL     OW29578   1.070   1.504   2.444
 9560SOL    HW129579   1.041   1.480   2.351
 9560SOL    HW229580   1.170   1.500   2.450
 9561SOL     OW29581   2.150   0.101   0.767
 9561SOL    HW129582   2.199   0.014   0.763
 9561SOL    HW229583   2.137   0.135   0.674
 9562SOL     OW29584   2.917   6.803   5.128
 9562SOL    HW129585   2.874   6.891   5.107
 9562SOL    HW229586   2.902   6.780   5.224
 9563SOL     OW29587   6.594   6.285   0.053
 9563SOL    HW129588   6.636   6.348   7.015
 9563SOL    HW229589   6.644   6.198   0.052
 9564SOL     OW29590   2.513   0.442   6.543
 9564SOL    HW129591   2.423   0.406   6.567
 9564SOL    HW229592   2.527   0.530   6.589
 9565SOL     OW29593   4.451   5.981   5.062
 9565SOL    HW129594   4.367   5.935   5.033
 9565SOL    HW229595   4.499   5.925   5.128
 9566SOL     OW29596   3.055   4.487   0.539
 9566SOL    HW129597   3.143   4.443   0.560
 9566SOL    HW229598   2.981   4.420   0.551
 9567SOL     OW29599   6.494   5.743   6.609
 9567SOL    HW129600   6.504   5.644   6.611
 9567SOL    HW229601   6.459   5.771   6.520
 9568SOL     OW29602   4.422   2.752   5.990
 9568SOL    HW129603   4.496   2.689   5.967
 9568SOL    HW229604   4.378   2.784   5.906
 9569SOL     OW29605   6.615   1.144   1.295
 9569SOL    HW129606   6.534   1.201   1.283
 9569SOL    HW229607   6.646   1.151   1.390
 9570SOL     OW29608   1.280   1.888   1.787
 9570SOL    HW129609   1.250   1.861   1.696
 9570SOL    HW229610   1.348   1.960   1.780
 9571SOL     OW29611   3.217   3.509   6.906
 9571SOL    HW129612   3.287   3.574   6.877
 9571SOL    HW229613   3.175   3.542   6.991
 9572SOL     OW29614   2.022   5.248   0.788
 9572SOL    HW129615   2.076   5.178   0.741
 9572SOL    HW229616   1.959   5.291   0.723
 9573SOL     OW29617   0.629   1.518   6.706
 9573SOL    HW129618   0.623   1.607   6.750
 9573SOL    HW229619   0.539   1.492   6.670
 9574SOL     OW29620   3.937   3.071   4.841
 9574SOL    HW129621   3.860   3.048   4.901
 9574SOL    HW229622   3.915   3.045   4.747
 9575SOL     OW29623   5.363   0.711   0.600
 9575SOL    HW129624   5.448   0.762   0.582
 9575SOL    HW229625   5.295   0.772   0.641
 9576SOL     OW29626   3.246   1.871   3.114
 9576SOL    HW129627   3.343   1.848   3.111
 9576SOL    HW229628   3.235   1.965   3.147
 9577SOL     OW29629   1.459   0.505   2.507
 9577SOL    HW129630   1.554   0.486   2.485
 9577SOL    HW229631   1.429   0.587   2.457
 9578SOL     OW29632   6.182   3.437   2.953
 9578SOL    HW129633   6.274   3.445   2.914
 9578SOL    HW229634   6.172   3.347   2.996
 9579SOL     OW29635   1.188   6.470   2.691
 9579SOL    HW129636   1.136   6.409   2.631
 9579SOL    HW229637   1.125   6.531   2.740
 9580SOL     OW29638   5.372   3.563   0.220
 9580SOL    HW129639   5.329   3.568   0.310
 9580SOL    HW229640   5.382   3.467   0.193
 9581SOL     OW29641   2.375   4.919   5.979
 9581SOL    HW129642   2.342   4.867   5.900
 9581SOL    HW229643   2.332   5.008   5.981
 9582SOL     OW29644   4.313   4.680   4.313
 9582SOL    HW129645   4.340   4.743   4.386
 9582SOL    HW229646   4.226   4.709   4.273
 9583SOL     OW29647   2.184   3.261   1.790
 9583SOL    HW129648   2.128   3.330   1.744
 9583SOL    HW229649   2.238   3.305   1.862
 9584SOL     OW29650   5.631   5.770   6.866
 9584SOL    HW129651   5.549   5.769   6.923
 9584SOL    HW229652   5.703   5.715   6.909
 9585SOL     OW29653   6.478   0.680   2.789
 9585SOL    HW129654   6.461   0.760   2.847
 9585SOL    HW229655   6.546   0.621   2.833
 9586SOL     OW29656   5.821   3.770   2.945
 9586SOL    HW129657   5.846   3.680   2.980
 9586SOL    HW229658   5.734   3.798   2.983
 9587SOL     OW29659   6.532   0.338   2.192
 9587SOL    HW129660   6.485   0.271   2.250
 9587SOL    HW229661   6.624   0.304   2.171
 9588SOL     OW29662   0.268   1.272   1.774
 9588SOL    HW129663   0.310   1.355   1.811
 9588SOL    HW229664   0.172   1.290   1.755
 9589SOL     OW29665   2.699   5.788   6.959
 9589SOL    HW129666   2.642   5.864   6.988
 9589SOL    HW229667   2.643   5.719   6.914
 9590SOL     OW29668   0.492   4.600   2.409
 9590SOL    HW129669   0.502   4.696   2.436
 9590SOL    HW229670   0.448   4.595   2.320
 9591SOL     OW29671   2.901   6.042   0.179
 9591SOL    HW129672   2.919   5.943   0.180
 9591SOL    HW229673   2.897   6.074   0.085
 9592SOL     OW29674   3.973   5.306   2.806
 9592SOL    HW129675   3.965   5.236   2.876
 9592SOL    HW229676   3.983   5.396   2.849
 9593SOL     OW29677   4.965   1.302   4.605
 9593SOL    HW129678   5.055   1.331   4.575
 9593SOL    HW229679   4.959   1.202   4.603
 9594SOL     OW29680   6.855   6.228   3.254
 9594SOL    HW129681   6.862   6.130   3.232
 9594SOL    HW229682   6.816   6.239   3.345
 9595SOL     OW29683   2.144   4.993   5.153
 9595SOL    HW129684   2.139   5.040   5.064
 9595SOL    HW229685   2.239   4.968   5.171
 9596SOL     OW29686   0.392   4.925   6.560
 9596SOL    HW129687   0.488   4.946   6.576
 9596SOL    HW229688   0.335   4.980   6.621
 9597SOL     OW29689   0.103   3.814   1.348
 9597SOL    HW129690   0.007   3.799   1.372
 9597SOL    HW229691   0.157   3.735   1.377
 9598SOL     OW29692   0.428   4.311   5.539
 9598SOL    HW129693   0.332   4.336   5.523
 9598SOL    HW229694   0.475   4.301   5.451
 9599SOL     OW29695   3.509   0.612   5.074
 9599SOL    HW129696   3.591   0.556   5.061
 9599SOL    HW229697   3.460   0.620   4.988
 9600SOL     OW29698   1.645   0.089   6.094
 9600SOL    HW129699   1.635   0.182   6.058
 9600SOL    HW229700   1.555   0.052   6.116
 9601SOL     OW29701   6.124   4.078   6.519
 9601SOL    HW129702   6.153   4.024   6.598
 9601SOL    HW229703   6.026   4.066   6.504
 9602SOL     OW29704   6.951   4.868   6.905
 9602SOL    HW129705   0.021   4.877   6.878
 9602SOL    HW229706   6.922   4.952   6.950
 9603SOL     OW29707   2.346   6.839   4.575
 9603SOL    HW129708   2.278   6.824   4.647
 9603SOL    HW229709   2.422   6.892   4.612
 9604SOL     OW29710   5.306   0.750   6.861
 9604SOL    HW129711   5.248   0.737   6.781
 9604SOL    HW229712   5.249   0.761   6.942
 9605SOL     OW29713   1.088   5.178   5.561
 9605SOL    HW129714   1.156   5.113   5.595
 9605SOL    HW229715   1.030   5.132   5.493
 9606SOL     OW29716   1.114   0.153   4.048
 9606SOL    HW129717   1.181   0.201   4.104
 9606SOL    HW229718   1.089   0.067   4.091
 9607SOL     OW29719   1.090   1.314   1.873
 9607SOL    HW129720   1.162   1.266   1.923
 9607SOL    HW229721   1.004   1.310   1.925
 9608SOL     OW29722   6.820   0.129   2.920
 9608SOL    HW129723   6.919   0.120   2.930
 9608SOL    HW229724   6.793   0.099   2.828
 9609SOL     OW29725   0.948   3.657   4.457
 9609SOL    HW129726   0.915   3.590   4.524
 9609SOL    HW229727   0.871   3.702   4.414
 9610SOL     OW29728   0.827   3.339   5.456
 9610SOL    HW129729   0.780   3.251   5.458
 9610SOL    HW229730   0.818   3.384   5.545
 9611SOL     OW29731   6.982   6.357   1.436
 9611SOL    HW129732   6.936   6.440   1.405
 9611SOL    HW229733   0.009   6.318   1.361
 9612SOL     OW29734   6.424   3.023   0.406
 9612SOL    HW129735   6.356   3.072   0.351
 9612SOL    HW229736   6.435   3.069   0.494
 9613SOL     OW29737   5.593   6.315   4.412
 9613SOL    HW129738   5.514   6.321   4.351
 9613SOL    HW229739   5.618   6.406   4.444
 9614SOL     OW29740   4.080   3.532   1.962
 9614SOL    HW129741   4.108   3.452   1.908
 9614SOL    HW229742   4.136   3.536   2.045
 9615SOL     OW29743   2.152   5.556   3.336
 9615SOL    HW129744   2.246   5.589   3.332
 9615SOL    HW229745   2.139   5.501   3.418
 9616SOL     OW29746   4.191   2.805   1.213
 9616SOL    HW129747   4.213   2.788   1.117
 9616SOL    HW229748   4.141   2.726   1.250
 9617SOL     OW29749   1.525   3.621   3.287
 9617SOL    HW129750   1.561   3.528   3.295
 9617SOL    HW229751   1.524   3.664   3.377
 9618SOL     OW29752   3.692   0.868   6.692
 9618SOL    HW129753   3.621   0.938   6.699
 9618SOL    HW229754   3.715   0.854   6.595
 9619SOL     OW29755   0.773   6.340   1.000
 9619SOL    HW129756   0.789   6.350   0.902
 9619SOL    HW229757   0.840   6.277   1.039
 9620SOL     OW29758   4.302   1.271   6.861
 9620SOL    HW129759   4.251   1.254   6.777
 9620SOL    HW229760   4.322   1.369   6.869
 9621SOL     OW29761   1.549   0.853   1.801
 9621SOL    HW129762   1.519   0.790   1.729
 9621SOL    HW229763   1.539   0.947   1.768
 9622SOL     OW29764   6.640   0.729   6.798
 9622SOL    HW129765   6.550   0.717   6.841
 9622SOL    HW229766   6.633   0.706   6.701
 9623SOL     OW29767   4.506   5.345   6.892
 9623SOL    HW129768   4.473   5.268   6.838
 9623SOL    HW229769   4.582   5.315   6.950
 9624SOL     OW29770   4.961   4.910   5.809
 9624SOL    HW129771   5.015   4.830   5.836
 9624SOL    HW229772   4.883   4.920   5.871
 9625SOL     OW29773   5.003   4.513   6.617
 9625SOL    HW129774   4.924   4.462   6.585
 9625SOL    HW229775   5.007   4.601   6.569
 9626SOL     OW29776   1.949   5.148   4.508
 9626SOL    HW129777   1.989   5.119   4.421
 9626SOL    HW229778   1.996   5.101   4.583
 9627SOL     OW29779   0.945   4.499   4.818
 9627SOL    HW129780   0.978   4.577   4.872
 9627SOL    HW229781   0.991   4.416   4.848
 9628SOL     OW29782   5.967   4.045   0.710
 9628SOL    HW129783   6.040   4.107   0.682
 9628SOL    HW229784   5.982   4.016   0.805
 9629SOL     OW29785   6.870   6.693   3.448
 9629SOL    HW129786   6.891   6.790   3.461
 9629SOL    HW229787   6.771   6.679   3.456
 9630SOL     OW29788   5.908   5.779   5.663
 9630SOL    HW129789   5.877   5.763   5.756
 9630SOL    HW229790   5.838   5.828   5.611
 9631SOL     OW29791   4.312   1.039   1.700
 9631SOL    HW129792   4.324   1.060   1.604
 9631SOL    HW229793   4.395   0.997   1.737
 9632SOL     OW29794   1.883   5.398   1.474
 9632SOL    HW129795   1.805   5.450   1.442
 9632SOL    HW229796   1.955   5.460   1.505
 9633SOL     OW29797   4.275   3.245   1.552
 9633SOL    HW129798   4.266   3.232   1.454
 9633SOL    HW229799   4.348   3.311   1.571
 9634SOL     OW29800   5.964   4.810   3.100
 9634SOL    HW129801   6.047   4.795   3.154
 9634SOL    HW229802   5.959   4.907   3.074
 9635SOL     OW29803   0.158   4.850   5.280
 9635SOL    HW129804   0.132   4.942   5.253
 9635SOL    HW229805   0.095   4.784   5.240
 9636SOL     OW29806   4.008   1.230   6.105
 9636SOL    HW129807   3.944   1.169   6.059
 9636SOL    HW229808   3.963   1.316   6.126
 9637SOL     OW29809   3.325   3.313   1.414
 9637SOL    HW129810   3.278   3.391   1.374
 9637SOL    HW229811   3.265   3.268   1.480
 9638SOL     OW29812   6.705   4.153   6.323
 9638SOL    HW129813   6.781   4.188   6.268
 9638SOL    HW229814   6.732   4.150   6.419
 9639SOL     OW29815   4.583   2.783   1.755
 9639SOL    HW129816   4.580   2.882   1.771
 9639SOL    HW229817   4.619   2.765   1.664
 9640SOL     OW29818   3.806   1.435   1.849
 9640SOL    HW129819   3.878   1.402   1.910
 9640SOL    HW229820   3.750   1.358   1.819
 9641SOL     OW29821   4.621   6.174   2.977
 9641SOL    HW129822   4.700   6.187   2.916
 9641SOL    HW229823   4.592   6.263   3.012
 9642SOL     OW29824   1.295   0.327   4.206
 9642SOL    HW129825   1.391   0.305   4.190
 9642SOL    HW229826   1.281   0.342   4.304
 9643SOL     OW29827   5.065   4.083   3.727
 9643SOL    HW129828   5.080   4.041   3.637
 9643SOL    HW229829   4.968   4.083   3.747
 9644SOL     OW29830   1.999   5.876   5.095
 9644SOL    HW129831   2.091   5.850   5.121
 9644SOL    HW229832   1.960   5.936   5.165
 9645SOL     OW29833   1.018   4.199   5.295
 9645SOL    HW129834   1.086   4.129   5.313
 9645SOL    HW229835   0.927   4.158   5.292
 9646SOL     OW29836   2.576   6.273   3.058
 9646SOL    HW129837   2.507   6.201   3.052
 9646SOL    HW229838   2.562   6.325   3.143
 9647SOL     OW29839   6.945   6.417   3.083
 9647SOL    HW129840   6.923   6.373   3.170
 9647SOL    HW229841   6.987   6.506   3.101
 9648SOL     OW29842   5.371   3.163   1.016
 9648SOL    HW129843   5.343   3.193   1.107
 9648SOL    HW229844   5.368   3.063   1.012
 9649SOL     OW29845   2.680   3.818   6.187
 9649SOL    HW129846   2.760   3.877   6.173
 9649SOL    HW229847   2.677   3.749   6.115
 9650SOL     OW29848   5.122   5.009   3.439
 9650SOL    HW129849   5.172   5.009   3.525
 9650SOL    HW229850   5.119   5.101   3.401
 9651SOL     OW29851   4.142   1.574   1.557
 9651SOL    HW129852   4.112   1.479   1.568
 9651SOL    HW229853   4.204   1.598   1.632
 9652SOL     OW29854   0.677   4.741   1.021
 9652SOL    HW129855   0.708   4.651   0.993
 9652SOL    HW229856   0.755   4.804   1.024
 9653SOL     OW29857   4.469   4.401   6.114
 9653SOL    HW129858   4.532   4.336   6.158
 9653SOL    HW229859   4.457   4.481   6.173
 9654SOL     OW29860   3.284   3.531   2.484
 9654SOL    HW129861   3.251   3.551   2.392
 9654SOL    HW229862   3.353   3.459   2.480
 9655SOL     OW29863   0.244   1.838   0.606
 9655SOL    HW129864   0.322   1.782   0.578
 9655SOL    HW229865   0.185   1.855   0.527
 9656SOL     OW29866   4.765   2.102   0.861
 9656SOL    HW129867   4.838   2.156   0.819
 9656SOL    HW229868   4.779   2.100   0.960
 9657SOL     OW29869   5.484   4.169   3.626
 9657SOL    HW129870   5.433   4.146   3.709
 9657SOL    HW229871   5.545   4.093   3.602
 9658SOL     OW29872   5.747   2.138   2.483
 9658SOL    HW129873   5.675   2.128   2.552
 9658SOL    HW229874   5.724   2.214   2.422
 9659SOL     OW29875   1.355   2.405   0.444
 9659SOL    HW129876   1.356   2.470   0.520
 9659SOL    HW229877   1.442   2.355   0.442
 9660SOL     OW29878   0.601   0.428   1.309
 9660SOL    HW129879   0.537   0.375   1.252
 9660SOL    HW229880   0.613   0.382   1.397
 9661SOL     OW29881   4.235   5.901   1.105
 9661SOL    HW129882   4.159   5.837   1.092
 9661SOL    HW229883   4.318   5.850   1.126
 9662SOL     OW29884   5.304   3.498   0.950
 9662SOL    HW129885   5.225   3.437   0.950
 9662SOL    HW229886   5.344   3.500   0.858
 9663SOL     OW29887   0.490   5.091   2.714
 9663SOL    HW129888   0.590   5.087   2.722
 9663SOL    HW229889   0.466   5.159   2.644
 9664SOL     OW29890   5.241   3.680   5.166
 9664SOL    HW129891   5.143   3.690   5.181
 9664SOL    HW229892   5.291   3.702   5.250
 9665SOL     OW29893   6.417   6.104   5.988
 9665SOL    HW129894   6.431   6.022   5.933
 9665SOL    HW229895   6.500   6.125   6.039
 9666SOL     OW29896   5.781   3.875   2.195
 9666SOL    HW129897   5.757   3.961   2.150
 9666SOL    HW229898   5.854   3.830   2.144
 9667SOL     OW29899   4.515   3.765   1.295
 9667SOL    HW129900   4.450   3.802   1.362
 9667SOL    HW229901   4.468   3.745   1.209
 9668SOL     OW29902   1.609   1.029   6.068
 9668SOL    HW129903   1.540   0.990   6.006
 9668SOL    HW229904   1.564   1.092   6.132
 9669SOL     OW29905   1.934   7.000   0.938
 9669SOL    HW129906   1.985   6.999   0.852
 9669SOL    HW229907   1.856   6.938   0.932
 9670SOL     OW29908   0.363   5.423   5.332
 9670SOL    HW129909   0.264   5.430   5.342
 9670SOL    HW229910   0.408   5.483   5.399
 9671SOL     OW29911   6.897   4.788   0.448
 9671SOL    HW129912   6.810   4.835   0.432
 9671SOL    HW229913   6.928   4.744   0.364
 9672SOL     OW29914   1.834   4.475   3.516
 9672SOL    HW129915   1.908   4.411   3.532
 9672SOL    HW229916   1.806   4.516   3.603
 9673SOL     OW29917   3.772   3.699   1.123
 9673SOL    HW129918   3.835   3.772   1.151
 9673SOL    HW229919   3.822   3.631   1.070
 9674SOL     OW29920   3.906   6.483   3.304
 9674SOL    HW129921   3.826   6.444   3.260
 9674SOL    HW229922   3.896   6.582   3.313
 9675SOL     OW29923   4.991   3.084   6.595
 9675SOL    HW129924   4.935   3.050   6.519
 9675SOL    HW229925   4.985   3.184   6.598
 9676SOL     OW29926   1.457   3.446   5.449
 9676SOL    HW129927   1.508   3.504   5.385
 9676SOL    HW229928   1.424   3.364   5.402
 9677SOL     OW29929   6.879   5.278   6.432
 9677SOL    HW129930   6.847   5.310   6.521
 9677SOL    HW229931   6.940   5.347   6.392
 9678SOL     OW29932   3.256   3.810   4.230
 9678SOL    HW129933   3.168   3.783   4.269
 9678SOL    HW229934   3.320   3.733   4.234
 9679SOL     OW29935   2.644   0.813   4.201
 9679SOL    HW129936   2.692   0.732   4.234
 9679SOL    HW229937   2.710   0.875   4.158
 9680SOL     OW29938   4.548   0.257   5.631
 9680SOL    HW129939   4.458   0.251   5.674
 9680SOL    HW229940   4.610   0.190   5.673
 9681SOL     OW29941   3.447   2.072   0.774
 9681SOL    HW129942   3.418   2.132   0.699
 9681SOL    HW229943   3.400   2.098   0.858
 9682SOL     OW29944   4.776   4.032   3.781
 9682SOL    HW129945   4.766   3.944   3.826
 9682SOL    HW229946   4.742   4.104   3.842
 9683SOL     OW29947   3.359   5.992   0.486
 9683SOL    HW129948   3.393   6.044   0.565
 9683SOL    HW229949   3.326   5.903   0.516
 9684SOL     OW29950   0.526   4.292   5.292
 9684SOL    HW129951   0.602   4.354   5.270
 9684SOL    HW229952   0.542   4.204   5.248
 9685SOL     OW29953   4.889   3.559   0.524
 9685SOL    HW129954   4.802   3.603   0.543
 9685SOL    HW229955   4.929   3.524   0.609
 9686SOL     OW29956   0.496   2.884   6.744
 9686SOL    HW129957   0.519   2.901   6.839
 9686SOL    HW229958   0.502   2.785   6.725
 9687SOL     OW29959   6.373   0.995   2.464
 9687SOL    HW129960   6.326   0.943   2.392
 9687SOL    HW229961   6.333   1.086   2.471
 9688SOL     OW29962   1.131   3.284   0.445
 9688SOL    HW129963   1.071   3.332   0.509
 9688SOL    HW229964   1.078   3.246   0.370
 9689SOL     OW29965   0.621   4.498   0.008
 9689SOL    HW129966   0.689   4.446   6.984
 9689SOL    HW229967   0.547   4.525   6.973
 9690SOL     OW29968   4.848   6.379   5.422
 9690SOL    HW129969   4.928   6.400   5.365
 9690SOL    HW229970   4.765   6.409   5.375
 9691SOL     OW29971   3.074   3.830   1.971
 9691SOL    HW129972   3.116   3.796   2.055
 9691SOL    HW229973   3.087   3.764   1.897
 9692SOL     OW29974   4.710   6.088   1.110
 9692SOL    HW129975   4.617   6.080   1.074
 9692SOL    HW229976   4.761   6.005   1.089
 9693SOL     OW29977   5.814   4.194   3.570
 9693SOL    HW129978   5.761   4.201   3.486
 9693SOL    HW229979   5.786   4.112   3.621
 9694SOL     OW29980   3.626   1.244   2.344
 9694SOL    HW129981   3.616   1.193   2.429
 9694SOL    HW229982   3.629   1.342   2.364
 9695SOL     OW29983   6.737   2.847   3.068
 9695SOL    HW129984   6.682   2.928   3.049
 9695SOL    HW229985   6.731   2.784   2.991
 9696SOL     OW29986   6.076   2.996   1.757
 9696SOL    HW129987   6.013   2.959   1.689
 9696SOL    HW229988   6.159   3.028   1.711
 9697SOL     OW29989   0.550   6.149   0.628
 9697SOL    HW129990   0.581   6.205   0.704
 9697SOL    HW229991   0.559   6.200   0.542
 9698SOL     OW29992   5.120   2.842   5.954
 9698SOL    HW129993   5.157   2.934   5.971
 9698SOL    HW229994   5.020   2.846   5.958
 9699SOL     OW29995   0.269   5.624   0.419
 9699SOL    HW129996   0.205   5.672   0.479
 9699SOL    HW229997   0.345   5.588   0.474
 9700SOL     OW29998   6.440   5.346   4.676
 9700SOL    HW129999   6.372   5.281   4.642
 9700SOL    HW230000   6.396   5.435   4.691
 9701SOL     OW30001   4.501   3.908   5.761
 9701SOL    HW130002   4.409   3.944   5.746
 9701SOL    HW230003   4.497   3.808   5.768
 9702SOL     OW30004   4.261   1.995   0.442
 9702SOL    HW130005   4.272   2.061   0.367
 9702SOL    HW230006   4.275   2.041   0.530
 9703SOL     OW30007   4.844   3.772   3.916
 9703SOL    HW130008   4.918   3.744   3.854
 9703SOL    HW230009   4.847   3.714   3.998
 9704SOL     OW30010   3.437   5.874   2.299
 9704SOL    HW130011   3.388   5.960   2.293
 9704SOL    HW230012   3.431   5.838   2.392
 9705SOL     OW30013   5.483   4.210   6.175
 9705SOL    HW130014   5.459   4.264   6.256
 9705SOL    HW230015   5.566   4.158   6.194
 9706SOL     OW30016   2.905   2.043   1.451
 9706SOL    HW130017   2.913   2.081   1.543
 9706SOL    HW230018   2.843   2.099   1.397
 9707SOL     OW30019   5.285   5.190   2.534
 9707SOL    HW130020   5.276   5.265   2.599
 9707SOL    HW230021   5.194   5.156   2.510
 9708SOL     OW30022   0.957   1.355   3.292
 9708SOL    HW130023   0.936   1.308   3.206
 9708SOL    HW230024   0.889   1.328   3.361
 9709SOL     OW30025   5.336   4.769   2.154
 9709SOL    HW130026   5.396   4.692   2.132
 9709SOL    HW230027   5.298   4.757   2.245
 9710SOL     OW30028   6.347   1.124   1.100
 9710SOL    HW130029   6.311   1.173   1.180
 9710SOL    HW230030   6.425   1.173   1.063
 9711SOL     OW30031   3.959   5.613   6.532
 9711SOL    HW130032   4.008   5.531   6.560
 9711SOL    HW230033   3.868   5.589   6.498
 9712SOL     OW30034   6.041   3.418   0.010
 9712SOL    HW130035   6.057   3.469   6.952
 9712SOL    HW230036   5.975   3.467   0.067
 9713SOL     OW30037   2.674   4.966   3.353
 9713SOL    HW130038   2.587   4.918   3.368
 9713SOL    HW230039   2.719   4.980   3.441
 9714SOL     OW30040   4.181   6.671   6.482
 9714SOL    HW130041   4.151   6.713   6.396
 9714SOL    HW230042   4.166   6.572   6.477
 9715SOL     OW30043   5.673   4.128   0.155
 9715SOL    HW130044   5.634   4.039   0.176
 9715SOL    HW230045   5.605   4.200   0.174
 9716SOL     OW30046   3.862   4.500   0.158
 9716SOL    HW130047   3.893   4.435   0.089
 9716SOL    HW230048   3.833   4.451   0.240
 9717SOL     OW30049   4.687   6.209   6.124
 9717SOL    HW130050   4.736   6.146   6.184
 9717SOL    HW230051   4.633   6.157   6.058
 9718SOL     OW30052   5.041   3.062   1.303
 9718SOL    HW130053   5.051   2.972   1.345
 9718SOL    HW230054   5.017   3.051   1.207
 9719SOL     OW30055   5.651   0.093   5.928
 9719SOL    HW130056   5.582   0.025   5.952
 9719SOL    HW230057   5.620   0.184   5.955
 9720SOL     OW30058   0.954   3.670   2.041
 9720SOL    HW130059   1.043   3.636   2.072
 9720SOL    HW230060   0.894   3.592   2.020
 9721SOL     OW30061   0.096   1.025   6.819
 9721SOL    HW130062   0.011   0.973   6.830
 9721SOL    HW230063   0.092   1.077   6.734
 9722SOL     OW30064   3.483   1.105   5.360
 9722SOL    HW130065   3.568   1.148   5.391
 9722SOL    HW230066   3.502   1.012   5.330
 9723SOL     OW30067   4.290   5.845   4.197
 9723SOL    HW130068   4.241   5.866   4.282
 9723SOL    HW230069   4.361   5.914   4.181
 9724SOL     OW30070   1.539   4.520   0.277
 9724SOL    HW130071   1.618   4.571   0.311
 9724SOL    HW230072   1.465   4.584   0.257
 9725SOL     OW30073   4.142   6.787   6.191
 9725SOL    HW130074   4.220   6.742   6.147
 9725SOL    HW230075   4.170   6.874   6.231
 9726SOL     OW30076   4.397   1.506   4.165
 9726SOL    HW130077   4.491   1.471   4.168
 9726SOL    HW230078   4.346   1.470   4.243
 9727SOL     OW30079   1.097   2.121   6.382
 9727SOL    HW130080   1.033   2.083   6.315
 9727SOL    HW230081   1.054   2.198   6.430
 9728SOL     OW30082   0.693   1.626   4.917
 9728SOL    HW130083   0.733   1.537   4.937
 9728SOL    HW230084   0.621   1.647   4.984
 9729SOL     OW30085   1.192   4.308   3.962
 9729SOL    HW130086   1.208   4.316   4.060
 9729SOL    HW230087   1.177   4.399   3.923
 9730SOL     OW30088   1.111   4.295   3.679
 9730SOL    HW130089   1.195   4.259   3.720
 9730SOL    HW230090   1.078   4.234   3.608
 9731SOL     OW30091   5.364   5.604   1.624
 9731SOL    HW130092   5.320   5.673   1.567
 9731SOL    HW230093   5.322   5.603   1.714
 9732SOL     OW30094   1.435   3.958   2.086
 9732SOL    HW130095   1.507   3.967   2.017
 9732SOL    HW230096   1.465   3.895   2.157
 9733SOL     OW30097   5.321   5.340   6.964
 9733SOL    HW130098   5.247   5.332   0.004
 9733SOL    HW230099   5.288   5.386   6.882
 9734SOL     OW30100   6.444   0.311   0.338
 9734SOL    HW130101   6.391   0.338   0.418
 9734SOL    HW230102   6.383   0.269   0.270
 9735SOL     OW30103   1.790   3.105   3.486
 9735SOL    HW130104   1.777   3.008   3.468
 9735SOL    HW230105   1.803   3.121   3.584
 9736SOL     OW30106   5.560   2.067   6.147
 9736SOL    HW130107   5.486   2.054   6.213
 9736SOL    HW230108   5.522   2.071   6.054
 9737SOL     OW30109   5.064   2.272   2.941
 9737SOL    HW130110   5.132   2.222   2.994
 9737SOL    HW230111   5.110   2.335   2.878
 9738SOL     OW30112   1.883   6.604   0.511
 9738SOL    HW130113   1.967   6.593   0.564
 9738SOL    HW230114   1.897   6.670   0.438
 9739SOL     OW30115   5.163   5.775   0.477
 9739SOL    HW130116   5.074   5.813   0.503
 9739SOL    HW230117   5.168   5.768   0.378
 9740SOL     OW30118   0.633   1.380   2.936
 9740SOL    HW130119   0.645   1.419   2.845
 9740SOL    HW230120   0.707   1.413   2.995
 9741SOL     OW30121   2.235   1.220   3.118
 9741SOL    HW130122   2.179   1.232   3.036
 9741SOL    HW230123   2.293   1.301   3.131
 9742SOL     OW30124   4.079   1.198   0.556
 9742SOL    HW130125   4.044   1.288   0.581
 9742SOL    HW230126   4.177   1.203   0.542
 9743SOL     OW30127   6.559   4.243   3.035
 9743SOL    HW130128   6.595   4.151   3.054
 9743SOL    HW230129   6.634   4.304   3.010
 9744SOL     OW30130   1.658   0.172   2.336
 9744SOL    HW130131   1.644   0.087   2.386
 9744SOL    HW230132   1.572   0.222   2.328
 9745SOL     OW30133   4.535   3.134   6.239
 9745SOL    HW130134   4.545   3.191   6.321
 9745SOL    HW230135   4.449   3.083   6.244
 9746SOL     OW30136   5.510   7.009   5.660
 9746SOL    HW130137   5.456   0.054   5.617
 9746SOL    HW230138   5.568   0.022   5.731
 9747SOL     OW30139   2.969   2.199   1.730
 9747SOL    HW130140   3.040   2.234   1.668
 9747SOL    HW230141   2.957   2.263   1.805
 9748SOL     OW30142   6.605   6.612   3.456
 9748SOL    HW130143   6.581   6.515   3.444
 9748SOL    HW230144   6.538   6.655   3.517
 9749SOL     OW30145   0.905   0.885   3.970
 9749SOL    HW130146   0.808   0.882   3.947
 9749SOL    HW230147   0.929   0.803   4.022
 9750SOL     OW30148   5.500   5.145   3.331
 9750SOL    HW130149   5.506   5.106   3.423
 9750SOL    HW230150   5.404   5.156   3.306
 9751SOL     OW30151   2.384   0.126   1.081
 9751SOL    HW130152   2.421   0.093   0.994
 9751SOL    HW230153   2.284   0.130   1.075
 9752SOL     OW30154   4.567   1.556   5.247
 9752SOL    HW130155   4.477   1.547   5.288
 9752SOL    HW230156   4.561   1.616   5.167
 9753SOL     OW30157   0.807   5.437   5.807
 9753SOL    HW130158   0.866   5.482   5.741
 9753SOL    HW230159   0.853   5.433   5.896
 9754SOL     OW30160   2.483   0.874   0.668
 9754SOL    HW130161   2.486   0.960   0.617
 9754SOL    HW230162   2.554   0.812   0.633
 9755SOL     OW30163   2.976   3.757   4.342
 9755SOL    HW130164   2.990   3.658   4.340
 9755SOL    HW230165   2.885   3.778   4.377
 9756SOL     OW30166   6.023   2.559   6.388
 9756SOL    HW130167   6.091   2.627   6.414
 9756SOL    HW230168   5.954   2.550   6.460
 9757SOL     OW30169   5.822   4.768   4.915
 9757SOL    HW130170   5.835   4.804   5.008
 9757SOL    HW230171   5.842   4.839   4.848
 9758SOL     OW30172   1.891   1.383   0.490
 9758SOL    HW130173   1.792   1.396   0.504
 9758SOL    HW230174   1.927   1.323   0.561
 9759SOL     OW30175   1.604   1.203   0.399
 9759SOL    HW130176   1.676   1.135   0.386
 9759SOL    HW230177   1.543   1.202   0.320
 9760SOL     OW30178   4.859   3.180   5.414
 9760SOL    HW130179   4.876   3.252   5.348
 9760SOL    HW230180   4.838   3.221   5.503
 9761SOL     OW30181   0.517   2.557   1.959
 9761SOL    HW130182   0.603   2.562   2.010
 9761SOL    HW230183   0.499   2.463   1.931
 9762SOL     OW30184   3.943   1.834   4.961
 9762SOL    HW130185   3.982   1.748   4.929
 9762SOL    HW230186   3.976   1.910   4.904
 9763SOL     OW30187   5.211   1.548   3.579
 9763SOL    HW130188   5.150   1.497   3.639
 9763SOL    HW230189   5.158   1.614   3.526
 9764SOL     OW30190   6.773   2.340   2.698
 9764SOL    HW130191   6.839   2.394   2.647
 9764SOL    HW230192   6.753   2.384   2.786
 9765SOL     OW30193   6.646   6.221   3.074
 9765SOL    HW130194   6.570   6.254   3.130
 9765SOL    HW230195   6.732   6.241   3.121
 9766SOL     OW30196   2.046   6.320   1.784
 9766SOL    HW130197   2.028   6.242   1.724
 9766SOL    HW230198   2.044   6.405   1.731
 9767SOL     OW30199   2.416   2.177   5.540
 9767SOL    HW130200   2.488   2.134   5.594
 9767SOL    HW230201   2.452   2.207   5.452
 9768SOL     OW30202   4.783   1.444   1.475
 9768SOL    HW130203   4.877   1.462   1.503
 9768SOL    HW230204   4.739   1.382   1.539
 9769SOL     OW30205   3.352   1.358   4.759
 9769SOL    HW130206   3.364   1.323   4.852
 9769SOL    HW230207   3.355   1.458   4.760
 9770SOL     OW30208   3.593   1.199   5.686
 9770SOL    HW130209   3.609   1.102   5.706
 9770SOL    HW230210   3.498   1.211   5.656
 9771SOL     OW30211   2.615   5.480   0.933
 9771SOL    HW130212   2.670   5.447   1.011
 9771SOL    HW230213   2.619   5.413   0.859
 9772SOL     OW30214   1.543   6.154   1.817
 9772SOL    HW130215   1.562   6.186   1.725
 9772SOL    HW230216   1.627   6.115   1.857
 9773SOL     OW30217   4.942   5.725   3.821
 9773SOL    HW130218   5.014   5.660   3.845
 9773SOL    HW230219   4.860   5.675   3.791
 9774SOL     OW30220   0.233   4.742   2.566
 9774SOL    HW130221   0.326   4.778   2.573
 9774SOL    HW230222   0.168   4.817   2.581
 9775SOL     OW30223   3.413   0.124   3.720
 9775SOL    HW130224   3.336   0.061   3.727
 9775SOL    HW230225   3.464   0.124   3.806
 9776SOL     OW30226   0.818   5.125   6.009
 9776SOL    HW130227   0.839   5.102   5.915
 9776SOL    HW230228   0.723   5.101   6.029
 9777SOL     OW30229   6.369   4.819   0.994
 9777SOL    HW130230   6.411   4.873   1.066
 9777SOL    HW230231   6.270   4.821   1.004
 9778SOL     OW30232   0.029   1.535   4.651
 9778SOL    HW130233   0.123   1.534   4.685
 9778SOL    HW230234   0.009   1.625   4.612
 9779SOL     OW30235   0.697   1.523   4.063
 9779SOL    HW130236   0.726   1.567   3.978
 9779SOL    HW230237   0.597   1.524   4.069
 9780SOL     OW30238   1.948   2.300   0.130
 9780SOL    HW130239   2.019   2.369   0.142
 9780SOL    HW230240   1.991   2.210   0.118
 9781SOL     OW30241   1.878   2.901   4.782
 9781SOL    HW130242   1.837   2.957   4.854
 9781SOL    HW230243   1.815   2.897   4.704
 9782SOL     OW30244   0.294   1.938   0.232
 9782SOL    HW130245   0.286   2.018   0.173
 9782SOL    HW230246   0.215   1.934   0.293
 9783SOL     OW30247   4.570   2.599   3.314
 9783SOL    HW130248   4.650   2.554   3.354
 9783SOL    HW230249   4.487   2.558   3.352
 9784SOL     OW30250   3.429   0.979   6.381
 9784SOL    HW130251   3.402   0.908   6.447
 9784SOL    HW230252   3.463   1.059   6.431
 9785SOL     OW30253   7.011   2.200   5.547
 9785SOL    HW130254   0.014   2.184   5.642
 9785SOL    HW230255   6.976   2.293   5.539
 9786SOL     OW30256   2.569   3.996   0.440
 9786SOL    HW130257   2.522   3.920   0.484
 9786SOL    HW230258   2.595   4.064   0.508
 9787SOL     OW30259   3.509   3.056   2.577
 9787SOL    HW130260   3.533   3.082   2.483
 9787SOL    HW230261   3.580   2.995   2.614
 9788SOL     OW30262   0.715   6.970   2.507
 9788SOL    HW130263   0.675   6.878   2.498
 9788SOL    HW230264   0.641   0.010   2.516
 9789SOL     OW30265   1.816   5.554   0.146
 9789SOL    HW130266   1.855   5.640   0.179
 9789SOL    HW230267   1.748   5.521   0.212
 9790SOL     OW30268   6.388   4.407   6.545
 9790SOL    HW130269   6.326   4.358   6.483
 9790SOL    HW230270   6.368   4.382   6.639
 9791SOL     OW30271   0.582   6.842   6.369
 9791SOL    HW130272   0.505   6.782   6.391
 9791SOL    HW230273   0.641   6.798   6.302
 9792SOL     OW30274   3.005   4.274   0.856
 9792SOL    HW130275   2.961   4.214   0.922
 9792SOL    HW230276   2.936   4.312   0.794
 9793SOL     OW30277   4.046   0.247   2.292
 9793SOL    HW130278   4.069   0.208   2.382
 9793SOL    HW230279   4.088   0.337   2.283
 9794SOL     OW30280   6.341   4.168   6.079
 9794SOL    HW130281   6.349   4.245   6.143
 9794SOL    HW230282   6.406   4.097   6.105
 9795SOL     OW30283   1.384   1.931   4.575
 9795SOL    HW130284   1.371   1.999   4.647
 9795SOL    HW230285   1.358   1.841   4.610
 9796SOL     OW30286   4.037   3.574   2.252
 9796SOL    HW130287   4.043   3.669   2.221
 9796SOL    HW230288   3.984   3.520   2.187
 9797SOL     OW30289   2.358   5.579   0.464
 9797SOL    HW130290   2.304   5.628   0.395
 9797SOL    HW230291   2.452   5.613   0.464
 9798SOL     OW30292   3.012   1.120   2.158
 9798SOL    HW130293   3.014   1.077   2.068
 9798SOL    HW230294   2.918   1.130   2.189
 9799SOL     OW30295   2.963   4.453   5.625
 9799SOL    HW130296   2.902   4.481   5.699
 9799SOL    HW230297   2.963   4.354   5.617
 9800SOL     OW30298   5.071   5.299   5.187
 9800SOL    HW130299   5.080   5.393   5.153
 9800SOL    HW230300   5.162   5.258   5.194
 9801SOL     OW30301   4.529   3.996   6.775
 9801SOL    HW130302   4.568   4.054   6.846
 9801SOL    HW230303   4.555   3.901   6.792
 9802SOL     OW30304   6.125   4.657   1.340
 9802SOL    HW130305   6.112   4.649   1.241
 9802SOL    HW230306   6.222   4.644   1.362
 9803SOL     OW30307   2.076   2.809   6.408
 9803SOL    HW130308   1.997   2.796   6.468
 9803SOL    HW230309   2.151   2.848   6.460
 9804SOL     OW30310   0.712   6.415   2.883
 9804SOL    HW130311   0.672   6.467   2.958
 9804SOL    HW230312   0.782   6.352   2.919
 9805SOL     OW30313   0.637   6.708   2.503
 9805SOL    HW130314   0.540   6.687   2.493
 9805SOL    HW230315   0.680   6.641   2.563
 9806SOL     OW30316   1.238   2.011   6.609
 9806SOL    HW130317   1.192   2.060   6.534
 9806SOL    HW230318   1.184   1.931   6.634
 9807SOL     OW30319   3.161   3.512   1.300
 9807SOL    HW130320   3.165   3.591   1.360
 9807SOL    HW230321   3.069   3.473   1.303
 9808SOL     OW30322   4.198   6.184   5.059
 9808SOL    HW130323   4.266   6.205   5.131
 9808SOL    HW230324   4.204   6.253   4.987
 9809SOL     OW30325   0.879   3.231   6.759
 9809SOL    HW130326   0.850   3.293   6.686
 9809SOL    HW230327   0.917   3.148   6.718
 9810SOL     OW30328   3.104   2.226   4.516
 9810SOL    HW130329   3.022   2.261   4.470
 9810SOL    HW230330   3.077   2.177   4.599
 9811SOL     OW30331   5.609   4.814   3.414
 9811SOL    HW130332   5.653   4.734   3.454
 9811SOL    HW230333   5.672   4.860   3.351
 9812SOL     OW30334   3.958   1.301   5.329
 9812SOL    HW130335   3.932   1.239   5.255
 9812SOL    HW230336   3.875   1.333   5.376
 9813SOL     OW30337   5.255   1.763   0.878
 9813SOL    HW130338   5.342   1.802   0.846
 9813SOL    HW230339   5.274   1.677   0.927
 9814SOL     OW30340   6.930   0.017   6.596
 9814SOL    HW130341   6.960   0.086   6.661
 9814SOL    HW230342   6.994   0.012   6.520
 9815SOL     OW30343   4.947   3.441   4.579
 9815SOL    HW130344   4.967   3.350   4.617
 9815SOL    HW230345   4.959   3.510   4.651
 9816SOL     OW30346   0.660   0.945   5.782
 9816SOL    HW130347   0.735   0.995   5.740
 9816SOL    HW230348   0.612   1.005   5.847
 9817SOL     OW30349   2.230   6.502   3.456
 9817SOL    HW130350   2.248   6.428   3.392
 9817SOL    HW230351   2.133   6.529   3.450
 9818SOL     OW30352   6.910   0.807   4.032
 9818SOL    HW130353   6.874   0.900   4.028
 9818SOL    HW230354   6.838   0.746   4.066
 9819SOL     OW30355   5.274   3.723   3.712
 9819SOL    HW130356   5.318   3.670   3.639
 9819SOL    HW230357   5.325   3.711   3.797
 9820SOL     OW30358   3.374   2.754   6.717
 9820SOL    HW130359   3.406   2.698   6.640
 9820SOL    HW230360   3.440   2.827   6.734
 9821SOL     OW30361   5.645   1.434   6.706
 9821SOL    HW130362   5.602   1.518   6.671
 9821SOL    HW230363   5.588   1.397   6.780
 9822SOL     OW30364   1.935   0.152   3.271
 9822SOL    HW130365   1.865   0.129   3.339
 9822SOL    HW230366   2.012   0.196   3.317
 9823SOL     OW30367   2.470   0.445   0.098
 9823SOL    HW130368   2.397   0.415   0.037
 9823SOL    HW230369   2.431   0.475   0.185
 9824SOL     OW30370   2.225   4.981   4.582
 9824SOL    HW130371   2.239   4.984   4.681
 9824SOL    HW230372   2.156   4.912   4.560
 9825SOL     OW30373   4.260   5.090   5.896
 9825SOL    HW130374   4.338   5.057   5.949
 9825SOL    HW230375   4.281   5.085   5.798
 9826SOL     OW30376   5.351   5.483   6.219
 9826SOL    HW130377   5.428   5.520   6.271
 9826SOL    HW230378   5.304   5.414   6.273
 9827SOL     OW30379   2.105   3.826   3.729
 9827SOL    HW130380   2.066   3.738   3.702
 9827SOL    HW230381   2.134   3.876   3.647
 9828SOL     OW30382   2.283   3.054   5.947
 9828SOL    HW130383   2.194   3.092   5.973
 9828SOL    HW230384   2.334   3.030   6.030
 9829SOL     OW30385   3.644   5.176   0.269
 9829SOL    HW130386   3.737   5.161   0.302
 9829SOL    HW230387   3.580   5.118   0.320
 9830SOL     OW30388   6.078   2.817   1.972
 9830SOL    HW130389   6.065   2.904   1.925
 9830SOL    HW230390   6.098   2.746   1.904
 9831SOL     OW30391   2.351   5.158   1.433
 9831SOL    HW130392   2.281   5.200   1.491
 9831SOL    HW230393   2.402   5.090   1.484
 9832SOL     OW30394   4.611   5.670   2.982
 9832SOL    HW130395   4.620   5.628   3.072
 9832SOL    HW230396   4.652   5.761   2.982
 9833SOL     OW30397   3.803   3.605   5.390
 9833SOL    HW130398   3.768   3.642   5.305
 9833SOL    HW230399   3.903   3.604   5.387
 9834SOL     OW30400   3.050   4.822   5.180
 9834SOL    HW130401   2.998   4.746   5.142
 9834SOL    HW230402   3.136   4.788   5.217
 9835SOL     OW30403   3.460   2.981   5.777
 9835SOL    HW130404   3.363   2.997   5.764
 9835SOL    HW230405   3.494   2.922   5.704
 9836SOL     OW30406   6.156   4.603   3.910
 9836SOL    HW130407   6.123   4.679   3.854
 9836SOL    HW230408   6.080   4.540   3.929
 9837SOL     OW30409   3.109   0.201   3.042
 9837SOL    HW130410   3.090   0.296   3.019
 9837SOL    HW230411   3.207   0.183   3.032
 9838SOL     OW30412   1.511   7.023   6.368
 9838SOL    HW130413   1.464   0.083   6.350
 9838SOL    HW230414   1.567   0.005   6.450
 9839SOL     OW30415   5.916   0.920   3.562
 9839SOL    HW130416   5.925   0.887   3.468
 9839SOL    HW230417   5.895   1.018   3.561
 9840SOL     OW30418   6.707   1.475   1.122
 9840SOL    HW130419   6.728   1.395   1.065
 9840SOL    HW230420   6.785   1.538   1.120
 9841SOL     OW30421   1.677   4.119   4.956
 9841SOL    HW130422   1.724   4.045   4.909
 9841SOL    HW230423   1.602   4.082   5.011
 9842SOL     OW30424   4.116   3.403   2.475
 9842SOL    HW130425   4.086   3.318   2.432
 9842SOL    HW230426   4.117   3.476   2.406
 9843SOL     OW30427   5.729   0.583   0.956
 9843SOL    HW130428   5.656   0.651   0.963
 9843SOL    HW230429   5.809   0.613   1.008
 9844SOL     OW30430   6.265   0.868   1.979
 9844SOL    HW130431   6.215   0.894   1.897
 9844SOL    HW230432   6.356   0.910   1.978
 9845SOL     OW30433   2.723   2.230   4.153
 9845SOL    HW130434   2.706   2.313   4.206
 9845SOL    HW230435   2.787   2.251   4.079
 9846SOL     OW30436   3.748   3.405   1.877
 9846SOL    HW130437   3.708   3.357   1.955
 9846SOL    HW230438   3.766   3.340   1.803
 9847SOL     OW30439   3.633   2.884   4.048
 9847SOL    HW130440   3.703   2.853   4.111
 9847SOL    HW230441   3.588   2.966   4.085
 9848SOL     OW30442   3.253   3.609   5.280
 9848SOL    HW130443   3.210   3.690   5.240
 9848SOL    HW230444   3.185   3.536   5.288
 9849SOL     OW30445   0.541   6.981   6.621
 9849SOL    HW130446   0.548   6.978   6.521
 9849SOL    HW230447   0.626   6.946   6.662
 9850SOL     OW30448   5.985   0.116   4.015
 9850SOL    HW130449   5.926   0.046   4.056
 9850SOL    HW230450   5.936   0.162   3.941
 9851SOL     OW30451   5.327   0.734   5.097
 9851SOL    HW130452   5.339   0.639   5.125
 9851SOL    HW230453   5.414   0.783   5.104
 9852SOL     OW30454   4.051   2.233   3.033
 9852SOL    HW130455   4.065   2.300   2.960
 9852SOL    HW230456   4.110   2.255   3.111
 9853SOL     OW30457   5.126   4.051   4.846
 9853SOL    HW130458   5.208   4.001   4.873
 9853SOL    HW230459   5.045   4.004   4.882
 9854SOL     OW30460   0.241   5.887   4.481
 9854SOL    HW130461   0.321   5.913   4.428
 9854SOL    HW230462   0.159   5.928   4.441
 9855SOL     OW30463   2.282   2.884   0.754
 9855SOL    HW130464   2.334   2.799   0.752
 9855SOL    HW230465   2.239   2.899   0.664
 9856SOL     OW30466   5.092   4.808   5.254
 9856SOL    HW130467   5.010   4.794   5.309
 9856SOL    HW230468   5.173   4.795   5.311
 9857SOL     OW30469   4.622   2.252   3.423
 9857SOL    HW130470   4.678   2.330   3.452
 9857SOL    HW230471   4.606   2.192   3.501
 9858SOL     OW30472   6.693   1.178   1.029
 9858SOL    HW130473   6.715   1.091   0.987
 9858SOL    HW230474   6.677   1.166   1.127
 9859SOL     OW30475   6.403   0.054   2.220
 9859SOL    HW130476   6.387   0.116   2.143
 9859SOL    HW230477   6.322   7.023   2.234
 9860SOL     OW30478   0.995   1.457   3.643
 9860SOL    HW130479   0.937   1.466   3.724
 9860SOL    HW230480   0.941   1.419   3.567
 9861SOL     OW30481   3.286   6.970   3.363
 9861SOL    HW130482   3.382   6.980   3.387
 9861SOL    HW230483   3.235   0.025   3.391
 9862SOL     OW30484   4.002   3.702   0.305
 9862SOL    HW130485   4.026   3.749   0.390
 9862SOL    HW230486   3.912   3.734   0.274
 9863SOL     OW30487   2.994   0.203   2.459
 9863SOL    HW130488   2.953   0.119   2.425
 9863SOL    HW230489   2.973   0.216   2.555
 9864SOL     OW30490   3.806   6.697   4.017
 9864SOL    HW130491   3.745   6.715   3.940
 9864SOL    HW230492   3.850   6.608   4.005
 9865SOL     OW30493   1.318   1.331   4.433
 9865SOL    HW130494   1.385   1.347   4.505
 9865SOL    HW230495   1.252   1.262   4.464
 9866SOL     OW30496   4.734   5.034   6.374
 9866SOL    HW130497   4.748   5.081   6.287
 9866SOL    HW230498   4.748   4.936   6.361
 9867SOL     OW30499   6.446   0.878   0.728
 9867SOL    HW130500   6.377   0.864   0.657
 9867SOL    HW230501   6.405   0.863   0.818
 9868SOL     OW30502   0.570   3.656   6.433
 9868SOL    HW130503   0.567   3.655   6.333
 9868SOL    HW230504   0.489   3.611   6.469
 9869SOL     OW30505   1.883   3.302   2.385
 9869SOL    HW130506   1.960   3.307   2.321
 9869SOL    HW230507   1.833   3.388   2.384
 9870SOL     OW30508   3.871   5.542   2.354
 9870SOL    HW130509   3.788   5.552   2.410
 9870SOL    HW230510   3.945   5.505   2.410
 9871SOL     OW30511   0.608   5.650   5.784
 9871SOL    HW130512   0.540   5.583   5.813
 9871SOL    HW230513   0.696   5.605   5.770
 9872SOL     OW30514   2.262   5.063   4.038
 9872SOL    HW130515   2.241   5.063   3.940
 9872SOL    HW230516   2.361   5.062   4.050
 9873SOL     OW30517   2.639   2.585   0.276
 9873SOL    HW130518   2.632   2.672   0.228
 9873SOL    HW230519   2.621   2.598   0.374
 9874SOL     OW30520   6.692   3.237   4.955
 9874SOL    HW130521   6.763   3.195   5.012
 9874SOL    HW230522   6.720   3.237   4.860
 9875SOL     OW30523   6.132   5.886   2.347
 9875SOL    HW130524   6.225   5.923   2.352
 9875SOL    HW230525   6.130   5.795   2.389
 9876SOL     OW30526   6.547   0.403   3.161
 9876SOL    HW130527   6.537   0.459   3.243
 9876SOL    HW230528   6.456   0.375   3.129
 9877SOL     OW30529   0.071   6.227   4.134
 9877SOL    HW130530   6.999   6.227   4.121
 9877SOL    HW230531   0.099   6.313   4.177
 9878SOL     OW30532   2.625   4.654   5.065
 9878SOL    HW130533   2.723   4.636   5.067
 9878SOL    HW230534   2.607   4.737   5.012
 9879SOL     OW30535   5.617   5.249   5.027
 9879SOL    HW130536   5.530   5.284   5.062
 9879SOL    HW230537   5.680   5.325   5.013
 9880SOL     OW30538   3.116   0.910   6.006
 9880SOL    HW130539   3.032   0.924   6.058
 9880SOL    HW230540   3.095   0.904   5.909
 9881SOL     OW30541   0.943   0.668   4.781
 9881SOL    HW130542   0.865   0.618   4.744
 9881SOL    HW230543   0.923   0.766   4.781
 9882SOL     OW30544   1.320   3.498   3.541
 9882SOL    HW130545   1.222   3.504   3.563
 9882SOL    HW230546   1.350   3.403   3.549
 9883SOL     OW30547   1.287   6.787   0.235
 9883SOL    HW130548   1.259   6.820   0.325
 9883SOL    HW230549   1.363   6.842   0.201
 9884SOL     OW30550   5.340   2.245   2.109
 9884SOL    HW130551   5.252   2.273   2.072
 9884SOL    HW230552   5.337   2.248   2.209
 9885SOL     OW30553   6.509   2.272   4.875
 9885SOL    HW130554   6.601   2.309   4.865
 9885SOL    HW230555   6.492   2.204   4.804
 9886SOL     OW30556   1.173   4.879   2.923
 9886SOL    HW130557   1.222   4.914   3.004
 9886SOL    HW230558   1.170   4.779   2.926
 9887SOL     OW30559   4.201   0.379   6.280
 9887SOL    HW130560   4.264   0.419   6.213
 9887SOL    HW230561   4.226   0.411   6.372
 9888SOL     OW30562   5.304   4.639   2.887
 9888SOL    HW130563   5.311   4.673   2.981
 9888SOL    HW230564   5.393   4.641   2.844
 9889SOL     OW30565   6.737   5.105   1.708
 9889SOL    HW130566   6.765   5.032   1.770
 9889SOL    HW230567   6.701   5.182   1.761
 9890SOL     OW30568   1.329   2.596   0.654
 9890SOL    HW130569   1.380   2.606   0.739
 9890SOL    HW230570   1.232   2.584   0.675
 9891SOL     OW30571   5.527   3.529   2.057
 9891SOL    HW130572   5.597   3.466   2.090
 9891SOL    HW230573   5.441   3.512   2.106
 9892SOL     OW30574   0.268   4.591   1.165
 9892SOL    HW130575   0.334   4.564   1.234
 9892SOL    HW230576   0.303   4.565   1.074
 9893SOL     OW30577   0.918   1.019   0.996
 9893SOL    HW130578   0.888   1.036   0.902
 9893SOL    HW230579   0.992   1.082   1.020
 9894SOL     OW30580   3.597   3.008   0.440
 9894SOL    HW130581   3.533   3.082   0.416
 9894SOL    HW230582   3.569   2.967   0.526
 9895SOL     OW30583   5.791   5.066   5.152
 9895SOL    HW130584   5.737   5.128   5.095
 9895SOL    HW230585   5.881   5.105   5.169
 9896SOL     OW30586   6.065   1.014   6.986
 9896SOL    HW130587   6.031   1.031   0.052
 9896SOL    HW230588   6.134   1.083   6.963
 9897SOL     OW30589   5.525   6.430   2.214
 9897SOL    HW130590   5.465   6.460   2.288
 9897SOL    HW230591   5.527   6.330   2.210
 9898SOL     OW30592   1.601   5.312   4.867
 9898SOL    HW130593   1.541   5.373   4.919
 9898SOL    HW230594   1.578   5.217   4.889
 9899SOL     OW30595   1.779   5.972   0.431
 9899SOL    HW130596   1.861   6.025   0.408
 9899SOL    HW230597   1.789   5.935   0.524
 9900SOL     OW30598   1.637   2.616   3.103
 9900SOL    HW130599   1.643   2.550   3.029
 9900SOL    HW230600   1.541   2.644   3.114
 9901SOL     OW30601   2.950   0.648   6.775
 9901SOL    HW130602   2.992   0.634   6.865
 9901SOL    HW230603   2.852   0.633   6.782
 9902SOL     OW30604   2.991   5.053   1.390
 9902SOL    HW130605   2.923   5.052   1.317
 9902SOL    HW230606   3.070   4.998   1.363
 9903SOL     OW30607   5.914   2.355   2.079
 9903SOL    HW130608   5.952   2.263   2.075
 9903SOL    HW230609   5.824   2.353   2.124
 9904SOL     OW30610   0.791   3.949   0.015
 9904SOL    HW130611   0.869   3.888   0.022
 9904SOL    HW230612   0.748   3.937   6.951
 9905SOL     OW30613   2.052   0.877   5.916
 9905SOL    HW130614   2.124   0.881   5.986
 9905SOL    HW230615   2.094   0.870   5.826
 9906SOL     OW30616   1.847   3.178   0.699
 9906SOL    HW130617   1.846   3.128   0.612
 9906SOL    HW230618   1.892   3.266   0.685
 9907SOL     OW30619   0.674   0.368   0.770
 9907SOL    HW130620   0.696   0.426   0.691
 9907SOL    HW230621   0.597   0.407   0.820
 9908SOL     OW30622   6.496   1.696   5.531
 9908SOL    HW130623   6.552   1.705   5.613
 9908SOL    HW230624   6.444   1.781   5.516
 9909SOL     OW30625   4.594   1.520   2.784
 9909SOL    HW130626   4.656   1.591   2.815
 9909SOL    HW230627   4.500   1.553   2.786
 9910SOL     OW30628   1.523   4.938   1.733
 9910SOL    HW130629   1.463   4.904   1.661
 9910SOL    HW230630   1.549   4.863   1.793
 9911SOL     OW30631   3.104   6.249   2.244
 9911SOL    HW130632   3.114   6.344   2.273
 9911SOL    HW230633   3.030   6.242   2.176
 9912SOL     OW30634   3.557   1.029   1.076
 9912SOL    HW130635   3.640   1.081   1.054
 9912SOL    HW230636   3.507   1.008   0.992
 9913SOL     OW30637   6.552   4.105   0.764
 9913SOL    HW130638   6.502   4.020   0.745
 9913SOL    HW230639   6.524   4.175   0.700
 9914SOL     OW30640   6.099   1.122   5.049
 9914SOL    HW130641   6.072   1.214   5.075
 9914SOL    HW230642   6.181   1.095   5.099
 9915SOL     OW30643   6.507   1.059   3.581
 9915SOL    HW130644   6.486   1.157   3.580
 9915SOL    HW230645   6.574   1.038   3.510
 9916SOL     OW30646   2.307   2.444   3.032
 9916SOL    HW130647   2.403   2.435   3.059
 9916SOL    HW230648   2.300   2.436   2.932
 9917SOL     OW30649   4.062   3.899   6.265
 9917SOL    HW130650   4.085   3.983   6.313
 9917SOL    HW230651   4.145   3.847   6.245
 9918SOL     OW30652   2.008   2.298   2.820
 9918SOL    HW130653   2.096   2.333   2.788
 9918SOL    HW230654   1.988   2.335   2.911
 9919SOL     OW30655   0.970   5.353   1.166
 9919SOL    HW130656   0.901   5.397   1.225
 9919SOL    HW230657   0.972   5.255   1.185
 9920SOL     OW30658   4.880   0.470   2.462
 9920SOL    HW130659   4.791   0.515   2.452
 9920SOL    HW230660   4.875   0.378   2.423
 9921SOL     OW30661   4.132   6.360   4.363
 9921SOL    HW130662   4.107   6.321   4.452
 9921SOL    HW230663   4.222   6.403   4.370
 9922SOL     OW30664   3.368   3.976   0.792
 9922SOL    HW130665   3.280   3.976   0.840
 9922SOL    HW230666   3.379   3.890   0.742
 9923SOL     OW30667   5.940   4.472   6.998
 9923SOL    HW130668   5.925   4.547   6.934
 9923SOL    HW230669   5.919   4.385   6.953
 9924SOL     OW30670   6.284   1.612   3.358
 9924SOL    HW130671   6.255   1.674   3.431
 9924SOL    HW230672   6.287   1.518   3.392
 9925SOL     OW30673   0.202   4.885   3.998
 9925SOL    HW130674   0.214   4.979   3.966
 9925SOL    HW230675   0.146   4.885   4.081
 9926SOL     OW30676   4.337   2.941   1.418
 9926SOL    HW130677   4.267   2.902   1.359
 9926SOL    HW230678   4.321   2.913   1.512
 9927SOL     OW30679   1.654   0.025   0.509
 9927SOL    HW130680   1.599   0.057   0.586
 9927SOL    HW230681   1.595   7.008   0.441
 9928SOL     OW30682   5.056   5.029   2.868
 9928SOL    HW130683   4.984   4.985   2.814
 9928SOL    HW230684   5.144   4.989   2.845
 9929SOL     OW30685   3.059   3.931   4.585
 9929SOL    HW130686   3.023   3.839   4.598
 9929SOL    HW230687   3.156   3.926   4.563
 9930SOL     OW30688   0.068   6.346   5.541
 9930SOL    HW130689   0.159   6.387   5.546
 9930SOL    HW230690   0.073   6.257   5.496
 9931SOL     OW30691   0.296   5.631   4.140
 9931SOL    HW130692   0.389   5.598   4.123
 9931SOL    HW230693   0.231   5.563   4.106
 9932SOL     OW30694   2.691   3.170   6.029
 9932SOL    HW130695   2.745   3.130   5.955
 9932SOL    HW230696   2.604   3.203   5.993
 9933SOL     OW30697   1.607   0.093   3.720
 9933SOL    HW130698   1.541   0.166   3.736
 9933SOL    HW230699   1.584   0.013   3.776
 9934SOL     OW30700   6.336   2.208   5.582
 9934SOL    HW130701   6.348   2.302   5.550
 9934SOL    HW230702   6.369   2.200   5.676
 9935SOL     OW30703   3.032   6.814   0.967
 9935SOL    HW130704   3.116   6.850   1.008
 9935SOL    HW230705   2.965   6.888   0.959
 9936SOL     OW30706   6.454   4.558   0.993
 9936SOL    HW130707   6.523   4.563   0.921
 9936SOL    HW230708   6.426   4.650   1.019
 9937SOL     OW30709   0.497   2.189   1.559
 9937SOL    HW130710   0.540   2.153   1.476
 9937SOL    HW230711   0.561   2.250   1.606
 9938SOL     OW30712   6.035   4.992   3.930
 9938SOL    HW130713   6.019   4.913   3.990
 9938SOL    HW230714   5.965   4.994   3.858
 9939SOL     OW30715   4.847   2.705   1.324
 9939SOL    HW130716   4.800   2.748   1.248
 9939SOL    HW230717   4.946   2.721   1.316
 9940SOL     OW30718   0.989   1.088   1.683
 9940SOL    HW130719   0.918   1.096   1.612
 9940SOL    HW230720   1.018   1.179   1.711
 9941SOL     OW30721   3.409   2.957   4.784
 9941SOL    HW130722   3.413   3.057   4.776
 9941SOL    HW230723   3.501   2.919   4.777
 9942SOL     OW30724   2.580   5.575   2.749
 9942SOL    HW130725   2.646   5.503   2.769
 9942SOL    HW230726   2.550   5.568   2.654
 9943SOL     OW30727   0.441   4.109   6.563
 9943SOL    HW130728   0.369   4.152   6.508
 9943SOL    HW230729   0.522   4.169   6.563
 9944SOL     OW30730   0.773   4.542   6.611
 9944SOL    HW130731   0.780   4.557   6.512
 9944SOL    HW230732   0.742   4.625   6.656
 9945SOL     OW30733   4.623   5.985   0.145
 9945SOL    HW130734   4.702   5.945   0.099
 9945SOL    HW230735   4.650   6.067   0.194
 9946SOL     OW30736   5.967   0.612   3.704
 9946SOL    HW130737   5.978   0.710   3.686
 9946SOL    HW230738   5.890   0.599   3.767
 9947SOL     OW30739   2.917   2.172   4.879
 9947SOL    HW130740   2.854   2.246   4.853
 9947SOL    HW230741   2.993   2.210   4.932
 9948SOL     OW30742   6.428   4.679   6.389
 9948SOL    HW130743   6.417   4.582   6.408
 9948SOL    HW230744   6.499   4.692   6.320
 9949SOL     OW30745   6.519   4.944   4.005
 9949SOL    HW130746   6.479   4.880   3.940
 9949SOL    HW230747   6.452   5.015   4.028
 9950SOL     OW30748   5.585   6.145   5.648
 9950SOL    HW130749   5.537   6.132   5.734
 9950SOL    HW230750   5.662   6.207   5.661
 9951SOL     OW30751   1.180   1.949   3.707
 9951SOL    HW130752   1.263   1.913   3.750
 9951SOL    HW230753   1.142   1.881   3.644
 9952SOL     OW30754   1.249   4.675   0.457
 9952SOL    HW130755   1.211   4.658   0.548
 9952SOL    HW230756   1.176   4.668   0.389
 9953SOL     OW30757   5.928   2.396   4.775
 9953SOL    HW130758   6.022   2.394   4.740
 9953SOL    HW230759   5.905   2.307   4.815
 9954SOL     OW30760   0.672   0.679   5.736
 9954SOL    HW130761   0.692   0.776   5.751
 9954SOL    HW230762   0.598   0.670   5.670
 9955SOL     OW30763   5.719   4.001   6.180
 9955SOL    HW130764   5.682   3.952   6.102
 9955SOL    HW230765   5.660   3.988   6.260
 9956SOL     OW30766   0.253   5.849   2.810
 9956SOL    HW130767   0.332   5.907   2.790
 9956SOL    HW230768   0.241   5.840   2.909
 9957SOL     OW30769   5.912   6.898   2.060
 9957SOL    HW130770   5.963   6.984   2.063
 9957SOL    HW230771   5.883   6.873   2.153
 9958SOL     OW30772   2.226   5.396   6.595
 9958SOL    HW130773   2.317   5.357   6.589
 9958SOL    HW230774   2.176   5.352   6.670
 9959SOL     OW30775   3.983   3.735   4.485
 9959SOL    HW130776   4.023   3.747   4.395
 9959SOL    HW230777   4.009   3.646   4.522
 9960SOL     OW30778   6.899   0.530   2.367
 9960SOL    HW130779   6.983   0.582   2.380
 9960SOL    HW230780   6.879   0.523   2.269
 9961SOL     OW30781   1.764   5.592   4.429
 9961SOL    HW130782   1.734   5.502   4.461
 9961SOL    HW230783   1.800   5.644   4.506
 9962SOL     OW30784   4.876   6.666   1.754
 9962SOL    HW130785   4.866   6.600   1.679
 9962SOL    HW230786   4.943   6.736   1.729
 9963SOL     OW30787   2.514   2.649   6.142
 9963SOL    HW130788   2.437   2.587   6.158
 9963SOL    HW230789   2.541   2.643   6.046
 9964SOL     OW30790   4.726   3.592   5.583
 9964SOL    HW130791   4.704   3.634   5.671
 9964SOL    HW230792   4.713   3.660   5.510
 9965SOL     OW30793   3.583   5.120   6.598
 9965SOL    HW130794   3.665   5.178   6.600
 9965SOL    HW230795   3.608   5.029   6.565
 9966SOL     OW30796   2.262   5.450   2.006
 9966SOL    HW130797   2.268   5.545   2.035
 9966SOL    HW230798   2.218   5.446   1.916
 9967SOL     OW30799   6.002   6.956   2.476
 9967SOL    HW130800   5.974   6.954   2.572
 9967SOL    HW230801   5.925   6.930   2.418
 9968SOL     OW30802   3.342   3.736   6.816
 9968SOL    HW130803   3.292   3.784   6.888
 9968SOL    HW230804   3.295   3.748   6.728
 9969SOL     OW30805   1.923   2.690   4.065
 9969SOL    HW130806   2.016   2.714   4.037
 9969SOL    HW230807   1.922   2.595   4.098
 9970SOL     OW30808   5.211   3.768   3.029
 9970SOL    HW130809   5.272   3.825   2.974
 9970SOL    HW230810   5.164   3.703   2.970
 9971SOL     OW30811   2.828   3.861   0.450
 9971SOL    HW130812   2.818   3.768   0.414
 9971SOL    HW230813   2.741   3.908   0.447
 9972SOL     OW30814   3.911   4.412   0.943
 9972SOL    HW130815   3.815   4.383   0.938
 9972SOL    HW230816   3.966   4.336   0.979
 9973SOL     OW30817   3.979   1.916   4.214
 9973SOL    HW130818   3.926   1.977   4.273
 9973SOL    HW230819   4.036   1.971   4.153
 9974SOL     OW30820   6.430   4.034   3.552
 9974SOL    HW130821   6.461   3.962   3.491
 9974SOL    HW230822   6.509   4.088   3.582
 9975SOL     OW30823   6.715   4.499   0.508
 9975SOL    HW130824   6.662   4.573   0.467
 9975SOL    HW230825   6.756   4.530   0.594
 9976SOL     OW30826   0.529   5.598   5.500
 9976SOL    HW130827   0.556   5.665   5.430
 9976SOL    HW230828   0.529   5.643   5.589
 9977SOL     OW30829   0.144   5.518   5.956
 9977SOL    HW130830   0.083   5.560   6.023
 9977SOL    HW230831   0.121   5.422   5.945
 9978SOL     OW30832   6.165   2.962   3.247
 9978SOL    HW130833   6.216   2.898   3.190
 9978SOL    HW230834   6.229   3.014   3.304
 9979SOL     OW30835   6.286   4.831   5.708
 9979SOL    HW130836   6.188   4.817   5.694
 9979SOL    HW230837   6.334   4.744   5.701
 9980SOL     OW30838   1.527   1.846   5.952
 9980SOL    HW130839   1.467   1.815   6.026
 9980SOL    HW230840   1.621   1.816   5.969
 9981SOL     OW30841   2.798   1.978   1.734
 9981SOL    HW130842   2.849   2.064   1.728
 9981SOL    HW230843   2.771   1.961   1.829
 9982SOL     OW30844   0.359   1.228   3.218
 9982SOL    HW130845   0.341   1.306   3.159
 9982SOL    HW230846   0.397   1.261   3.305
 9983SOL     OW30847   0.818   2.808   3.490
 9983SOL    HW130848   0.748   2.869   3.451
 9983SOL    HW230849   0.891   2.863   3.531
 9984SOL     OW30850   1.575   1.041   0.165
 9984SOL    HW130851   1.666   1.011   0.192
 9984SOL    HW230852   1.509   1.014   0.236
 9985SOL     OW30853   1.880   1.067   1.943
 9985SOL    HW130854   1.976   1.078   1.968
 9985SOL    HW230855   1.859   1.126   1.865
 9986SOL     OW30856   4.364   3.835   6.508
 9986SOL    HW130857   4.375   3.779   6.590
 9986SOL    HW230858   4.345   3.930   6.534
 9987SOL     OW30859   6.203   2.069   3.429
 9987SOL    HW130860   6.144   2.079   3.350
 9987SOL    HW230861   6.292   2.033   3.400
 9988SOL     OW30862   0.536   5.841   4.383
 9988SOL    HW130863   0.544   5.870   4.288
 9988SOL    HW230864   0.620   5.865   4.432
 9989SOL     OW30865   6.296   4.123   3.944
 9989SOL    HW130866   6.242   4.137   4.028
 9989SOL    HW230867   6.290   4.205   3.887
 9990SOL     OW30868   2.857   6.662   2.093
 9990SOL    HW130869   2.884   6.758   2.089
 9990SOL    HW230870   2.807   6.645   2.178
 9991SOL     OW30871   1.874   3.334   4.017
 9991SOL    HW130872   1.809   3.259   4.032
 9991SOL    HW230873   1.824   3.419   4.000
 9992SOL     OW30874   5.204   4.404   0.503
 9992SOL    HW130875   5.203   4.326   0.566
 9992SOL    HW230876   5.167   4.485   0.549
 9993SOL     OW30877   3.670   0.378   1.935
 9993SOL    HW130878   3.717   0.362   2.022
 9993SOL    HW230879   3.627   0.468   1.937
 9994SOL     OW30880   6.868   4.721   3.960
 9994SOL    HW130881   6.840   4.804   3.911
 9994SOL    HW230882   6.922   4.663   3.899
 9995SOL     OW30883   3.627   0.957   3.039
 9995SOL    HW130884   3.534   0.921   3.045
 9995SOL    HW230885   3.691   0.889   3.075
 9996SOL     OW30886   2.494   3.295   1.696
 9996SOL    HW130887   2.459   3.374   1.747
 9996SOL    HW230888   2.588   3.313   1.667
 9997SOL     OW30889   3.714   1.835   1.180
 9997SOL    HW130890   3.653   1.822   1.259
 9997SOL    HW230891   3.727   1.933   1.164
 9998SOL     OW30892   5.887   4.548   0.924
 9998SOL    HW130893   5.898   4.456   0.960
 9998SOL    HW230894   5.819   4.598   0.979
 9999SOL     OW30895   6.320   2.866   5.166
 9999SOL    HW130896   6.348   2.793   5.228
 9999SOL    HW230897   6.395   2.930   5.154
10000SOL     OW30898   6.860   3.386   0.400
10000SOL    HW130899   6.841   3.323   0.475
10000SOL    HW230900   6.957   3.409   0.399
10001SOL     OW30901   4.693   0.585   1.809
10001SOL    HW130902   4.634   0.642   1.866
10001SOL    HW230903   4.656   0.492   1.804
10002SOL     OW30904   1.750   0.474   1.962
10002SOL    HW130905   1.704   0.433   2.041
10002SOL    HW230906   1.784   0.565   1.986
10003SOL     OW30907   3.588   1.771   3.808
10003SOL    HW130908   3.567   1.812   3.719
10003SOL    HW230909   3.686   1.755   3.815
10004SOL     OW30910   4.649   2.621   4.083
10004SOL    HW130911   4.694   2.648   4.168
10004SOL    HW230912   4.653   2.522   4.073
10005SOL     OW30913   4.030   0.453   3.540
10005SOL    HW130914   4.090   0.413   3.471
10005SOL    HW230915   4.025   0.392   3.619
10006SOL     OW30916   5.386   0.344   4.048
10006SOL    HW130917   5.392   0.371   3.952
10006SOL    HW230918   5.365   0.425   4.104
10007SOL     OW30919   0.616   5.435   4.887
10007SOL    HW130920   0.654   5.478   4.969
10007SOL    HW230921   0.609   5.503   4.814
10008SOL     OW30922   4.073   1.164   4.680
10008SOL    HW130923   4.078   1.065   4.670
10008SOL    HW230924   3.994   1.187   4.737
10009SOL     OW30925   2.010   3.905   1.697
10009SOL    HW130926   1.971   3.991   1.732
10009SOL    HW230927   2.082   3.926   1.631
10010SOL     OW30928   1.740   0.266   5.646
10010SOL    HW130929   1.687   0.182   5.641
10010SOL    HW230930   1.810   0.266   5.575
10011SOL     OW30931   6.013   1.435   4.607
10011SOL    HW130932   5.949   1.439   4.684
10011SOL    HW230933   6.104   1.464   4.638
10012SOL     OW30934   4.783   0.962   3.391
10012SOL    HW130935   4.773   0.973   3.490
10012SOL    HW230936   4.836   1.039   3.355
10013SOL     OW30937   1.119   1.816   3.356
10013SOL    HW130938   1.087   1.784   3.267
10013SOL    HW230939   1.135   1.737   3.416
10014SOL     OW30940   6.825   4.111   0.676
10014SOL    HW130941   6.740   4.113   0.729
10014SOL    HW230942   6.805   4.081   0.583
10015SOL     OW30943   1.584   3.664   0.523
10015SOL    HW130944   1.575   3.573   0.485
10015SOL    HW230945   1.643   3.661   0.604
10016SOL     OW30946   1.798   0.840   6.158
10016SOL    HW130947   1.794   0.742   6.138
10016SOL    HW230948   1.732   0.889   6.100
10017SOL     OW30949   2.931   2.306   3.081
10017SOL    HW130950   2.895   2.302   3.175
10017SOL    HW230951   2.861   2.344   3.020
10018SOL     OW30952   4.668   7.001   5.371
10018SOL    HW130953   4.611   6.983   5.291
10018SOL    HW230954   4.675   0.073   5.386
10019SOL     OW30955   0.072   1.874   2.856
10019SOL    HW130956   0.115   1.874   2.946
10019SOL    HW230957   0.024   1.961   2.842
10020SOL     OW30958   1.403   2.175   1.811
10020SOL    HW130959   1.477   2.231   1.848
10020SOL    HW230960   1.412   2.169   1.712
10021SOL     OW30961   0.458   2.380   1.047
10021SOL    HW130962   0.484   2.373   1.143
10021SOL    HW230963   0.369   2.335   1.033
10022SOL     OW30964   2.596   0.107   6.344
10022SOL    HW130965   2.619   0.011   6.332
10022SOL    HW230966   2.583   0.127   6.441
10023SOL     OW30967   1.474   5.213   6.501
10023SOL    HW130968   1.574   5.206   6.498
10023SOL    HW230969   1.434   5.125   6.476
10024SOL     OW30970   1.534   6.482   2.105
10024SOL    HW130971   1.459   6.474   2.039
10024SOL    HW230972   1.509   6.548   2.176
10025SOL     OW30973   1.808   1.388   1.244
10025SOL    HW130974   1.784   1.398   1.147
10025SOL    HW230975   1.907   1.399   1.255
10026SOL     OW30976   5.451   6.309   3.293
10026SOL    HW130977   5.451   6.393   3.239
10026SOL    HW230978   5.413   6.328   3.384
10027SOL     OW30979   6.599   3.974   5.373
10027SOL    HW130980   6.686   3.994   5.419
10027SOL    HW230981   6.605   4.002   5.277
10028SOL     OW30982   1.888   1.188   1.707
10028SOL    HW130983   1.868   1.149   1.617
10028SOL    HW230984   1.910   1.285   1.698
10029SOL     OW30985   4.451   2.114   4.611
10029SOL    HW130986   4.438   2.038   4.674
10029SOL    HW230987   4.416   2.198   4.652
10030SOL     OW30988   2.625   6.525   3.676
10030SOL    HW130989   2.576   6.468   3.610
10030SOL    HW230990   2.560   6.560   3.744
10031SOL     OW30991   6.442   4.883   4.734
10031SOL    HW130992   6.350   4.909   4.706
10031SOL    HW230993   6.436   4.819   4.811
10032SOL     OW30994   2.272   1.827   5.363
10032SOL    HW130995   2.289   1.753   5.298
10032SOL    HW230996   2.190   1.805   5.416
10033SOL     OW30997   5.540   2.305   4.142
10033SOL    HW130998   5.441   2.304   4.153
10033SOL    HW230999   5.581   2.361   4.214
10034SOL     OW31000   2.879   0.037   4.010
10034SOL    HW131001   2.956   7.004   3.988
10034SOL    HW231002   2.793   7.017   3.989
10035SOL     OW31003   6.108   4.094   1.856
10035SOL    HW131004   6.207   4.084   1.848
10035SOL    HW231005   6.082   4.188   1.835
10036SOL     OW31006   6.208   2.383   1.561
10036SOL    HW131007   6.280   2.394   1.492
10036SOL    HW231008   6.245   2.339   1.642
10037SOL     OW31009   6.665   1.319   0.564
10037SOL    HW131010   6.614   1.232   0.562
10037SOL    HW231011   6.635   1.376   0.488
10038SOL     OW31012   5.144   0.428   6.765
10038SOL    HW131013   5.127   0.339   6.723
10038SOL    HW231014   5.066   0.489   6.748
10039SOL     OW31015   2.955   0.795   3.597
10039SOL    HW131016   3.030   0.810   3.532
10039SOL    HW231017   2.987   0.740   3.674
10040SOL     OW31018   5.188   5.420   6.757
10040SOL    HW131019   5.141   5.335   6.737
10040SOL    HW231020   5.233   5.454   6.675
10041SOL     OW31021   4.211   5.857   0.125
10041SOL    HW131022   4.287   5.921   0.137
10041SOL    HW231023   4.221   5.809   0.038
10042SOL     OW31024   0.761   2.567   3.609
10042SOL    HW131025   0.674   2.518   3.601
10042SOL    HW231026   0.756   2.653   3.558
10043SOL     OW31027   6.730   1.327   5.019
10043SOL    HW131028   6.712   1.343   5.116
10043SOL    HW231029   6.647   1.344   4.966
10044SOL     OW31030   1.649   2.139   4.078
10044SOL    HW131031   1.660   2.072   4.152
10044SOL    HW231032   1.598   2.097   4.003
10045SOL     OW31033   4.141   0.073   2.092
10045SOL    HW131034   4.099   0.126   2.166
10045SOL    HW231035   4.142   0.128   2.009
10046SOL     OW31036   2.170   3.589   0.512
10046SOL    HW131037   2.229   3.625   0.440
10046SOL    HW231038   2.176   3.489   0.513
10047SOL     OW31039   1.054   2.865   4.779
10047SOL    HW131040   1.132   2.893   4.835
10047SOL    HW231041   1.062   2.767   4.758
10048SOL     OW31042   7.020   0.268   2.204
10048SOL    HW131043   0.076   0.232   2.160
10048SOL    HW231044   0.012   0.361   2.238
10049SOL     OW31045   1.897   1.609   5.851
10049SOL    HW131046   1.879   1.607   5.753
10049SOL    HW231047   1.822   1.565   5.900
10050SOL     OW31048   5.855   3.932   5.172
10050SOL    HW131049   5.770   3.879   5.171
10050SOL    HW231050   5.913   3.904   5.096
10051SOL     OW31051   0.530   4.064   4.746
10051SOL    HW131052   0.450   4.025   4.792
10051SOL    HW231053   0.566   4.140   4.800
10052SOL     OW31054   2.105   1.335   3.475
10052SOL    HW131055   2.100   1.247   3.523
10052SOL    HW231056   2.055   1.328   3.388
10053SOL     OW31057   4.459   5.879   4.504
10053SOL    HW131058   4.492   5.923   4.421
10053SOL    HW231059   4.378   5.928   4.538
10054SOL     OW31060   6.192   5.487   5.877
10054SOL    HW131061   6.220   5.516   5.786
10054SOL    HW231062   6.181   5.567   5.935
10055SOL     OW31063   6.218   1.766   5.324
10055SOL    HW131064   6.251   1.840   5.383
10055SOL    HW231065   6.124   1.743   5.349
10056SOL     OW31066   5.153   4.718   3.632
10056SOL    HW131067   5.099   4.635   3.617
10056SOL    HW231068   5.097   4.798   3.611
10057SOL     OW31069   5.168   4.062   5.422
10057SOL    HW131070   5.161   4.047   5.323
10057SOL    HW231071   5.137   3.981   5.470
10058SOL     OW31072   6.265   3.880   5.115
10058SOL    HW131073   6.235   3.951   5.179
10058SOL    HW231074   6.269   3.918   5.023
10059SOL     OW31075   6.911   1.356   0.338
10059SOL    HW131076   6.827   1.399   0.304
10059SOL    HW231077   6.887   1.275   0.392
10060SOL     OW31078   2.228   2.476   2.760
10060SOL    HW131079   2.216   2.452   2.663
10060SOL    HW231080   2.267   2.568   2.767
10061SOL     OW31081   4.658   1.137   3.923
10061SOL    HW131082   4.609   1.071   3.980
10061SOL    HW231083   4.592   1.198   3.878
10062SOL     OW31084   6.996   6.860   4.404
10062SOL    HW131085   6.974   6.843   4.308
10062SOL    HW231086   6.924   6.821   4.461
10063SOL     OW31087   3.249   0.983   4.683
10063SOL    HW131088   3.167   0.967   4.738
10063SOL    HW231089   3.226   0.973   4.586
10064SOL     OW31090   4.925   6.480   6.507
10064SOL    HW131091   4.921   6.510   6.603
10064SOL    HW231092   4.911   6.558   6.447
10065SOL     OW31093   2.106   1.224   1.381
10065SOL    HW131094   2.087   1.300   1.320
10065SOL    HW231095   2.204   1.225   1.404
10066SOL     OW31096   0.303   2.540   4.764
10066SOL    HW131097   0.236   2.604   4.727
10066SOL    HW231098   0.330   2.475   4.693
10067SOL     OW31099   6.906   2.965   6.353
10067SOL    HW131100   6.925   2.902   6.278
10067SOL    HW231101   6.899   3.058   6.318
10068SOL     OW31102   1.072   4.151   3.462
10068SOL    HW131103   0.985   4.121   3.424
10068SOL    HW231104   1.146   4.095   3.424
10069SOL     OW31105   3.043   5.005   1.684
10069SOL    HW131106   2.954   5.014   1.730
10069SOL    HW231107   3.036   5.039   1.590
10070SOL     OW31108   0.727   5.390   5.514
10070SOL    HW131109   0.657   5.460   5.502
10070SOL    HW231110   0.811   5.433   5.549
10071SOL     OW31111   0.949   6.887   3.878
10071SOL    HW131112   0.961   6.986   3.878
10071SOL    HW231113   0.991   6.849   3.961
10072SOL     OW31114   0.453   1.151   3.736
10072SOL    HW131115   0.419   1.056   3.738
10072SOL    HW231116   0.382   1.210   3.699
10073SOL     OW31117   6.879   3.620   3.608
10073SOL    HW131118   6.924   3.701   3.571
10073SOL    HW231119   6.781   3.624   3.588
10074SOL     OW31120   1.720   6.343   6.742
10074SOL    HW131121   1.778   6.266   6.769
10074SOL    HW231122   1.625   6.322   6.763
10075SOL     OW31123   1.939   0.676   2.819
10075SOL    HW131124   1.934   0.652   2.915
10075SOL    HW231125   1.851   0.658   2.775
10076SOL     OW31126   4.888   5.771   2.887
10076SOL    HW131127   4.895   5.844   2.955
10076SOL    HW231128   4.825   5.798   2.815
10077SOL     OW31129   5.101   2.802   1.384
10077SOL    HW131130   5.136   2.760   1.468
10077SOL    HW231131   5.144   2.759   1.305
10078SOL     OW31132   0.291   6.132   4.649
10078SOL    HW131133   0.260   6.057   4.592
10078SOL    HW231134   0.295   6.103   4.745
10079SOL     OW31135   5.727   2.499   2.773
10079SOL    HW131136   5.768   2.460   2.855
10079SOL    HW231137   5.759   2.449   2.692
10080SOL     OW31138   4.876   0.952   6.265
10080SOL    HW131139   4.947   1.020   6.285
10080SOL    HW231140   4.853   0.955   6.168
10081SOL     OW31141   0.462   1.187   0.185
10081SOL    HW131142   0.389   1.247   0.219
10081SOL    HW231143   0.426   1.126   0.115
10082SOL     OW31144   1.114   5.574   2.921
10082SOL    HW131145   1.158   5.534   3.001
10082SOL    HW231146   1.060   5.504   2.874
10083SOL     OW31147   3.157   7.018   3.726
10083SOL    HW131148   3.113   6.930   3.706
10083SOL    HW231149   3.143   0.053   3.648
10084SOL     OW31150   0.175   6.665   5.097
10084SOL    HW131151   0.089   6.681   5.145
10084SOL    HW231152   0.190   6.740   5.031
10085SOL     OW31153   3.871   0.295   0.428
10085SOL    HW131154   3.839   0.319   0.336
10085SOL    HW231155   3.922   0.372   0.466
10086SOL     OW31156   5.751   6.758   3.291
10086SOL    HW131157   5.690   6.837   3.299
10086SOL    HW231158   5.846   6.789   3.287
10087SOL     OW31159   6.812   6.309   4.485
10087SOL    HW131160   6.876   6.379   4.454
10087SOL    HW231161   6.854   6.252   4.555
10088SOL     OW31162   6.751   0.787   1.084
10088SOL    HW131163   6.803   0.731   1.020
10088SOL    HW231164   6.731   0.733   1.166
10089SOL     OW31165   3.141   1.707   3.314
10089SOL    HW131166   3.149   1.728   3.216
10089SOL    HW231167   3.068   1.640   3.327
10090SOL     OW31168   0.577   4.763   2.010
10090SOL    HW131169   0.588   4.853   2.052
10090SOL    HW231170   0.510   4.768   1.936
10091SOL     OW31171   6.369   6.125   0.039
10091SOL    HW131172   6.366   6.046   0.100
10091SOL    HW231173   6.453   6.176   0.056
10092SOL     OW31174   1.226   2.968   5.349
10092SOL    HW131175   1.240   3.061   5.316
10092SOL    HW231176   1.238   2.966   5.449
10093SOL     OW31177   4.913   3.653   4.743
10093SOL    HW131178   4.979   3.725   4.766
10093SOL    HW231179   4.863   3.627   4.826
10094SOL     OW31180   2.449   6.769   0.501
10094SOL    HW131181   2.364   6.812   0.471
10094SOL    HW231182   2.461   6.783   0.599
10095SOL     OW31183   5.521   1.396   4.535
10095SOL    HW131184   5.590   1.328   4.511
10095SOL    HW231185   5.488   1.379   4.628
10096SOL     OW31186   4.817   0.423   3.091
10096SOL    HW131187   4.786   0.506   3.044
10096SOL    HW231188   4.814   0.346   3.027
10097SOL     OW31189   2.101   2.156   6.078
10097SOL    HW131190   2.200   2.159   6.072
10097SOL    HW231191   2.073   2.153   6.174
10098SOL     OW31192   2.826   6.618   4.669
10098SOL    HW131193   2.731   6.588   4.670
10098SOL    HW231194   2.831   6.712   4.701
10099SOL     OW31195   6.395   4.486   2.232
10099SOL    HW131196   6.356   4.507   2.143
10099SOL    HW231197   6.327   4.440   2.289
10100SOL     OW31198   5.596   5.612   5.724
10100SOL    HW131199   5.549   5.524   5.719
10100SOL    HW231200   5.597   5.656   5.634
10101SOL     OW31201   6.699   2.910   1.993
10101SOL    HW131202   6.684   3.008   1.974
10101SOL    HW231203   6.761   2.900   2.071
10102SOL     OW31204   6.116   0.558   1.054
10102SOL    HW131205   6.072   0.468   1.054
10102SOL    HW231206   6.047   0.629   1.070
10103SOL     OW31207   1.510   0.642   4.885
10103SOL    HW131208   1.477   0.709   4.818
10103SOL    HW231209   1.543   0.561   4.837
10104SOL     OW31210   2.080   1.376   5.866
10104SOL    HW131211   1.998   1.320   5.874
10104SOL    HW231212   2.055   1.473   5.876
10105SOL     OW31213   2.341   1.317   5.966
10105SOL    HW131214   2.421   1.352   5.918
10105SOL    HW231215   2.260   1.327   5.907
10106SOL     OW31216   3.886   6.246   1.338
10106SOL    HW131217   3.858   6.262   1.244
10106SOL    HW231218   3.982   6.220   1.341
10107SOL     OW31219   4.885   2.380   6.658
10107SOL    HW131220   4.906   2.362   6.754
10107SOL    HW231221   4.967   2.412   6.612
10108SOL     OW31222   0.993   2.688   0.646
10108SOL    HW131223   0.903   2.693   0.689
10108SOL    HW231224   1.026   2.594   0.651
10109SOL     OW31225   0.636   0.841   0.097
10109SOL    HW131226   0.634   0.868   0.000
10109SOL    HW231227   0.592   0.911   0.152
10110SOL     OW31228   4.760   5.170   2.955
10110SOL    HW131229   4.852   5.133   2.944
10110SOL    HW231230   4.698   5.098   2.984
10111SOL     OW31231   0.836   3.033   2.602
10111SOL    HW131232   0.912   3.095   2.584
10111SOL    HW231233   0.750   3.080   2.583
10112SOL     OW31234   6.289   3.646   3.270
10112SOL    HW131235   6.253   3.617   3.181
10112SOL    HW231236   6.304   3.566   3.327
10113SOL     OW31237   4.202   1.020   6.911
10113SOL    HW131238   4.123   1.014   6.849
10113SOL    HW231239   4.263   1.093   6.881
10114SOL     OW31240   3.835   2.056   3.027
10114SOL    HW131241   3.932   2.079   3.021
10114SOL    HW231242   3.792   2.113   3.097
10115SOL     OW31243   3.589   1.696   4.199
10115SOL    HW131244   3.641   1.751   4.135
10115SOL    HW231245   3.509   1.658   4.153
10116SOL     OW31246   6.608   0.237   5.497
10116SOL    HW131247   6.642   0.261   5.406
10116SOL    HW231248   6.542   0.305   5.527
10117SOL     OW31249   0.146   5.698   5.645
10117SOL    HW131250   0.110   5.610   5.675
10117SOL    HW231251   0.207   5.736   5.715
10118SOL     OW31252   2.771   4.787   4.471
10118SOL    HW131253   2.677   4.813   4.494
10118SOL    HW231254   2.799   4.710   4.528
10119SOL     OW31255   6.827   5.649   4.002
10119SOL    HW131256   6.820   5.747   3.983
10119SOL    HW231257   6.739   5.606   3.981
10120SOL     OW31258   1.509   3.174   3.361
10120SOL    HW131259   1.484   3.229   3.282
10120SOL    HW231260   1.604   3.193   3.386
10121SOL     OW31261   6.173   4.590   1.069
10121SOL    HW131262   6.094   4.538   1.036
10121SOL    HW231263   6.257   4.552   1.032
10122SOL     OW31264   6.565   2.429   3.808
10122SOL    HW131265   6.588   2.343   3.854
10122SOL    HW231266   6.490   2.414   3.745
10123SOL     OW31267   6.263   6.402   0.477
10123SOL    HW131268   6.256   6.307   0.508
10123SOL    HW231269   6.343   6.412   0.417
10124SOL     OW31270   1.879   5.299   1.930
10124SOL    HW131271   1.859   5.242   2.009
10124SOL    HW231272   1.863   5.247   1.846
10125SOL     OW31273   2.248   0.988   1.480
10125SOL    HW131274   2.158   0.959   1.449
10125SOL    HW231275   2.239   1.063   1.545
10126SOL     OW31276   6.673   0.170   6.161
10126SOL    HW131277   6.586   0.218   6.171
10126SOL    HW231278   6.659   0.085   6.110
10127SOL     OW31279   1.561   4.358   5.875
10127SOL    HW131280   1.470   4.321   5.857
10127SOL    HW231281   1.630   4.290   5.852
10128SOL     OW31282   2.685   0.571   6.795
10128SOL    HW131283   2.664   0.576   6.892
10128SOL    HW231284   2.703   0.475   6.770
10129SOL     OW31285   6.991   1.341   1.740
10129SOL    HW131286   6.932   1.260   1.732
10129SOL    HW231287   7.000   1.366   1.836
10130SOL     OW31288   1.176   2.620   1.560
10130SOL    HW131289   1.163   2.645   1.464
10130SOL    HW231290   1.222   2.532   1.566
10131SOL     OW31291   1.838   0.689   4.244
10131SOL    HW131292   1.787   0.773   4.228
10131SOL    HW231293   1.789   0.633   4.311
10132SOL     OW31294   0.749   0.608   2.062
10132SOL    HW131295   0.659   0.615   2.104
10132SOL    HW231296   0.771   0.693   2.015
10133SOL     OW31297   4.148   6.310   1.220
10133SOL    HW131298   4.162   6.255   1.137
10133SOL    HW231299   4.212   6.281   1.290
10134SOL     OW31300   7.025   1.195   3.003
10134SOL    HW131301   0.052   1.124   3.048
10134SOL    HW231302   0.041   1.284   3.018
10135SOL     OW31303   5.909   1.002   3.885
10135SOL    HW131304   6.006   0.980   3.874
10135SOL    HW231305   5.887   1.081   3.828
10136SOL     OW31306   4.807   2.761   2.571
10136SOL    HW131307   4.895   2.714   2.560
10136SOL    HW231308   4.738   2.695   2.601
10137SOL     OW31309   0.591   4.932   6.013
10137SOL    HW131310   0.619   4.843   5.976
10137SOL    HW231311   0.563   4.922   6.108
10138SOL     OW31312   5.596   1.862   0.129
10138SOL    HW131313   5.691   1.832   0.126
10138SOL    HW231314   5.587   1.947   0.077
10139SOL     OW31315   3.736   2.895   4.983
10139SOL    HW131316   3.814   2.876   5.043
10139SOL    HW231317   3.656   2.920   5.038
10140SOL     OW31318   6.698   6.638   6.195
10140SOL    HW131319   6.618   6.666   6.247
10140SOL    HW231320   6.698   6.539   6.183
10141SOL     OW31321   3.932   0.704   3.420
10141SOL    HW131322   4.015   0.757   3.404
10141SOL    HW231323   3.957   0.612   3.451
10142SOL     OW31324   5.832   6.645   4.824
10142SOL    HW131325   5.874   6.570   4.875
10142SOL    HW231326   5.733   6.645   4.841
10143SOL     OW31327   6.244   2.912   0.028
10143SOL    HW131328   6.179   2.863   0.086
10143SOL    HW231329   6.252   3.007   0.060
10144SOL     OW31330   3.826   6.972   5.451
10144SOL    HW131331   3.856   7.019   5.534
10144SOL    HW231332   3.894   6.983   5.379
10145SOL     OW31333   3.941   6.301   2.505
10145SOL    HW131334   4.012   6.357   2.464
10145SOL    HW231335   3.861   6.300   2.445
10146SOL     OW31336   6.875   4.270   4.417
10146SOL    HW131337   6.926   4.226   4.490
10146SOL    HW231338   6.912   4.240   4.328
10147SOL     OW31339   4.431   4.768   0.180
10147SOL    HW131340   4.406   4.861   0.152
10147SOL    HW231341   4.516   4.771   0.233
10148SOL     OW31342   6.763   4.381   1.277
10148SOL    HW131343   6.706   4.451   1.318
10148SOL    HW231344   6.750   4.294   1.326
10149SOL     OW31345   4.883   4.528   1.333
10149SOL    HW131346   4.941   4.550   1.255
10149SOL    HW231347   4.940   4.496   1.409
10150SOL     OW31348   5.275   3.462   1.879
10150SOL    HW131349   5.237   3.373   1.854
10150SOL    HW231350   5.275   3.472   1.978
10151SOL     OW31351   0.304   6.852   5.511
10151SOL    HW131352   0.208   6.877   5.497
10151SOL    HW231353   0.329   6.779   5.447
10152SOL     OW31354   5.975   5.529   3.427
10152SOL    HW131355   6.041   5.602   3.444
10152SOL    HW231356   6.015   5.441   3.456
10153SOL     OW31357   4.341   5.892   3.581
10153SOL    HW131358   4.248   5.856   3.587
10153SOL    HW231359   4.373   5.917   3.673
10154SOL     OW31360   4.103   5.346   5.787
10154SOL    HW131361   4.112   5.443   5.812
10154SOL    HW231362   4.161   5.291   5.847
10155SOL     OW31363   5.161   2.064   5.889
10155SOL    HW131364   5.140   1.968   5.872
10155SOL    HW231365   5.146   2.085   5.986
10156SOL     OW31366   4.426   0.306   1.266
10156SOL    HW131367   4.442   0.209   1.283
10156SOL    HW231368   4.338   0.333   1.304
10157SOL     OW31369   6.911   2.178   0.566
10157SOL    HW131370   6.833   2.119   0.585
10157SOL    HW231371   6.903   2.216   0.474
10158SOL     OW31372   6.168   6.648   2.582
10158SOL    HW131373   6.161   6.548   2.590
10158SOL    HW231374   6.094   6.691   2.634
10159SOL     OW31375   3.360   3.089   2.801
10159SOL    HW131376   3.416   3.116   2.722
10159SOL    HW231377   3.386   2.998   2.831
10160SOL     OW31378   2.268   4.370   3.000
10160SOL    HW131379   2.244   4.435   2.927
10160SOL    HW231380   2.353   4.399   3.043
10161SOL     OW31381   3.710   4.768   6.827
10161SOL    HW131382   3.792   4.711   6.823
10161SOL    HW231383   3.644   4.727   6.890
10162SOL     OW31384   1.815   4.681   1.878
10162SOL    HW131385   1.719   4.702   1.862
10162SOL    HW231386   1.858   4.754   1.930
10163SOL     OW31387   1.163   5.816   5.882
10163SOL    HW131388   1.076   5.789   5.923
10163SOL    HW231389   1.181   5.760   5.802
10164SOL     OW31390   6.529   3.390   3.667
10164SOL    HW131391   6.584   3.315   3.630
10164SOL    HW231392   6.469   3.354   3.739
10165SOL     OW31393   5.877   2.654   4.114
10165SOL    HW131394   5.944   2.585   4.142
10165SOL    HW231395   5.804   2.611   4.061
10166SOL     OW31396   1.613   2.673   1.004
10166SOL    HW131397   1.642   2.626   1.087
10166SOL    HW231398   1.626   2.614   0.925
10167SOL     OW31399   0.286   5.061   7.008
10167SOL    HW131400   0.258   5.149   0.019
10167SOL    HW231401   0.332   5.007   0.051
10168SOL     OW31402   5.802   0.996   5.864
10168SOL    HW131403   5.837   0.904   5.884
10168SOL    HW231404   5.714   1.009   5.910
10169SOL     OW31405   0.159   4.027   2.909
10169SOL    HW131406   0.167   4.109   2.852
10169SOL    HW231407   0.204   4.044   2.997
10170SOL     OW31408   6.689   5.660   6.830
10170SOL    HW131409   6.739   5.744   6.813
10170SOL    HW231410   6.730   5.612   6.907
10171SOL     OW31411   0.975   2.714   5.635
10171SOL    HW131412   0.986   2.615   5.643
10171SOL    HW231413   1.021   2.746   5.552
10172SOL     OW31414   0.475   6.834   3.830
10172SOL    HW131415   0.506   6.739   3.821
10172SOL    HW231416   0.547   6.888   3.874
10173SOL     OW31417   3.123   4.286   0.045
10173SOL    HW131418   3.222   4.295   0.040
10173SOL    HW231419   3.083   4.303   6.981
10174SOL     OW31420   5.386   6.027   3.188
10174SOL    HW131421   5.391   6.093   3.263
10174SOL    HW231422   5.457   6.048   3.121
10175SOL     OW31423   6.681   1.865   3.389
10175SOL    HW131424   6.632   1.812   3.321
10175SOL    HW231425   6.770   1.822   3.407
10176SOL     OW31426   6.828   3.857   5.636
10176SOL    HW131427   6.857   3.950   5.613
10176SOL    HW231428   6.788   3.857   5.728
10177SOL     OW31429   2.100   0.238   1.000
10177SOL    HW131430   2.090   0.185   0.915
10177SOL    HW231431   2.011   0.243   1.046
10178SOL     OW31432   1.797   0.623   0.740
10178SOL    HW131433   1.831   0.628   0.834
10178SOL    HW231434   1.852   0.682   0.681
10179SOL     OW31435   0.176   4.023   0.216
10179SOL    HW131436   0.248   3.983   0.160
10179SOL    HW231437   0.216   4.057   0.302
10180SOL     OW31438   4.917   6.987   0.113
10180SOL    HW131439   4.914   6.888   0.131
10180SOL    HW231440   4.937   0.009   0.197
10181SOL     OW31441   6.681   3.222   1.091
10181SOL    HW131442   6.609   3.288   1.069
10181SOL    HW231443   6.678   3.147   1.025
10182SOL     OW31444   5.163   0.820   0.314
10182SOL    HW131445   5.066   0.829   0.334
10182SOL    HW231446   5.214   0.889   0.365
10183SOL     OW31447   5.761   2.892   5.727
10183SOL    HW131448   5.789   2.796   5.718
10183SOL    HW231449   5.833   2.943   5.775
10184SOL     OW31450   5.217   3.064   6.065
10184SOL    HW131451   5.178   3.144   6.020
10184SOL    HW231452   5.315   3.079   6.081
10185SOL     OW31453   4.317   6.253   2.676
10185SOL    HW131454   4.228   6.289   2.702
10185SOL    HW231455   4.345   6.182   2.740
10186SOL     OW31456   4.947   3.736   5.202
10186SOL    HW131457   4.907   3.692   5.121
10186SOL    HW231458   4.891   3.715   5.282
10187SOL     OW31459   2.212   4.018   5.407
10187SOL    HW131460   2.271   3.950   5.363
10187SOL    HW231461   2.164   4.071   5.338
10188SOL     OW31462   3.217   5.918   6.747
10188SOL    HW131463   3.304   5.968   6.758
10188SOL    HW231464   3.141   5.983   6.752
10189SOL     OW31465   1.516   0.565   0.258
10189SOL    HW131466   1.419   0.545   0.271
10189SOL    HW231467   1.533   0.587   0.162
10190SOL     OW31468   3.565   3.683   1.361
10190SOL    HW131469   3.554   3.585   1.378
10190SOL    HW231470   3.630   3.696   1.286
10191SOL     OW31471   5.731   5.725   1.517
10191SOL    HW131472   5.679   5.698   1.598
10191SOL    HW231473   5.828   5.722   1.538
10192SOL     OW31474   2.083   1.870   4.764
10192SOL    HW131475   2.031   1.847   4.846
10192SOL    HW231476   2.106   1.968   4.765
10193SOL     OW31477   3.468   3.797   2.274
10193SOL    HW131478   3.496   3.875   2.331
10193SOL    HW231479   3.370   3.804   2.254
10194SOL     OW31480   3.370   0.120   5.192
10194SOL    HW131481   3.353   0.149   5.286
10194SOL    HW231482   3.389   0.200   5.135
10195SOL     OW31483   6.652   7.016   1.484
10195SOL    HW131484   6.698   0.033   1.407
10195SOL    HW231485   6.676   6.919   1.487
10196SOL     OW31486   5.980   1.627   3.598
10196SOL    HW131487   6.003   1.534   3.627
10196SOL    HW231488   6.044   1.692   3.640
10197SOL     OW31489   5.951   0.801   4.156
10197SOL    HW131490   5.996   0.760   4.076
10197SOL    HW231491   5.852   0.796   4.144
10198SOL     OW31492   3.869   6.661   0.365
10198SOL    HW131493   3.875   6.617   0.454
10198SOL    HW231494   3.805   6.738   0.370
10199SOL     OW31495   0.742   1.193   6.846
10199SOL    HW131496   0.783   1.282   6.825
10199SOL    HW231497   0.738   1.181   6.945
10200SOL     OW31498   5.134   2.891   5.684
10200SOL    HW131499   5.120   2.990   5.682
10200SOL    HW231500   5.137   2.859   5.779
10201SOL     OW31501   0.603   6.019   1.377
10201SOL    HW131502   0.663   5.945   1.406
10201SOL    HW231503   0.519   6.018   1.432
10202SOL     OW31504   1.376   3.598   0.720
10202SOL    HW131505   1.441   3.531   0.683
10202SOL    HW231506   1.313   3.625   0.647
10203SOL     OW31507   1.517   2.581   2.109
10203SOL    HW131508   1.486   2.674   2.131
10203SOL    HW231509   1.608   2.567   2.147
10204SOL     OW31510   3.902   4.733   6.137
10204SOL    HW131511   3.886   4.822   6.180
10204SOL    HW231512   3.889   4.742   6.038
10205SOL     OW31513   4.259   1.287   3.082
10205SOL    HW131514   4.294   1.205   3.128
10205SOL    HW231515   4.169   1.267   3.042
10206SOL     OW31516   5.044   6.072   6.168
10206SOL    HW131517   5.016   6.137   6.239
10206SOL    HW231518   5.117   6.112   6.113
10207SOL     OW31519   1.457   0.224   1.083
10207SOL    HW131520   1.545   0.270   1.071
10207SOL    HW231521   1.410   0.263   1.162
10208SOL     OW31522   6.760   5.127   4.895
10208SOL    HW131523   6.707   5.175   4.964
10208SOL    HW231524   6.739   5.165   4.805
10209SOL     OW31525   0.222   0.809   5.631
10209SOL    HW131526   0.141   0.751   5.629
10209SOL    HW231527   0.204   0.892   5.578
10210SOL     OW31528   4.989   6.898   1.323
10210SOL    HW131529   4.911   6.952   1.352
10210SOL    HW231530   4.961   6.836   1.249
10211SOL     OW31531   4.274   6.458   5.793
10211SOL    HW131532   4.291   6.488   5.699
10211SOL    HW231533   4.286   6.536   5.855
10212SOL     OW31534   0.331   1.199   4.493
10212SOL    HW131535   0.377   1.142   4.424
10212SOL    HW231536   0.322   1.292   4.457
10213SOL     OW31537   6.032   1.809   2.747
10213SOL    HW131538   6.074   1.824   2.658
10213SOL    HW231539   6.019   1.711   2.762
10214SOL     OW31540   0.574   1.100   2.460
10214SOL    HW131541   0.539   1.126   2.370
10214SOL    HW231542   0.604   1.004   2.458
10215SOL     OW31543   3.570   2.806   5.297
10215SOL    HW131544   3.668   2.803   5.276
10215SOL    HW231545   3.523   2.731   5.251
10216SOL     OW31546   0.059   0.061   0.913
10216SOL    HW131547   0.138   0.045   0.973
10216SOL    HW231548   7.023   7.011   0.921
10217SOL     OW31549   2.337   1.389   3.760
10217SOL    HW131550   2.262   1.344   3.809
10217SOL    HW231551   2.424   1.358   3.797
10218SOL     OW31552   0.592   1.162   1.106
10218SOL    HW131553   0.606   1.082   1.048
10218SOL    HW231554   0.518   1.218   1.069
10219SOL     OW31555   0.524   2.820   1.927
10219SOL    HW131556   0.531   2.875   2.010
10219SOL    HW231557   0.541   2.724   1.950
10220SOL     OW31558   4.389   1.613   2.046
10220SOL    HW131559   4.398   1.708   2.016
10220SOL    HW231560   4.293   1.592   2.064
10221SOL     OW31561   1.412   1.856   3.851
10221SOL    HW131562   1.365   1.837   3.937
10221SOL    HW231563   1.456   1.773   3.817
10222SOL     OW31564   0.637   3.673   5.520
10222SOL    HW131565   0.632   3.771   5.500
10222SOL    HW231566   0.619   3.621   5.436
10223SOL     OW31567   2.318   5.731   6.330
10223SOL    HW131568   2.245   5.664   6.347
10223SOL    HW231569   2.283   5.803   6.269
10224SOL     OW31570   0.661   0.927   4.371
10224SOL    HW131571   0.668   1.007   4.430
10224SOL    HW231572   0.610   0.950   4.288
10225SOL     OW31573   1.683   6.298   5.362
10225SOL    HW131574   1.645   6.386   5.334
10225SOL    HW231575   1.618   6.225   5.339
10226SOL     OW31576   2.941   0.143   7.022
10226SOL    HW131577   2.920   0.225   0.048
10226SOL    HW231578   2.857   0.096   6.997
10227SOL     OW31579   4.800   4.958   1.105
10227SOL    HW131580   4.842   4.987   1.020
10227SOL    HW231581   4.757   4.868   1.092
10228SOL     OW31582   0.982   5.524   2.233
10228SOL    HW131583   0.958   5.522   2.135
10228SOL    HW231584   0.959   5.435   2.274
10229SOL     OW31585   1.096   1.279   4.045
10229SOL    HW131586   1.123   1.345   4.115
10229SOL    HW231587   1.152   1.292   3.964
10230SOL     OW31588   6.948   0.510   3.833
10230SOL    HW131589   0.004   0.504   3.889
10230SOL    HW231590   6.930   0.420   3.791
10231SOL     OW31591   0.264   6.257   5.814
10231SOL    HW131592   0.181   6.313   5.813
10231SOL    HW231593   0.303   6.258   5.906
10232SOL     OW31594   3.333   0.792   4.267
10232SOL    HW131595   3.280   0.785   4.182
10232SOL    HW231596   3.366   0.701   4.293
10233SOL     OW31597   5.309   2.973   5.116
10233SOL    HW131598   5.236   2.957   5.183
10233SOL    HW231599   5.383   3.024   5.159
10234SOL     OW31600   5.420   0.352   0.667
10234SOL    HW131601   5.475   0.268   0.665
10234SOL    HW231602   5.480   0.431   0.655
10235SOL     OW31603   4.621   1.672   0.517
10235SOL    HW131604   4.650   1.577   0.505
10235SOL    HW231605   4.619   1.694   0.614
10236SOL     OW31606   1.350   6.047   2.032
10236SOL    HW131607   1.303   6.111   2.092
10236SOL    HW231608   1.416   6.098   1.975
10237SOL     OW31609   6.251   3.765   1.051
10237SOL    HW131610   6.223   3.689   1.110
10237SOL    HW231611   6.309   3.828   1.103
10238SOL     OW31612   3.559   4.211   4.271
10238SOL    HW131613   3.488   4.168   4.327
10238SOL    HW231614   3.569   4.307   4.299
10239SOL     OW31615   1.480   4.081   5.288
10239SOL    HW131616   1.505   4.011   5.356
10239SOL    HW231617   1.481   4.171   5.332
10240SOL     OW31618   1.719   4.871   2.931
10240SOL    HW131619   1.790   4.877   2.861
10240SOL    HW231620   1.730   4.785   2.981
10241SOL     OW31621   0.229   0.848   1.890
10241SOL    HW131622   0.250   0.758   1.853
10241SOL    HW231623   0.283   0.863   1.973
10242SOL     OW31624   6.820   1.961   6.812
10242SOL    HW131625   6.721   1.964   6.798
10242SOL    HW231626   6.848   2.040   6.866
10243SOL     OW31627   0.259   5.124   1.385
10243SOL    HW131628   0.160   5.140   1.377
10243SOL    HW231629   0.281   5.034   1.350
10244SOL     OW31630   1.744   4.720   6.920
10244SOL    HW131631   1.829   4.674   6.894
10244SOL    HW231632   1.766   4.810   6.960
10245SOL     OW31633   2.801   4.128   0.230
10245SOL    HW131634   2.715   4.079   0.245
10245SOL    HW231635   2.798   4.176   0.142
10246SOL     OW31636   2.957   3.815   4.074
10246SOL    HW131637   2.941   3.844   4.168
10246SOL    HW231638   2.997   3.723   4.073
10247SOL     OW31639   0.496   5.583   4.434
10247SOL    HW131640   0.524   5.530   4.354
10247SOL    HW231641   0.480   5.678   4.407
10248SOL     OW31642   3.040   0.093   1.853
10248SOL    HW131643   2.971   0.031   1.888
10248SOL    HW231644   3.092   0.132   1.929
10249SOL     OW31645   2.801   0.982   5.993
10249SOL    HW131646   2.770   1.074   6.017
10249SOL    HW231647   2.829   0.934   6.076
10250SOL     OW31648   0.198   2.263   1.161
10250SOL    HW131649   0.196   2.337   1.228
10250SOL    HW231650   0.207   2.176   1.208
10251SOL     OW31651   2.250   2.680   5.004
10251SOL    HW131652   2.167   2.670   4.950
10251SOL    HW231653   2.239   2.756   5.069
10252SOL     OW31654   0.303   5.942   0.347
10252SOL    HW131655   0.269   5.854   0.381
10252SOL    HW231656   0.249   6.016   0.387
10253SOL     OW31657   5.629   6.336   0.808
10253SOL    HW131658   5.631   6.436   0.803
10253SOL    HW231659   5.606   6.308   0.901
10254SOL     OW31660   4.326   2.119   5.034
10254SOL    HW131661   4.297   2.171   5.114
10254SOL    HW231662   4.304   2.170   4.951
10255SOL     OW31663   2.554   5.215   1.691
10255SOL    HW131664   2.489   5.274   1.643
10255SOL    HW231665   2.645   5.227   1.653
10256SOL     OW31666   5.441   0.168   1.811
10256SOL    HW131667   5.363   0.228   1.789
10256SOL    HW231668   5.524   0.205   1.770
10257SOL     OW31669   2.107   5.108   4.285
10257SOL    HW131670   2.131   5.068   4.197
10257SOL    HW231671   2.190   5.128   4.337
10258SOL     OW31672   4.500   0.260   3.980
10258SOL    HW131673   4.560   0.212   3.917
10258SOL    HW231674   4.555   0.305   4.050
10259SOL     OW31675   0.847   5.630   3.183
10259SOL    HW131676   0.910   5.708   3.179
10259SOL    HW231677   0.900   5.545   3.182
10260SOL     OW31678   0.048   0.650   3.449
10260SOL    HW131679   0.124   0.686   3.394
10260SOL    HW231680   0.084   0.592   3.522
10261SOL     OW31681   6.797   6.645   2.075
10261SOL    HW131682   6.721   6.581   2.066
10261SOL    HW231683   6.776   6.729   2.025
10262SOL     OW31684   3.072   6.029   4.546
10262SOL    HW131685   3.152   5.974   4.569
10262SOL    HW231686   2.989   5.975   4.564
10263SOL     OW31687   4.794   1.240   6.374
10263SOL    HW131688   4.889   1.235   6.344
10263SOL    HW231689   4.754   1.149   6.373
10264SOL     OW31690   5.690   1.760   6.776
10264SOL    HW131691   5.620   1.711   6.828
10264SOL    HW231692   5.657   1.852   6.755
10265SOL     OW31693   3.845   2.005   2.629
10265SOL    HW131694   3.862   2.022   2.532
10265SOL    HW231695   3.755   2.041   2.655
10266SOL     OW31696   3.543   2.820   5.561
10266SOL    HW131697   3.542   2.824   5.461
10266SOL    HW231698   3.575   2.730   5.591
10267SOL     OW31699   6.348   2.042   6.074
10267SOL    HW131700   6.286   2.093   6.134
10267SOL    HW231701   6.407   1.984   6.129
10268SOL     OW31702   3.833   6.375   1.739
10268SOL    HW131703   3.761   6.324   1.785
10268SOL    HW231704   3.889   6.423   1.806
10269SOL     OW31705   1.717   2.180   5.308
10269SOL    HW131706   1.765   2.212   5.389
10269SOL    HW231707   1.666   2.097   5.330
10270SOL     OW31708   2.195   5.161   2.624
10270SOL    HW131709   2.232   5.077   2.585
10270SOL    HW231710   2.194   5.153   2.724
10271SOL     OW31711   4.003   3.327   0.424
10271SOL    HW131712   3.930   3.347   0.358
10271SOL    HW231713   3.976   3.248   0.480
10272SOL     OW31714   1.211   0.391   4.454
10272SOL    HW131715   1.221   0.359   4.548
10272SOL    HW231716   1.119   0.369   4.421
10273SOL     OW31717   4.780   5.506   3.715
10273SOL    HW131718   4.760   5.482   3.810
10273SOL    HW231719   4.827   5.430   3.670
10274SOL     OW31720   1.121   4.460   5.255
10274SOL    HW131721   1.192   4.452   5.185
10274SOL    HW231722   1.075   4.372   5.266
10275SOL     OW31723   0.982   6.934   2.004
10275SOL    HW131724   0.968   0.002   1.972
10275SOL    HW231725   0.931   6.920   2.089
10276SOL     OW31726   6.597   5.751   6.180
10276SOL    HW131727   6.681   5.806   6.185
10276SOL    HW231728   6.527   5.792   6.239
10277SOL     OW31729   2.370   6.088   3.902
10277SOL    HW131730   2.456   6.134   3.881
10277SOL    HW231731   2.389   5.994   3.933
10278SOL     OW31732   5.709   0.805   4.874
10278SOL    HW131733   5.718   0.783   4.777
10278SOL    HW231734   5.775   0.877   4.898
10279SOL     OW31735   2.644   6.885   4.261
10279SOL    HW131736   2.670   6.930   4.346
10279SOL    HW231737   2.688   6.795   4.256
10280SOL     OW31738   2.192   3.581   0.973
10280SOL    HW131739   2.146   3.659   1.017
10280SOL    HW231740   2.189   3.502   1.035
10281SOL     OW31741   6.354   2.487   2.618
10281SOL    HW131742   6.329   2.481   2.522
10281SOL    HW231743   6.416   2.412   2.641
10282SOL     OW31744   6.337   3.726   4.367
10282SOL    HW131745   6.385   3.754   4.450
10282SOL    HW231746   6.331   3.804   4.304
10283SOL     OW31747   1.046   2.981   0.308
10283SOL    HW131748   1.144   3.000   0.319
10283SOL    HW231749   1.000   3.062   0.270
10284SOL     OW31750   5.076   4.635   5.829
10284SOL    HW131751   4.978   4.619   5.821
10284SOL    HW231752   5.124   4.548   5.834
10285SOL     OW31753   4.642   0.412   1.064
10285SOL    HW131754   4.719   0.348   1.051
10285SOL    HW231755   4.597   0.391   1.151
10286SOL     OW31756   3.406   2.133   3.910
10286SOL    HW131757   3.312   2.147   3.878
10286SOL    HW231758   3.413   2.045   3.956
10287SOL     OW31759   1.579   6.403   1.574
10287SOL    HW131760   1.584   6.488   1.521
10287SOL    HW231761   1.620   6.328   1.522
10288SOL     OW31762   5.094   6.587   2.254
10288SOL    HW131763   5.008   6.575   2.303
10288SOL    HW231764   5.083   6.657   2.183
10289SOL     OW31765   3.147   0.866   2.273
10289SOL    HW131766   3.119   0.771   2.291
10289SOL    HW231767   3.068   0.918   2.239
10290SOL     OW31768   3.772   4.076   2.713
10290SOL    HW131769   3.751   4.157   2.659
10290SOL    HW231770   3.756   4.095   2.810
10291SOL     OW31771   4.047   0.688   4.207
10291SOL    HW131772   4.078   0.695   4.301
10291SOL    HW231773   4.122   0.713   4.145
10292SOL     OW31774   0.987   1.602   4.407
10292SOL    HW131775   1.020   1.677   4.464
10292SOL    HW231776   0.892   1.619   4.383
10293SOL     OW31777   1.731   6.200   2.718
10293SOL    HW131778   1.658   6.214   2.650
10293SOL    HW231779   1.756   6.103   2.720
10294SOL     OW31780   4.897   3.610   3.239
10294SOL    HW131781   4.886   3.677   3.165
10294SOL    HW231782   4.864   3.650   3.325
10295SOL     OW31783   6.425   4.857   6.116
10295SOL    HW131784   6.437   4.909   6.031
10295SOL    HW231785   6.491   4.782   6.120
10296SOL     OW31786   5.087   3.740   6.686
10296SOL    HW131787   5.141   3.791   6.752
10296SOL    HW231788   5.118   3.763   6.593
10297SOL     OW31789   2.277   6.528   5.005
10297SOL    HW131790   2.341   6.593   5.048
10297SOL    HW231791   2.288   6.438   5.047
10298SOL     OW31792   4.214   4.677   2.816
10298SOL    HW131793   4.252   4.689   2.907
10298SOL    HW231794   4.114   4.671   2.822
10299SOL     OW31795   4.422   4.581   2.065
10299SOL    HW131796   4.436   4.483   2.055
10299SOL    HW231797   4.336   4.597   2.114
10300SOL     OW31798   1.905   4.904   2.523
10300SOL    HW131799   1.872   4.812   2.508
10300SOL    HW231800   1.949   4.910   2.613
10301SOL     OW31801   5.886   2.075   2.792
10301SOL    HW131802   5.837   2.019   2.859
10301SOL    HW231803   5.960   2.022   2.752
10302SOL     OW31804   1.050   6.050   3.993
10302SOL    HW131805   1.083   6.083   4.081
10302SOL    HW231806   1.127   6.037   3.931
10303SOL     OW31807   3.540   5.236   1.077
10303SOL    HW131808   3.543   5.327   1.036
10303SOL    HW231809   3.555   5.242   1.175
10304SOL     OW31810   5.714   1.047   2.788
10304SOL    HW131811   5.691   1.041   2.691
10304SOL    HW231812   5.813   1.049   2.799
10305SOL     OW31813   0.254   5.343   6.730
10305SOL    HW131814   0.225   5.249   6.710
10305SOL    HW231815   0.175   5.396   6.763
10306SOL     OW31816   4.553   6.347   6.548
10306SOL    HW131817   4.562   6.395   6.635
10306SOL    HW231818   4.572   6.410   6.473
10307SOL     OW31819   2.413   2.245   4.692
10307SOL    HW131820   2.500   2.248   4.643
10307SOL    HW231821   2.376   2.337   4.702
10308SOL     OW31822   2.698   4.906   4.082
10308SOL    HW131823   2.684   4.819   4.129
10308SOL    HW231824   2.635   4.974   4.121
10309SOL     OW31825   6.273   0.384   3.907
10309SOL    HW131826   6.242   0.301   3.862
10309SOL    HW231827   6.329   0.360   3.986
10310SOL     OW31828   3.954   2.830   1.681
10310SOL    HW131829   3.891   2.753   1.677
10310SOL    HW231830   4.045   2.798   1.708
10311SOL     OW31831   0.554   5.516   0.817
10311SOL    HW131832   0.650   5.534   0.799
10311SOL    HW231833   0.505   5.602   0.830
10312SOL     OW31834   3.853   5.481   1.061
10312SOL    HW131835   3.869   5.428   1.143
10312SOL    HW231836   3.760   5.517   1.061
10313SOL     OW31837   3.665   6.717   2.376
10313SOL    HW131838   3.752   6.734   2.421
10313SOL    HW231839   3.643   6.793   2.315
10314SOL     OW31840   5.596   1.009   1.830
10314SOL    HW131841   5.539   0.926   1.828
10314SOL    HW231842   5.654   1.012   1.749
10315SOL     OW31843   6.570   6.470   4.533
10315SOL    HW131844   6.496   6.450   4.470
10315SOL    HW231845   6.651   6.418   4.507
10316SOL     OW31846   6.569   3.768   4.875
10316SOL    HW131847   6.540   3.701   4.942
10316SOL    HW231848   6.625   3.723   4.805
10317SOL     OW31849   3.691   4.873   6.540
10317SOL    HW131850   3.790   4.887   6.532
10317SOL    HW231851   3.670   4.825   6.625
10318SOL     OW31852   6.423   5.413   1.477
10318SOL    HW131853   6.391   5.472   1.403
10318SOL    HW231854   6.363   5.334   1.485
10319SOL     OW31855   1.191   3.966   5.342
10319SOL    HW131856   1.273   3.936   5.391
10319SOL    HW231857   1.178   3.909   5.261
10320SOL     OW31858   0.481   0.860   0.452
10320SOL    HW131859   0.552   0.793   0.431
10320SOL    HW231860   0.391   0.817   0.446
10321SOL     OW31861   4.092   0.152   5.043
10321SOL    HW131862   4.055   0.082   4.982
10321SOL    HW231863   4.106   0.237   4.992
10322SOL     OW31864   6.575   5.794   0.213
10322SOL    HW131865   6.488   5.831   0.180
10322SOL    HW231866   6.561   5.702   0.248
10323SOL     OW31867   6.564   3.698   6.146
10323SOL    HW131868   6.597   3.697   6.241
10323SOL    HW231869   6.620   3.636   6.091
10324SOL     OW31870   3.192   3.073   3.451
10324SOL    HW131871   3.150   3.043   3.537
10324SOL    HW231872   3.127   3.058   3.376
10325SOL     OW31873   6.458   4.369   4.127
10325SOL    HW131874   6.466   4.379   4.028
10325SOL    HW231875   6.526   4.428   4.171
10326SOL     OW31876   4.802   2.681   6.924
10326SOL    HW131877   4.720   2.628   6.904
10326SOL    HW231878   4.811   2.755   6.857
10327SOL     OW31879   2.736   1.769   2.281
10327SOL    HW131880   2.732   1.866   2.306
10327SOL    HW231881   2.757   1.715   2.363
10328SOL     OW31882   6.048   3.376   1.366
10328SOL    HW131883   5.960   3.413   1.394
10328SOL    HW231884   6.090   3.328   1.443
10329SOL     OW31885   2.749   0.306   4.784
10329SOL    HW131886   2.651   0.291   4.802
10329SOL    HW231887   2.771   0.275   4.692
10330SOL     OW31888   3.272   5.223   2.692
10330SOL    HW131889   3.179   5.254   2.675
10330SOL    HW231890   3.296   5.150   2.628
10331SOL     OW31891   6.119   0.666   2.756
10331SOL    HW131892   6.195   0.705   2.704
10331SOL    HW231893   6.089   0.732   2.826
10332SOL     OW31894   6.677   1.469   0.252
10332SOL    HW131895   6.649   1.475   0.156
10332SOL    HW231896   6.676   1.560   0.293
10333SOL     OW31897   5.858   4.406   4.255
10333SOL    HW131898   5.834   4.502   4.267
10333SOL    HW231899   5.949   4.389   4.293
10334SOL     OW31900   1.971   5.736   3.571
10334SOL    HW131901   1.953   5.666   3.640
10334SOL    HW231902   2.059   5.718   3.527
10335SOL     OW31903   1.246   4.031   6.733
10335SOL    HW131904   1.223   4.093   6.658
10335SOL    HW231905   1.176   3.960   6.739
10336SOL     OW31906   5.042   6.613   2.748
10336SOL    HW131907   5.003   6.662   2.671
10336SOL    HW231908   5.021   6.515   2.739
10337SOL     OW31909   0.045   5.404   5.533
10337SOL    HW131910   7.007   5.457   5.478
10337SOL    HW231911   7.025   5.324   5.571
10338SOL     OW31912   3.562   6.247   1.171
10338SOL    HW131913   3.592   6.268   1.264
10338SOL    HW231914   3.562   6.148   1.157
10339SOL     OW31915   3.611   4.772   1.171
10339SOL    HW131916   3.515   4.754   1.148
10339SOL    HW231917   3.644   4.701   1.233
10340SOL     OW31918   1.829   5.571   6.554
10340SOL    HW131919   1.759   5.636   6.527
10340SOL    HW231920   1.788   5.494   6.602
10341SOL     OW31921   2.252   2.866   2.001
10341SOL    HW131922   2.191   2.932   2.045
10341SOL    HW231923   2.292   2.908   1.919
10342SOL     OW31924   2.300   5.832   5.610
10342SOL    HW131925   2.389   5.806   5.648
10342SOL    HW231926   2.305   5.922   5.569
10343SOL     OW31927   2.517   3.926   0.162
10343SOL    HW131928   2.469   3.996   0.109
10343SOL    HW231929   2.514   3.950   0.259
10344SOL     OW31930   4.088   3.748   3.526
10344SOL    HW131931   4.116   3.839   3.495
10344SOL    HW231932   4.110   3.681   3.455
10345SOL     OW31933   1.791   1.340   6.905
10345SOL    HW131934   1.825   1.364   6.996
10345SOL    HW231935   1.793   1.422   6.847
10346SOL     OW31936   5.864   0.409   1.268
10346SOL    HW131937   5.932   0.469   1.311
10346SOL    HW231938   5.890   0.314   1.281
10347SOL     OW31939   5.286   2.224   1.093
10347SOL    HW131940   5.312   2.175   1.010
10347SOL    HW231941   5.368   2.258   1.139
10348SOL     OW31942   6.611   0.678   6.536
10348SOL    HW131943   6.581   0.736   6.460
10348SOL    HW231944   6.677   0.610   6.502
10349SOL     OW31945   6.124   0.469   1.402
10349SOL    HW131946   6.210   0.505   1.365
10349SOL    HW231947   6.110   0.376   1.369
10350SOL     OW31948   3.801   6.462   4.576
10350SOL    HW131949   3.705   6.475   4.551
10350SOL    HW231950   3.859   6.481   4.496
10351SOL     OW31951   5.941   4.869   5.996
10351SOL    HW131952   5.877   4.869   5.919
10351SOL    HW231953   5.895   4.904   6.078
10352SOL     OW31954   5.269   2.125   6.560
10352SOL    HW131955   5.339   2.196   6.557
10352SOL    HW231956   5.178   2.168   6.558
10353SOL     OW31957   6.958   2.870   3.894
10353SOL    HW131958   6.925   2.857   3.800
10353SOL    HW231959   7.027   2.942   3.896
10354SOL     OW31960   0.492   3.716   1.100
10354SOL    HW131961   0.452   3.627   1.121
10354SOL    HW231962   0.460   3.784   1.166
10355SOL     OW31963   0.747   0.980   0.734
10355SOL    HW131964   0.681   1.019   0.671
10355SOL    HW231965   0.698   0.938   0.811
10356SOL     OW31966   0.302   3.398   6.662
10356SOL    HW131967   0.352   3.485   6.663
10356SOL    HW231968   0.228   3.404   6.595
10357SOL     OW31969   2.639   2.085   5.672
10357SOL    HW131970   2.676   2.138   5.595
10357SOL    HW231971   2.705   2.085   5.747
10358SOL     OW31972   1.453   3.478   2.806
10358SOL    HW131973   1.457   3.546   2.880
10358SOL    HW231974   1.542   3.433   2.798
10359SOL     OW31975   4.865   2.089   2.290
10359SOL    HW131976   4.772   2.056   2.310
10359SOL    HW231977   4.862   2.147   2.208
10360SOL     OW31978   4.924   5.362   2.194
10360SOL    HW131979   4.896   5.362   2.290
10360SOL    HW231980   4.999   5.298   2.181
10361SOL     OW31981   2.723   1.105   2.187
10361SOL    HW131982   2.703   1.068   2.277
10361SOL    HW231983   2.723   1.030   2.120
10362SOL     OW31984   0.540   4.682   2.895
10362SOL    HW131985   0.625   4.650   2.855
10362SOL    HW231986   0.519   4.629   2.977
10363SOL     OW31987   4.891   2.639   0.950
10363SOL    HW131988   4.804   2.626   0.997
10363SOL    HW231989   4.961   2.582   0.993
10364SOL     OW31990   5.278   4.846   1.832
10364SOL    HW131991   5.194   4.796   1.810
10364SOL    HW231992   5.268   4.890   1.921
10365SOL     OW31993   5.792   5.045   0.443
10365SOL    HW131994   5.862   5.112   0.464
10365SOL    HW231995   5.816   4.995   0.360
10366SOL     OW31996   4.603   6.716   3.638
10366SOL    HW131997   4.570   6.623   3.623
10366SOL    HW231998   4.572   6.748   3.728
10367SOL     OW31999   0.094   2.087   1.886
10367SOL    HW132000   0.026   2.075   1.814
10367SOL    HW232001   0.145   2.172   1.871
10368SOL     OW32002   2.215   1.244   2.766
10368SOL    HW132003   2.165   1.165   2.731
10368SOL    HW232004   2.311   1.238   2.739
10369SOL     OW32005   2.744   6.516   5.866
10369SOL    HW132006   2.709   6.455   5.795
10369SOL    HW232007   2.698   6.496   5.953
10370SOL     OW32008   6.280   1.566   4.843
10370SOL    HW132009   6.282   1.649   4.898
10370SOL    HW232010   6.203   1.509   4.872
10371SOL     OW32011   3.203   6.732   3.435
10371SOL    HW132012   3.233   6.821   3.401
10371SOL    HW232013   3.160   6.744   3.524
10372SOL     OW32014   2.506   0.701   1.639
10372SOL    HW132015   2.406   0.698   1.637
10372SOL    HW232016   2.536   0.796   1.634
10373SOL     OW32017   0.687   6.771   4.875
10373SOL    HW132018   0.719   6.862   4.902
10373SOL    HW232019   0.588   6.765   4.887
10374SOL     OW32020   2.937   6.875   4.801
10374SOL    HW132021   2.982   6.961   4.777
10374SOL    HW232022   3.006   6.802   4.808
10375SOL     OW32023   3.029   2.169   6.573
10375SOL    HW132024   2.991   2.144   6.484
10375SOL    HW232025   2.967   2.233   6.618
10376SOL     OW32026   1.300   6.126   3.822
10376SOL    HW132027   1.257   6.101   3.735
10376SOL    HW232028   1.247   6.199   3.865
10377SOL     OW32029   0.823   2.050   1.611
10377SOL    HW132030   0.823   1.958   1.573
10377SOL    HW232031   0.756   2.055   1.685
10378SOL     OW32032   6.737   5.366   6.219
10378SOL    HW132033   6.760   5.321   6.305
10378SOL    HW232034   6.798   5.445   6.205
10379SOL     OW32035   3.413   5.518   3.588
10379SOL    HW132036   3.438   5.612   3.565
10379SOL    HW232037   3.465   5.488   3.667
10380SOL     OW32038   1.193   2.225   4.969
10380SOL    HW132039   1.157   2.306   5.016
10380SOL    HW232040   1.164   2.143   5.017
10381SOL     OW32041   4.483   4.022   0.567
10381SOL    HW132042   4.394   4.069   0.562
10381SOL    HW232043   4.548   4.079   0.618
10382SOL     OW32044   3.137   6.345   1.827
10382SOL    HW132045   3.054   6.325   1.877
10382SOL    HW232046   3.114   6.370   1.733
10383SOL     OW32047   1.924   3.708   0.533
10383SOL    HW132048   1.908   3.715   0.631
10383SOL    HW232049   2.014   3.667   0.517
10384SOL     OW32050   6.775   6.465   0.923
10384SOL    HW132051   6.761   6.438   1.019
10384SOL    HW232052   6.687   6.490   0.883
10385SOL     OW32053   3.870   6.001   6.381
10385SOL    HW132054   3.901   6.035   6.470
10385SOL    HW232055   3.948   5.985   6.322
10386SOL     OW32056   0.979   0.939   5.671
10386SOL    HW132057   0.956   0.956   5.575
10386SOL    HW232058   1.021   0.849   5.680
10387SOL     OW32059   4.711   2.721   2.884
10387SOL    HW132060   4.656   2.696   2.804
10387SOL    HW232061   4.771   2.644   2.907
10388SOL     OW32062   2.456   6.922   0.855
10388SOL    HW132063   2.381   6.860   0.830
10388SOL    HW232064   2.461   6.997   0.789
10389SOL     OW32065   5.458   3.463   1.161
10389SOL    HW132066   5.417   3.476   1.071
10389SOL    HW232067   5.400   3.504   1.231
10390SOL     OW32068   1.373   2.637   6.737
10390SOL    HW132069   1.365   2.556   6.794
10390SOL    HW232070   1.293   2.696   6.749
10391SOL     OW32071   1.530   6.300   3.617
10391SOL    HW132072   1.470   6.302   3.697
10391SOL    HW232073   1.620   6.265   3.643
10392SOL     OW32074   5.859   5.283   5.526
10392SOL    HW132075   5.944   5.321   5.488
10392SOL    HW232076   5.783   5.346   5.506
10393SOL     OW32077   2.179   3.837   4.029
10393SOL    HW132078   2.124   3.909   4.071
10393SOL    HW232079   2.171   3.843   3.929
10394SOL     OW32080   2.277   5.567   4.773
10394SOL    HW132081   2.248   5.611   4.858
10394SOL    HW232082   2.376   5.557   4.773
10395SOL     OW32083   0.277   6.836   1.224
10395SOL    HW132084   0.338   6.827   1.303
10395SOL    HW232085   0.312   6.907   1.163
10396SOL     OW32086   3.997   1.923   3.670
10396SOL    HW132087   4.009   2.020   3.688
10396SOL    HW232088   4.085   1.876   3.680
10397SOL     OW32089   3.176   1.896   3.860
10397SOL    HW132090   3.084   1.874   3.893
10397SOL    HW232091   3.239   1.899   3.937
10398SOL     OW32092   6.059   2.502   1.282
10398SOL    HW132093   6.150   2.486   1.321
10398SOL    HW232094   6.061   2.585   1.226
10399SOL     OW32095   6.032   2.109   3.184
10399SOL    HW132096   6.030   2.197   3.137
10399SOL    HW232097   6.028   2.035   3.117
10400SOL     OW32098   4.439   5.633   0.502
10400SOL    HW132099   4.357   5.655   0.556
10400SOL    HW232100   4.440   5.689   0.419
10401SOL     OW32101   0.013   6.871   2.366
10401SOL    HW132102   6.967   6.806   2.389
10401SOL    HW232103   7.005   6.938   2.301
10402SOL     OW32104   6.631   1.929   5.253
10402SOL    HW132105   6.716   1.933   5.306
10402SOL    HW232106   6.605   2.022   5.226
10403SOL     OW32107   5.044   1.954   3.721
10403SOL    HW132108   5.140   1.983   3.730
10403SOL    HW232109   5.029   1.872   3.776
10404SOL     OW32110   5.944   5.976   4.400
10404SOL    HW132111   5.908   5.958   4.492
10404SOL    HW232112   5.868   5.995   4.338
10405SOL     OW32113   1.359   0.324   4.721
10405SOL    HW132114   1.454   0.342   4.696
10405SOL    HW232115   1.325   0.397   4.780
10406SOL     OW32116   2.315   4.714   3.176
10406SOL    HW132117   2.265   4.708   3.262
10406SOL    HW232118   2.398   4.770   3.189
10407SOL     OW32119   2.311   6.922   6.073
10407SOL    HW132120   2.251   6.994   6.038
10407SOL    HW232121   2.263   6.834   6.067
10408SOL     OW32122   4.346   7.014   1.318
10408SOL    HW132123   4.421   6.953   1.292
10408SOL    HW232124   4.338   7.016   1.418
10409SOL     OW32125   0.342   4.627   0.891
10409SOL    HW132126   0.387   4.700   0.943
10409SOL    HW232127   0.320   4.660   0.799
10410SOL     OW32128   5.565   2.178   1.987
10410SOL    HW132129   5.622   2.137   2.059
10410SOL    HW232130   5.479   2.209   2.027
10411SOL     OW32131   3.547   6.562   3.302
10411SOL    HW132132   3.590   6.526   3.385
10411SOL    HW232133   3.448   6.559   3.312
10412SOL     OW32134   0.396   1.045   6.998
10412SOL    HW132135   0.305   1.014   6.972
10412SOL    HW232136   0.464   1.009   6.935
10413SOL     OW32137   0.048   2.888   0.376
10413SOL    HW132138   0.145   2.908   0.387
10413SOL    HW232139   0.003   2.964   0.329
10414SOL     OW32140   3.937   5.152   5.785
10414SOL    HW132141   3.959   5.138   5.882
10414SOL    HW232142   3.995   5.225   5.748
10415SOL     OW32143   1.447   3.864   4.831
10415SOL    HW132144   1.365   3.856   4.774
10415SOL    HW232145   1.444   3.950   4.882
10416SOL     OW32146   6.112   0.741   4.995
10416SOL    HW132147   6.171   0.748   5.076
10416SOL    HW232148   6.042   0.672   5.012
10417SOL     OW32149   3.043   5.213   3.711
10417SOL    HW132150   3.115   5.197   3.778
10417SOL    HW232151   2.978   5.138   3.713
10418SOL     OW32152   6.864   3.820   7.015
10418SOL    HW132153   6.914   3.891   6.965
10418SOL    HW232154   6.888   3.731   6.978
10419SOL     OW32155   2.260   0.122   5.967
10419SOL    HW132156   2.258   0.072   5.881
10419SOL    HW232157   2.351   0.162   5.981
10420SOL     OW32158   0.832   4.071   4.019
10420SOL    HW132159   0.864   4.152   3.971
10420SOL    HW232160   0.789   4.008   3.953
10421SOL     OW32161   0.694   1.959   3.684
10421SOL    HW132162   0.767   1.908   3.637
10421SOL    HW232163   0.699   1.941   3.783
10422SOL     OW32164   6.011   3.235   5.438
10422SOL    HW132165   6.082   3.170   5.408
10422SOL    HW232166   6.033   3.267   5.530
10423SOL     OW32167   6.321   5.715   5.566
10423SOL    HW132168   6.330   5.814   5.561
10423SOL    HW232169   6.400   5.672   5.524
10424SOL     OW32170   5.086   2.888   0.066
10424SOL    HW132171   5.108   2.823   7.020
10424SOL    HW232172   5.029   2.962   0.029
10425SOL     OW32173   0.970   0.426   1.813
10425SOL    HW132174   1.008   0.514   1.844
10425SOL    HW232175   1.025   0.390   1.739
10426SOL     OW32176   5.748   5.129   0.856
10426SOL    HW132177   5.778   5.205   0.798
10426SOL    HW232178   5.755   5.044   0.805
10427SOL     OW32179   3.808   1.024   6.421
10427SOL    HW132180   3.893   1.075   6.408
10427SOL    HW232181   3.739   1.085   6.461
10428SOL     OW32182   3.668   1.434   3.560
10428SOL    HW132183   3.742   1.382   3.602
10428SOL    HW232184   3.601   1.459   3.630
10429SOL     OW32185   0.043   4.229   1.325
10429SOL    HW132186   0.041   4.329   1.323
10429SOL    HW232187   0.126   4.197   1.279
10430SOL     OW32188   4.837   0.058   4.182
10430SOL    HW132189   4.845   0.128   4.111
10430SOL    HW232190   4.923   0.053   4.234
10431SOL     OW32191   3.037   6.128   4.295
10431SOL    HW132192   3.072   6.107   4.386
10431SOL    HW232193   2.976   6.207   4.300
10432SOL     OW32194   5.538   6.917   5.001
10432SOL    HW132195   5.449   6.922   4.956
10432SOL    HW232196   5.564   6.821   5.012
10433SOL     OW32197   1.162   5.747   1.466
10433SOL    HW132198   1.213   5.679   1.518
10433SOL    HW232199   1.081   5.705   1.425
10434SOL     OW32200   4.145   6.461   3.409
10434SOL    HW132201   4.065   6.476   3.350
10434SOL    HW232202   4.213   6.532   3.392
10435SOL     OW32203   6.864   1.080   5.084
10435SOL    HW132204   6.802   1.021   5.134
10435SOL    HW232205   6.821   1.169   5.069
10436SOL     OW32206   0.816   4.990   5.728
10436SOL    HW132207   0.913   4.975   5.710
10436SOL    HW232208   0.762   4.944   5.658
10437SOL     OW32209   4.898   4.253   5.484
10437SOL    HW132210   4.988   4.253   5.529
10437SOL    HW232211   4.877   4.161   5.453
10438SOL     OW32212   6.177   6.649   0.308
10438SOL    HW132213   6.184   6.617   0.213
10438SOL    HW232214   6.218   6.581   0.369
10439SOL     OW32215   3.987   0.783   5.562
10439SOL    HW132216   4.024   0.830   5.642
10439SOL    HW232217   3.905   0.732   5.588
10440SOL     OW32218   1.199   0.128   0.324
10440SOL    HW132219   1.296   0.144   0.305
10440SOL    HW232220   1.185   0.116   0.422
10441SOL     OW32221   3.175   0.355   1.457
10441SOL    HW132222   3.223   0.443   1.450
10441SOL    HW232223   3.142   0.343   1.550
10442SOL     OW32224   3.436   6.534   6.049
10442SOL    HW132225   3.412   6.477   6.128
10442SOL    HW232226   3.535   6.527   6.032
10443SOL     OW32227   4.762   4.225   4.504
10443SOL    HW132228   4.759   4.324   4.490
10443SOL    HW232229   4.754   4.205   4.602
10444SOL     OW32230   3.869   6.415   4.297
10444SOL    HW132231   3.882   6.510   4.324
10444SOL    HW232232   3.958   6.371   4.286
10445SOL     OW32233   0.796   5.070   4.645
10445SOL    HW132234   0.799   4.970   4.651
10445SOL    HW232235   0.701   5.099   4.638
10446SOL     OW32236   1.777   3.015   5.356
10446SOL    HW132237   1.721   3.017   5.438
10446SOL    HW232238   1.839   2.937   5.360
10447SOL     OW32239   0.761   0.727   1.637
10447SOL    HW132240   0.719   0.654   1.691
10447SOL    HW232241   0.690   0.782   1.594
10448SOL     OW32242   3.892   0.952   2.462
10448SOL    HW132243   3.880   0.857   2.435
10448SOL    HW232244   3.973   0.990   2.418
10449SOL     OW32245   2.721   5.292   4.668
10449SOL    HW132246   2.710   5.389   4.647
10449SOL    HW232247   2.632   5.247   4.668
10450SOL     OW32248   0.649   1.764   0.857
10450SOL    HW132249   0.745   1.754   0.831
10450SOL    HW232250   0.622   1.860   0.850
10451SOL     OW32251   0.973   5.971   2.195
10451SOL    HW132252   0.987   5.903   2.267
10451SOL    HW232253   0.879   6.005   2.198
10452SOL     OW32254   6.572   3.634   2.486
10452SOL    HW132255   6.474   3.653   2.487
10452SOL    HW232256   6.595   3.578   2.406
10453SOL     OW32257   3.620   6.379   1.428
10453SOL    HW132258   3.717   6.355   1.433
10453SOL    HW232259   3.602   6.461   1.482
10454SOL     OW32260   4.477   3.427   0.790
10454SOL    HW132261   4.385   3.431   0.830
10454SOL    HW232262   4.545   3.433   0.863
10455SOL     OW32263   6.548   6.129   3.500
10455SOL    HW132264   6.500   6.076   3.430
10455SOL    HW232265   6.557   6.074   3.583
10456SOL     OW32266   3.428   6.544   1.172
10456SOL    HW132267   3.332   6.556   1.198
10456SOL    HW232268   3.473   6.483   1.237
10457SOL     OW32269   3.138   3.644   1.771
10457SOL    HW132270   3.053   3.591   1.772
10457SOL    HW232271   3.216   3.583   1.787
10458SOL     OW32272   0.538   1.183   6.311
10458SOL    HW132273   0.619   1.230   6.277
10458SOL    HW232274   0.491   1.240   6.379
10459SOL     OW32275   4.484   5.768   1.165
10459SOL    HW132276   4.550   5.725   1.103
10459SOL    HW232277   4.510   5.749   1.260
10460SOL     OW32278   1.574   4.624   1.573
10460SOL    HW132279   1.525   4.710   1.564
10460SOL    HW232280   1.598   4.589   1.482
10461SOL     OW32281   1.042   4.904   5.432
10461SOL    HW132282   0.968   4.909   5.365
10461SOL    HW232283   1.066   4.808   5.448
10462SOL     OW32284   6.338   2.347   3.670
10462SOL    HW132285   6.267   2.417   3.667
10462SOL    HW232286   6.303   2.267   3.720
10463SOL     OW32287   3.774   2.947   5.536
10463SOL    HW132288   3.683   2.910   5.550
10463SOL    HW232289   3.839   2.899   5.596
10464SOL     OW32290   6.508   6.694   1.186
10464SOL    HW132291   6.501   6.688   1.285
10464SOL    HW232292   6.602   6.720   1.161
10465SOL     OW32293   6.937   5.830   1.326
10465SOL    HW132294   6.922   5.788   1.237
10465SOL    HW232295   7.027   5.873   1.329
10466SOL     OW32296   4.519   5.186   6.185
10466SOL    HW132297   4.468   5.122   6.129
10466SOL    HW232298   4.482   5.186   6.278
10467SOL     OW32299   1.738   2.356   5.933
10467SOL    HW132300   1.795   2.361   6.015
10467SOL    HW232301   1.711   2.261   5.917
10468SOL     OW32302   3.776   4.851   2.750
10468SOL    HW132303   3.783   4.881   2.845
10468SOL    HW232304   3.868   4.835   2.714
10469SOL     OW32305   3.957   3.545   6.057
10469SOL    HW132306   3.937   3.551   6.155
10469SOL    HW232307   4.049   3.580   6.040
10470SOL     OW32308   2.896   2.259   3.940
10470SOL    HW132309   2.890   2.329   3.869
10470SOL    HW232310   2.850   2.175   3.909
10471SOL     OW32311   2.601   2.364   0.964
10471SOL    HW132312   2.542   2.389   0.887
10471SOL    HW232313   2.660   2.442   0.986
10472SOL     OW32314   3.292   5.392   0.602
10472SOL    HW132315   3.344   5.419   0.521
10472SOL    HW232316   3.195   5.411   0.586
10473SOL     OW32317   6.204   0.749   0.096
10473SOL    HW132318   6.243   0.761   0.187
10473SOL    HW232319   6.139   0.822   0.078
10474SOL     OW32320   4.213   1.708   4.356
10474SOL    HW132321   4.138   1.774   4.348
10474SOL    HW232322   4.217   1.654   4.272
10475SOL     OW32323   5.215   6.978   2.920
10475SOL    HW132324   5.246   6.948   3.010
10475SOL    HW232325   5.143   0.019   2.930
10476SOL     OW32326   0.284   6.420   6.878
10476SOL    HW132327   0.333   6.375   6.803
10476SOL    HW232328   0.349   6.461   6.941
10477SOL     OW32329   6.291   1.600   4.279
10477SOL    HW132330   6.353   1.565   4.350
10477SOL    HW232331   6.273   1.697   4.296
10478SOL     OW32332   0.318   0.989   0.867
10478SOL    HW132333   0.286   1.076   0.828
10478SOL    HW232334   0.262   0.914   0.831
10479SOL     OW32335   0.377   2.642   1.727
10479SOL    HW132336   0.279   2.659   1.728
10479SOL    HW232337   0.413   2.651   1.820
10480SOL     OW32338   6.472   0.594   1.459
10480SOL    HW132339   6.471   0.517   1.524
10480SOL    HW232340   6.393   0.585   1.398
10481SOL     OW32341   2.535   6.950   4.735
10481SOL    HW132342   2.522   0.022   4.749
10481SOL    HW232343   2.568   6.909   4.820
10482SOL     OW32344   0.035   5.655   4.622
10482SOL    HW132345   0.116   5.655   4.681
10482SOL    HW232346   0.063   5.646   4.527
10483SOL     OW32347   0.083   5.526   0.719
10483SOL    HW132348   0.129   5.448   0.675
10483SOL    HW232349   0.113   5.611   0.674
10484SOL     OW32350   5.815   1.269   1.566
10484SOL    HW132351   5.774   1.313   1.646
10484SOL    HW232352   5.760   1.289   1.485
10485SOL     OW32353   3.158   3.567   2.249
10485SOL    HW132354   3.201   3.515   2.176
10485SOL    HW232355   3.066   3.532   2.265
10486SOL     OW32356   6.401   0.480   5.753
10486SOL    HW132357   6.353   0.401   5.793
10486SOL    HW232358   6.400   0.473   5.654
10487SOL     OW32359   4.366   2.121   1.699
10487SOL    HW132360   4.284   2.114   1.755
10487SOL    HW232361   4.424   2.195   1.734
10488SOL     OW32362   2.093   2.031   6.337
10488SOL    HW132363   2.033   1.976   6.396
10488SOL    HW232364   2.174   1.977   6.314
10489SOL     OW32365   5.967   6.905   3.778
10489SOL    HW132366   5.937   6.969   3.707
10489SOL    HW232367   6.066   6.914   3.791
10490SOL     OW32368   5.891   1.587   0.493
10490SOL    HW132369   5.904   1.665   0.555
10490SOL    HW232370   5.793   1.569   0.483
10491SOL     OW32371   2.287   2.135   5.064
10491SOL    HW132372   2.248   2.095   4.981
10491SOL    HW232373   2.255   2.229   5.075
10492SOL     OW32374   4.878   6.269   1.272
10492SOL    HW132375   4.830   6.269   1.360
10492SOL    HW232376   4.819   6.228   1.202
10493SOL     OW32377   2.517   6.601   1.747
10493SOL    HW132378   2.598   6.585   1.690
10493SOL    HW232379   2.437   6.561   1.703
10494SOL     OW32380   5.863   4.632   6.233
10494SOL    HW132381   5.799   4.678   6.295
10494SOL    HW232382   5.838   4.652   6.139
10495SOL     OW32383   0.236   0.310   0.866
10495SOL    HW132384   0.215   0.283   0.772
10495SOL    HW232385   0.248   0.228   0.922
10496SOL     OW32386   6.200   4.694   6.104
10496SOL    HW132387   6.279   4.754   6.090
10496SOL    HW232388   6.134   4.739   6.164
10497SOL     OW32389   0.840   6.343   2.270
10497SOL    HW132390   0.779   6.421   2.285
10497SOL    HW232391   0.790   6.258   2.282
10498SOL     OW32392   5.695   5.677   0.847
10498SOL    HW132393   5.791   5.694   0.872
10498SOL    HW232394   5.674   5.726   0.763
10499SOL     OW32395   4.406   0.185   1.901
10499SOL    HW132396   4.409   0.085   1.907
10499SOL    HW232397   4.316   0.213   1.869
10500SOL     OW32398   5.910   1.930   5.905
10500SOL    HW132399   5.836   1.913   5.840
10500SOL    HW232400   5.948   2.021   5.889
10501SOL     OW32401   2.340   5.711   2.086
10501SOL    HW132402   2.287   5.780   2.135
10501SOL    HW232403   2.376   5.751   2.002
10502SOL     OW32404   2.784   3.537   0.713
10502SOL    HW132405   2.816   3.631   0.729
10502SOL    HW232406   2.698   3.523   0.762
10503SOL     OW32407   5.871   3.510   0.608
10503SOL    HW132408   5.899   3.472   0.520
10503SOL    HW232409   5.806   3.584   0.594
10504SOL     OW32410   0.278   2.903   5.318
10504SOL    HW132411   0.322   2.836   5.259
10504SOL    HW232412   0.215   2.959   5.263
10505SOL     OW32413   5.727   6.267   1.470
10505SOL    HW132414   5.630   6.291   1.466
10505SOL    HW232415   5.772   6.321   1.542
10506SOL     OW32416   0.683   3.550   6.735
10506SOL    HW132417   0.700   3.649   6.730
10506SOL    HW232418   0.614   3.532   6.806
10507SOL     OW32419   2.640   5.451   0.310
10507SOL    HW132420   2.560   5.404   0.274
10507SOL    HW232421   2.721   5.426   0.256
10508SOL     OW32422   0.609   5.930   4.114
10508SOL    HW132423   0.587   6.020   4.150
10508SOL    HW232424   0.657   5.940   4.027
10509SOL     OW32425   6.400   4.736   4.951
10509SOL    HW132426   6.306   4.765   4.933
10509SOL    HW232427   6.400   4.657   5.012
10510SOL     OW32428   4.247   6.359   0.482
10510SOL    HW132429   4.149   6.342   0.471
10510SOL    HW232430   4.298   6.274   0.464
10511SOL     OW32431   3.050   1.452   2.165
10511SOL    HW132432   3.084   1.429   2.256
10511SOL    HW232433   3.076   1.545   2.142
10512SOL     OW32434   3.610   0.192   6.141
10512SOL    HW132435   3.527   0.183   6.196
10512SOL    HW232436   3.597   0.146   6.053
10513SOL     OW32437   6.542   3.049   3.026
10513SOL    HW132438   6.468   3.106   3.061
10513SOL    HW232439   6.504   2.971   2.977
10514SOL     OW32440   1.370   2.087   1.504
10514SOL    HW132441   1.388   2.127   1.414
10514SOL    HW232442   1.295   2.021   1.497
10515SOL     OW32443   1.430   3.601   4.456
10515SOL    HW132444   1.373   3.528   4.419
10515SOL    HW232445   1.525   3.583   4.433
10516SOL     OW32446   2.871   1.687   0.018
10516SOL    HW132447   2.821   1.761   0.063
10516SOL    HW232448   2.839   1.677   6.951
10517SOL     OW32449   1.547   3.774   1.711
10517SOL    HW132450   1.484   3.805   1.640
10517SOL    HW232451   1.503   3.781   1.801
10518SOL     OW32452   6.875   6.161   1.600
10518SOL    HW132453   6.880   6.195   1.694
10518SOL    HW232454   6.893   6.237   1.537
10519SOL     OW32455   3.078   4.148   0.285
10519SOL    HW132456   2.981   4.131   0.271
10519SOL    HW232457   3.119   4.180   0.199
10520SOL     OW32458   7.009   2.551   5.701
10520SOL    HW132459   6.928   2.598   5.735
10520SOL    HW232460   7.001   2.537   5.603
10521SOL     OW32461   0.282   5.727   1.626
10521SOL    HW132462   0.292   5.674   1.710
10521SOL    HW232463   0.241   5.670   1.555
10522SOL     OW32464   6.963   2.800   3.502
10522SOL    HW132465   0.006   2.851   3.451
10522SOL    HW232466   7.008   2.735   3.563
10523SOL     OW32467   0.432   4.319   3.659
10523SOL    HW132468   0.337   4.327   3.690
10523SOL    HW232469   0.476   4.408   3.661
10524SOL     OW32470   0.436   6.131   4.172
10524SOL    HW132471   0.399   6.038   4.179
10524SOL    HW232472   0.406   6.186   4.250
10525SOL     OW32473   4.036   0.345   5.251
10525SOL    HW132474   4.077   0.296   5.174
10525SOL    HW232475   3.937   0.335   5.248
10526SOL     OW32476   0.849   6.938   1.259
10526SOL    HW132477   0.780   6.924   1.188
10526SOL    HW232478   0.824   7.018   1.313
10527SOL     OW32479   1.321   0.944   5.981
10527SOL    HW132480   1.287   0.895   6.061
10527SOL    HW232481   1.244   0.980   5.928
10528SOL     OW32482   0.969   4.243   6.174
10528SOL    HW132483   1.002   4.215   6.265
10528SOL    HW232484   0.937   4.162   6.125
10529SOL     OW32485   2.107   6.013   4.419
10529SOL    HW132486   2.192   5.965   4.396
10529SOL    HW232487   2.071   6.057   4.337
10530SOL     OW32488   0.962   6.715   6.029
10530SOL    HW132489   1.029   6.659   6.078
10530SOL    HW232490   1.009   6.778   5.968
10531SOL     OW32491   2.876   2.290   4.422
10531SOL    HW132492   2.826   2.363   4.378
10531SOL    HW232493   2.816   2.242   4.487
10532SOL     OW32494   0.007   6.664   6.329
10532SOL    HW132495   0.015   6.646   6.427
10532SOL    HW232496   6.938   6.677   6.306
10533SOL     OW32497   3.309   5.904   3.567
10533SOL    HW132498   3.234   5.856   3.612
10533SOL    HW232499   3.326   5.863   3.478
10534SOL     OW32500   6.506   4.989   2.219
10534SOL    HW132501   6.462   4.957   2.135
10534SOL    HW232502   6.575   5.058   2.196
10535SOL     OW32503   2.115   1.777   2.042
10535SOL    HW132504   2.098   1.709   2.114
10535SOL    HW232505   2.201   1.825   2.061
10536SOL     OW32506   4.693   0.801   4.124
10536SOL    HW132507   4.612   0.857   4.110
10536SOL    HW232508   4.672   0.726   4.186
10537SOL     OW32509   5.167   6.525   3.982
10537SOL    HW132510   5.246   6.486   4.029
10537SOL    HW232511   5.086   6.518   4.042
10538SOL     OW32512   6.635   3.274   0.792
10538SOL    HW132513   6.728   3.278   0.827
10538SOL    HW232514   6.592   3.364   0.801
10539SOL     OW32515   6.376   5.484   1.144
10539SOL    HW132516   6.389   5.557   1.076
10539SOL    HW232517   6.465   5.460   1.184
10540SOL     OW32518   2.298   2.843   5.488
10540SOL    HW132519   2.226   2.909   5.507
10540SOL    HW232520   2.367   2.848   5.561
10541SOL     OW32521   4.114   3.324   3.432
10541SOL    HW132522   4.135   3.340   3.528
10541SOL    HW232523   4.164   3.390   3.375
10542SOL     OW32524   6.535   0.818   5.005
10542SOL    HW132525   6.543   0.724   4.972
10542SOL    HW232526   6.450   0.828   5.057
10543SOL     OW32527   1.010   1.913   4.178
10543SOL    HW132528   1.020   1.945   4.084
10543SOL    HW232529   1.099   1.885   4.213
10544SOL     OW32530   2.104   5.858   1.822
10544SOL    HW132531   2.035   5.794   1.790
10544SOL    HW232532   2.095   5.872   1.920
10545SOL     OW32533   2.054   2.482   1.751
10545SOL    HW132534   2.050   2.385   1.726
10545SOL    HW232535   1.967   2.526   1.730
10546SOL     OW32536   3.112   6.495   1.136
10546SOL    HW132537   3.123   6.564   1.208
10546SOL    HW232538   3.067   6.536   1.057
10547SOL     OW32539   5.393   2.575   3.950
10547SOL    HW132540   5.424   2.618   4.034
10547SOL    HW232541   5.410   2.637   3.873
10548SOL     OW32542   0.250   4.426   4.111
10548SOL    HW132543   0.247   4.428   4.211
10548SOL    HW232544   0.283   4.337   4.081
10549SOL     OW32545   0.475   1.695   0.612
10549SOL    HW132546   0.524   1.724   0.694
10549SOL    HW232547   0.432   1.607   0.628
10550SOL     OW32548   4.826   6.364   3.768
10550SOL    HW132549   4.804   6.303   3.844
10550SOL    HW232550   4.924   6.386   3.770
10551SOL     OW32551   1.535   1.889   6.660
10551SOL    HW132552   1.464   1.821   6.641
10551SOL    HW232553   1.506   1.978   6.624
10552SOL     OW32554   1.979   0.978   5.172
10552SOL    HW132555   1.998   1.070   5.140
10552SOL    HW232556   1.898   0.942   5.126
10553SOL     OW32557   0.461   4.524   1.328
10553SOL    HW132558   0.544   4.478   1.295
10553SOL    HW232559   0.454   4.512   1.427
10554SOL     OW32560   5.011   5.446   1.874
10554SOL    HW132561   4.955   5.443   1.792
10554SOL    HW232562   5.031   5.353   1.904
10555SOL     OW32563   2.461   2.644   1.045
10555SOL    HW132564   2.452   2.623   0.948
10555SOL    HW232565   2.557   2.635   1.072
10556SOL     OW32566   3.044   0.653   3.811
10556SOL    HW132567   3.065   0.569   3.861
10556SOL    HW232568   3.110   0.724   3.836
10557SOL     OW32569   1.427   3.234   3.609
10557SOL    HW132570   1.451   3.213   3.514
10557SOL    HW232571   1.475   3.171   3.670
10558SOL     OW32572   3.852   5.511   6.036
10558SOL    HW132573   3.827   5.601   6.073
10558SOL    HW232574   3.900   5.522   5.949
10559SOL     OW32575   3.774   6.982   1.639
10559SOL    HW132576   3.834   6.906   1.665
10559SOL    HW232577   3.696   6.985   1.702
10560SOL     OW32578   4.766   0.192   2.916
10560SOL    HW132579   4.704   0.122   2.951
10560SOL    HW232580   4.783   0.176   2.819
10561SOL     OW32581   3.851   4.198   1.521
10561SOL    HW132582   3.934   4.161   1.480
10561SOL    HW232583   3.799   4.248   1.451
10562SOL     OW32584   4.529   5.419   0.371
10562SOL    HW132585   4.458   5.472   0.418
10562SOL    HW232586   4.547   5.335   0.422
10563SOL     OW32587   0.946   0.782   1.440
10563SOL    HW132588   0.874   0.754   1.503
10563SOL    HW232589   1.021   0.823   1.492
10564SOL     OW32590   5.497   6.663   3.445
10564SOL    HW132591   5.593   6.678   3.418
10564SOL    HW232592   5.440   6.657   3.363
10565SOL     OW32593   6.652   6.260   5.288
10565SOL    HW132594   6.736   6.315   5.286
10565SOL    HW232595   6.573   6.321   5.300
10566SOL     OW32596   3.195   1.701   6.393
10566SOL    HW132597   3.208   1.621   6.335
10566SOL    HW232598   3.272   1.709   6.456
10567SOL     OW32599   1.916   2.856   5.702
10567SOL    HW132600   1.977   2.817   5.771
10567SOL    HW232601   1.821   2.832   5.723
10568SOL     OW32602   6.085   2.925   0.897
10568SOL    HW132603   6.043   2.887   0.980
10568SOL    HW232604   6.061   3.022   0.890
10569SOL     OW32605   5.823   0.656   1.946
10569SOL    HW132606   5.897   0.589   1.937
10569SOL    HW232607   5.861   0.749   1.939
10570SOL     OW32608   1.486   4.350   3.797
10570SOL    HW132609   1.582   4.369   3.780
10570SOL    HW232610   1.432   4.379   3.717
10571SOL     OW32611   6.990   4.183   5.157
10571SOL    HW132612   0.050   4.154   5.117
10571SOL    HW232613   6.951   4.258   5.103
10572SOL     OW32614   6.866   4.820   2.875
10572SOL    HW132615   6.869   4.741   2.814
10572SOL    HW232616   6.940   4.814   2.941
10573SOL     OW32617   5.011   0.281   4.777
10573SOL    HW132618   4.971   0.371   4.796
10573SOL    HW232619   4.941   0.220   4.741
10574SOL     OW32620   0.124   1.869   4.367
10574SOL    HW132621   0.221   1.893   4.375
10574SOL    HW232622   0.089   1.845   4.457
10575SOL     OW32623   6.816   0.972   3.587
10575SOL    HW132624   6.859   0.940   3.502
10575SOL    HW232625   6.815   0.898   3.654
10576SOL     OW32626   0.452   5.985   3.239
10576SOL    HW132627   0.426   6.081   3.239
10576SOL    HW232628   0.502   5.964   3.323
10577SOL     OW32629   1.501   4.237   0.287
10577SOL    HW132630   1.577   4.219   0.224
10577SOL    HW232631   1.488   4.335   0.297
10578SOL     OW32632   4.543   1.357   3.006
10578SOL    HW132633   4.444   1.366   2.994
10578SOL    HW232634   4.590   1.384   2.923
10579SOL     OW32635   3.853   2.935   1.922
10579SOL    HW132636   3.878   2.884   1.840
10579SOL    HW232637   3.764   2.905   1.955
10580SOL     OW32638   6.208   6.271   5.949
10580SOL    HW132639   6.287   6.210   5.940
10580SOL    HW232640   6.185   6.310   5.860
10581SOL     OW32641   5.966   0.670   2.453
10581SOL    HW132642   5.866   0.666   2.463
10581SOL    HW232643   6.004   0.740   2.513
10582SOL     OW32644   4.604   4.769   6.479
10582SOL    HW132645   4.579   4.707   6.404
10582SOL    HW232646   4.545   4.752   6.557
10583SOL     OW32647   4.637   0.463   4.122
10583SOL    HW132648   4.600   0.489   4.033
10583SOL    HW232649   4.579   0.499   4.194
10584SOL     OW32650   6.335   0.300   6.984
10584SOL    HW132651   6.315   0.366   6.911
10584SOL    HW232652   6.422   0.254   6.964
10585SOL     OW32653   2.524   1.801   5.522
10585SOL    HW132654   2.447   1.828   5.464
10585SOL    HW232655   2.592   1.875   5.523
10586SOL     OW32656   5.147   5.455   6.004
10586SOL    HW132657   5.092   5.372   6.016
10586SOL    HW232658   5.235   5.443   6.049
10587SOL     OW32659   6.643   4.887   0.026
10587SOL    HW132660   6.596   4.832   6.984
10587SOL    HW232661   6.592   4.883   0.112
10588SOL     OW32662   1.675   1.752   4.974
10588SOL    HW132663   1.599   1.709   4.925
10588SOL    HW232664   1.642   1.834   5.021
10589SOL     OW32665   5.230   0.429   4.649
10589SOL    HW132666   5.158   0.366   4.677
10589SOL    HW232667   5.285   0.455   4.729
10590SOL     OW32668   0.250   0.085   1.106
10590SOL    HW132669   0.346   0.105   1.130
10590SOL    HW232670   0.204   0.047   1.186
10591SOL     OW32671   1.991   2.176   0.454
10591SOL    HW132672   2.071   2.174   0.394
10591SOL    HW232673   2.003   2.247   0.523
10592SOL     OW32674   5.542   3.637   4.472
10592SOL    HW132675   5.500   3.556   4.512
10592SOL    HW232676   5.475   3.685   4.415
10593SOL     OW32677   3.059   5.969   0.751
10593SOL    HW132678   2.993   6.007   0.816
10593SOL    HW232679   3.012   5.904   0.691
10594SOL     OW32680   5.099   1.807   2.606
10594SOL    HW132681   5.115   1.856   2.692
10594SOL    HW232682   5.003   1.817   2.579
10595SOL     OW32683   5.888   6.833   0.145
10595SOL    HW132684   5.794   6.842   0.111
10595SOL    HW232685   5.917   6.922   0.182
10596SOL     OW32686   4.383   0.849   0.226
10596SOL    HW132687   4.317   0.925   0.228
10596SOL    HW232688   4.387   0.811   0.134
10597SOL     OW32689   3.144   1.476   6.004
10597SOL    HW132690   3.168   1.394   6.056
10597SOL    HW232691   3.228   1.519   5.970
10598SOL     OW32692   3.321   2.664   6.984
10598SOL    HW132693   3.301   2.696   6.891
10598SOL    HW232694   3.255   2.593   7.010
10599SOL     OW32695   6.098   3.536   6.815
10599SOL    HW132696   6.071   3.630   6.834
10599SOL    HW232697   6.189   3.535   6.773
10600SOL     OW32698   3.288   2.668   1.659
10600SOL    HW132699   3.318   2.636   1.569
10600SOL    HW232700   3.214   2.611   1.692
10601SOL     OW32701   1.874   4.691   5.949
10601SOL    HW132702   1.872   4.785   5.984
10601SOL    HW232703   1.914   4.631   6.018
10602SOL     OW32704   1.150   1.152   1.061
10602SOL    HW132705   1.189   1.172   1.151
10602SOL    HW232706   1.216   1.101   1.006
10603SOL     OW32707   4.435   0.223   3.255
10603SOL    HW132708   4.474   0.257   3.169
10603SOL    HW232709   4.474   0.133   3.276
10604SOL     OW32710   6.585   5.340   4.990
10604SOL    HW132711   6.492   5.365   4.963
10604SOL    HW232712   6.643   5.422   4.990
10605SOL     OW32713   2.070   6.528   6.548
10605SOL    HW132714   1.974   6.504   6.535
10605SOL    HW232715   2.091   6.610   6.495
10606SOL     OW32716   0.116   0.916   1.470
10606SOL    HW132717   0.058   0.985   1.427
10606SOL    HW232718   0.172   0.959   1.541
10607SOL     OW32719   3.902   4.718   0.371
10607SOL    HW132720   3.936   4.690   0.461
10607SOL    HW232721   3.964   4.685   0.300
10608SOL     OW32722   7.026   3.495   4.233
10608SOL    HW132723   7.018   3.583   4.280
10608SOL    HW232724   7.022   3.510   4.134
10609SOL     OW32725   2.939   6.824   6.715
10609SOL    HW132726   2.925   6.734   6.674
10609SOL    HW232727   3.036   6.836   6.735
10610SOL     OW32728   0.578   2.067   4.049
10610SOL    HW132729   0.505   2.134   4.052
10610SOL    HW232730   0.654   2.097   4.106
10611SOL     OW32731   2.894   4.854   6.799
10611SOL    HW132732   2.850   4.882   6.885
10611SOL    HW232733   2.830   4.866   6.723
10612SOL     OW32734   5.002   2.052   4.075
10612SOL    HW132735   4.940   2.028   4.000
10612SOL    HW232736   5.009   2.151   4.083
10613SOL     OW32737   6.582   5.882   5.520
10613SOL    HW132738   6.671   5.854   5.485
10613SOL    HW232739   6.577   5.860   5.618
10614SOL     OW32740   5.178   1.152   4.338
10614SOL    HW132741   5.186   1.240   4.386
10614SOL    HW232742   5.267   1.107   4.336
10615SOL     OW32743   3.249   1.192   5.865
10615SOL    HW132744   3.261   1.093   5.865
10615SOL    HW232745   3.258   1.227   5.958
10616SOL     OW32746   3.248   6.368   0.115
10616SOL    HW132747   3.313   6.441   0.092
10616SOL    HW232748   3.155   6.401   0.103
10617SOL     OW32749   2.908   3.856   1.322
10617SOL    HW132750   2.984   3.795   1.303
10617SOL    HW232751   2.823   3.804   1.324
10618SOL     OW32752   1.599   4.623   5.888
10618SOL    HW132753   1.697   4.641   5.894
10618SOL    HW232754   1.584   4.526   5.867
10619SOL     OW32755   0.226   2.838   3.403
10619SOL    HW132756   0.274   2.797   3.325
10619SOL    HW232757   0.167   2.912   3.371
10620SOL     OW32758   1.222   0.095   4.765
10620SOL    HW132759   1.212   0.061   4.672
10620SOL    HW232760   1.244   0.192   4.763
10621SOL     OW32761   0.736   4.639   2.270
10621SOL    HW132762   0.658   4.583   2.297
10621SOL    HW232763   0.819   4.583   2.270
10622SOL     OW32764   4.569   2.426   2.293
10622SOL    HW132765   4.576   2.526   2.287
10622SOL    HW232766   4.494   2.395   2.235
10623SOL     OW32767   6.767   5.450   5.632
10623SOL    HW132768   6.777   5.507   5.713
10623SOL    HW232769   6.728   5.362   5.658
10624SOL     OW32770   0.308   2.620   5.835
10624SOL    HW132771   0.301   2.614   5.735
10624SOL    HW232772   0.242   2.558   5.877
10625SOL     OW32773   0.663   3.989   1.384
10625SOL    HW132774   0.724   3.922   1.427
10625SOL    HW232775   0.696   4.082   1.404
10626SOL     OW32776   3.698   3.055   0.964
10626SOL    HW132777   3.792   3.028   0.985
10626SOL    HW232778   3.691   3.155   0.966
10627SOL     OW32779   5.843   1.530   0.028
10627SOL    HW132780   5.897   1.603   7.013
10627SOL    HW232781   5.892   1.443   0.020
10628SOL     OW32782   4.154   6.774   0.969
10628SOL    HW132783   4.149   6.793   1.067
10628SOL    HW232784   4.247   6.748   0.944
10629SOL     OW32785   2.654   5.312   4.309
10629SOL    HW132786   2.581   5.332   4.374
10629SOL    HW232787   2.692   5.221   4.329
10630SOL     OW32788   6.264   1.815   2.539
10630SOL    HW132789   6.303   1.723   2.546
10630SOL    HW232790   6.336   1.880   2.516
10631SOL     OW32791   4.246   4.636   5.371
10631SOL    HW132792   4.245   4.645   5.471
10631SOL    HW232793   4.182   4.564   5.344
10632SOL     OW32794   5.245   6.705   3.545
10632SOL    HW132795   5.248   6.742   3.638
10632SOL    HW232796   5.338   6.682   3.516
10633SOL     OW32797   2.626   2.600   1.476
10633SOL    HW132798   2.589   2.617   1.567
10633SOL    HW232799   2.600   2.674   1.414
10634SOL     OW32800   2.321   4.930   0.658
10634SOL    HW132801   2.233   4.960   0.623
10634SOL    HW232802   2.347   4.988   0.736
10635SOL     OW32803   1.880   3.401   6.501
10635SOL    HW132804   1.944   3.389   6.426
10635SOL    HW232805   1.890   3.493   6.539
10636SOL     OW32806   0.657   2.092   1.356
10636SOL    HW132807   0.728   2.059   1.419
10636SOL    HW232808   0.684   2.072   1.262
10637SOL     OW32809   1.004   4.836   6.104
10637SOL    HW132810   0.964   4.750   6.072
10637SOL    HW232811   0.983   4.848   6.201
10638SOL     OW32812   5.378   6.695   2.765
10638SOL    HW132813   5.357   6.680   2.861
10638SOL    HW232814   5.299   6.737   2.720
10639SOL     OW32815   0.785   3.788   2.508
10639SOL    HW132816   0.834   3.798   2.421
10639SOL    HW232817   0.826   3.715   2.562
10640SOL     OW32818   4.321   0.380   3.736
10640SOL    HW132819   4.365   0.290   3.737
10640SOL    HW232820   4.289   0.401   3.644
10641SOL     OW32821   2.529   1.837   2.660
10641SOL    HW132822   2.589   1.757   2.659
10641SOL    HW232823   2.526   1.876   2.752
10642SOL     OW32824   6.553   1.646   0.457
10642SOL    HW132825   6.477   1.615   0.515
10642SOL    HW232826   6.640   1.628   0.504
10643SOL     OW32827   2.574   5.561   4.783
10643SOL    HW132828   2.626   5.506   4.848
10643SOL    HW232829   2.584   5.658   4.807
10644SOL     OW32830   5.305   2.901   1.051
10644SOL    HW132831   5.349   2.814   1.072
10644SOL    HW232832   5.210   2.884   1.025
10645SOL     OW32833   1.605   3.262   4.422
10645SOL    HW132834   1.549   3.294   4.346
10645SOL    HW232835   1.664   3.187   4.392
10646SOL     OW32836   0.206   0.340   5.654
10646SOL    HW132837   0.252   0.371   5.571
10646SOL    HW232838   0.117   0.385   5.662
10647SOL     OW32839   2.876   5.455   4.420
10647SOL    HW132840   2.793   5.402   4.404
10647SOL    HW232841   2.951   5.418   4.364
10648SOL     OW32842   5.991   4.647   6.545
10648SOL    HW132843   6.051   4.724   6.570
10648SOL    HW232844   5.969   4.653   6.447
10649SOL     OW32845   0.640   4.338   3.326
10649SOL    HW132846   0.616   4.372   3.417
10649SOL    HW232847   0.564   4.353   3.264
10650SOL     OW32848   0.913   0.352   3.996
10650SOL    HW132849   0.835   0.314   3.947
10650SOL    HW232850   0.978   0.279   4.016
10651SOL     OW32851   6.374   6.538   6.589
10651SOL    HW132852   6.284   6.520   6.630
10651SOL    HW232853   6.443   6.483   6.635
10652SOL     OW32854   2.822   6.245   6.110
10652SOL    HW132855   2.784   6.234   6.019
10652SOL    HW232856   2.821   6.157   6.158
10653SOL     OW32857   3.910   5.823   4.243
10653SOL    HW132858   3.913   5.874   4.157
10653SOL    HW232859   3.912   5.886   4.320
10654SOL     OW32860   5.497   0.058   6.653
10654SOL    HW132861   5.415   0.063   6.711
10654SOL    HW232862   5.516   6.989   6.630
10655SOL     OW32863   2.158   5.692   0.286
10655SOL    HW132864   2.188   5.788   0.290
10655SOL    HW232865   2.070   5.686   0.241
10656SOL     OW32866   0.020   1.938   2.521
10656SOL    HW132867   0.001   1.942   2.619
10656SOL    HW232868   6.974   1.984   2.470
10657SOL     OW32869   5.936   0.522   5.021
10657SOL    HW132870   5.855   0.521   5.081
10657SOL    HW232871   5.921   0.458   4.946
10658SOL     OW32872   6.755   4.633   4.777
10658SOL    HW132873   6.792   4.723   4.800
10658SOL    HW232874   6.827   4.577   4.736
10659SOL     OW32875   0.844   5.599   0.439
10659SOL    HW132876   0.771   5.595   0.371
10659SOL    HW232877   0.806   5.585   0.530
10660SOL     OW32878   5.592   4.008   6.427
10660SOL    HW132879   5.558   4.097   6.458
10660SOL    HW232880   5.584   3.941   6.501
10661SOL     OW32881   0.806   6.733   0.840
10661SOL    HW132882   0.824   6.788   0.759
10661SOL    HW232883   0.760   6.789   0.909
10662SOL     OW32884   4.440   0.375   2.366
10662SOL    HW132885   4.345   0.392   2.339
10662SOL    HW232886   4.481   0.308   2.305
10663SOL     OW32887   0.621   1.602   2.317
10663SOL    HW132888   0.527   1.590   2.349
10663SOL    HW232889   0.678   1.634   2.393
10664SOL     OW32890   6.195   4.158   5.171
10664SOL    HW132891   6.184   4.203   5.082
10664SOL    HW232892   6.109   4.162   5.222
10665SOL     OW32893   0.992   1.553   0.060
10665SOL    HW132894   0.899   1.587   0.074
10665SOL    HW232895   0.999   1.459   0.092
10666SOL     OW32896   3.378   3.871   1.417
10666SOL    HW132897   3.434   3.800   1.375
10666SOL    HW232898   3.423   3.904   1.500
10667SOL     OW32899   4.823   2.398   4.353
10667SOL    HW132900   4.736   2.354   4.374
10667SOL    HW232901   4.833   2.406   4.254
10668SOL     OW32902   2.755   1.373   4.884
10668SOL    HW132903   2.818   1.302   4.915
10668SOL    HW232904   2.728   1.430   4.962
10669SOL     OW32905   5.234   0.376   1.717
10669SOL    HW132906   5.304   0.447   1.726
10669SOL    HW232907   5.170   0.400   1.644
10670SOL     OW32908   5.666   4.982   5.384
10670SOL    HW132909   5.707   5.024   5.303
10670SOL    HW232910   5.616   5.051   5.436
10671SOL     OW32911   2.021   1.983   3.859
10671SOL    HW132912   2.068   1.914   3.803
10671SOL    HW232913   1.934   2.008   3.815
10672SOL     OW32914   6.703   3.895   1.728
10672SOL    HW132915   6.801   3.915   1.728
10672SOL    HW232916   6.675   3.862   1.819
10673SOL     OW32917   0.192   1.156   6.578
10673SOL    HW132918   0.171   1.147   6.481
10673SOL    HW232919   0.291   1.167   6.589
10674SOL     OW32920   4.130   3.595   3.307
10674SOL    HW132921   4.141   3.581   3.209
10674SOL    HW232922   4.032   3.599   3.330
10675SOL     OW32923   1.824   6.701   6.740
10675SOL    HW132924   1.739   6.694   6.688
10675SOL    HW232925   1.833   6.622   6.801
10676SOL     OW32926   6.308   5.853   5.144
10676SOL    HW132927   6.251   5.773   5.123
10676SOL    HW232928   6.380   5.862   5.076
10677SOL     OW32929   1.508   0.706   1.375
10677SOL    HW132930   1.481   0.776   1.309
10677SOL    HW232931   1.594   0.665   1.346
10678SOL     OW32932   4.670   5.665   4.079
10678SOL    HW132933   4.586   5.690   4.031
10678SOL    HW232934   4.690   5.569   4.063
10679SOL     OW32935   4.432   5.449   6.522
10679SOL    HW132936   4.441   5.528   6.583
10679SOL    HW232937   4.505   5.384   6.540
10680SOL     OW32938   3.824   2.179   4.163
10680SOL    HW132939   3.784   2.180   4.071
10680SOL    HW232940   3.752   2.163   4.231
10681SOL     OW32941   0.994   3.533   0.236
10681SOL    HW132942   0.920   3.558   0.298
10681SOL    HW232943   1.033   3.616   0.195
10682SOL     OW32944   0.564   1.511   5.241
10682SOL    HW132945   0.644   1.549   5.287
10682SOL    HW232946   0.591   1.431   5.187
10683SOL     OW32947   4.757   1.692   3.956
10683SOL    HW132948   4.769   1.790   3.945
10683SOL    HW232949   4.771   1.667   4.052
10684SOL     OW32950   5.129   5.284   3.361
10684SOL    HW132951   5.086   5.362   3.316
10684SOL    HW232952   5.168   5.313   3.449
10685SOL     OW32953   0.919   5.512   1.511
10685SOL    HW132954   0.836   5.459   1.495
10685SOL    HW232955   0.931   5.578   1.437
10686SOL     OW32956   0.964   4.294   5.792
10686SOL    HW132957   0.867   4.317   5.786
10686SOL    HW232958   1.001   4.330   5.878
10687SOL     OW32959   6.114   5.417   3.665
10687SOL    HW132960   6.077   5.507   3.689
10687SOL    HW232961   6.053   5.345   3.699
10688SOL     OW32962   6.996   3.598   2.320
10688SOL    HW132963   6.953   3.642   2.399
10688SOL    HW232964   6.952   3.629   2.236
10689SOL     OW32965   0.259   6.833   3.640
10689SOL    HW132966   0.288   6.842   3.736
10689SOL    HW232967   0.272   6.921   3.594
10690SOL     OW32968   6.968   5.869   3.766
10690SOL    HW132969   6.932   5.909   3.682
10690SOL    HW232970   0.031   5.908   3.786
10691SOL     OW32971   0.385   2.397   2.613
10691SOL    HW132972   0.402   2.493   2.594
10691SOL    HW232973   0.468   2.355   2.649
10692SOL     OW32974   3.189   6.287   3.407
10692SOL    HW132975   3.268   6.248   3.455
10692SOL    HW232976   3.141   6.215   3.357
10693SOL     OW32977   1.985   6.120   0.359
10693SOL    HW132978   2.045   6.124   0.278
10693SOL    HW232979   1.923   6.198   0.358
10694SOL     OW32980   5.289   6.900   1.062
10694SOL    HW132981   5.246   6.845   0.991
10694SOL    HW232982   5.309   6.842   1.141
10695SOL     OW32983   0.147   2.368   2.967
10695SOL    HW132984   0.137   2.362   2.867
10695SOL    HW232985   0.064   2.404   3.007
10696SOL     OW32986   0.042   4.048   3.501
10696SOL    HW132987   7.005   3.975   3.476
10696SOL    HW232988   0.126   4.009   3.538
10697SOL     OW32989   6.716   5.790   4.723
10697SOL    HW132990   6.695   5.859   4.792
10697SOL    HW232991   6.807   5.807   4.685
10698SOL     OW32992   5.274   4.101   6.356
10698SOL    HW132993   5.259   4.193   6.392
10698SOL    HW232994   5.371   4.088   6.336
10699SOL     OW32995   3.668   4.137   1.712
10699SOL    HW132996   3.607   4.214   1.690
10699SOL    HW232997   3.734   4.125   1.638
10700SOL     OW32998   6.470   6.995   0.995
10700SOL    HW132999   6.388   6.974   1.048
10700SOL    HW233000   6.522   0.040   1.041
10701SOL     OW33001   2.988   6.582   6.577
10701SOL    HW133002   3.006   6.495   6.531
10701SOL    HW233003   2.965   6.651   6.509
10702SOL     OW33004   5.874   2.942   1.605
10702SOL    HW133005   5.807   2.869   1.588
10702SOL    HW233006   5.869   2.970   1.701
10703SOL     OW33007   3.349   2.831   5.065
10703SOL    HW133008   3.266   2.848   5.013
10703SOL    HW233009   3.358   2.733   5.084
10704SOL     OW33010   5.984   5.738   1.610
10704SOL    HW133011   6.053   5.777   1.549
10704SOL    HW233012   5.985   5.788   1.696
10705SOL     OW33013   5.269   4.851   2.715
10705SOL    HW133014   5.335   4.899   2.656
10705SOL    HW233015   5.307   4.763   2.741
10706SOL     OW33016   5.518   0.183   2.239
10706SOL    HW133017   5.515   0.281   2.224
10706SOL    HW233018   5.506   0.135   2.151
10707SOL     OW33019   6.921   6.875   4.139
10707SOL    HW133020   6.950   6.793   4.090
10707SOL    HW233021   6.984   6.950   4.121
10708SOL     OW33022   3.937   0.522   2.049
10708SOL    HW133023   4.035   0.544   2.040
10708SOL    HW233024   3.885   0.572   1.980
10709SOL     OW33025   6.087   5.585   5.583
10709SOL    HW133026   6.020   5.648   5.623
10709SOL    HW233027   6.177   5.629   5.581
10710SOL     OW33028   0.424   7.007   4.412
10710SOL    HW133029   0.327   6.992   4.390
10710SOL    HW233030   0.477   7.016   4.328
10711SOL     OW33031   1.782   6.852   4.496
10711SOL    HW133032   1.808   6.771   4.444
10711SOL    HW233033   1.810   6.934   4.446
10712SOL     OW33034   3.296   0.915   1.959
10712SOL    HW133035   3.350   0.950   2.036
10712SOL    HW233036   3.261   0.992   1.906
10713SOL     OW33037   0.681   3.299   1.480
10713SOL    HW133038   0.758   3.318   1.419
10713SOL    HW233039   0.716   3.282   1.572
10714SOL     OW33040   5.958   3.879   4.923
10714SOL    HW133041   5.953   3.814   4.848
10714SOL    HW233042   6.053   3.911   4.933
10715SOL     OW33043   4.767   0.667   2.683
10715SOL    HW133044   4.712   0.606   2.626
10715SOL    HW233045   4.836   0.614   2.731
10716SOL     OW33046   5.819   2.059   4.245
10716SOL    HW133047   5.874   1.976   4.257
10716SOL    HW233048   5.739   2.038   4.189
10717SOL     OW33049   1.369   2.034   1.042
10717SOL    HW133050   1.445   1.969   1.050
10717SOL    HW233051   1.299   1.995   0.983
10718SOL     OW33052   1.260   2.949   6.319
10718SOL    HW133053   1.230   2.867   6.368
10718SOL    HW233054   1.194   3.023   6.335
10719SOL     OW33055   6.490   5.549   2.050
10719SOL    HW133056   6.392   5.530   2.047
10719SOL    HW233057   6.518   5.564   2.144
10720SOL     OW33058   0.660   4.259   4.931
10720SOL    HW133059   0.744   4.227   4.887
10720SOL    HW233060   0.682   4.334   4.994
10721SOL     OW33061   5.779   4.335   5.125
10721SOL    HW133062   5.718   4.308   5.051
10721SOL    HW233063   5.728   4.390   5.192
10722SOL     OW33064   1.185   5.037   0.546
10722SOL    HW133065   1.173   5.116   0.607
10722SOL    HW233066   1.252   5.061   0.475
10723SOL     OW33067   0.202   3.622   6.123
10723SOL    HW133068   0.184   3.720   6.112
10723SOL    HW233069   0.287   3.599   6.076
10724SOL     OW33070   5.647   1.167   6.560
10724SOL    HW133071   5.624   1.226   6.638
10724SOL    HW233072   5.698   1.088   6.591
10725SOL     OW33073   0.947   5.209   4.452
10725SOL    HW133074   0.979   5.157   4.373
10725SOL    HW233075   0.913   5.145   4.522
10726SOL     OW33076   5.017   6.945   5.751
10726SOL    HW133077   4.979   6.868   5.803
10726SOL    HW233078   5.095   6.913   5.697
10727SOL     OW33079   0.481   4.921   4.791
10727SOL    HW133080   0.507   5.008   4.749
10727SOL    HW233081   0.557   4.888   4.847
10728SOL     OW33082   0.176   6.195   0.463
10728SOL    HW133083   0.159   6.284   0.421
10728SOL    HW233084   0.100   6.171   0.523
10729SOL     OW33085   5.336   1.306   1.586
10729SOL    HW133086   5.380   1.391   1.616
10729SOL    HW233087   5.308   1.253   1.666
10730SOL     OW33088   1.868   0.205   1.544
10730SOL    HW133089   1.899   0.276   1.607
10730SOL    HW233090   1.814   0.137   1.594
10731SOL     OW33091   3.240   6.186   0.647
10731SOL    HW133092   3.171   6.121   0.680
10731SOL    HW233093   3.228   6.200   0.549
10732SOL     OW33094   5.480   5.016   3.561
10732SOL    HW133095   5.385   5.024   3.591
10732SOL    HW233096   5.505   4.920   3.551
10733SOL     OW33097   6.338   2.251   0.898
10733SOL    HW133098   6.316   2.242   0.801
10733SOL    HW233099   6.428   2.295   0.908
10734SOL     OW33100   0.586   0.556   6.646
10734SOL    HW133101   0.665   0.581   6.590
10734SOL    HW233102   0.594   0.460   6.673
10735SOL     OW33103   1.651   3.378   3.154
10735SOL    HW133104   1.559   3.371   3.115
10735SOL    HW233105   1.710   3.311   3.111
10736SOL     OW33106   1.575   0.431   3.314
10736SOL    HW133107   1.515   0.510   3.302
10736SOL    HW233108   1.630   0.443   3.396
10737SOL     OW33109   1.814   1.835   0.339
10737SOL    HW133110   1.805   1.935   0.342
10737SOL    HW233111   1.750   1.795   0.405
10738SOL     OW33112   2.929   0.295   4.097
10738SOL    HW133113   2.892   0.206   4.071
10738SOL    HW233114   2.938   0.299   4.197
10739SOL     OW33115   0.145   1.522   1.008
10739SOL    HW133116   0.136   1.426   0.978
10739SOL    HW233117   0.235   1.535   1.050
10740SOL     OW33118   0.401   4.739   5.643
10740SOL    HW133119   0.362   4.775   5.727
10740SOL    HW233120   0.354   4.779   5.564
10741SOL     OW33121   6.727   6.873   1.924
10741SOL    HW133122   6.769   6.963   1.914
10741SOL    HW233123   6.662   6.875   2.000
10742SOL     OW33124   5.960   0.729   1.558
10742SOL    HW133125   5.974   0.714   1.460
10742SOL    HW233126   5.863   0.717   1.581
10743SOL     OW33127   3.064   2.092   5.419
10743SOL    HW133128   3.145   2.145   5.393
10743SOL    HW233129   2.999   2.091   5.344
10744SOL     OW33130   3.483   1.109   1.496
10744SOL    HW133131   3.576   1.071   1.501
10744SOL    HW233132   3.444   1.090   1.406
10745SOL     OW33133   0.317   5.219   0.326
10745SOL    HW133134   0.275   5.275   0.397
10745SOL    HW233135   0.302   5.261   0.237
10746SOL     OW33136   1.993   3.857   1.343
10746SOL    HW133137   1.916   3.921   1.337
10746SOL    HW233138   2.075   3.905   1.373
10747SOL     OW33139   4.323   0.962   3.050
10747SOL    HW133140   4.422   0.955   3.050
10747SOL    HW233141   4.283   0.870   3.057
10748SOL     OW33142   3.865   0.950   1.723
10748SOL    HW133143   3.914   0.928   1.638
10748SOL    HW233144   3.845   0.865   1.773
10749SOL     OW33145   7.000   5.551   3.385
10749SOL    HW133146   0.020   5.602   3.457
10749SOL    HW233147   6.996   5.607   3.302
10750SOL     OW33148   4.478   6.222   4.908
10750SOL    HW133149   4.470   6.130   4.948
10750SOL    HW233150   4.464   6.290   4.979
10751SOL     OW33151   1.597   4.722   4.246
10751SOL    HW133152   1.661   4.678   4.309
10751SOL    HW233153   1.512   4.669   4.243
10752SOL     OW33154   5.994   4.383   6.200
10752SOL    HW133155   5.949   4.471   6.218
10752SOL    HW233156   6.006   4.372   6.101
10753SOL     OW33157   3.892   6.904   4.161
10753SOL    HW133158   3.970   6.894   4.223
10753SOL    HW233159   3.879   6.819   4.109
10754SOL     OW33160   1.261   1.358   3.333
10754SOL    HW133161   1.251   1.424   3.407
10754SOL    HW233162   1.172   1.343   3.290
10755SOL     OW33163   0.050   1.074   6.320
10755SOL    HW133164   6.985   1.102   6.291
10755SOL    HW233165   0.046   0.981   6.358
10756SOL     OW33166   6.913   4.380   0.353
10756SOL    HW133167   6.849   4.439   0.403
10756SOL    HW233168   6.881   4.286   0.355
10757SOL     OW33169   1.239   2.852   0.075
10757SOL    HW133170   1.176   2.871   0.150
10757SOL    HW233171   1.311   2.790   0.106
10758SOL     OW33172   0.957   6.531   4.549
10758SOL    HW133173   0.925   6.522   4.644
10758SOL    HW233174   0.998   6.444   4.520
10759SOL     OW33175   1.308   3.017   0.375
10759SOL    HW133176   1.374   2.946   0.398
10759SOL    HW233177   1.300   3.082   0.451
10760SOL     OW33178   6.436   1.416   1.474
10760SOL    HW133179   6.354   1.463   1.508
10760SOL    HW233180   6.513   1.433   1.535
10761SOL     OW33181   0.777   1.190   6.135
10761SOL    HW133182   0.836   1.161   6.210
10761SOL    HW233183   0.789   1.130   6.056
10762SOL     OW33184   4.159   2.044   4.546
10762SOL    HW133185   4.217   2.028   4.625
10762SOL    HW233186   4.215   2.069   4.467
10763SOL     OW33187   4.565   6.108   2.048
10763SOL    HW133188   4.602   6.057   2.125
10763SOL    HW233189   4.641   6.145   1.993
10764SOL     OW33190   5.687   2.220   5.868
10764SOL    HW133191   5.784   2.193   5.867
10764SOL    HW233192   5.652   2.214   5.961
10765SOL     OW33193   5.348   2.419   0.776
10765SOL    HW133194   5.307   2.356   0.710
10765SOL    HW233195   5.277   2.476   0.817
10766SOL     OW33196   5.225   3.260   1.236
10766SOL    HW133197   5.139   3.218   1.265
10766SOL    HW233198   5.233   3.351   1.277
10767SOL     OW33199   0.989   0.520   0.048
10767SOL    HW133200   0.997   0.426   0.079
10767SOL    HW233201   1.054   0.578   0.097
10768SOL     OW33202   4.670   4.403   1.240
10768SOL    HW133203   4.706   4.365   1.155
10768SOL    HW233204   4.742   4.454   1.288
10769SOL     OW33205   2.513   4.808   4.823
10769SOL    HW133206   2.545   4.872   4.893
10769SOL    HW233207   2.549   4.836   4.734
10770SOL     OW33208   5.602   0.639   5.051
10770SOL    HW133209   5.658   0.692   4.988
10770SOL    HW233210   5.618   0.672   5.145
10771SOL     OW33211   5.403   1.269   3.176
10771SOL    HW133212   5.425   1.176   3.203
10771SOL    HW233213   5.483   1.328   3.189
10772SOL     OW33214   0.221   6.812   4.554
10772SOL    HW133215   0.159   6.863   4.494
10772SOL    HW233216   0.242   6.723   4.513
10773SOL     OW33217   6.984   5.752   0.117
10773SOL    HW133218   6.987   5.848   0.146
10773SOL    HW233219   0.044   5.708   0.138
10774SOL     OW33220   1.451   1.148   6.285
10774SOL    HW133221   1.442   1.183   6.378
10774SOL    HW233222   1.419   1.053   6.282
10775SOL     OW33223   0.435   3.880   1.304
10775SOL    HW133224   0.366   3.865   1.375
10775SOL    HW233225   0.512   3.930   1.343
10776SOL     OW33226   1.034   6.443   6.636
10776SOL    HW133227   1.075   6.372   6.694
10776SOL    HW233228   1.089   6.452   6.553
10777SOL     OW33229   3.709   6.065   2.974
10777SOL    HW133230   3.690   6.154   2.934
10777SOL    HW233231   3.779   6.074   3.045
10778SOL     OW33232   5.977   6.802   4.362
10778SOL    HW133233   5.919   6.876   4.326
10778SOL    HW233234   5.992   6.817   4.460
10779SOL     OW33235   6.621   4.863   3.401
10779SOL    HW133236   6.633   4.823   3.311
10779SOL    HW233237   6.596   4.959   3.392
10780SOL     OW33238   1.961   0.719   3.795
10780SOL    HW133239   2.034   0.675   3.848
10780SOL    HW233240   1.958   0.679   3.704
10781SOL     OW33241   4.260   0.412   3.391
10781SOL    HW133242   4.334   0.472   3.361
10781SOL    HW233243   4.287   0.317   3.379
10782SOL     OW33244   5.686   1.807   2.673
10782SOL    HW133245   5.740   1.824   2.591
10782SOL    HW233246   5.725   1.858   2.750
10783SOL     OW33247   0.754   3.690   3.278
10783SOL    HW133248   0.787   3.743   3.200
10783SOL    HW233249   0.654   3.696   3.284
10784SOL     OW33250   3.783   0.658   4.228
10784SOL    HW133251   3.750   0.707   4.309
10784SOL    HW233252   3.877   0.684   4.210
10785SOL     OW33253   0.020   4.920   2.332
10785SOL    HW133254   6.981   4.934   2.405
10785SOL    HW233255   7.015   4.966   2.249
10786SOL     OW33256   5.261   5.115   3.115
10786SOL    HW133257   5.300   5.023   3.115
10786SOL    HW233258   5.161   5.108   3.106
10787SOL     OW33259   2.015   1.628   4.653
10787SOL    HW133260   2.016   1.723   4.685
10787SOL    HW233261   1.954   1.620   4.574
10788SOL     OW33262   2.097   4.654   6.315
10788SOL    HW133263   2.138   4.722   6.255
10788SOL    HW233264   2.160   4.632   6.389
10789SOL     OW33265   6.687   2.699   6.285
10789SOL    HW133266   6.781   2.684   6.315
10789SOL    HW233267   6.642   2.611   6.271
10790SOL     OW33268   1.468   0.976   2.153
10790SOL    HW133269   1.477   0.909   2.079
10790SOL    HW233270   1.541   1.044   2.145
10791SOL     OW33271   0.687   0.071   0.783
10791SOL    HW133272   0.704   0.170   0.776
10791SOL    HW233273   0.762   0.021   0.742
10792SOL     OW33274   3.426   3.631   3.565
10792SOL    HW133275   3.437   3.539   3.603
10792SOL    HW233276   3.493   3.692   3.606
10793SOL     OW33277   6.185   3.465   4.332
10793SOL    HW133278   6.255   3.537   4.328
10793SOL    HW233279   6.103   3.497   4.284
10794SOL     OW33280   3.027   3.728   3.471
10794SOL    HW133281   3.004   3.781   3.553
10794SOL    HW233282   3.031   3.788   3.392
10795SOL     OW33283   6.605   4.169   2.723
10795SOL    HW133284   6.544   4.118   2.784
10795SOL    HW233285   6.593   4.267   2.739
10796SOL     OW33286   5.541   6.859   0.654
10796SOL    HW133287   5.452   6.900   0.673
10796SOL    HW233288   5.597   6.862   0.736
10797SOL     OW33289   4.392   2.606   1.427
10797SOL    HW133290   4.416   2.541   1.355
10797SOL    HW233291   4.304   2.648   1.405
10798SOL     OW33292   3.187   6.294   0.375
10798SOL    HW133293   3.089   6.292   0.393
10798SOL    HW233294   3.205   6.345   0.291
10799SOL     OW33295   3.577   0.645   1.939
10799SOL    HW133296   3.485   0.627   1.905
10799SOL    HW233297   3.573   0.713   2.013
10800SOL     OW33298   0.375   6.646   6.382
10800SOL    HW133299   0.285   6.689   6.388
10800SOL    HW233300   0.373   6.558   6.430
10801SOL     OW33301   0.733   5.889   6.014
10801SOL    HW133302   0.708   5.796   6.042
10801SOL    HW233303   0.814   5.918   6.064
10802SOL     OW33304   0.454   1.913   3.449
10802SOL    HW133305   0.427   1.895   3.544
10802SOL    HW233306   0.542   1.960   3.448
10803SOL     OW33307   3.209   4.207   5.762
10803SOL    HW133308   3.116   4.187   5.732
10803SOL    HW233309   3.232   4.302   5.738
10804SOL     OW33310   5.645   3.670   1.857
10804SOL    HW133311   5.601   3.641   1.942
10804SOL    HW233312   5.723   3.610   1.837
10805SOL     OW33313   3.974   0.292   6.924
10805SOL    HW133314   3.918   0.220   6.963
10805SOL    HW233315   4.007   0.352   6.997
10806SOL     OW33316   4.759   3.988   6.216
10806SOL    HW133317   4.836   4.043   6.248
10806SOL    HW233318   4.765   3.897   6.257
10807SOL     OW33319   1.380   0.185   2.111
10807SOL    HW133320   1.346   0.110   2.055
10807SOL    HW233321   1.392   0.154   2.206
10808SOL     OW33322   6.820   3.199   6.268
10808SOL    HW133323   6.774   3.277   6.312
10808SOL    HW233324   6.814   3.208   6.169
10809SOL     OW33325   3.047   5.048   3.299
10809SOL    HW133326   3.065   5.122   3.363
10809SOL    HW233327   3.034   5.085   3.207
10810SOL     OW33328   1.997   0.481   4.180
10810SOL    HW133329   2.064   0.535   4.128
10810SOL    HW233330   1.927   0.542   4.216
10811SOL     OW33331   3.983   4.370   5.884
10811SOL    HW133332   3.943   4.368   5.975
10811SOL    HW233333   3.976   4.279   5.843
10812SOL     OW33334   0.967   3.963   1.062
10812SOL    HW133335   0.873   3.935   1.047
10812SOL    HW233336   1.012   3.979   0.974
10813SOL     OW33337   2.104   4.718   6.644
10813SOL    HW133338   2.143   4.784   6.709
10813SOL    HW233339   2.176   4.685   6.583
10814SOL     OW33340   1.535   6.529   6.224
10814SOL    HW133341   1.632   6.536   6.199
10814SOL    HW233342   1.480   6.512   6.142
10815SOL     OW33343   4.480   4.463   3.376
10815SOL    HW133344   4.521   4.372   3.371
10815SOL    HW233345   4.537   4.528   3.326
10816SOL     OW33346   2.937   3.270   2.082
10816SOL    HW133347   2.860   3.324   2.116
10816SOL    HW233348   3.022   3.307   2.119
10817SOL     OW33349   4.363   6.822   3.148
10817SOL    HW133350   4.383   6.883   3.225
10817SOL    HW233351   4.442   6.818   3.087
10818SOL     OW33352   4.500   4.461   5.388
10818SOL    HW133353   4.450   4.444   5.473
10818SOL    HW233354   4.595   4.430   5.399
10819SOL     OW33355   6.525   4.708   6.804
10819SOL    HW133356   6.428   4.731   6.808
10819SOL    HW233357   6.537   4.621   6.756
10820SOL     OW33358   6.508   5.829   4.020
10820SOL    HW133359   6.593   5.859   3.975
10820SOL    HW233360   6.510   5.856   4.116
10821SOL     OW33361   6.059   0.097   2.105
10821SOL    HW133362   6.101   0.118   2.017
10821SOL    HW233363   6.118   0.034   2.156
10822SOL     OW33364   0.112   3.420   3.077
10822SOL    HW133365   0.017   3.398   3.097
10822SOL    HW233366   0.132   3.401   2.981
10823SOL     OW33367   1.688   6.210   1.366
10823SOL    HW133368   1.592   6.187   1.378
10823SOL    HW233369   1.723   6.165   1.284
10824SOL     OW33370   6.723   1.146   3.145
10824SOL    HW133371   6.769   1.206   3.079
10824SOL    HW233372   6.749   1.051   3.128
10825SOL     OW33373   2.297   1.348   6.229
10825SOL    HW133374   2.322   1.338   6.133
10825SOL    HW233375   2.266   1.260   6.265
10826SOL     OW33376   1.522   3.071   3.787
10826SOL    HW133377   1.515   3.050   3.885
10826SOL    HW233378   1.513   2.987   3.734
10827SOL     OW33379   6.782   3.459   4.361
10827SOL    HW133380   6.871   3.445   4.316
10827SOL    HW233381   6.735   3.536   4.320
10828SOL     OW33382   1.060   5.101   0.889
10828SOL    HW133383   1.105   5.157   0.820
10828SOL    HW233384   0.964   5.088   0.864
10829SOL     OW33385   4.176   2.440   0.786
10829SOL    HW133386   4.177   2.461   0.689
10829SOL    HW233387   4.083   2.448   0.821
10830SOL     OW33388   5.666   2.138   2.966
10830SOL    HW133389   5.671   2.039   2.983
10830SOL    HW233390   5.699   2.188   3.046
10831SOL     OW33391   2.603   5.976   2.336
10831SOL    HW133392   2.525   5.965   2.397
10831SOL    HW233393   2.589   6.055   2.277
10832SOL     OW33394   0.534   2.808   6.071
10832SOL    HW133395   0.631   2.821   6.089
10832SOL    HW233396   0.483   2.811   6.157
10833SOL     OW33397   1.050   0.812   2.165
10833SOL    HW133398   1.034   0.910   2.174
10833SOL    HW233399   1.010   0.764   2.244
10834SOL     OW33400   0.527   1.819   0.281
10834SOL    HW133401   0.548   1.831   0.378
10834SOL    HW233402   0.434   1.853   0.263
10835SOL     OW33403   5.810   2.067   6.898
10835SOL    HW133404   5.849   2.021   6.818
10835SOL    HW233405   5.788   2.162   6.874
10836SOL     OW33406   6.516   1.521   5.113
10836SOL    HW133407   6.488   1.446   5.051
10836SOL    HW233408   6.566   1.483   5.190
10837SOL     OW33409   0.033   5.215   1.728
10837SOL    HW133410   0.003   5.120   1.730
10837SOL    HW233411   6.983   5.275   1.754
10838SOL     OW33412   5.721   5.905   4.757
10838SOL    HW133413   5.735   5.824   4.701
10838SOL    HW233414   5.698   5.983   4.698
10839SOL     OW33415   4.317   3.038   1.718
10839SOL    HW133416   4.313   3.106   1.644
10839SOL    HW233417   4.383   3.067   1.787
10840SOL     OW33418   2.489   5.850   2.804
10840SOL    HW133419   2.554   5.910   2.757
10840SOL    HW233420   2.521   5.756   2.799
10841SOL     OW33421   5.585   5.191   6.295
10841SOL    HW133422   5.617   5.280   6.263
10841SOL    HW233423   5.529   5.204   6.377
10842SOL     OW33424   4.909   2.421   2.193
10842SOL    HW133425   4.861   2.414   2.280
10842SOL    HW233426   4.984   2.487   2.200
10843SOL     OW33427   1.327   2.412   1.533
10843SOL    HW133428   1.297   2.316   1.525
10843SOL    HW233429   1.394   2.419   1.606
10844SOL     OW33430   6.938   7.007   3.582
10844SOL    HW133431   6.902   7.011   3.675
10844SOL    HW233432   0.011   6.998   3.585
10845SOL     OW33433   3.343   0.183   5.457
10845SOL    HW133434   3.318   0.092   5.490
10845SOL    HW233435   3.323   0.251   5.528
10846SOL     OW33436   4.689   1.406   0.508
10846SOL    HW133437   4.697   1.361   0.419
10846SOL    HW233438   4.684   1.337   0.580
10847SOL     OW33439   3.893   3.275   6.835
10847SOL    HW133440   3.920   3.282   6.739
10847SOL    HW233441   3.827   3.346   6.856
10848SOL     OW33442   3.230   3.153   6.944
10848SOL    HW133443   3.186   3.207   7.015
10848SOL    HW233444   3.167   3.081   6.913
10849SOL     OW33445   1.989   5.797   3.235
10849SOL    HW133446   2.080   5.760   3.255
10849SOL    HW233447   1.931   5.787   3.316
10850SOL     OW33448   2.683   5.363   6.795
10850SOL    HW133449   2.736   5.296   6.847
10850SOL    HW233450   2.649   5.434   6.856
10851SOL     OW33451   1.869   3.243   6.742
10851SOL    HW133452   1.839   3.277   6.653
10851SOL    HW233453   1.810   3.167   6.770
10852SOL     OW33454   1.164   0.374   6.848
10852SOL    HW133455   1.195   0.364   6.943
10852SOL    HW233456   1.204   0.302   6.792
10853SOL     OW33457   1.577   2.157   5.633
10853SOL    HW133458   1.601   2.108   5.717
10853SOL    HW233459   1.659   2.168   5.577
10854SOL     OW33460   4.163   5.294   5.040
10854SOL    HW133461   4.064   5.285   5.050
10854SOL    HW233462   4.185   5.328   4.949
10855SOL     OW33463   3.216   6.956   0.538
10855SOL    HW133464   3.216   6.894   0.616
10855SOL    HW233465   3.248   6.907   0.457
10856SOL     OW33466   5.520   1.236   0.220
10856SOL    HW133467   5.497   1.235   0.317
10856SOL    HW233468   5.437   1.221   0.166
10857SOL     OW33469   6.712   2.991   2.598
10857SOL    HW133470   6.719   2.891   2.602
10857SOL    HW233471   6.619   3.016   2.571
10858SOL     OW33472   0.668   1.910   6.119
10858SOL    HW133473   0.740   1.896   6.052
10858SOL    HW233474   0.579   1.898   6.075
10859SOL     OW33475   1.862   4.004   4.351
10859SOL    HW133476   1.788   3.937   4.353
10859SOL    HW233477   1.860   4.058   4.435
10860SOL     OW33478   6.694   1.659   5.744
10860SOL    HW133479   6.777   1.701   5.707
10860SOL    HW233480   6.694   1.667   5.843
10861SOL     OW33481   3.444   3.554   2.866
10861SOL    HW133482   3.445   3.460   2.902
10861SOL    HW233483   3.520   3.565   2.801
10862SOL     OW33484   2.314   1.770   0.030
10862SOL    HW133485   2.334   1.785   6.960
10862SOL    HW233486   2.226   1.810   0.054
10863SOL     OW33487   3.396   0.883   3.627
10863SOL    HW133488   3.436   0.974   3.617
10863SOL    HW233489   3.344   0.861   3.545
10864SOL     OW33490   2.738   5.297   0.781
10864SOL    HW133491   2.788   5.222   0.825
10864SOL    HW233492   2.708   5.268   0.690
10865SOL     OW33493   6.801   1.350   2.189
10865SOL    HW133494   6.736   1.419   2.156
10865SOL    HW233495   6.761   1.259   2.176
10866SOL     OW33496   5.431   4.546   0.409
10866SOL    HW133497   5.416   4.641   0.437
10866SOL    HW233498   5.344   4.499   0.400
10867SOL     OW33499   3.510   3.484   0.347
10867SOL    HW133500   3.527   3.508   0.251
10867SOL    HW233501   3.490   3.386   0.354
10868SOL     OW33502   3.999   2.215   3.692
10868SOL    HW133503   3.901   2.197   3.702
10868SOL    HW233504   4.021   2.223   3.595
10869NA      NA33505   6.998   2.131   5.309
10870NA      NA33506   4.435   4.597   5.214
10871NA      NA33507   2.151   4.077   2.406
10872NA      NA33508   4.969   4.121   4.470
10873NA      NA33509   4.397   2.539   5.130
10874NA      NA33510   3.154   4.792   1.765
10875NA      NA33511   0.211   4.290   0.689
10876NA      NA33512   3.202   3.544   3.454
10877NA      NA33513   5.282   5.695   0.680
10878NA      NA33514   3.162   6.575   5.643
10879NA      NA33515   5.745   5.400   1.802
10880NA      NA33516   2.057   0.953   4.499
10881NA      NA33517   3.900   5.085   2.072
10882NA      NA33518   3.854   3.637   1.887
   7.02674   7.02674   7.02674
