Generated by trjconv : CNT in water t= 292.00000
33518
    1C        C    1   2.834   2.764   4.747
    1C        C    2   2.889   2.715   4.867
    1C        C    3   2.839   2.770   4.986
    1C        C    4   2.844   2.769   4.257
    1C        C    5   2.895   2.724   4.381
    1C        C    6   2.841   2.767   4.504
    1C        C    7   3.005   2.635   4.621
    1C        C    8   2.889   2.715   4.627
    1C        C    9   3.069   2.600   4.742
    1C        C   10   3.003   2.631   4.862
    1C        C   11   3.177   2.490   4.973
    1C        C   12   3.057   2.563   4.972
    1C        C   13   2.849   2.771   3.770
    1C        C   14   2.901   2.722   3.892
    1C        C   15   2.848   2.769   4.013
    1C        C   16   3.016   2.643   4.138
    1C        C   17   2.900   2.723   4.136
    1C        C   18   3.082   2.618   4.261
    1C        C   19   3.014   2.647   4.381
    1C        C   20   3.206   2.555   4.503
    1C        C   21   3.075   2.607   4.502
    1C        C   22   3.278   2.537   4.623
    1C        C   23   3.204   2.554   4.741
    1C        C   24   3.406   2.483   4.863
    1C        C   25   3.265   2.507   4.861
    1C        C   26   3.484   2.479   4.979
    1C        C   27   2.844   2.768   3.281
    1C        C   28   2.899   2.722   3.403
    1C        C   29   2.848   2.769   3.526
    1C        C   30   3.014   2.637   3.648
    1C        C   31   2.902   2.724   3.648
    1C        C   32   3.075   2.602   3.771
    1C        C   33   3.017   2.641   3.894
    1C        C   34   3.208   2.554   4.015
    1C        C   35   3.077   2.605   4.016
    1C        C   36   3.276   2.537   4.138
    1C        C   37   3.212   2.564   4.261
    1C        C   38   3.417   2.509   4.379
    1C        C   39   3.279   2.537   4.383
    1C        C   40   3.488   2.506   4.501
    1C        C   41   3.417   2.508   4.623
    1C        C   42   3.626   2.486   4.743
    1C        C   43   3.484   2.481   4.744
    1C        C   44   3.702   2.486   4.862
    1C        C   45   3.623   2.476   4.977
    1C        C   46   2.837   2.755   2.794
    1C        C   47   2.894   2.712   2.915
    1C        C   48   2.844   2.761   3.038
    1C        C   49   3.014   2.637   3.162
    1C        C   50   2.898   2.718   3.161
    1C        C   51   3.077   2.604   3.284
    1C        C   52   3.016   2.643   3.406
    1C        C   53   3.208   2.549   3.527
    1C        C   54   3.077   2.602   3.527
    1C        C   55   3.276   2.531   3.650
    1C        C   56   3.207   2.553   3.772
    1C        C   57   3.415   2.505   3.893
    1C        C   58   3.277   2.533   3.893
    1C        C   59   3.488   2.503   4.014
    1C        C   60   3.416   2.517   4.135
    1C        C   61   3.628   2.503   4.256
    1C        C   62   3.487   2.505   4.256
    1C        C   63   3.700   2.510   4.378
    1C        C   64   3.629   2.512   4.500
    1C        C   65   3.836   2.541   4.622
    1C        C   66   3.698   2.512   4.624
    1C        C   67   3.906   2.559   4.743
    1C        C   68   3.838   2.522   4.861
    1C        C   69   4.045   2.587   4.975
    1C        C   70   3.919   2.526   4.975
    1C        C   71   2.834   2.744   2.308
    1C        C   72   2.886   2.696   2.431
    1C        C   73   2.826   2.744   2.549
    1C        C   74   3.006   2.630   2.673
    1C        C   75   2.889   2.708   2.671
    1C        C   76   3.072   2.597   2.794
    1C        C   77   3.012   2.634   2.916
    1C        C   78   3.203   2.544   3.036
    1C        C   79   3.074   2.601   3.039
    1C        C   80   3.272   2.529   3.159
    1C        C   81   3.208   2.552   3.283
    1C        C   82   3.415   2.505   3.404
    1C        C   83   3.276   2.531   3.405
    1C        C   84   3.486   2.499   3.526
    1C        C   85   3.414   2.504   3.648
    1C        C   86   3.626   2.498   3.768
    1C        C   87   3.485   2.494   3.770
    1C        C   88   3.699   2.507   3.889
    1C        C   89   3.629   2.504   4.012
    1C        C   90   3.837   2.542   4.135
    1C        C   91   3.699   2.513   4.134
    1C        C   92   3.906   2.567   4.256
    1C        C   93   3.836   2.547   4.378
    1C        C   94   4.029   2.632   4.498
    1C        C   95   3.903   2.568   4.500
    1C        C   96   4.094   2.664   4.619
    1C        C   97   4.033   2.624   4.740
    1C        C   98   4.190   2.767   4.861
    1C        C   99   4.099   2.657   4.862
    1C        C  100   4.214   2.843   4.976
    1C        C  101   2.821   2.728   2.072
    1C        C  102   2.992   2.591   2.191
    1C        C  103   2.879   2.679   2.190
    1C        C  104   3.061   2.567   2.313
    1C        C  105   3.000   2.612   2.432
    1C        C  106   3.200   2.538   2.551
    1C        C  107   3.069   2.590   2.553
    1C        C  108   3.268   2.517   2.673
    1C        C  109   3.202   2.541   2.795
    1C        C  110   3.412   2.497   2.914
    1C        C  111   3.274   2.526   2.916
    1C        C  112   3.483   2.492   3.036
    1C        C  113   3.410   2.501   3.158
    1C        C  114   3.622   2.500   3.278
    1C        C  115   3.481   2.497   3.280
    1C        C  116   3.693   2.509   3.400
    1C        C  117   3.627   2.502   3.525
    1C        C  118   3.835   2.545   3.645
    1C        C  119   3.698   2.511   3.647
    1C        C  120   3.900   2.566   3.768
    1C        C  121   3.836   2.540   3.891
    1C        C  122   4.026   2.635   4.011
    1C        C  123   3.902   2.568   4.013
    1C        C  124   4.088   2.674   4.133
    1C        C  125   4.030   2.634   4.255
    1C        C  126   4.199   2.761   4.376
    1C        C  127   4.091   2.669   4.377
    1C        C  128   4.249   2.813   4.498
    1C        C  129   4.197   2.760   4.618
    1C        C  130   4.329   2.929   4.738
    1C        C  131   4.246   2.814   4.739
    1C        C  132   4.354   3.001   4.857
    1C        C  133   4.280   2.965   4.971
    1C        C  134   3.171   2.466   2.081
    1C        C  135   3.038   2.510   2.082
    1C        C  136   3.258   2.478   2.190
    1C        C  137   3.196   2.524   2.309
    1C        C  138   3.405   2.484   2.427
    1C        C  139   3.266   2.505   2.430
    1C        C  140   3.479   2.487   2.547
    1C        C  141   3.408   2.497   2.669
    1C        C  142   3.621   2.497   2.789
    1C        C  143   3.480   2.488   2.790
    1C        C  144   3.692   2.502   2.911
    1C        C  145   3.624   2.495   3.035
    1C        C  146   3.833   2.531   3.153
    1C        C  147   3.695   2.502   3.157
    1C        C  148   3.899   2.558   3.275
    1C        C  149   3.831   2.538   3.398
    1C        C  150   4.030   2.615   3.520
    1C        C  151   3.899   2.562   3.520
    1C        C  152   4.087   2.658   3.642
    1C        C  153   4.027   2.629   3.766
    1C        C  154   4.194   2.760   3.885
    1C        C  155   4.089   2.665   3.888
    1C        C  156   4.243   2.810   4.007
    1C        C  157   4.199   2.761   4.132
    1C        C  158   4.341   2.918   4.251
    1C        C  159   4.251   2.810   4.254
    1C        C  160   4.377   2.981   4.372
    1C        C  161   4.332   2.927   4.495
    1C        C  162   4.436   3.113   4.615
    1C        C  163   4.374   2.986   4.617
    1C        C  164   4.464   3.184   4.733
    1C        C  165   4.430   3.120   4.854
    1C        C  166   4.516   3.317   4.969
    1C        C  167   4.465   3.188   4.972
    1C        C  168   3.476   2.429   2.074
    1C        C  169   3.398   2.460   2.186
    1C        C  170   3.615   2.463   2.308
    1C        C  171   3.473   2.457   2.306
    1C        C  172   3.691   2.478   2.426
    1C        C  173   3.620   2.481   2.548
    1C        C  174   3.827   2.544   2.664
    1C        C  175   3.692   2.503   2.667
    1C        C  176   3.895   2.562   2.787
    1C        C  177   3.829   2.536   2.909
    1C        C  178   4.023   2.622   3.029
    1C        C  179   3.898   2.557   3.030
    1C        C  180   4.084   2.658   3.152
    1C        C  181   4.025   2.621   3.275
    1C        C  182   4.194   2.748   3.396
    1C        C  183   4.087   2.655   3.397
    1C        C  184   4.245   2.799   3.517
    1C        C  185   4.194   2.750   3.640
    1C        C  186   4.336   2.912   3.764
    1C        C  187   4.244   2.804   3.760
    1C        C  188   4.377   2.974   3.884
    1C        C  189   4.340   2.913   4.006
    1C        C  190   4.444   3.100   4.126
    1C        C  191   4.380   2.974   4.127
    1C        C  192   4.470   3.168   4.247
    1C        C  193   4.440   3.108   4.371
    1C        C  194   4.504   3.313   4.488
    1C        C  195   4.460   3.179   4.492
    1C        C  196   4.524   3.387   4.607
    1C        C  197   4.508   3.319   4.730
    1C        C  198   4.551   3.532   4.848
    1C        C  199   4.532   3.390   4.851
    1C        C  200   4.573   3.617   4.961
    1C        C  201   3.616   2.421   2.068
    1C        C  202   3.824   2.506   2.183
    1C        C  203   3.686   2.466   2.185
    1C        C  204   3.897   2.535   2.301
    1C        C  205   3.827   2.516   2.422
    1C        C  206   4.024   2.610   2.541
    1C        C  207   3.895   2.553   2.541
    1C        C  208   4.087   2.647   2.662
    1C        C  209   4.025   2.617   2.786
    1C        C  210   4.194   2.749   2.906
    1C        C  211   4.082   2.663   2.907
    1C        C  212   4.249   2.791   3.029
    1C        C  213   4.198   2.740   3.151
    1C        C  214   4.337   2.903   3.271
    1C        C  215   4.246   2.795   3.273
    1C        C  216   4.363   2.970   3.393
    1C        C  217   4.331   2.911   3.517
    1C        C  218   4.428   3.097   3.636
    1C        C  219   4.373   2.967   3.640
    1C        C  220   4.454   3.167   3.757
    1C        C  221   4.439   3.101   3.881
    1C        C  222   4.496   3.303   4.001
    1C        C  223   4.469   3.164   4.003
    1C        C  224   4.510   3.375   4.122
    1C        C  225   4.503   3.305   4.244
    1C        C  226   4.516   3.521   4.361
    1C        C  227   4.513   3.380   4.364
    1C        C  228   4.517   3.595   4.481
    1C        C  229   4.530   3.528   4.605
    1C        C  230   4.496   3.739   4.725
    1C        C  231   4.530   3.601   4.726
    1C        C  232   4.491   3.815   4.843
    1C        C  233   4.537   3.752   4.960
    1C        C  234   4.011   2.610   2.062
    1C        C  235   3.893   2.537   2.065
    1C        C  236   4.080   2.646   2.178
    1C        C  237   4.020   2.606   2.300
    1C        C  238   4.200   2.729   2.419
    1C        C  239   4.085   2.645   2.419
    1C        C  240   4.250   2.782   2.540
    1C        C  241   4.194   2.739   2.662
    1C        C  242   4.337   2.900   2.783
    1C        C  243   4.246   2.792   2.782
    1C        C  244   4.378   2.960   2.905
    1C        C  245   4.336   2.902   3.027
    1C        C  246   4.430   3.092   3.149
    1C        C  247   4.376   2.961   3.148
    1C        C  248   4.455   3.160   3.270
    1C        C  249   4.423   3.097   3.393
    1C        C  250   4.493   3.299   3.514
    1C        C  251   4.456   3.163   3.514
    1C        C  252   4.503   3.371   3.635
    1C        C  253   4.491   3.303   3.758
    1C        C  254   4.519   3.515   3.875
    1C        C  255   4.510   3.374   3.879
    1C        C  256   4.511   3.586   3.997
    1C        C  257   4.512   3.516   4.119
    1C        C  258   4.489   3.731   4.239
    1C        C  259   4.512   3.591   4.239
    1C        C  260   4.472   3.803   4.359
    1C        C  261   4.490   3.734   4.481
    1C        C  262   4.423   3.937   4.602
    1C        C  263   4.470   3.804   4.602
    1C        C  264   4.399   4.008   4.722
    1C        C  265   4.434   3.944   4.843
    1C        C  266   4.311   4.124   4.955
    1C        C  267   4.387   4.007   4.958
    1C        C  268   4.260   2.772   2.062
    1C        C  269   4.195   2.729   2.179
    1C        C  270   4.347   2.885   2.296
    1C        C  271   4.253   2.777   2.297
    1C        C  272   4.382   2.949   2.417
    1C        C  273   4.340   2.891   2.539
    1C        C  274   4.437   3.083   2.660
    1C        C  275   4.376   2.955   2.659
    1C        C  276   4.464   3.151   2.781
    1C        C  277   4.444   3.085   2.904
    1C        C  278   4.501   3.290   3.024
    1C        C  279   4.464   3.153   3.026
    1C        C  280   4.509   3.362   3.145
    1C        C  281   4.492   3.296   3.269
    1C        C  282   4.507   3.508   3.386
    1C        C  283   4.506   3.367   3.391
    1C        C  284   4.507   3.581   3.507
    1C        C  285   4.512   3.512   3.631
    1C        C  286   4.489   3.723   3.753
    1C        C  287   4.512   3.584   3.752
    1C        C  288   4.469   3.792   3.874
    1C        C  289   4.492   3.726   3.997
    1C        C  290   4.428   3.932   4.113
    1C        C  291   4.478   3.800   4.117
    1C        C  292   4.399   3.998   4.235
    1C        C  293   4.428   3.937   4.359
    1C        C  294   4.327   4.127   4.478
    1C        C  295   4.392   4.001   4.480
    1C        C  296   4.283   4.190   4.596
    1C        C  297   4.325   4.130   4.717
    1C        C  298   4.200   4.310   4.836
    1C        C  299   4.281   4.193   4.836
    1C        C  300   4.165   4.399   4.943
    1C        C  301   4.348   2.880   2.061
    1C        C  302   4.467   3.066   2.177
    1C        C  303   4.400   2.940   2.176
    1C        C  304   4.485   3.139   2.298
    1C        C  305   4.446   3.074   2.417
    1C        C  306   4.504   3.282   2.537
    1C        C  307   4.469   3.145   2.538
    1C        C  308   4.513   3.357   2.656
    1C        C  309   4.494   3.289   2.779
    1C        C  310   4.522   3.498   2.898
    1C        C  311   4.514   3.357   2.901
    1C        C  312   4.514   3.572   3.018
    1C        C  313   4.515   3.503   3.142
    1C        C  314   4.480   3.714   3.260
    1C        C  315   4.510   3.576   3.263
    1C        C  316   4.465   3.784   3.382
    1C        C  317   4.486   3.721   3.506
    1C        C  318   4.429   3.924   3.625
    1C        C  319   4.471   3.789   3.629
    1C        C  320   4.395   3.990   3.745
    1C        C  321   4.425   3.926   3.868
    1C        C  322   4.317   4.110   3.989
    1C        C  323   4.397   3.993   3.989
    1C        C  324   4.277   4.168   4.111
    1C        C  325   4.327   4.120   4.234
    1C        C  326   4.189   4.284   4.352
    1C        C  327   4.289   4.183   4.354
    1C        C  328   4.136   4.341   4.470
    1C        C  329   4.190   4.296   4.592
    1C        C  330   4.022   4.429   4.709
    1C        C  331   4.138   4.348   4.713
    1C        C  332   3.966   4.486   4.826
    1C        C  333   4.049   4.476   4.939
    1C        C  334   4.545   3.266   2.060
    1C        C  335   4.533   3.126   2.065
    1C        C  336   4.537   3.346   2.174
    1C        C  337   4.514   3.278   2.295
    1C        C  338   4.527   3.494   2.410
    1C        C  339   4.519   3.353   2.415
    1C        C  340   4.523   3.567   2.531
    1C        C  341   4.518   3.498   2.654
    1C        C  342   4.497   3.709   2.772
    1C        C  343   4.516   3.569   2.776
    1C        C  344   4.474   3.780   2.893
    1C        C  345   4.489   3.711   3.016
    1C        C  346   4.425   3.915   3.137
    1C        C  347   4.473   3.782   3.136
    1C        C  348   4.390   3.978   3.259
    1C        C  349   4.419   3.917   3.383
    1C        C  350   4.324   4.109   3.499
    1C        C  351   4.397   3.988   3.503
    1C        C  352   4.279   4.168   3.619
    1C        C  353   4.319   4.108   3.741
    1C        C  354   4.177   4.263   3.866
    1C        C  355   4.274   4.160   3.864
    1C        C  356   4.124   4.312   3.987
    1C        C  357   4.176   4.268   4.110
    1C        C  358   4.009   4.399   4.228
    1C        C  359   4.127   4.322   4.231
    1C        C  360   3.949   4.446   4.347
    1C        C  361   4.018   4.419   4.467
    1C        C  362   3.827   4.516   4.590
    1C        C  363   3.955   4.456   4.588
    1C        C  364   3.761   4.553   4.709
    1C        C  365   3.837   4.544   4.828
    1C        C  366   3.624   4.581   4.950
    1C        C  367   3.763   4.568   4.944
    1C        C  368   4.517   3.562   2.050
    1C        C  369   4.524   3.487   2.168
    1C        C  370   4.497   3.702   2.282
    1C        C  371   4.515   3.562   2.287
    1C        C  372   4.480   3.772   2.403
    1C        C  373   4.500   3.706   2.527
    1C        C  374   4.427   3.906   2.647
    1C        C  375   4.480   3.775   2.648
    1C        C  376   4.398   3.974   2.768
    1C        C  377   4.433   3.915   2.891
    1C        C  378   4.321   4.094   3.013
    1C        C  379   4.402   3.978   3.013
    1C        C  380   4.270   4.152   3.131
    1C        C  381   4.312   4.096   3.254
    1C        C  382   4.173   4.257   3.376
    1C        C  383   4.272   4.156   3.376
    1C        C  384   4.117   4.301   3.498
    1C        C  385   4.174   4.262   3.622
    1C        C  386   3.999   4.380   3.739
    1C        C  387   4.119   4.305   3.744
    1C        C  388   3.943   4.423   3.862
    1C        C  389   4.008   4.393   3.984
    1C        C  390   3.816   4.485   4.105
    1C        C  391   3.946   4.430   4.105
    1C        C  392   3.749   4.510   4.227
    1C        C  393   3.818   4.498   4.350
    1C        C  394   3.612   4.547   4.472
    1C        C  395   3.752   4.529   4.471
    1C        C  396   3.544   4.566   4.594
    1C        C  397   3.621   4.569   4.713
    1C        C  398   3.408   4.549   4.834
    1C        C  399   3.547   4.577   4.833
    1C        C  400   3.341   4.515   4.952
    1C        C  401   4.502   3.700   2.048
    1C        C  402   4.454   3.915   2.164
    1C        C  403   4.489   3.778   2.164
    1C        C  404   4.410   3.976   2.284
    1C        C  405   4.431   3.905   2.404
    1C        C  406   4.320   4.087   2.526
    1C        C  407   4.399   3.970   2.525
    1C        C  408   4.274   4.146   2.646
    1C        C  409   4.317   4.090   2.768
    1C        C  410   4.173   4.245   2.886
    1C        C  411   4.276   4.149   2.890
    1C        C  412   4.116   4.292   3.006
    1C        C  413   4.170   4.251   3.131
    1C        C  414   3.999   4.376   3.252
    1C        C  415   4.117   4.298   3.253
    1C        C  416   3.938   4.414   3.373
    1C        C  417   4.000   4.380   3.496
    1C        C  418   3.807   4.471   3.616
    1C        C  419   3.936   4.414   3.617
    1C        C  420   3.744   4.499   3.740
    1C        C  421   3.814   4.480   3.861
    1C        C  422   3.608   4.530   3.983
    1C        C  423   3.747   4.506   3.983
    1C        C  424   3.540   4.538   4.106
    1C        C  425   3.611   4.536   4.229
    1C        C  426   3.399   4.543   4.352
    1C        C  427   3.540   4.547   4.350
    1C        C  428   3.330   4.543   4.475
    1C        C  429   3.403   4.556   4.595
    1C        C  430   3.193   4.516   4.718
    1C        C  431   3.332   4.547   4.716
    1C        C  432   3.124   4.489   4.840
    1C        C  433   3.204   4.493   4.955
    1C        C  434   4.381   4.119   2.047
    1C        C  435   4.449   3.996   2.051
    1C        C  436   4.303   4.163   2.159
    1C        C  437   4.332   4.095   2.280
    1C        C  438   4.181   4.243   2.403
    1C        C  439   4.282   4.144   2.402
    1C        C  440   4.119   4.291   2.521
    1C        C  441   4.171   4.242   2.643
    1C        C  442   4.004   4.374   2.764
    1C        C  443   4.117   4.289   2.764
    1C        C  444   3.939   4.409   2.885
    1C        C  445   3.998   4.370   3.008
    1C        C  446   3.809   4.467   3.126
    1C        C  447   3.936   4.406   3.129
    1C        C  448   3.742   4.488   3.249
    1C        C  449   3.807   4.466   3.372
    1C        C  450   3.602   4.520   3.495
    1C        C  451   3.741   4.495   3.494
    1C        C  452   3.536   4.535   3.619
    1C        C  453   3.607   4.531   3.741
    1C        C  454   3.393   4.542   3.863
    1C        C  455   3.534   4.538   3.862
    1C        C  456   3.327   4.528   3.987
    1C        C  457   3.399   4.537   4.108
    1C        C  458   3.190   4.505   4.232
    1C        C  459   3.328   4.535   4.230
    1C        C  460   3.124   4.484   4.356
    1C        C  461   3.194   4.505   4.477
    1C        C  462   2.995   4.431   4.600
    1C        C  463   3.125   4.486   4.598
    1C        C  464   2.929   4.400   4.721
    1C        C  465   2.987   4.447   4.842
    1C        C  466   2.803   4.330   4.958
    1C        C  467   2.907   4.424   4.959
    1C        C  468   4.123   4.288   2.042
    1C        C  469   4.188   4.249   2.160
    1C        C  470   4.010   4.371   2.277
    1C        C  471   4.129   4.293   2.281
    1C        C  472   3.939   4.399   2.396
    1C        C  473   3.999   4.365   2.519
    1C        C  474   3.808   4.454   2.641
    1C        C  475   3.940   4.404   2.642
    1C        C  476   3.742   4.487   2.761
    1C        C  477   3.810   4.465   2.883
    1C        C  478   3.602   4.514   3.008
    1C        C  479   3.741   4.490   3.004
    1C        C  480   3.532   4.530   3.129
    1C        C  481   3.603   4.517   3.251
    1C        C  482   3.391   4.531   3.374
    1C        C  483   3.532   4.524   3.373
    1C        C  484   3.323   4.527   3.498
    1C        C  485   3.395   4.537   3.620
    1C        C  486   3.187   4.496   3.742
    1C        C  487   3.323   4.536   3.741
    1C        C  488   3.124   4.470   3.866
    1C        C  489   3.189   4.494   3.989
    1C        C  490   2.994   4.419   4.112
    1C        C  491   3.121   4.480   4.112
    1C        C  492   2.937   4.382   4.237
    1C        C  493   2.998   4.420   4.359
    1C        C  494   2.821   4.304   4.480
    1C        C  495   2.932   4.390   4.480
    1C        C  496   2.772   4.254   4.603
    1C        C  497   2.820   4.308   4.724
    1C        C  498   2.663   4.161   4.844
    1C        C  499   2.753   4.269   4.842
    1C        C  500   2.591   4.116   4.956
    1C        C  501   4.002   4.358   2.041
    1C        C  502   3.810   4.456   2.156
    1C        C  503   3.940   4.401   2.159
    1C        C  504   3.742   4.481   2.277
    1C        C  505   3.810   4.456   2.398
    1C        C  506   3.601   4.505   2.520
    1C        C  507   3.740   4.477   2.519
    1C        C  508   3.531   4.520   2.642
    1C        C  509   3.603   4.516   2.763
    1C        C  510   3.391   4.530   2.883
    1C        C  511   3.532   4.521   2.885
    1C        C  512   3.320   4.524   3.005
    1C        C  513   3.391   4.529   3.127
    1C        C  514   3.186   4.490   3.254
    1C        C  515   3.323   4.521   3.251
    1C        C  516   3.118   4.467   3.375
    1C        C  517   3.186   4.493   3.497
    1C        C  518   2.992   4.414   3.621
    1C        C  519   3.120   4.475   3.620
    1C        C  520   2.933   4.380   3.744
    1C        C  521   2.993   4.416   3.867
    1C        C  522   2.828   4.287   3.994
    1C        C  523   2.935   4.378   3.990
    1C        C  524   2.780   4.236   4.117
    1C        C  525   2.830   4.290   4.238
    1C        C  526   2.691   4.132   4.361
    1C        C  527   2.772   4.248   4.359
    1C        C  528   2.656   4.073   4.484
    1C        C  529   2.689   4.139   4.604
    1C        C  530   2.583   3.957   4.730
    1C        C  531   2.640   4.087   4.726
    1C        C  532   2.542   3.899   4.853
    1C        C  533   2.526   3.992   4.960
    1C        C  534   3.615   4.554   2.040
    1C        C  535   3.745   4.501   2.040
    1C        C  536   3.534   4.537   2.156
    1C        C  537   3.602   4.505   2.276
    1C        C  538   3.390   4.513   2.398
    1C        C  539   3.531   4.512   2.398
    1C        C  540   3.319   4.507   2.520
    1C        C  541   3.390   4.514   2.642
    1C        C  542   3.179   4.488   2.763
    1C        C  543   3.317   4.517   2.763
    1C        C  544   3.116   4.461   2.887
    1C        C  545   3.184   4.485   3.008
    1C        C  546   2.993   4.401   3.131
    1C        C  547   3.118   4.466   3.132
    1C        C  548   2.931   4.370   3.255
    1C        C  549   2.989   4.409   3.378
    1C        C  550   2.820   4.285   3.504
    1C        C  551   2.929   4.375   3.501
    1C        C  552   2.774   4.234   3.628
    1C        C  553   2.826   4.288   3.748
    1C        C  554   2.702   4.118   3.873
    1C        C  555   2.780   4.236   3.871
    1C        C  556   2.660   4.060   3.995
    1C        C  557   2.693   4.125   4.116
    1C        C  558   2.597   3.939   4.242
    1C        C  559   2.663   4.064   4.240
    1C        C  560   2.569   3.876   4.365
    1C        C  561   2.590   3.948   4.485
    1C        C  562   2.535   3.748   4.614
    1C        C  563   2.562   3.887   4.609
    1C        C  564   2.519   3.677   4.735
    1C        C  565   2.525   3.757   4.853
    1C        C  566   2.525   3.546   4.974
    1C        C  567   2.533   3.685   4.973
    1C        C  568   3.323   4.476   2.039
    1C        C  569   3.394   4.510   2.155
    1C        C  570   3.181   4.472   2.277
    1C        C  571   3.320   4.505   2.276
    1C        C  572   3.112   4.460   2.400
    1C        C  573   3.179   4.487   2.521
    1C        C  574   2.988   4.395   2.645
    1C        C  575   3.108   4.469   2.642
    1C        C  576   2.929   4.359   2.768
    1C        C  577   2.989   4.400   2.889
    1C        C  578   2.823   4.268   3.014
    1C        C  579   2.933   4.356   3.011
    1C        C  580   2.775   4.220   3.138
    1C        C  581   2.825   4.277   3.257
    1C        C  582   2.698   4.112   3.384
    1C        C  583   2.776   4.231   3.381
    1C        C  584   2.662   4.054   3.507
    1C        C  585   2.693   4.119   3.629
    1C        C  586   2.590   3.935   3.753
    1C        C  587   2.659   4.059   3.753
    1C        C  588   2.570   3.869   3.876
    1C        C  589   2.599   3.933   3.999
    1C        C  590   2.537   3.733   4.123
    1C        C  591   2.571   3.870   4.122
    1C        C  592   2.523   3.669   4.249
    1C        C  593   2.532   3.740   4.370
    1C        C  594   2.520   3.532   4.497
    1C        C  595   2.528   3.673   4.495
    1C        C  596   2.520   3.460   4.618
    1C        C  597   2.518   3.535   4.737
    1C        C  598   2.529   3.324   4.860
    1C        C  599   2.521   3.465   4.860
    1C        C  600   2.522   3.246   4.977
    1C        C  601   3.188   4.445   2.039
    1C        C  602   2.980   4.387   2.156
    1C        C  603   3.113   4.440   2.157
    1C        C  604   2.921   4.358   2.282
    1C        C  605   2.984   4.400   2.401
    1C        C  606   2.817   4.271   2.526
    1C        C  607   2.924   4.362   2.523
    1C        C  608   2.765   4.223   2.648
    1C        C  609   2.819   4.270   2.770
    1C        C  610   2.681   4.110   2.891
    1C        C  611   2.771   4.219   2.892
    1C        C  612   2.645   4.053   3.015
    1C        C  613   2.685   4.111   3.138
    1C        C  614   2.590   3.927   3.263
    1C        C  615   2.655   4.053   3.263
    1C        C  616   2.563   3.862   3.385
    1C        C  617   2.597   3.929   3.505
    1C        C  618   2.532   3.733   3.636
    1C        C  619   2.568   3.869   3.630
    1C        C  620   2.513   3.661   3.757
    1C        C  621   2.528   3.734   3.877
    1C        C  622   2.509   3.524   4.009
    1C        C  623   2.519   3.665   4.001
    1C        C  624   2.512   3.456   4.132
    1C        C  625   2.514   3.528   4.254
    1C        C  626   2.537   3.318   4.374
    1C        C  627   2.519   3.458   4.376
    1C        C  628   2.547   3.249   4.497
    1C        C  629   2.534   3.319   4.619
    1C        C  630   2.588   3.114   4.744
    1C        C  631   2.544   3.249   4.741
    1C        C  632   2.608   3.048   4.868
    1C        C  633   2.553   3.110   4.985
    1C        C  634   2.780   4.297   2.048
    1C        C  635   2.887   4.388   2.047
    1C        C  636   2.747   4.227   2.165
    1C        C  637   2.807   4.273   2.285
    1C        C  638   2.678   4.105   2.409
    1C        C  639   2.763   4.218   2.407
    1C        C  640   2.637   4.046   2.531
    1C        C  641   2.683   4.108   2.650
    1C        C  642   2.588   3.917   2.775
    1C        C  643   2.642   4.048   2.771
    1C        C  644   2.564   3.854   2.899
    1C        C  645   2.589   3.923   3.020
    1C        C  646   2.523   3.722   3.150
    1C        C  647   2.563   3.857   3.143
    1C        C  648   2.507   3.653   3.272
    1C        C  649   2.528   3.726   3.392
    1C        C  650   2.510   3.517   3.517
    1C        C  651   2.522   3.658   3.517
    1C        C  652   2.510   3.447   3.640
    1C        C  653   2.505   3.520   3.761
    1C        C  654   2.539   3.317   3.887
    1C        C  655   2.507   3.454   3.886
    1C        C  656   2.555   3.249   4.010
    1C        C  657   2.541   3.317   4.133
    1C        C  658   2.606   3.114   4.256
    1C        C  659   2.559   3.247   4.254
    1C        C  660   2.632   3.053   4.381
    1C        C  661   2.598   3.117   4.502
    1C        C  662   2.704   2.933   4.624
    1C        C  663   2.624   3.049   4.623
    1C        C  664   2.747   2.877   4.747
    1C        C  665   2.689   2.930   4.865
    1C        C  666   2.740   2.867   4.979
    1C        C  667   2.682   4.020   2.052
    1C        C  668   2.684   4.101   2.166
    1C        C  669   2.583   3.914   2.288
    1C        C  670   2.641   4.044   2.288
    1C        C  671   2.559   3.845   2.409
    1C        C  672   2.583   3.916   2.529
    1C        C  673   2.524   3.715   2.657
    1C        C  674   2.563   3.851   2.653
    1C        C  675   2.509   3.647   2.780
    1C        C  676   2.525   3.718   2.901
    1C        C  677   2.501   3.514   3.029
    1C        C  678   2.511   3.655   3.026
    1C        C  679   2.497   3.440   3.150
    1C        C  680   2.497   3.512   3.271
    1C        C  681   2.519   3.305   3.398
    1C        C  682   2.502   3.445   3.396
    1C        C  683   2.545   3.238   3.520
    1C        C  684   2.534   3.308   3.642
    1C        C  685   2.601   3.110   3.770
    1C        C  686   2.558   3.245   3.766
    1C        C  687   2.629   3.046   3.893
    1C        C  688   2.602   3.116   4.013
    1C        C  689   2.709   2.929   4.137
    1C        C  690   2.635   3.050   4.133
    1C        C  691   2.753   2.878   4.261
    1C        C  692   2.708   2.934   4.382
    1C        C  693   2.750   2.875   4.504
    1C        C  694   2.626   3.892   2.055
    1C        C  695   2.532   3.700   2.173
    1C        C  696   2.576   3.834   2.172
    1C        C  697   2.506   3.635   2.296
    1C        C  698   2.521   3.710   2.415
    1C        C  699   2.490   3.502   2.544
    1C        C  700   2.501   3.643   2.538
    1C        C  701   2.495   3.431   2.666
    1C        C  702   2.501   3.506   2.785
    1C        C  703   2.527   3.299   2.911
    1C        C  704   2.507   3.439   2.910
    1C        C  705   2.541   3.230   3.033
    1C        C  706   2.523   3.301   3.154
    1C        C  707   2.589   3.102   3.280
    1C        C  708   2.536   3.233   3.278
    1C        C  709   2.617   3.039   3.403
    1C        C  710   2.582   3.102   3.525
    1C        C  711   2.704   2.927   3.647
    1C        C  712   2.627   3.046   3.647
    1C        C  713   2.754   2.876   3.769
    1C        C  714   2.713   2.932   3.892
    1C        C  715   2.755   2.876   4.014
    1C        C  716   2.455   3.494   2.060
    1C        C  717   2.496   3.628   2.058
    1C        C  718   2.468   3.418   2.181
    1C        C  719   2.480   3.496   2.299
    1C        C  720   2.513   3.289   2.424
    1C        C  721   2.489   3.428   2.423
    1C        C  722   2.532   3.220   2.546
    1C        C  723   2.519   3.291   2.667
    1C        C  724   2.592   3.095   2.789
    1C        C  725   2.538   3.226   2.790
    1C        C  726   2.624   3.034   2.912
    1C        C  727   2.590   3.097   3.034
    1C        C  728   2.702   2.921   3.159
    1C        C  729   2.623   3.039   3.158
    1C        C  730   2.745   2.869   3.283
    1C        C  731   2.707   2.930   3.404
    1C        C  732   2.754   2.875   3.526
    1C        C  733   2.485   3.193   2.070
    1C        C  734   2.480   3.276   2.184
    1C        C  735   2.581   3.085   2.303
    1C        C  736   2.519   3.213   2.305
    1C        C  737   2.616   3.021   2.424
    1C        C  738   2.583   3.088   2.543
    1C        C  739   2.690   2.908   2.671
    1C        C  740   2.620   3.030   2.667
    1C        C  741   2.735   2.853   2.793
    1C        C  742   2.695   2.912   2.915
    1C        C  743   2.745   2.862   3.038
    1C        C  744   2.539   3.065   2.072
    1C        C  745   2.684   2.897   2.184
    1C        C  746   2.607   3.015   2.183
    1C        C  747   2.730   2.841   2.305
    1C        C  748   2.684   2.897   2.426
    1C        C  749   2.731   2.848   2.550
    1C        C  750   2.734   2.836   2.068
    1C        C  751   3.662   2.318   1.973
    1C        O  752   3.642   2.196   1.999
    1C        O  753   3.639   2.356   1.840
    1C        C  754   4.626   3.041   1.988
    1C        O  755   4.597   3.024   1.867
    1C        O  756   4.763   3.038   2.020
    1C        C  757   4.410   4.203   1.929
    1C        O  758   4.460   4.318   1.945
    1C        O  759   4.372   4.168   1.799
    1C        C  760   3.587   4.658   1.938
    1C        O  761   3.684   4.732   1.907
    1C        O  762   3.504   4.651   1.826
    1C        C  763   2.879   4.510   1.964
    1C        O  764   2.916   4.490   1.845
    1C        O  765   2.783   4.610   1.981
    1C        C  766   2.337   3.480   1.972
    1C        O  767   2.347   3.471   1.846
    1C        O  768   2.207   3.519   2.008
    1C        C  769   4.686   3.587   5.052
    1C        O  770   4.691   3.596   5.177
    1C        O  771   4.811   3.594   4.989
    1C        C  772   4.274   4.439   5.034
    1C        O  773   4.263   4.412   5.157
    1C        O  774   4.337   4.562   5.008
    1C        C  775   4.141   2.530   5.073
    1C        O  776   4.232   2.454   5.033
    1C        O  777   4.161   2.586   5.200
    1C        C  778   2.867   4.539   5.043
    1C        O  779   2.799   4.639   5.006
    1C        O  780   2.843   4.526   5.180
    1C        C  781   2.457   3.040   5.073
    1C        O  782   2.342   3.007   5.032
    1C        O  783   2.493   2.981   5.194
    1C        C  784   2.404   3.991   5.045
    1C        O  785   2.290   3.998   4.993
    1C        O  786   2.409   4.024   5.181
    1C        C  787   2.950   2.453   1.977
    1C        O  788   2.957   2.470   1.852
    1C        O  789   2.896   2.326   1.992
    1C        C  790   3.165   2.352   5.024
    1C        O  791   3.140   2.244   4.964
    1C        O  792   3.191   2.331   5.160
    1C        H  793   4.271   3.035   5.052
    1C        H  794   4.235   2.791   5.067
    1C        H  795   4.502   3.121   5.046
    1C        H  796   4.523   3.371   5.062
    1C        H  797   4.599   3.818   5.018
    1C        H  798   4.380   3.952   5.050
    1C        H  799   4.238   4.119   5.033
    1C        H  800   4.028   4.534   5.026
    1C        H  801   3.815   4.623   5.019
    1C        H  802   3.583   4.636   5.031
    1C        H  803   3.395   4.520   5.045
    1C        H  804   3.161   4.459   5.047
    1C        H  805   3.879   2.491   5.068
    1C        H  806   3.670   2.505   5.068
    1C        H  807   3.001   2.562   5.063
    1C        H  808   3.436   2.502   5.072
    1C        H  809   2.906   2.769   5.070
    1C        H  810   2.720   2.916   5.072
    1C        H  811   2.461   3.286   5.055
    1C        H  812   2.513   3.502   5.071
    1C        H  813   2.552   3.732   5.067
    1C        H  814   2.617   4.154   5.053
    1C        H  815   2.781   4.281   5.050
    1C        H  816   2.714   2.873   1.969
    1C        H  817   2.816   2.673   1.981
    1C        H  818   3.209   2.434   1.987
    1C        H  819   3.424   2.459   1.985
    1C        H  820   3.842   2.520   1.972
    1C        H  821   4.053   2.636   1.967
    1C        H  822   4.296   2.684   2.013
    1C        H  823   4.409   2.883   1.973
    1C        H  824   4.574   3.308   1.966
    1C        H  825   4.544   3.515   1.957
    1C        H  826   4.504   3.744   1.951
    1C        H  827   3.807   4.548   1.966
    1C        H  828   3.967   4.385   1.943
    1C        H  829   4.159   4.255   1.948
    1C        H  830   4.528   3.990   1.979
    1C        H  831   2.666   3.828   1.979
    1C        H  832   2.745   4.039   1.967
    1C        H  833   2.696   4.318   1.985
    1C        H  834   3.378   4.444   1.953
    1C        H  835   3.161   4.365   1.973
    1C        H  836   2.478   2.992   2.023
    1C        H  837   2.449   3.235   1.979
    1C        H  838   2.502   3.673   1.961
    2V3OU   H29  839   2.807   3.545   2.999
    2V3OU   C27  840   2.787   3.499   3.099
    2V3OU   H27  841   2.733   3.572   3.164
    2V3OU   H28  842   2.738   3.399   3.087
    2V3OU   O11  843   2.909   3.476   3.169
    2V3OU   C15  844   2.927   3.390   3.276
    2V3OU   C13  845   3.057   3.367   3.325
    2V3OU   C14  846   3.078   3.267   3.421
    2V3OU   C16  847   2.977   3.184   3.468
    2V3OU    H6  848   2.990   3.099   3.537
    2V3OU   C12  849   3.215   3.229   3.460
    2V3OU    O2  850   3.236   3.129   3.532
    2V3OU   C10  851   3.325   3.308   3.405
    2V3OU    C8  852   3.457   3.268   3.428
    2V3OU   O10  853   3.481   3.158   3.504
    2V3OU   H26  854   3.398   3.109   3.494
    2V3OU    C6  855   3.564   3.348   3.376
    2V3OU    C5  856   3.532   3.466   3.311
    2V3OU    C4  857   3.701   3.291   3.383
    2V3OU    H4  858   3.716   3.228   3.475
    2V3OU    H5  859   3.713   3.221   3.294
    2V3OU    C2  860   3.813   3.395   3.381
    2V3OU    O6  861   3.806   3.472   3.501
    2V3OU   H21  862   3.754   3.552   3.481
    2V3OU    C3  863   3.779   3.494   3.269
    2V3OU    H2  864   3.856   3.575   3.258
    2V3OU    H3  865   3.773   3.439   3.172
    2V3OU   C25  866   3.948   3.326   3.358
    2V3OU    O7  867   3.992   3.294   3.248
    2V3OU   C26  868   4.022   3.289   3.485
    2V3OU   H22  869   4.057   3.383   3.534
    2V3OU   H23  870   4.111   3.225   3.460
    2V3OU    O8  871   3.958   3.207   3.580
    2V3OU   H24  872   3.920   3.270   3.645
    2V3OU    C1  873   3.645   3.563   3.288
    2V3OU    H1  874   3.622   3.620   3.194
    2V3OU    O3  875   3.656   3.653   3.398
    2V3OU   C19  876   3.613   3.789   3.384
    2V3OU    H9  877   3.521   3.805   3.320
    2V3OU    O4  878   3.709   3.849   3.299
    2V3OU   C20  879   3.838   3.870   3.356
    2V3OU   H10  880   3.890   3.774   3.386
    2V3OU   C24  881   3.604   3.853   3.522
    2V3OU   H16  882   3.539   3.792   3.590
    2V3OU   H17  883   3.565   3.958   3.521
    2V3OU   C23  884   3.742   3.872   3.586
    2V3OU   H15  885   3.788   3.768   3.599
    2V3OU    N1  886   3.734   3.953   3.706
    2V3OU   H19  887   3.811   3.923   3.762
    2V3OU   H20  888   3.640   3.938   3.738
    2V3OU   C21  889   3.840   3.945   3.490
    2V3OU   H11  890   3.948   3.926   3.515
    2V3OU    O5  891   3.819   4.085   3.496
    2V3OU   H18  892   3.773   4.100   3.580
    2V3OU   C22  893   3.912   3.943   3.245
    2V3OU   H12  894   3.869   4.046   3.239
    2V3OU   H13  895   3.905   3.885   3.150
    2V3OU   H14  896   4.021   3.953   3.266
    2V3OU   C11  897   3.159   3.469   3.299
    2V3OU    O1  898   3.136   3.585   3.258
    2V3OU    C9  899   3.296   3.419   3.321
    2V3OU    C7  900   3.398   3.504   3.278
    2V3OU    O9  901   3.385   3.619   3.204
    2V3OU   H25  902   3.289   3.633   3.211
    2V3OU   C17  903   2.822   3.310   3.327
    2V3OU    H7  904   2.728   3.348   3.287
    2V3OU   C18  905   2.848   3.213   3.424
    2V3OU    H8  906   2.783   3.169   3.500
    3SOL     OW  907   2.759   5.234   6.292
    3SOL    HW1  908   2.740   5.220   6.389
    3SOL    HW2  909   2.777   5.146   6.248
    4SOL     OW  910   6.689   0.554   1.198
    4SOL    HW1  911   6.787   0.575   1.207
    4SOL    HW2  912   6.645   0.565   1.287
    5SOL     OW  913   4.359   2.408   1.972
    5SOL    HW1  914   4.370   2.324   2.026
    5SOL    HW2  915   4.290   2.394   1.901
    6SOL     OW  916   4.256   1.477   1.758
    6SOL    HW1  917   4.178   1.505   1.813
    6SOL    HW2  918   4.227   1.464   1.663
    7SOL     OW  919   0.522   3.893   3.615
    7SOL    HW1  920   0.474   3.942   3.542
    7SOL    HW2  921   0.602   3.947   3.644
    8SOL     OW  922   2.892   1.761   5.620
    8SOL    HW1  923   2.961   1.695   5.650
    8SOL    HW2  924   2.927   1.854   5.629
    9SOL     OW  925   5.282   1.935   5.956
    9SOL    HW1  926   5.203   1.887   5.920
    9SOL    HW2  927   5.331   1.876   6.020
   10SOL     OW  928   2.496   5.261   5.192
   10SOL    HW1  929   2.499   5.360   5.202
   10SOL    HW2  930   2.401   5.232   5.179
   11SOL     OW  931   2.405   1.068   5.467
   11SOL    HW1  932   2.487   1.011   5.472
   11SOL    HW2  933   2.429   1.164   5.482
   12SOL     OW  934   2.830   4.818   3.675
   12SOL    HW1  935   2.779   4.753   3.732
   12SOL    HW2  936   2.819   4.910   3.712
   13SOL     OW  937   3.398   6.637   4.322
   13SOL    HW1  938   3.358   6.656   4.232
   13SOL    HW2  939   3.420   6.724   4.367
   14SOL     OW  940   3.974   4.943   6.148
   14SOL    HW1  941   3.888   4.935   6.199
   14SOL    HW2  942   4.021   5.026   6.176
   15SOL     OW  943   0.551   6.694   1.122
   15SOL    HW1  944   0.531   6.752   1.202
   15SOL    HW2  945   0.522   6.742   1.039
   16SOL     OW  946   5.620   3.378   6.065
   16SOL    HW1  947   5.589   3.293   6.108
   16SOL    HW2  948   5.718   3.374   6.050
   17SOL     OW  949   5.955   6.531   6.610
   17SOL    HW1  950   5.938   6.628   6.589
   17SOL    HW2  951   5.944   6.517   6.709
   18SOL     OW  952   3.311   0.898   5.905
   18SOL    HW1  953   3.255   0.976   5.877
   18SOL    HW2  954   3.374   0.874   5.831
   19SOL     OW  955   0.437   2.144   2.877
   19SOL    HW1  956   0.480   2.072   2.823
   19SOL    HW2  957   0.489   2.229   2.867
   20SOL     OW  958   5.079   1.272   4.808
   20SOL    HW1  959   5.031   1.359   4.794
   20SOL    HW2  960   5.065   1.241   4.902
   21SOL     OW  961   2.843   1.471   2.148
   21SOL    HW1  962   2.907   1.452   2.074
   21SOL    HW2  963   2.879   1.436   2.234
   22SOL     OW  964   0.973   6.215   0.207
   22SOL    HW1  965   0.891   6.270   0.223
   22SOL    HW2  966   1.050   6.256   0.256
   23SOL     OW  967   4.515   5.514   2.386
   23SOL    HW1  968   4.445   5.485   2.450
   23SOL    HW2  969   4.536   5.611   2.400
   24SOL     OW  970   3.101   0.369   2.300
   24SOL    HW1  971   3.135   0.308   2.229
   24SOL    HW2  972   3.176   0.427   2.333
   25SOL     OW  973   2.866   0.197   3.527
   25SOL    HW1  974   2.826   0.141   3.454
   25SOL    HW2  975   2.812   0.187   3.610
   26SOL     OW  976   6.266   1.731   0.413
   26SOL    HW1  977   6.250   1.714   0.510
   26SOL    HW2  978   6.358   1.768   0.401
   27SOL     OW  979   1.871   1.090   2.387
   27SOL    HW1  980   1.863   1.145   2.471
   27SOL    HW2  981   1.832   1.141   2.310
   28SOL     OW  982   1.913   6.888   4.937
   28SOL    HW1  983   2.009   6.868   4.919
   28SOL    HW2  984   1.862   6.803   4.947
   29SOL     OW  985   6.155   1.757   1.571
   29SOL    HW1  986   6.197   1.691   1.508
   29SOL    HW2  987   6.139   1.713   1.659
   30SOL     OW  988   4.361   0.543   3.717
   30SOL    HW1  989   4.400   0.487   3.790
   30SOL    HW2  990   4.434   0.591   3.669
   31SOL     OW  991   0.481   2.457   6.599
   31SOL    HW1  992   0.444   2.541   6.638
   31SOL    HW2  993   0.565   2.477   6.550
   32SOL     OW  994   0.743   1.863   2.939
   32SOL    HW1  995   0.815   1.932   2.947
   32SOL    HW2  996   0.753   1.813   2.853
   33SOL     OW  997   1.244   4.391   5.043
   33SOL    HW1  998   1.280   4.309   5.089
   33SOL    HW2  999   1.152   4.410   5.077
   34SOL     OW 1000   2.540   6.871   5.009
   34SOL    HW1 1001   2.623   6.922   5.032
   34SOL    HW2 1002   2.477   6.872   5.087
   35SOL     OW 1003   4.874   2.742   5.974
   35SOL    HW1 1004   4.836   2.775   5.888
   35SOL    HW2 1005   4.883   2.643   5.971
   36SOL     OW 1006   4.924   2.073   4.589
   36SOL    HW1 1007   4.900   2.009   4.515
   36SOL    HW2 1008   4.986   2.029   4.653
   37SOL     OW 1009   1.783   1.273   5.564
   37SOL    HW1 1010   1.864   1.331   5.563
   37SOL    HW2 1011   1.732   1.289   5.649
   38SOL     OW 1012   1.113   5.347   2.434
   38SOL    HW1 1013   1.204   5.307   2.425
   38SOL    HW2 1014   1.089   5.354   2.531
   39SOL     OW 1015   6.311   4.543   6.428
   39SOL    HW1 1016   6.236   4.532   6.494
   39SOL    HW2 1017   6.278   4.519   6.336
   40SOL     OW 1018   4.375   1.901   0.652
   40SOL    HW1 1019   4.403   1.857   0.737
   40SOL    HW2 1020   4.417   1.854   0.575
   41SOL     OW 1021   6.500   3.349   3.559
   41SOL    HW1 1022   6.449   3.309   3.483
   41SOL    HW2 1023   6.553   3.427   3.527
   42SOL     OW 1024   3.409   5.884   4.388
   42SOL    HW1 1025   3.487   5.824   4.405
   42SOL    HW2 1026   3.325   5.831   4.387
   43SOL     OW 1027   4.532   6.982   5.491
   43SOL    HW1 1028   4.596   6.933   5.550
   43SOL    HW2 1029   4.493   0.040   5.542
   44SOL     OW 1030   4.826   2.436   5.696
   44SOL    HW1 1031   4.888   2.513   5.678
   44SOL    HW2 1032   4.866   2.352   5.658
   45SOL     OW 1033   4.551   4.517   1.099
   45SOL    HW1 1034   4.600   4.475   1.023
   45SOL    HW2 1035   4.544   4.452   1.174
   46SOL     OW 1036   0.716   3.094   3.968
   46SOL    HW1 1037   0.737   3.057   4.059
   46SOL    HW2 1038   0.617   3.095   3.955
   47SOL     OW 1039   4.361   3.888   0.564
   47SOL    HW1 1040   4.399   3.971   0.604
   47SOL    HW2 1041   4.418   3.810   0.589
   48SOL     OW 1042   6.274   2.581   6.328
   48SOL    HW1 1043   6.225   2.596   6.242
   48SOL    HW2 1044   6.245   2.494   6.368
   49SOL     OW 1045   6.090   3.003   2.001
   49SOL    HW1 1046   6.022   3.066   2.039
   49SOL    HW2 1047   6.161   3.054   1.953
   50SOL     OW 1048   5.896   1.074   5.015
   50SOL    HW1 1049   5.942   1.163   5.024
   50SOL    HW2 1050   5.801   1.089   4.991
   51SOL     OW 1051   2.395   6.642   3.097
   51SOL    HW1 1052   2.295   6.643   3.087
   51SOL    HW2 1053   2.428   6.735   3.110
   52SOL     OW 1054   5.657   3.077   1.897
   52SOL    HW1 1055   5.667   3.014   1.819
   52SOL    HW2 1056   5.642   3.170   1.863
   53SOL     OW 1057   5.031   1.600   3.948
   53SOL    HW1 1058   5.106   1.665   3.933
   53SOL    HW2 1059   4.948   1.634   3.904
   54SOL     OW 1060   5.676   6.047   1.224
   54SOL    HW1 1061   5.739   6.090   1.159
   54SOL    HW2 1062   5.708   5.955   1.245
   55SOL     OW 1063   2.424   2.547   5.065
   55SOL    HW1 1064   2.341   2.498   5.035
   55SOL    HW2 1065   2.486   2.557   4.987
   56SOL     OW 1066   0.340   0.923   1.499
   56SOL    HW1 1067   0.315   1.011   1.538
   56SOL    HW2 1068   0.440   0.917   1.490
   57SOL     OW 1069   4.318   1.058   1.498
   57SOL    HW1 1070   4.325   1.057   1.597
   57SOL    HW2 1071   4.269   1.139   1.468
   58SOL     OW 1072   0.706   6.788   5.440
   58SOL    HW1 1073   0.804   6.771   5.448
   58SOL    HW2 1074   0.691   6.881   5.404
   59SOL     OW 1075   6.962   3.036   6.614
   59SOL    HW1 1076   6.983   3.113   6.555
   59SOL    HW2 1077   6.872   2.999   6.591
   60SOL     OW 1078   5.038   2.788   4.383
   60SOL    HW1 1079   4.942   2.816   4.376
   60SOL    HW2 1080   5.093   2.840   4.318
   61SOL     OW 1081   6.526   1.635   4.082
   61SOL    HW1 1082   6.506   1.558   4.021
   61SOL    HW2 1083   6.621   1.664   4.070
   62SOL     OW 1084   2.228   1.127   2.127
   62SOL    HW1 1085   2.253   1.197   2.061
   62SOL    HW2 1086   2.175   1.168   2.201
   63SOL     OW 1087   3.968   0.468   4.319
   63SOL    HW1 1088   4.018   0.433   4.398
   63SOL    HW2 1089   4.010   0.554   4.289
   64SOL     OW 1090   6.954   2.796   6.437
   64SOL    HW1 1091   7.005   2.876   6.468
   64SOL    HW2 1092   6.920   2.811   6.344
   65SOL     OW 1093   0.694   4.921   6.634
   65SOL    HW1 1094   0.715   4.857   6.560
   65SOL    HW2 1095   0.772   4.928   6.695
   66SOL     OW 1096   3.118   0.895   3.442
   66SOL    HW1 1097   3.078   0.832   3.375
   66SOL    HW2 1098   3.123   0.987   3.403
   67SOL     OW 1099   6.753   2.714   5.845
   67SOL    HW1 1100   6.666   2.710   5.796
   67SOL    HW2 1101   6.745   2.666   5.932
   68SOL     OW 1102   0.372   1.627   0.011
   68SOL    HW1 1103   0.362   1.601   0.107
   68SOL    HW2 1104   0.372   1.545   6.973
   69SOL     OW 1105   1.127   2.641   5.477
   69SOL    HW1 1106   1.174   2.556   5.454
   69SOL    HW2 1107   1.141   2.708   5.404
   70SOL     OW 1108   5.306   4.744   3.840
   70SOL    HW1 1109   5.258   4.661   3.810
   70SOL    HW2 1110   5.404   4.735   3.818
   71SOL     OW 1111   4.218   2.231   3.836
   71SOL    HW1 1112   4.196   2.248   3.740
   71SOL    HW2 1113   4.311   2.196   3.843
   72SOL     OW 1114   1.309   1.397   3.291
   72SOL    HW1 1115   1.224   1.444   3.314
   72SOL    HW2 1116   1.386   1.443   3.336
   73SOL     OW 1117   3.248   0.234   0.810
   73SOL    HW1 1118   3.343   0.253   0.784
   73SOL    HW2 1119   3.244   0.215   0.908
   74SOL     OW 1120   4.236   0.426   0.144
   74SOL    HW1 1121   4.161   0.444   0.208
   74SOL    HW2 1122   4.321   0.464   0.181
   75SOL     OW 1123   4.002   0.644   1.228
   75SOL    HW1 1124   4.008   0.561   1.172
   75SOL    HW2 1125   4.035   0.624   1.321
   76SOL     OW 1126   3.129   3.579   6.954
   76SOL    HW1 1127   3.204   3.636   6.922
   76SOL    HW2 1128   3.098   3.520   6.880
   77SOL     OW 1129   1.144   0.448   3.544
   77SOL    HW1 1130   1.178   0.540   3.564
   77SOL    HW2 1131   1.200   0.407   3.473
   78SOL     OW 1132   4.852   1.516   0.754
   78SOL    HW1 1133   4.818   1.583   0.821
   78SOL    HW2 1134   4.940   1.547   0.718
   79SOL     OW 1135   2.907   5.908   1.467
   79SOL    HW1 1136   2.865   5.956   1.544
   79SOL    HW2 1137   2.849   5.831   1.439
   80SOL     OW 1138   4.273   1.182   4.118
   80SOL    HW1 1139   4.209   1.258   4.130
   80SOL    HW2 1140   4.367   1.218   4.114
   81SOL     OW 1141   1.952   0.330   2.620
   81SOL    HW1 1142   1.969   0.248   2.565
   81SOL    HW2 1143   1.861   0.323   2.662
   82SOL     OW 1144   5.523   5.313   1.143
   82SOL    HW1 1145   5.616   5.281   1.162
   82SOL    HW2 1146   5.472   5.318   1.229
   83SOL     OW 1147   0.209   0.824   0.004
   83SOL    HW1 1148   0.197   0.891   6.950
   83SOL    HW2 1149   0.125   0.817   0.058
   84SOL     OW 1150   6.281   3.667   3.093
   84SOL    HW1 1151   6.326   3.708   3.014
   84SOL    HW2 1152   6.334   3.685   3.176
   85SOL     OW 1153   1.808   1.325   2.866
   85SOL    HW1 1154   1.815   1.350   2.769
   85SOL    HW2 1155   1.759   1.397   2.915
   86SOL     OW 1156   0.159   1.407   6.451
   86SOL    HW1 1157   0.092   1.392   6.379
   86SOL    HW2 1158   0.137   1.350   6.530
   87SOL     OW 1159   4.712   4.209   1.261
   87SOL    HW1 1160   4.718   4.181   1.357
   87SOL    HW2 1161   4.803   4.230   1.226
   88SOL     OW 1162   3.053   2.043   6.296
   88SOL    HW1 1163   3.121   2.018   6.227
   88SOL    HW2 1164   3.031   2.141   6.287
   89SOL     OW 1165   3.226   3.053   0.128
   89SOL    HW1 1166   3.158   3.096   0.070
   89SOL    HW2 1167   3.314   3.049   0.080
   90SOL     OW 1168   4.070   5.256   2.196
   90SOL    HW1 1169   4.022   5.283   2.279
   90SOL    HW2 1170   4.010   5.199   2.139
   91SOL     OW 1171   6.384   4.262   6.188
   91SOL    HW1 1172   6.384   4.219   6.279
   91SOL    HW2 1173   6.475   4.298   6.169
   92SOL     OW 1174   4.442   4.248   1.235
   92SOL    HW1 1175   4.418   4.243   1.138
   92SOL    HW2 1176   4.539   4.226   1.247
   93SOL     OW 1177   2.995   3.435   6.741
   93SOL    HW1 1178   2.905   3.456   6.780
   93SOL    HW2 1179   2.993   3.343   6.701
   94SOL     OW 1180   3.234   5.357   6.650
   94SOL    HW1 1181   3.193   5.422   6.714
   94SOL    HW2 1182   3.192   5.268   6.661
   95SOL     OW 1183   2.113   1.186   2.866
   95SOL    HW1 1184   2.017   1.164   2.847
   95SOL    HW2 1185   2.119   1.246   2.946
   96SOL     OW 1186   4.066   5.568   5.548
   96SOL    HW1 1187   4.025   5.564   5.457
   96SOL    HW2 1188   4.101   5.660   5.565
   97SOL     OW 1189   2.146   3.599   5.795
   97SOL    HW1 1190   2.154   3.698   5.787
   97SOL    HW2 1191   2.234   3.556   5.776
   98SOL     OW 1192   1.334   2.381   0.311
   98SOL    HW1 1193   1.404   2.309   0.312
   98SOL    HW2 1194   1.355   2.447   0.239
   99SOL     OW 1195   4.223   3.593   1.484
   99SOL    HW1 1196   4.255   3.681   1.520
   99SOL    HW2 1197   4.226   3.595   1.384
  100SOL     OW 1198   0.529   6.885   4.083
  100SOL    HW1 1199   0.538   6.857   3.987
  100SOL    HW2 1200   0.610   6.936   4.111
  101SOL     OW 1201   0.691   4.654   2.283
  101SOL    HW1 1202   0.664   4.707   2.203
  101SOL    HW2 1203   0.704   4.715   2.361
  102SOL     OW 1204   3.706   5.346   2.132
  102SOL    HW1 1205   3.685   5.381   2.040
  102SOL    HW2 1206   3.786   5.286   2.127
  103SOL     OW 1207   2.347   2.279   1.973
  103SOL    HW1 1208   2.445   2.299   1.971
  103SOL    HW2 1209   2.309   2.307   2.061
  104SOL     OW 1210   1.143   6.340   2.749
  104SOL    HW1 1211   1.223   6.304   2.796
  104SOL    HW2 1212   1.167   6.426   2.704
  105SOL     OW 1213   6.008   1.230   6.358
  105SOL    HW1 1214   5.936   1.236   6.289
  105SOL    HW2 1215   5.983   1.285   6.438
  106SOL     OW 1216   3.555   6.401   3.417
  106SOL    HW1 1217   3.559   6.501   3.411
  106SOL    HW2 1218   3.534   6.374   3.511
  107SOL     OW 1219   0.355   0.990   0.216
  107SOL    HW1 1220   0.428   0.938   0.259
  107SOL    HW2 1221   0.310   0.932   0.148
  108SOL     OW 1222   3.833   6.453   6.599
  108SOL    HW1 1223   3.804   6.401   6.679
  108SOL    HW2 1224   3.918   6.502   6.620
  109SOL     OW 1225   2.941   1.746   2.221
  109SOL    HW1 1226   2.950   1.804   2.140
  109SOL    HW2 1227   2.881   1.669   2.200
  110SOL     OW 1228   3.503   5.412   4.380
  110SOL    HW1 1229   3.420   5.467   4.369
  110SOL    HW2 1230   3.482   5.328   4.429
  111SOL     OW 1231   2.285   1.595   4.014
  111SOL    HW1 1232   2.317   1.687   3.996
  111SOL    HW2 1233   2.349   1.549   4.076
  112SOL     OW 1234   3.705   6.434   0.262
  112SOL    HW1 1235   3.794   6.398   0.234
  112SOL    HW2 1236   3.641   6.358   0.276
  113SOL     OW 1237   0.619   6.439   3.195
  113SOL    HW1 1238   0.592   6.394   3.110
  113SOL    HW2 1239   0.707   6.402   3.226
  114SOL     OW 1240   1.278   5.928   1.823
  114SOL    HW1 1241   1.217   5.903   1.898
  114SOL    HW2 1242   1.226   5.926   1.737
  115SOL     OW 1243   5.427   0.191   2.577
  115SOL    HW1 1244   5.365   0.217   2.650
  115SOL    HW2 1245   5.466   0.273   2.535
  116SOL     OW 1246   6.870   6.111   1.080
  116SOL    HW1 1247   6.893   6.192   1.133
  116SOL    HW2 1248   6.942   6.042   1.090
  117SOL     OW 1249   0.213   1.155   0.947
  117SOL    HW1 1250   0.159   1.160   0.863
  117SOL    HW2 1251   0.300   1.110   0.928
  118SOL     OW 1252   1.162   1.596   2.513
  118SOL    HW1 1253   1.217   1.665   2.467
  118SOL    HW2 1254   1.122   1.534   2.445
  119SOL     OW 1255   0.626   0.354   0.447
  119SOL    HW1 1256   0.601   0.423   0.379
  119SOL    HW2 1257   0.547   0.336   0.506
  120SOL     OW 1258   5.022   0.689   5.119
  120SOL    HW1 1259   5.067   0.724   5.201
  120SOL    HW2 1260   5.015   0.589   5.125
  121SOL     OW 1261   0.739   3.421   0.592
  121SOL    HW1 1262   0.719   3.403   0.688
  121SOL    HW2 1263   0.722   3.338   0.538
  122SOL     OW 1264   1.566   3.349   0.478
  122SOL    HW1 1265   1.628   3.377   0.551
  122SOL    HW2 1266   1.602   3.380   0.390
  123SOL     OW 1267   1.556   1.314   2.440
  123SOL    HW1 1268   1.510   1.226   2.434
  123SOL    HW2 1269   1.501   1.376   2.497
  124SOL     OW 1270   3.412   3.042   1.013
  124SOL    HW1 1271   3.439   2.973   0.946
  124SOL    HW2 1272   3.312   3.042   1.022
  125SOL     OW 1273   4.168   2.529   0.689
  125SOL    HW1 1274   4.169   2.622   0.653
  125SOL    HW2 1275   4.255   2.510   0.735
  126SOL     OW 1276   3.509   3.382   2.598
  126SOL    HW1 1277   3.570   3.304   2.607
  126SOL    HW2 1278   3.503   3.408   2.502
  127SOL     OW 1279   0.438   5.008   6.633
  127SOL    HW1 1280   0.530   4.970   6.639
  127SOL    HW2 1281   0.424   5.046   6.541
  128SOL     OW 1282   4.992   3.217   1.460
  128SOL    HW1 1283   5.063   3.282   1.488
  128SOL    HW2 1284   4.917   3.266   1.416
  129SOL     OW 1285   2.792   3.130   6.820
  129SOL    HW1 1286   2.697   3.157   6.838
  129SOL    HW2 1287   2.808   3.132   6.722
  130SOL     OW 1288   0.137   0.449   4.503
  130SOL    HW1 1289   0.043   0.418   4.495
  130SOL    HW2 1290   0.199   0.377   4.472
  131SOL     OW 1291   5.317   0.585   4.061
  131SOL    HW1 1292   5.409   0.599   4.024
  131SOL    HW2 1293   5.255   0.656   4.026
  132SOL     OW 1294   3.117   2.713   1.802
  132SOL    HW1 1295   3.205   2.670   1.785
  132SOL    HW2 1296   3.055   2.646   1.843
  133SOL     OW 1297   5.141   0.574   4.427
  133SOL    HW1 1298   5.190   0.510   4.367
  133SOL    HW2 1299   5.206   0.641   4.463
  134SOL     OW 1300   0.212   0.619   2.743
  134SOL    HW1 1301   0.211   0.713   2.710
  134SOL    HW2 1302   0.164   0.613   2.830
  135SOL     OW 1303   5.826   3.627   4.643
  135SOL    HW1 1304   5.853   3.696   4.575
  135SOL    HW2 1305   5.806   3.672   4.730
  136SOL     OW 1306   1.680   4.916   4.884
  136SOL    HW1 1307   1.661   4.873   4.972
  136SOL    HW2 1308   1.732   5.000   4.898
  137SOL     OW 1309   4.522   1.394   3.838
  137SOL    HW1 1310   4.444   1.449   3.809
  137SOL    HW2 1311   4.522   1.387   3.938
  138SOL     OW 1312   1.087   3.768   2.965
  138SOL    HW1 1313   1.060   3.843   2.905
  138SOL    HW2 1314   1.035   3.773   3.051
  139SOL     OW 1315   1.921   5.987   5.028
  139SOL    HW1 1316   1.908   6.085   5.014
  139SOL    HW2 1317   1.963   5.972   5.117
  140SOL     OW 1318   1.494   6.345   3.535
  140SOL    HW1 1319   1.504   6.269   3.471
  140SOL    HW2 1320   1.397   6.370   3.542
  141SOL     OW 1321   0.078   2.594   5.372
  141SOL    HW1 1322   7.011   2.564   5.330
  141SOL    HW2 1323   0.155   2.559   5.318
  142SOL     OW 1324   2.066   3.463   2.245
  142SOL    HW1 1325   2.106   3.474   2.155
  142SOL    HW2 1326   2.113   3.388   2.293
  143SOL     OW 1327   5.566   4.935   0.894
  143SOL    HW1 1328   5.485   4.914   0.949
  143SOL    HW2 1329   5.588   4.857   0.835
  144SOL     OW 1330   2.240   4.627   5.261
  144SOL    HW1 1331   2.309   4.669   5.320
  144SOL    HW2 1332   2.256   4.655   5.167
  145SOL     OW 1333   2.465   5.308   1.347
  145SOL    HW1 1334   2.416   5.342   1.267
  145SOL    HW2 1335   2.417   5.229   1.384
  146SOL     OW 1336   5.286   0.247   6.425
  146SOL    HW1 1337   5.345   0.320   6.391
  146SOL    HW2 1338   5.342   0.180   6.473
  147SOL     OW 1339   5.556   0.953   5.816
  147SOL    HW1 1340   5.515   1.043   5.830
  147SOL    HW2 1341   5.650   0.953   5.848
  148SOL     OW 1342   0.269   5.195   1.358
  148SOL    HW1 1343   0.290   5.120   1.295
  148SOL    HW2 1344   0.311   5.177   1.447
  149SOL     OW 1345   3.654   2.230   5.174
  149SOL    HW1 1346   3.726   2.282   5.219
  149SOL    HW2 1347   3.687   2.196   5.086
  150SOL     OW 1348   5.448   0.059   6.559
  150SOL    HW1 1349   5.446   6.980   6.538
  150SOL    HW2 1350   5.539   0.083   6.593
  151SOL     OW 1351   3.483   0.653   1.628
  151SOL    HW1 1352   3.465   0.740   1.583
  151SOL    HW2 1353   3.580   0.646   1.650
  152SOL     OW 1354   0.173   1.581   0.570
  152SOL    HW1 1355   0.254   1.634   0.545
  152SOL    HW2 1356   0.179   1.490   0.529
  153SOL     OW 1357   2.627   6.729   2.890
  153SOL    HW1 1358   2.593   6.711   2.982
  153SOL    HW2 1359   2.553   6.768   2.834
  154SOL     OW 1360   0.122   3.151   0.756
  154SOL    HW1 1361   0.124   3.209   0.674
  154SOL    HW2 1362   0.033   3.160   0.801
  155SOL     OW 1363   0.813   1.225   3.583
  155SOL    HW1 1364   0.890   1.222   3.520
  155SOL    HW2 1365   0.766   1.313   3.574
  156SOL     OW 1366   6.776   0.438   6.968
  156SOL    HW1 1367   6.762   0.379   0.028
  156SOL    HW2 1368   6.873   0.454   6.954
  157SOL     OW 1369   5.920   3.685   0.149
  157SOL    HW1 1370   5.986   3.613   0.170
  157SOL    HW2 1371   5.838   3.644   0.109
  158SOL     OW 1372   1.999   2.991   1.337
  158SOL    HW1 1373   1.977   2.937   1.256
  158SOL    HW2 1374   1.928   3.060   1.351
  159SOL     OW 1375   3.935   5.075   1.388
  159SOL    HW1 1376   3.961   5.000   1.449
  159SOL    HW2 1377   3.961   5.162   1.429
  160SOL     OW 1378   5.892   0.294   0.564
  160SOL    HW1 1379   5.900   0.267   0.660
  160SOL    HW2 1380   5.829   0.372   0.557
  161SOL     OW 1381   1.086   0.534   2.969
  161SOL    HW1 1382   1.177   0.573   2.977
  161SOL    HW2 1383   1.027   0.571   3.041
  162SOL     OW 1384   3.807   6.017   6.688
  162SOL    HW1 1385   3.738   6.020   6.616
  162SOL    HW2 1386   3.787   6.088   6.756
  163SOL     OW 1387   6.755   6.123   2.078
  163SOL    HW1 1388   6.778   6.027   2.063
  163SOL    HW2 1389   6.748   6.169   1.989
  164SOL     OW 1390   0.924   3.597   2.756
  164SOL    HW1 1391   0.857   3.669   2.740
  164SOL    HW2 1392   0.983   3.623   2.833
  165SOL     OW 1393   4.837   4.789   6.513
  165SOL    HW1 1394   4.913   4.818   6.571
  165SOL    HW2 1395   4.851   4.826   6.420
  166SOL     OW 1396   0.470   3.352   2.158
  166SOL    HW1 1397   0.382   3.309   2.176
  166SOL    HW2 1398   0.469   3.446   2.193
  167SOL     OW 1399   6.075   1.723   6.714
  167SOL    HW1 1400   6.167   1.683   6.703
  167SOL    HW2 1401   6.029   1.679   6.791
  168SOL     OW 1402   3.906   1.792   0.697
  168SOL    HW1 1403   3.971   1.727   0.734
  168SOL    HW2 1404   3.827   1.743   0.659
  169SOL     OW 1405   5.707   2.877   0.668
  169SOL    HW1 1406   5.682   2.963   0.712
  169SOL    HW2 1407   5.738   2.812   0.737
  170SOL     OW 1408   6.818   5.831   2.098
  170SOL    HW1 1409   6.786   5.829   2.193
  170SOL    HW2 1410   6.816   5.739   2.060
  171SOL     OW 1411   2.266   4.853   0.390
  171SOL    HW1 1412   2.337   4.785   0.403
  171SOL    HW2 1413   2.177   4.808   0.377
  172SOL     OW 1414   6.207   1.610   3.204
  172SOL    HW1 1415   6.196   1.520   3.246
  172SOL    HW2 1416   6.156   1.678   3.258
  173SOL     OW 1417   5.609   1.031   4.347
  173SOL    HW1 1418   5.699   0.994   4.371
  173SOL    HW2 1419   5.553   1.038   4.430
  174SOL     OW 1420   4.475   5.342   3.702
  174SOL    HW1 1421   4.383   5.377   3.686
  174SOL    HW2 1422   4.480   5.305   3.794
  175SOL     OW 1423   3.743   0.701   1.122
  175SOL    HW1 1424   3.683   0.686   1.200
  175SOL    HW2 1425   3.822   0.640   1.127
  176SOL     OW 1426   5.642   4.836   2.073
  176SOL    HW1 1427   5.677   4.795   2.157
  176SOL    HW2 1428   5.566   4.781   2.037
  177SOL     OW 1429   5.275   3.736   4.971
  177SOL    HW1 1430   5.242   3.706   4.882
  177SOL    HW2 1431   5.252   3.668   5.041
  178SOL     OW 1432   3.138   4.701   5.585
  178SOL    HW1 1433   3.069   4.669   5.518
  178SOL    HW2 1434   3.228   4.666   5.558
  179SOL     OW 1435   3.642   0.517   6.743
  179SOL    HW1 1436   3.717   0.580   6.765
  179SOL    HW2 1437   3.612   0.472   6.827
  180SOL     OW 1438   2.506   0.779   0.927
  180SOL    HW1 1439   2.494   0.798   1.025
  180SOL    HW2 1440   2.504   0.865   0.876
  181SOL     OW 1441   3.134   3.626   5.473
  181SOL    HW1 1442   3.112   3.690   5.547
  181SOL    HW2 1443   3.165   3.677   5.393
  182SOL     OW 1444   4.311   1.856   5.978
  182SOL    HW1 1445   4.317   1.850   5.878
  182SOL    HW2 1446   4.219   1.886   6.004
  183SOL     OW 1447   3.637   1.990   4.038
  183SOL    HW1 1448   3.725   2.006   4.081
  183SOL    HW2 1449   3.630   1.894   4.011
  184SOL     OW 1450   0.282   6.744   3.494
  184SOL    HW1 1451   0.295   6.665   3.435
  184SOL    HW2 1452   0.262   6.824   3.438
  185SOL     OW 1453   1.169   1.542   4.812
  185SOL    HW1 1454   1.131   1.538   4.720
  185SOL    HW2 1455   1.094   1.549   4.879
  186SOL     OW 1456   6.384   1.094   4.344
  186SOL    HW1 1457   6.473   1.103   4.389
  186SOL    HW2 1458   6.368   0.999   4.319
  187SOL     OW 1459   5.328   0.033   2.367
  187SOL    HW1 1460   5.312   0.093   2.289
  187SOL    HW2 1461   5.372   0.084   2.441
  188SOL     OW 1462   0.774   3.360   3.994
  188SOL    HW1 1463   0.731   3.371   4.084
  188SOL    HW2 1464   0.760   3.266   3.962
  189SOL     OW 1465   1.541   5.304   7.001
  189SOL    HW1 1466   1.459   5.276   0.032
  189SOL    HW2 1467   1.534   5.402   6.978
  190SOL     OW 1468   6.226   4.350   5.855
  190SOL    HW1 1469   6.139   4.377   5.813
  190SOL    HW2 1470   6.244   4.254   5.833
  191SOL     OW 1471   6.118   1.621   0.139
  191SOL    HW1 1472   6.143   1.564   0.218
  191SOL    HW2 1473   6.179   1.700   0.135
  192SOL     OW 1474   0.214   5.261   1.786
  192SOL    HW1 1475   0.132   5.311   1.759
  192SOL    HW2 1476   0.253   5.302   1.868
  193SOL     OW 1477   4.995   3.754   5.167
  193SOL    HW1 1478   5.059   3.677   5.169
  193SOL    HW2 1479   4.929   3.740   5.093
  194SOL     OW 1480   3.810   6.595   3.844
  194SOL    HW1 1481   3.855   6.661   3.904
  194SOL    HW2 1482   3.764   6.525   3.900
  195SOL     OW 1483   1.621   1.298   4.186
  195SOL    HW1 1484   1.709   1.340   4.208
  195SOL    HW2 1485   1.636   1.211   4.140
  196SOL     OW 1486   2.770   6.831   6.546
  196SOL    HW1 1487   2.701   6.801   6.612
  196SOL    HW2 1488   2.791   6.927   6.561
  197SOL     OW 1489   2.615   0.580   1.182
  197SOL    HW1 1490   2.711   0.598   1.206
  197SOL    HW2 1491   2.607   0.486   1.148
  198SOL     OW 1492   4.347   6.666   2.233
  198SOL    HW1 1493   4.281   6.682   2.159
  198SOL    HW2 1494   4.298   6.666   2.321
  199SOL     OW 1495   6.922   1.037   3.738
  199SOL    HW1 1496   6.902   1.090   3.821
  199SOL    HW2 1497   6.948   1.099   3.665
  200SOL     OW 1498   1.008   3.903   1.703
  200SOL    HW1 1499   1.078   3.956   1.656
  200SOL    HW2 1500   0.977   3.829   1.644
  201SOL     OW 1501   5.329   6.825   6.441
  201SOL    HW1 1502   5.276   6.740   6.440
  201SOL    HW2 1503   5.410   6.814   6.383
  202SOL     OW 1504   4.892   0.075   6.016
  202SOL    HW1 1505   4.969   0.134   5.991
  202SOL    HW2 1506   4.923   0.007   6.083
  203SOL     OW 1507   4.973   2.373   5.222
  203SOL    HW1 1508   4.904   2.423   5.273
  203SOL    HW2 1509   5.048   2.347   5.283
  204SOL     OW 1510   6.236   0.627   6.454
  204SOL    HW1 1511   6.295   0.645   6.533
  204SOL    HW2 1512   6.275   0.669   6.372
  205SOL     OW 1513   0.620   0.993   2.622
  205SOL    HW1 1514   0.614   1.088   2.652
  205SOL    HW2 1515   0.714   0.961   2.630
  206SOL     OW 1516   0.393   4.828   2.429
  206SOL    HW1 1517   0.303   4.870   2.439
  206SOL    HW2 1518   0.384   4.728   2.434
  207SOL     OW 1519   4.676   0.344   4.000
  207SOL    HW1 1520   4.744   0.414   4.019
  207SOL    HW2 1521   4.649   0.299   4.086
  208SOL     OW 1522   5.102   3.931   5.527
  208SOL    HW1 1523   5.179   3.936   5.591
  208SOL    HW2 1524   5.048   3.849   5.547
  209SOL     OW 1525   1.181   5.138   4.385
  209SOL    HW1 1526   1.136   5.227   4.386
  209SOL    HW2 1527   1.233   5.126   4.470
  210SOL     OW 1528   4.440   1.828   1.610
  210SOL    HW1 1529   4.443   1.892   1.686
  210SOL    HW2 1530   4.533   1.808   1.579
  211SOL     OW 1531   1.257   6.430   3.436
  211SOL    HW1 1532   1.249   6.340   3.392
  211SOL    HW2 1533   1.320   6.487   3.383
  212SOL     OW 1534   2.218   5.127   2.134
  212SOL    HW1 1535   2.251   5.032   2.137
  212SOL    HW2 1536   2.216   5.163   2.227
  213SOL     OW 1537   3.513   0.788   5.714
  213SOL    HW1 1538   3.566   0.804   5.631
  213SOL    HW2 1539   3.531   0.695   5.748
  214SOL     OW 1540   4.096   5.711   1.862
  214SOL    HW1 1541   4.193   5.689   1.855
  214SOL    HW2 1542   4.083   5.809   1.846
  215SOL     OW 1543   2.606   3.703   1.730
  215SOL    HW1 1544   2.532   3.639   1.710
  215SOL    HW2 1545   2.684   3.653   1.767
  216SOL     OW 1546   1.569   5.868   4.822
  216SOL    HW1 1547   1.548   5.771   4.836
  216SOL    HW2 1548   1.526   5.922   4.895
  217SOL     OW 1549   2.440   2.680   3.526
  217SOL    HW1 1550   2.412   2.611   3.459
  217SOL    HW2 1551   2.394   2.766   3.507
  218SOL     OW 1552   0.520   2.997   4.380
  218SOL    HW1 1553   0.537   3.008   4.478
  218SOL    HW2 1554   0.458   2.921   4.365
  219SOL     OW 1555   3.524   6.196   6.091
  219SOL    HW1 1556   3.589   6.153   6.028
  219SOL    HW2 1557   3.493   6.129   6.158
  220SOL     OW 1558   3.525   6.563   0.009
  220SOL    HW1 1559   3.593   6.508   0.059
  220SOL    HW2 1560   3.559   6.584   6.937
  221SOL     OW 1561   0.046   4.236   2.481
  221SOL    HW1 1562   0.061   4.138   2.495
  221SOL    HW2 1563   0.034   4.253   2.383
  222SOL     OW 1564   2.416   4.778   5.404
  222SOL    HW1 1565   2.492   4.719   5.379
  222SOL    HW2 1566   2.435   4.872   5.375
  223SOL     OW 1567   5.873   3.577   0.884
  223SOL    HW1 1568   5.867   3.572   0.785
  223SOL    HW2 1569   5.801   3.521   0.925
  224SOL     OW 1570   2.850   1.702   3.999
  224SOL    HW1 1571   2.852   1.799   3.974
  224SOL    HW2 1572   2.943   1.672   4.020
  225SOL     OW 1573   5.728   1.714   5.326
  225SOL    HW1 1574   5.797   1.709   5.398
  225SOL    HW2 1575   5.637   1.705   5.366
  226SOL     OW 1576   1.372   0.323   6.019
  226SOL    HW1 1577   1.356   0.271   5.936
  226SOL    HW2 1578   1.292   0.317   6.079
  227SOL     OW 1579   1.502   3.994   2.210
  227SOL    HW1 1580   1.413   4.029   2.240
  227SOL    HW2 1581   1.546   3.946   2.286
  228SOL     OW 1582   3.273   6.421   4.081
  228SOL    HW1 1583   3.214   6.347   4.048
  228SOL    HW2 1584   3.219   6.486   4.133
  229SOL     OW 1585   4.921   6.867   0.424
  229SOL    HW1 1586   4.964   6.828   0.506
  229SOL    HW2 1587   4.839   6.918   0.451
  230SOL     OW 1588   2.730   4.678   2.715
  230SOL    HW1 1589   2.726   4.705   2.619
  230SOL    HW2 1590   2.655   4.616   2.736
  231SOL     OW 1591   6.436   1.718   6.846
  231SOL    HW1 1592   6.382   1.671   6.776
  231SOL    HW2 1593   6.380   1.730   6.929
  232SOL     OW 1594   1.651   3.894   5.967
  232SOL    HW1 1595   1.633   3.953   6.046
  232SOL    HW2 1596   1.731   3.928   5.918
  233SOL     OW 1597   2.526   1.426   4.153
  233SOL    HW1 1598   2.615   1.461   4.182
  233SOL    HW2 1599   2.540   1.346   4.094
  234SOL     OW 1600   3.372   6.414   5.660
  234SOL    HW1 1601   3.315   6.469   5.600
  234SOL    HW2 1602   3.429   6.352   5.606
  235SOL     OW 1603   3.214   3.472   2.141
  235SOL    HW1 1604   3.223   3.418   2.057
  235SOL    HW2 1605   3.124   3.454   2.182
  236SOL     OW 1606   5.991   3.075   6.249
  236SOL    HW1 1607   6.045   2.998   6.216
  236SOL    HW2 1608   5.935   3.112   6.174
  237SOL     OW 1609   6.595   6.202   1.072
  237SOL    HW1 1610   6.693   6.181   1.079
  237SOL    HW2 1611   6.574   6.280   1.132
  238SOL     OW 1612   6.098   2.264   0.061
  238SOL    HW1 1613   6.066   2.193   7.018
  238SOL    HW2 1614   6.191   2.244   0.091
  239SOL     OW 1615   0.162   5.729   6.638
  239SOL    HW1 1616   0.190   5.633   6.628
  239SOL    HW2 1617   0.068   5.733   6.672
  240SOL     OW 1618   0.234   2.647   6.284
  240SOL    HW1 1619   0.140   2.625   6.311
  240SOL    HW2 1620   0.257   2.739   6.316
  241SOL     OW 1621   1.783   6.790   4.217
  241SOL    HW1 1622   1.708   6.757   4.160
  241SOL    HW2 1623   1.865   6.735   4.199
  242SOL     OW 1624   2.403   2.902   5.893
  242SOL    HW1 1625   2.407   2.826   5.828
  242SOL    HW2 1626   2.462   2.976   5.862
  243SOL     OW 1627   5.896   0.293   6.523
  243SOL    HW1 1628   5.880   0.385   6.487
  243SOL    HW2 1629   5.808   0.250   6.544
  244SOL     OW 1630   5.216   3.076   4.736
  244SOL    HW1 1631   5.133   3.104   4.688
  244SOL    HW2 1632   5.252   2.992   4.695
  245SOL     OW 1633   6.996   2.435   5.569
  245SOL    HW1 1634   6.898   2.454   5.576
  245SOL    HW2 1635   0.020   2.503   5.509
  246SOL     OW 1636   4.871   3.112   2.639
  246SOL    HW1 1637   4.868   3.211   2.623
  246SOL    HW2 1638   4.882   3.094   2.737
  247SOL     OW 1639   2.706   1.347   1.829
  247SOL    HW1 1640   2.702   1.337   1.730
  247SOL    HW2 1641   2.624   1.309   1.871
  248SOL     OW 1642   4.610   1.925   4.733
  248SOL    HW1 1643   4.704   1.948   4.760
  248SOL    HW2 1644   4.546   1.957   4.803
  249SOL     OW 1645   5.052   6.875   5.740
  249SOL    HW1 1646   5.038   6.784   5.779
  249SOL    HW2 1647   4.966   6.925   5.740
  250SOL     OW 1648   4.859   1.714   6.430
  250SOL    HW1 1649   4.781   1.689   6.488
  250SOL    HW2 1650   4.899   1.631   6.390
  251SOL     OW 1651   4.123   4.551   6.590
  251SOL    HW1 1652   4.108   4.554   6.491
  251SOL    HW2 1653   4.197   4.614   6.614
  252SOL     OW 1654   6.430   0.616   6.682
  252SOL    HW1 1655   6.437   0.710   6.650
  252SOL    HW2 1656   6.474   0.608   6.772
  253SOL     OW 1657   1.796   3.911   0.019
  253SOL    HW1 1658   1.824   3.953   6.951
  253SOL    HW2 1659   1.724   3.845   0.002
  254SOL     OW 1660   5.911   3.116   3.589
  254SOL    HW1 1661   5.990   3.116   3.650
  254SOL    HW2 1662   5.907   3.202   3.538
  255SOL     OW 1663   1.521   3.435   4.436
  255SOL    HW1 1664   1.616   3.465   4.437
  255SOL    HW2 1665   1.464   3.504   4.391
  256SOL     OW 1666   6.154   4.303   6.867
  256SOL    HW1 1667   6.177   4.253   6.950
  256SOL    HW2 1668   6.055   4.300   6.852
  257SOL     OW 1669   4.226   6.233   4.516
  257SOL    HW1 1670   4.288   6.274   4.583
  257SOL    HW2 1671   4.252   6.138   4.500
  258SOL     OW 1672   5.572   4.611   4.608
  258SOL    HW1 1673   5.622   4.539   4.560
  258SOL    HW2 1674   5.608   4.620   4.701
  259SOL     OW 1675   2.043   3.125   2.270
  259SOL    HW1 1676   2.083   3.122   2.178
  259SOL    HW2 1677   2.092   3.191   2.326
  260SOL     OW 1678   4.521   0.919   1.329
  260SOL    HW1 1679   4.614   0.954   1.328
  260SOL    HW2 1680   4.470   0.963   1.404
  261SOL     OW 1681   6.366   3.821   1.194
  261SOL    HW1 1682   6.444   3.835   1.134
  261SOL    HW2 1683   6.331   3.910   1.224
  262SOL     OW 1684   0.544   3.830   1.475
  262SOL    HW1 1685   0.597   3.910   1.446
  262SOL    HW2 1686   0.607   3.755   1.497
  263SOL     OW 1687   0.711   1.409   3.878
  263SOL    HW1 1688   0.705   1.396   3.779
  263SOL    HW2 1689   0.763   1.334   3.918
  264SOL     OW 1690   5.100   3.991   5.139
  264SOL    HW1 1691   5.069   3.898   5.154
  264SOL    HW2 1692   5.195   4.000   5.169
  265SOL     OW 1693   4.190   4.753   3.139
  265SOL    HW1 1694   4.171   4.718   3.048
  265SOL    HW2 1695   4.263   4.700   3.181
  266SOL     OW 1696   3.494   3.684   5.976
  266SOL    HW1 1697   3.556   3.729   5.911
  266SOL    HW2 1698   3.502   3.728   6.065
  267SOL     OW 1699   6.171   2.882   6.257
  267SOL    HW1 1700   6.251   2.943   6.255
  267SOL    HW2 1701   6.193   2.797   6.209
  268SOL     OW 1702   4.580   5.844   5.531
  268SOL    HW1 1703   4.560   5.895   5.615
  268SOL    HW2 1704   4.544   5.893   5.452
  269SOL     OW 1705   1.700   2.861   0.469
  269SOL    HW1 1706   1.781   2.917   0.485
  269SOL    HW2 1707   1.619   2.906   0.507
  270SOL     OW 1708   6.904   0.054   2.062
  270SOL    HW1 1709   6.986   0.003   2.087
  270SOL    HW2 1710   6.879   0.116   2.137
  271SOL     OW 1711   2.304   2.785   0.972
  271SOL    HW1 1712   2.222   2.728   0.972
  271SOL    HW2 1713   2.383   2.730   0.996
  272SOL     OW 1714   3.611   5.724   4.154
  272SOL    HW1 1715   3.629   5.736   4.252
  272SOL    HW2 1716   3.562   5.639   4.139
  273SOL     OW 1717   1.763   4.609   4.882
  273SOL    HW1 1718   1.689   4.671   4.856
  273SOL    HW2 1719   1.738   4.515   4.857
  274SOL     OW 1720   4.800   2.451   3.572
  274SOL    HW1 1721   4.858   2.408   3.503
  274SOL    HW2 1722   4.710   2.471   3.532
  275SOL     OW 1723   6.613   5.930   6.478
  275SOL    HW1 1724   6.684   5.870   6.441
  275SOL    HW2 1725   6.562   5.972   6.402
  276SOL     OW 1726   0.045   5.212   3.536
  276SOL    HW1 1727   7.005   5.176   3.464
  276SOL    HW2 1728   0.139   5.217   3.503
  277SOL     OW 1729   2.906   2.222   0.372
  277SOL    HW1 1730   2.822   2.251   0.325
  277SOL    HW2 1731   2.885   2.203   0.468
  278SOL     OW 1732   6.532   3.948   1.815
  278SOL    HW1 1733   6.504   3.939   1.720
  278SOL    HW2 1734   6.476   4.019   1.859
  279SOL     OW 1735   6.461   2.932   4.535
  279SOL    HW1 1736   6.361   2.926   4.535
  279SOL    HW2 1737   6.497   2.893   4.620
  280SOL     OW 1738   3.491   6.701   2.685
  280SOL    HW1 1739   3.466   6.716   2.589
  280SOL    HW2 1740   3.435   6.628   2.723
  281SOL     OW 1741   2.780   4.983   2.290
  281SOL    HW1 1742   2.694   4.975   2.341
  281SOL    HW2 1743   2.786   4.908   2.224
  282SOL     OW 1744   4.263   2.292   5.398
  282SOL    HW1 1745   4.302   2.256   5.482
  282SOL    HW2 1746   4.198   2.225   5.361
  283SOL     OW 1747   6.916   1.397   5.582
  283SOL    HW1 1748   6.961   1.315   5.546
  283SOL    HW2 1749   6.929   1.402   5.681
  284SOL     OW 1750   0.555   4.209   5.147
  284SOL    HW1 1751   0.460   4.235   5.160
  284SOL    HW2 1752   0.584   4.235   5.055
  285SOL     OW 1753   5.373   5.515   6.687
  285SOL    HW1 1754   5.318   5.444   6.730
  285SOL    HW2 1755   5.322   5.601   6.688
  286SOL     OW 1756   3.728   4.904   5.129
  286SOL    HW1 1757   3.734   4.991   5.079
  286SOL    HW2 1758   3.642   4.859   5.105
  287SOL     OW 1759   0.796   5.188   6.803
  287SOL    HW1 1760   0.735   5.257   6.764
  287SOL    HW2 1761   0.890   5.211   6.781
  288SOL     OW 1762   4.075   1.257   0.548
  288SOL    HW1 1763   4.061   1.317   0.469
  288SOL    HW2 1764   3.995   1.198   0.558
  289SOL     OW 1765   0.565   5.253   4.923
  289SOL    HW1 1766   0.607   5.334   4.881
  289SOL    HW2 1767   0.482   5.281   4.972
  290SOL     OW 1768   4.907   2.301   3.363
  290SOL    HW1 1769   5.003   2.272   3.370
  290SOL    HW2 1770   4.891   2.342   3.273
  291SOL     OW 1771   4.100   0.744   4.324
  291SOL    HW1 1772   4.112   0.802   4.243
  291SOL    HW2 1773   4.186   0.740   4.375
  292SOL     OW 1774   4.187   1.671   3.284
  292SOL    HW1 1775   4.207   1.768   3.267
  292SOL    HW2 1776   4.176   1.657   3.382
  293SOL     OW 1777   3.960   5.732   2.102
  293SOL    HW1 1778   3.994   5.658   2.159
  293SOL    HW2 1779   4.027   5.754   2.031
  294SOL     OW 1780   6.608   5.627   6.622
  294SOL    HW1 1781   6.558   5.576   6.692
  294SOL    HW2 1782   6.592   5.725   6.636
  295SOL     OW 1783   3.270   1.852   4.907
  295SOL    HW1 1784   3.171   1.862   4.919
  295SOL    HW2 1785   3.316   1.939   4.927
  296SOL     OW 1786   6.601   2.326   1.790
  296SOL    HW1 1787   6.655   2.377   1.856
  296SOL    HW2 1788   6.595   2.379   1.705
  297SOL     OW 1789   2.922   4.743   2.905
  297SOL    HW1 1790   2.858   4.742   2.982
  297SOL    HW2 1791   2.877   4.705   2.824
  298SOL     OW 1792   3.979   0.027   0.143
  298SOL    HW1 1793   3.897   0.026   0.086
  298SOL    HW2 1794   3.960   7.000   0.229
  299SOL     OW 1795   5.178   1.990   6.637
  299SOL    HW1 1796   5.190   2.085   6.608
  299SOL    HW2 1797   5.081   1.972   6.652
  300SOL     OW 1798   4.617   0.807   2.007
  300SOL    HW1 1799   4.640   0.711   1.995
  300SOL    HW2 1800   4.604   0.826   2.104
  301SOL     OW 1801   4.831   1.754   0.133
  301SOL    HW1 1802   4.915   1.708   0.162
  301SOL    HW2 1803   4.853   1.837   0.083
  302SOL     OW 1804   6.557   0.848   3.275
  302SOL    HW1 1805   6.490   0.827   3.205
  302SOL    HW2 1806   6.649   0.847   3.235
  303SOL     OW 1807   5.848   6.355   2.338
  303SOL    HW1 1808   5.878   6.361   2.243
  303SOL    HW2 1809   5.921   6.388   2.398
  304SOL     OW 1810   1.923   6.438   6.084
  304SOL    HW1 1811   2.000   6.487   6.124
  304SOL    HW2 1812   1.941   6.340   6.085
  305SOL     OW 1813   1.368   2.673   0.566
  305SOL    HW1 1814   1.395   2.688   0.471
  305SOL    HW2 1815   1.276   2.711   0.580
  306SOL     OW 1816   1.180   1.098   3.226
  306SOL    HW1 1817   1.209   1.011   3.266
  306SOL    HW2 1818   1.205   1.099   3.129
  307SOL     OW 1819   5.011   4.221   0.706
  307SOL    HW1 1820   5.027   4.169   0.622
  307SOL    HW2 1821   5.078   4.194   0.775
  308SOL     OW 1822   6.066   3.811   4.765
  308SOL    HW1 1823   6.110   3.817   4.854
  308SOL    HW2 1824   6.112   3.742   4.709
  309SOL     OW 1825   1.692   5.569   0.290
  309SOL    HW1 1826   1.733   5.622   0.216
  309SOL    HW2 1827   1.704   5.471   0.272
  310SOL     OW 1828   4.837   5.787   5.644
  310SOL    HW1 1829   4.751   5.788   5.593
  310SOL    HW2 1830   4.831   5.853   5.719
  311SOL     OW 1831   3.301   4.968   2.705
  311SOL    HW1 1832   3.268   5.059   2.731
  311SOL    HW2 1833   3.227   4.917   2.663
  312SOL     OW 1834   4.231   1.787   4.103
  312SOL    HW1 1835   4.309   1.820   4.051
  312SOL    HW2 1836   4.146   1.815   4.057
  313SOL     OW 1837   3.397   3.595   1.916
  313SOL    HW1 1838   3.352   3.511   1.886
  313SOL    HW2 1839   3.465   3.573   1.987
  314SOL     OW 1840   2.783   4.630   0.059
  314SOL    HW1 1841   2.807   4.727   0.066
  314SOL    HW2 1842   2.685   4.622   0.041
  315SOL     OW 1843   1.008   3.514   3.927
  315SOL    HW1 1844   1.021   3.577   4.004
  315SOL    HW2 1845   0.925   3.460   3.941
  316SOL     OW 1846   3.571   0.966   4.380
  316SOL    HW1 1847   3.478   0.998   4.361
  316SOL    HW2 1848   3.589   0.882   4.330
  317SOL     OW 1849   0.605   1.785   1.405
  317SOL    HW1 1850   0.663   1.832   1.338
  317SOL    HW2 1851   0.633   1.810   1.497
  318SOL     OW 1852   6.872   5.872   6.971
  318SOL    HW1 1853   6.785   5.877   6.922
  318SOL    HW2 1854   6.914   5.963   6.974
  319SOL     OW 1855   6.306   1.317   3.659
  319SOL    HW1 1856   6.315   1.218   3.655
  319SOL    HW2 1857   6.381   1.355   3.714
  320SOL     OW 1858   5.816   2.536   0.002
  320SOL    HW1 1859   5.854   2.538   6.929
  320SOL    HW2 1860   5.888   2.556   0.068
  321SOL     OW 1861   3.563   1.864   6.766
  321SOL    HW1 1862   3.512   1.924   6.828
  321SOL    HW2 1863   3.638   1.915   6.725
  322SOL     OW 1864   3.171   3.592   3.664
  322SOL    HW1 1865   3.233   3.650   3.718
  322SOL    HW2 1866   3.165   3.502   3.706
  323SOL     OW 1867   1.342   2.934   6.004
  323SOL    HW1 1868   1.272   2.868   5.977
  323SOL    HW2 1869   1.320   3.023   5.966
  324SOL     OW 1870   3.038   0.875   3.108
  324SOL    HW1 1871   3.004   0.835   3.023
  324SOL    HW2 1872   2.980   0.952   3.134
  325SOL     OW 1873   0.358   2.591   2.262
  325SOL    HW1 1874   0.281   2.543   2.305
  325SOL    HW2 1875   0.371   2.679   2.307
  326SOL     OW 1876   1.414   5.048   6.594
  326SOL    HW1 1877   1.453   4.978   6.533
  326SOL    HW2 1878   1.447   5.033   6.687
  327SOL     OW 1879   1.994   4.522   2.526
  327SOL    HW1 1880   2.027   4.436   2.565
  327SOL    HW2 1881   1.897   4.533   2.550
  328SOL     OW 1882   1.503   5.771   1.891
  328SOL    HW1 1883   1.576   5.825   1.850
  328SOL    HW2 1884   1.433   5.751   1.822
  329SOL     OW 1885   3.047   3.375   4.535
  329SOL    HW1 1886   2.964   3.372   4.592
  329SOL    HW2 1887   3.098   3.290   4.545
  330SOL     OW 1888   3.310   6.356   1.666
  330SOL    HW1 1889   3.374   6.433   1.667
  330SOL    HW2 1890   3.352   6.277   1.711
  331SOL     OW 1891   4.056   5.708   0.640
  331SOL    HW1 1892   4.059   5.804   0.612
  331SOL    HW2 1893   4.146   5.667   0.627
  332SOL     OW 1894   4.941   2.164   5.638
  332SOL    HW1 1895   4.919   2.124   5.549
  332SOL    HW2 1896   4.908   2.104   5.711
  333SOL     OW 1897   4.603   0.365   5.839
  333SOL    HW1 1898   4.669   0.344   5.767
  333SOL    HW2 1899   4.652   0.380   5.925
  334SOL     OW 1900   3.347   1.294   0.164
  334SOL    HW1 1901   3.413   1.219   0.158
  334SOL    HW2 1902   3.305   1.295   0.255
  335SOL     OW 1903   4.568   6.400   6.046
  335SOL    HW1 1904   4.510   6.475   6.076
  335SOL    HW2 1905   4.539   6.315   6.092
  336SOL     OW 1906   2.642   1.323   3.330
  336SOL    HW1 1907   2.696   1.247   3.364
  336SOL    HW2 1908   2.639   1.320   3.230
  337SOL     OW 1909   0.226   3.250   6.081
  337SOL    HW1 1910   0.275   3.302   6.012
  337SOL    HW2 1911   0.235   3.152   6.063
  338SOL     OW 1912   3.125   2.564   1.381
  338SOL    HW1 1913   3.148   2.498   1.453
  338SOL    HW2 1914   3.054   2.525   1.322
  339SOL     OW 1915   4.635   5.874   4.957
  339SOL    HW1 1916   4.692   5.943   4.913
  339SOL    HW2 1917   4.552   5.861   4.903
  340SOL     OW 1918   4.824   4.056   5.100
  340SOL    HW1 1919   4.916   4.041   5.137
  340SOL    HW2 1920   4.812   4.153   5.079
  341SOL     OW 1921   6.573   6.788   4.163
  341SOL    HW1 1922   6.619   6.735   4.235
  341SOL    HW2 1923   6.623   6.779   4.077
  342SOL     OW 1924   5.941   3.782   0.450
  342SOL    HW1 1925   5.970   3.795   0.545
  342SOL    HW2 1926   6.013   3.812   0.388
  343SOL     OW 1927   1.591   6.622   1.519
  343SOL    HW1 1928   1.555   6.577   1.601
  343SOL    HW2 1929   1.564   6.571   1.438
  344SOL     OW 1930   1.250   3.040   1.779
  344SOL    HW1 1931   1.202   3.102   1.841
  344SOL    HW2 1932   1.222   3.058   1.685
  345SOL     OW 1933   5.006   2.516   3.712
  345SOL    HW1 1934   5.081   2.478   3.658
  345SOL    HW2 1935   4.920   2.500   3.664
  346SOL     OW 1936   1.973   0.916   3.021
  346SOL    HW1 1937   1.980   0.820   2.994
  346SOL    HW2 1938   1.878   0.947   3.012
  347SOL     OW 1939   2.640   5.374   6.827
  347SOL    HW1 1940   2.580   5.294   6.825
  347SOL    HW2 1941   2.645   5.414   6.735
  348SOL     OW 1942   4.910   4.280   2.406
  348SOL    HW1 1943   4.872   4.372   2.409
  348SOL    HW2 1944   4.904   4.245   2.313
  349SOL     OW 1945   6.712   5.449   0.721
  349SOL    HW1 1946   6.805   5.429   0.690
  349SOL    HW2 1947   6.682   5.536   0.682
  350SOL     OW 1948   3.177   2.943   1.093
  350SOL    HW1 1949   3.097   2.948   1.153
  350SOL    HW2 1950   3.254   2.904   1.143
  351SOL     OW 1951   2.445   3.558   0.729
  351SOL    HW1 1952   2.375   3.554   0.659
  351SOL    HW2 1953   2.535   3.560   0.686
  352SOL     OW 1954   3.202   6.771   4.168
  352SOL    HW1 1955   3.150   6.729   4.093
  352SOL    HW2 1956   3.240   6.858   4.137
  353SOL     OW 1957   3.073   6.968   0.178
  353SOL    HW1 1958   3.029   6.980   0.267
  353SOL    HW2 1959   3.002   6.955   0.108
  354SOL     OW 1960   4.117   2.773   0.584
  354SOL    HW1 1961   4.022   2.804   0.594
  354SOL    HW2 1962   4.136   2.752   0.489
  355SOL     OW 1963   1.405   3.655   2.830
  355SOL    HW1 1964   1.386   3.588   2.759
  355SOL    HW2 1965   1.320   3.679   2.877
  356SOL     OW 1966   2.192   0.092   5.876
  356SOL    HW1 1967   2.183   0.190   5.862
  356SOL    HW2 1968   2.175   0.044   5.789
  357SOL     OW 1969   0.033   5.853   5.577
  357SOL    HW1 1970   0.030   5.930   5.514
  357SOL    HW2 1971   0.046   5.888   5.670
  358SOL     OW 1972   5.053   6.368   0.787
  358SOL    HW1 1973   4.983   6.302   0.762
  358SOL    HW2 1974   5.073   6.361   0.885
  359SOL     OW 1975   3.145   2.411   1.608
  359SOL    HW1 1976   3.235   2.413   1.652
  359SOL    HW2 1977   3.085   2.476   1.652
  360SOL     OW 1978   1.338   4.823   5.984
  360SOL    HW1 1979   1.423   4.867   6.012
  360SOL    HW2 1980   1.309   4.861   5.896
  361SOL     OW 1981   6.259   6.893   2.635
  361SOL    HW1 1982   6.313   6.909   2.552
  361SOL    HW2 1983   6.265   6.796   2.660
  362SOL     OW 1984   3.849   3.022   1.384
  362SOL    HW1 1985   3.830   3.083   1.460
  362SOL    HW2 1986   3.915   3.066   1.322
  363SOL     OW 1987   5.583   4.193   3.092
  363SOL    HW1 1988   5.549   4.186   2.998
  363SOL    HW2 1989   5.664   4.136   3.103
  364SOL     OW 1990   6.474   5.128   6.701
  364SOL    HW1 1991   6.486   5.047   6.643
  364SOL    HW2 1992   6.410   5.191   6.657
  365SOL     OW 1993   5.691   6.483   1.828
  365SOL    HW1 1994   5.594   6.474   1.805
  365SOL    HW2 1995   5.702   6.479   1.928
  366SOL     OW 1996   5.600   0.634   6.274
  366SOL    HW1 1997   5.621   0.653   6.178
  366SOL    HW2 1998   5.682   0.603   6.321
  367SOL     OW 1999   5.442   2.716   2.015
  367SOL    HW1 2000   5.455   2.680   1.922
  367SOL    HW2 2001   5.431   2.815   2.011
  368SOL     OW 2002   0.872   2.925   5.284
  368SOL    HW1 2003   0.946   2.913   5.218
  368SOL    HW2 2004   0.885   3.010   5.333
  369SOL     OW 2005   6.059   4.868   2.018
  369SOL    HW1 2006   5.969   4.910   2.033
  369SOL    HW2 2007   6.103   4.850   2.106
  370SOL     OW 2008   1.941   1.616   4.753
  370SOL    HW1 2009   1.960   1.695   4.811
  370SOL    HW2 2010   1.904   1.542   4.809
  371SOL     OW 2011   1.623   4.441   5.988
  371SOL    HW1 2012   1.601   4.397   6.075
  371SOL    HW2 2013   1.721   4.464   5.986
  372SOL     OW 2014   1.204   6.326   6.735
  372SOL    HW1 2015   1.148   6.398   6.693
  372SOL    HW2 2016   1.145   6.261   6.783
  373SOL     OW 2017   5.998   6.282   4.288
  373SOL    HW1 2018   5.907   6.242   4.299
  373SOL    HW2 2019   6.031   6.266   4.195
  374SOL     OW 2020   2.898   1.947   3.888
  374SOL    HW1 2021   2.880   2.039   3.923
  374SOL    HW2 2022   2.996   1.938   3.868
  375SOL     OW 2023   1.143   4.648   3.990
  375SOL    HW1 2024   1.134   4.641   4.089
  375SOL    HW2 2025   1.236   4.678   3.968
  376SOL     OW 2026   2.749   0.838   5.285
  376SOL    HW1 2027   2.746   0.925   5.234
  376SOL    HW2 2028   2.825   0.783   5.251
  377SOL     OW 2029   0.915   1.995   1.079
  377SOL    HW1 2030   0.990   1.996   1.145
  377SOL    HW2 2031   0.898   2.088   1.047
  378SOL     OW 2032   4.758   2.427   6.226
  378SOL    HW1 2033   4.832   2.447   6.289
  378SOL    HW2 2034   4.791   2.368   6.153
  379SOL     OW 2035   5.658   2.918   1.635
  379SOL    HW1 2036   5.714   2.970   1.570
  379SOL    HW2 2037   5.586   2.869   1.585
  380SOL     OW 2038   2.495   1.344   0.620
  380SOL    HW1 2039   2.519   1.298   0.535
  380SOL    HW2 2040   2.550   1.427   0.631
  381SOL     OW 2041   1.168   3.692   2.625
  381SOL    HW1 2042   1.231   3.656   2.556
  381SOL    HW2 2043   1.096   3.625   2.641
  382SOL     OW 2044   5.588   0.452   6.508
  382SOL    HW1 2045   5.526   0.526   6.533
  382SOL    HW2 2046   5.678   0.491   6.486
  383SOL     OW 2047   4.295   3.997   6.317
  383SOL    HW1 2048   4.271   3.997   6.414
  383SOL    HW2 2049   4.260   4.079   6.273
  384SOL     OW 2050   0.245   5.647   3.993
  384SOL    HW1 2051   0.169   5.711   4.007
  384SOL    HW2 2052   0.263   5.638   3.895
  385SOL     OW 2053   3.344   4.624   5.346
  385SOL    HW1 2054   3.326   4.533   5.311
  385SOL    HW2 2055   3.365   4.619   5.444
  386SOL     OW 2056   2.643   0.173   5.137
  386SOL    HW1 2057   2.693   0.232   5.200
  386SOL    HW2 2058   2.696   0.089   5.120
  387SOL     OW 2059   1.319   0.015   2.268
  387SOL    HW1 2060   1.306   0.066   2.184
  387SOL    HW2 2061   1.259   6.954   2.269
  388SOL     OW 2062   1.475   1.710   5.043
  388SOL    HW1 2063   1.558   1.710   4.987
  388SOL    HW2 2064   1.485   1.642   5.116
  389SOL     OW 2065   3.697   3.899   0.990
  389SOL    HW1 2066   3.720   3.987   0.949
  389SOL    HW2 2067   3.689   3.910   1.089
  390SOL     OW 2068   3.551   1.688   1.269
  390SOL    HW1 2069   3.484   1.690   1.195
  390SOL    HW2 2070   3.543   1.601   1.318
  391SOL     OW 2071   1.791   2.799   6.699
  391SOL    HW1 2072   1.761   2.780   6.606
  391SOL    HW2 2073   1.848   2.881   6.700
  392SOL     OW 2074   1.598   4.401   1.051
  392SOL    HW1 2075   1.683   4.363   1.086
  392SOL    HW2 2076   1.607   4.417   0.952
  393SOL     OW 2077   1.638   4.219   6.443
  393SOL    HW1 2078   1.702   4.144   6.462
  393SOL    HW2 2079   1.678   4.305   6.476
  394SOL     OW 2080   7.017   2.057   0.211
  394SOL    HW1 2081   0.073   2.094   0.157
  394SOL    HW2 2082   0.034   2.009   0.291
  395SOL     OW 2083   5.135   4.078   2.963
  395SOL    HW1 2084   5.164   4.168   2.996
  395SOL    HW2 2085   5.215   4.029   2.928
  396SOL     OW 2086   3.140   3.787   1.331
  396SOL    HW1 2087   3.080   3.759   1.405
  396SOL    HW2 2088   3.189   3.707   1.296
  397SOL     OW 2089   5.957   1.379   4.984
  397SOL    HW1 2090   5.861   1.370   5.012
  397SOL    HW2 2091   5.985   1.474   4.990
  398SOL     OW 2092   1.145   0.425   2.471
  398SOL    HW1 2093   1.144   0.365   2.391
  398SOL    HW2 2094   1.055   0.467   2.483
  399SOL     OW 2095   5.657   5.949   2.493
  399SOL    HW1 2096   5.685   5.880   2.559
  399SOL    HW2 2097   5.562   5.932   2.466
  400SOL     OW 2098   6.569   6.282   5.489
  400SOL    HW1 2099   6.519   6.357   5.445
  400SOL    HW2 2100   6.554   6.286   5.588
  401SOL     OW 2101   5.823   0.557   6.406
  401SOL    HW1 2102   5.857   0.565   6.312
  401SOL    HW2 2103   5.888   0.599   6.469
  402SOL     OW 2104   6.198   0.224   3.634
  402SOL    HW1 2105   6.186   0.301   3.696
  402SOL    HW2 2106   6.223   0.142   3.686
  403SOL     OW 2107   3.748   1.897   4.446
  403SOL    HW1 2108   3.804   1.814   4.456
  403SOL    HW2 2109   3.767   1.960   4.521
  404SOL     OW 2110   1.600   5.345   3.743
  404SOL    HW1 2111   1.583   5.274   3.674
  404SOL    HW2 2112   1.671   5.407   3.709
  405SOL     OW 2113   1.796   3.037   2.305
  405SOL    HW1 2114   1.733   3.092   2.250
  405SOL    HW2 2115   1.889   3.050   2.272
  406SOL     OW 2116   0.901   3.883   4.797
  406SOL    HW1 2117   0.888   3.854   4.892
  406SOL    HW2 2118   0.992   3.854   4.765
  407SOL     OW 2119   1.524   0.886   4.459
  407SOL    HW1 2120   1.478   0.972   4.438
  407SOL    HW2 2121   1.617   0.889   4.422
  408SOL     OW 2122   1.474   2.468   3.033
  408SOL    HW1 2123   1.534   2.414   3.091
  408SOL    HW2 2124   1.500   2.565   3.039
  409SOL     OW 2125   6.679   2.976   2.222
  409SOL    HW1 2126   6.635   2.912   2.285
  409SOL    HW2 2127   6.625   2.985   2.139
  410SOL     OW 2128   1.711   1.781   1.050
  410SOL    HW1 2129   1.622   1.738   1.064
  410SOL    HW2 2130   1.783   1.716   1.071
  411SOL     OW 2131   6.148   0.453   1.370
  411SOL    HW1 2132   6.121   0.548   1.387
  411SOL    HW2 2133   6.091   0.392   1.427
  412SOL     OW 2134   2.670   5.887   3.899
  412SOL    HW1 2135   2.754   5.869   3.949
  412SOL    HW2 2136   2.686   5.960   3.832
  413SOL     OW 2137   5.607   3.870   1.655
  413SOL    HW1 2138   5.660   3.934   1.711
  413SOL    HW2 2139   5.511   3.872   1.684
  414SOL     OW 2140   3.311   5.186   3.591
  414SOL    HW1 2141   3.380   5.235   3.645
  414SOL    HW2 2142   3.248   5.251   3.551
  415SOL     OW 2143   0.961   6.155   6.809
  415SOL    HW1 2144   0.929   6.125   6.899
  415SOL    HW2 2145   0.965   6.076   6.747
  416SOL     OW 2146   4.612   6.363   4.884
  416SOL    HW1 2147   4.628   6.307   4.965
  416SOL    HW2 2148   4.593   6.457   4.913
  417SOL     OW 2149   1.926   6.157   6.082
  417SOL    HW1 2150   1.969   6.066   6.082
  417SOL    HW2 2151   1.828   6.147   6.064
  418SOL     OW 2152   4.002   6.898   6.753
  418SOL    HW1 2153   4.008   6.801   6.779
  418SOL    HW2 2154   3.970   6.951   6.831
  419SOL     OW 2155   2.136   6.633   1.543
  419SOL    HW1 2156   2.117   6.669   1.635
  419SOL    HW2 2157   2.054   6.588   1.507
  420SOL     OW 2158   5.935   1.205   0.299
  420SOL    HW1 2159   5.924   1.128   0.361
  420SOL    HW2 2160   6.032   1.225   0.288
  421SOL     OW 2161   0.012   4.024   5.298
  421SOL    HW1 2162   0.022   4.112   5.252
  421SOL    HW2 2163   6.992   3.957   5.235
  422SOL     OW 2164   5.380   3.317   1.564
  422SOL    HW1 2165   5.443   3.267   1.504
  422SOL    HW2 2166   5.305   3.354   1.509
  423SOL     OW 2167   0.351   2.108   5.890
  423SOL    HW1 2168   0.334   2.198   5.851
  423SOL    HW2 2169   0.415   2.058   5.832
  424SOL     OW 2170   1.625   5.648   0.801
  424SOL    HW1 2171   1.665   5.689   0.719
  424SOL    HW2 2172   1.543   5.699   0.827
  425SOL     OW 2173   4.811   1.888   3.327
  425SOL    HW1 2174   4.885   1.849   3.272
  425SOL    HW2 2175   4.771   1.817   3.385
  426SOL     OW 2176   3.092   1.708   4.208
  426SOL    HW1 2177   3.120   1.662   4.124
  426SOL    HW2 2178   3.172   1.753   4.249
  427SOL     OW 2179   5.526   6.367   3.930
  427SOL    HW1 2180   5.455   6.299   3.947
  427SOL    HW2 2181   5.545   6.371   3.832
  428SOL     OW 2182   3.996   0.173   3.498
  428SOL    HW1 2183   4.018   0.136   3.588
  428SOL    HW2 2184   4.060   0.247   3.476
  429SOL     OW 2185   1.397   4.844   1.986
  429SOL    HW1 2186   1.313   4.792   1.999
  429SOL    HW2 2187   1.468   4.784   1.949
  430SOL     OW 2188   0.674   0.052   4.470
  430SOL    HW1 2189   0.647   6.976   4.453
  430SOL    HW2 2190   0.664   0.072   4.568
  431SOL     OW 2191   2.907   0.900   1.374
  431SOL    HW1 2192   2.951   0.975   1.324
  431SOL    HW2 2193   2.899   0.821   1.314
  432SOL     OW 2194   6.248   1.673   0.682
  432SOL    HW1 2195   6.324   1.664   0.746
  432SOL    HW2 2196   6.197   1.587   0.678
  433SOL     OW 2197   1.814   6.606   4.920
  433SOL    HW1 2198   1.752   6.560   4.858
  433SOL    HW2 2199   1.909   6.584   4.895
  434SOL     OW 2200   3.855   5.575   3.676
  434SOL    HW1 2201   3.869   5.546   3.770
  434SOL    HW2 2202   3.805   5.505   3.626
  435SOL     OW 2203   4.568   2.442   6.726
  435SOL    HW1 2204   4.522   2.381   6.790
  435SOL    HW2 2205   4.547   2.415   6.633
  436SOL     OW 2206   3.024   5.664   2.242
  436SOL    HW1 2207   3.083   5.584   2.248
  436SOL    HW2 2208   3.019   5.696   2.147
  437SOL     OW 2209   0.481   1.478   6.819
  437SOL    HW1 2210   0.556   1.420   6.787
  437SOL    HW2 2211   0.511   1.573   6.821
  438SOL     OW 2212   2.172   3.971   3.635
  438SOL    HW1 2213   2.076   3.983   3.611
  438SOL    HW2 2214   2.220   3.922   3.562
  439SOL     OW 2215   5.949   5.386   2.377
  439SOL    HW1 2216   6.020   5.446   2.338
  439SOL    HW2 2217   5.935   5.307   2.316
  440SOL     OW 2218   2.339   1.674   5.152
  440SOL    HW1 2219   2.430   1.715   5.145
  440SOL    HW2 2220   2.279   1.735   5.204
  441SOL     OW 2221   0.652   3.404   4.260
  441SOL    HW1 2222   0.691   3.447   4.341
  441SOL    HW2 2223   0.575   3.346   4.286
  442SOL     OW 2224   3.925   5.586   5.283
  442SOL    HW1 2225   3.827   5.607   5.283
  442SOL    HW2 2226   3.943   5.513   5.217
  443SOL     OW 2227   6.101   4.273   3.723
  443SOL    HW1 2228   6.073   4.350   3.781
  443SOL    HW2 2229   6.170   4.304   3.658
  444SOL     OW 2230   5.120   0.579   6.501
  444SOL    HW1 2231   5.075   0.596   6.589
  444SOL    HW2 2232   5.083   0.495   6.461
  445SOL     OW 2233   0.915   5.949   3.196
  445SOL    HW1 2234   0.865   5.924   3.279
  445SOL    HW2 2235   0.945   5.866   3.148
  446SOL     OW 2236   3.351   4.935   3.496
  446SOL    HW1 2237   3.335   5.027   3.531
  446SOL    HW2 2238   3.282   4.912   3.427
  447SOL     OW 2239   0.241   2.905   6.407
  447SOL    HW1 2240   0.208   2.941   6.494
  447SOL    HW2 2241   0.295   2.975   6.360
  448SOL     OW 2242   2.340   1.038   3.227
  448SOL    HW1 2243   2.338   1.138   3.221
  448SOL    HW2 2244   2.412   1.002   3.167
  449SOL     OW 2245   2.739   1.290   3.976
  449SOL    HW1 2246   2.780   1.243   3.898
  449SOL    HW2 2247   2.807   1.298   4.050
  450SOL     OW 2248   1.456   4.845   3.215
  450SOL    HW1 2249   1.551   4.875   3.209
  450SOL    HW2 2250   1.396   4.916   3.179
  451SOL     OW 2251   1.296   2.403   4.469
  451SOL    HW1 2252   1.225   2.441   4.410
  451SOL    HW2 2253   1.344   2.330   4.421
  452SOL     OW 2254   5.522   6.171   0.616
  452SOL    HW1 2255   5.506   6.269   0.622
  452SOL    HW2 2256   5.504   6.140   0.522
  453SOL     OW 2257   4.151   0.031   6.366
  453SOL    HW1 2258   4.064   7.015   6.401
  453SOL    HW2 2259   4.134   0.085   6.283
  454SOL     OW 2260   0.312   4.089   6.303
  454SOL    HW1 2261   0.366   4.173   6.295
  454SOL    HW2 2262   0.370   4.010   6.282
  455SOL     OW 2263   5.438   2.192   4.841
  455SOL    HW1 2264   5.340   2.171   4.848
  455SOL    HW2 2265   5.454   2.288   4.864
  456SOL     OW 2266   0.632   0.039   3.521
  456SOL    HW1 2267   0.711   0.066   3.576
  456SOL    HW2 2268   0.663   0.002   3.433
  457SOL     OW 2269   1.786   3.308   4.626
  457SOL    HW1 2270   1.701   3.281   4.581
  457SOL    HW2 2271   1.791   3.265   4.716
  458SOL     OW 2272   3.340   6.022   2.717
  458SOL    HW1 2273   3.352   5.944   2.779
  458SOL    HW2 2274   3.426   6.073   2.712
  459SOL     OW 2275   1.804   6.996   6.001
  459SOL    HW1 2276   1.712   0.013   6.019
  459SOL    HW2 2277   1.872   0.044   6.028
  460SOL     OW 2278   2.346   6.883   4.817
  460SOL    HW1 2279   2.264   6.927   4.852
  460SOL    HW2 2280   2.414   6.876   4.890
  461SOL     OW 2281   6.980   5.453   5.419
  461SOL    HW1 2282   7.016   5.393   5.347
  461SOL    HW2 2283   6.905   5.508   5.382
  462SOL     OW 2284   3.952   3.234   6.889
  462SOL    HW1 2285   3.928   3.254   6.794
  462SOL    HW2 2286   3.959   3.135   6.902
  463SOL     OW 2287   5.887   6.261   3.913
  463SOL    HW1 2288   5.792   6.267   3.944
  463SOL    HW2 2289   5.897   6.184   3.851
  464SOL     OW 2290   3.125   1.061   5.230
  464SOL    HW1 2291   3.220   1.064   5.200
  464SOL    HW2 2292   3.074   0.996   5.173
  465SOL     OW 2293   0.955   2.426   0.132
  465SOL    HW1 2294   0.989   2.405   0.224
  465SOL    HW2 2295   0.921   2.520   0.130
  466SOL     OW 2296   1.782   6.369   4.104
  466SOL    HW1 2297   1.718   6.403   4.173
  466SOL    HW2 2298   1.850   6.440   4.084
  467SOL     OW 2299   2.110   1.252   0.847
  467SOL    HW1 2300   2.195   1.304   0.842
  467SOL    HW2 2301   2.101   1.209   0.936
  468SOL     OW 2302   3.882   5.990   5.616
  468SOL    HW1 2303   3.814   5.939   5.668
  468SOL    HW2 2304   3.837   6.044   5.546
  469SOL     OW 2305   2.813   3.529   6.028
  469SOL    HW1 2306   2.842   3.436   6.006
  469SOL    HW2 2307   2.771   3.531   6.119
  470SOL     OW 2308   4.977   6.695   1.070
  470SOL    HW1 2309   4.890   6.737   1.044
  470SOL    HW2 2310   5.010   6.738   1.155
  471SOL     OW 2311   2.405   2.613   4.112
  471SOL    HW1 2312   2.409   2.680   4.038
  471SOL    HW2 2313   2.309   2.593   4.133
  472SOL     OW 2314   4.729   4.636   6.219
  472SOL    HW1 2315   4.682   4.548   6.213
  472SOL    HW2 2316   4.669   4.703   6.262
  473SOL     OW 2317   1.514   2.657   2.421
  473SOL    HW1 2318   1.571   2.639   2.501
  473SOL    HW2 2319   1.431   2.706   2.449
  474SOL     OW 2320   5.350   6.079   4.891
  474SOL    HW1 2321   5.258   6.049   4.914
  474SOL    HW2 2322   5.399   6.005   4.845
  475SOL     OW 2323   5.896   2.097   6.510
  475SOL    HW1 2324   5.973   2.036   6.495
  475SOL    HW2 2325   5.838   2.061   6.583
  476SOL     OW 2326   0.483   3.675   2.233
  476SOL    HW1 2327   0.389   3.703   2.213
  476SOL    HW2 2328   0.545   3.748   2.207
  477SOL     OW 2329   2.422   6.207   3.204
  477SOL    HW1 2330   2.446   6.139   3.273
  477SOL    HW2 2331   2.423   6.298   3.245
  478SOL     OW 2332   3.418   6.362   2.452
  478SOL    HW1 2333   3.345   6.321   2.506
  478SOL    HW2 2334   3.384   6.387   2.362
  479SOL     OW 2335   3.563   2.717   5.606
  479SOL    HW1 2336   3.602   2.724   5.698
  479SOL    HW2 2337   3.587   2.629   5.566
  480SOL     OW 2338   2.286   0.970   0.551
  480SOL    HW1 2339   2.251   1.027   0.476
  480SOL    HW2 2340   2.280   0.873   0.524
  481SOL     OW 2341   1.747   6.576   1.216
  481SOL    HW1 2342   1.659   6.528   1.217
  481SOL    HW2 2343   1.733   6.673   1.232
  482SOL     OW 2344   4.195   4.634   2.120
  482SOL    HW1 2345   4.291   4.622   2.097
  482SOL    HW2 2346   4.139   4.571   2.066
  483SOL     OW 2347   6.591   2.438   3.329
  483SOL    HW1 2348   6.514   2.477   3.278
  483SOL    HW2 2349   6.673   2.493   3.313
  484SOL     OW 2350   1.944   3.253   5.488
  484SOL    HW1 2351   2.039   3.223   5.484
  484SOL    HW2 2352   1.927   3.322   5.419
  485SOL     OW 2353   4.040   4.771   2.563
  485SOL    HW1 2354   3.959   4.810   2.606
  485SOL    HW2 2355   4.014   4.722   2.480
  486SOL     OW 2356   6.588   0.604   0.247
  486SOL    HW1 2357   6.491   0.624   0.230
  486SOL    HW2 2358   6.601   0.505   0.246
  487SOL     OW 2359   0.896   0.695   3.611
  487SOL    HW1 2360   0.893   0.759   3.687
  487SOL    HW2 2361   0.890   0.601   3.646
  488SOL     OW 2362   1.157   0.909   2.542
  488SOL    HW1 2363   1.199   0.951   2.622
  488SOL    HW2 2364   1.224   0.854   2.493
  489SOL     OW 2365   4.842   5.700   5.028
  489SOL    HW1 2366   4.817   5.679   5.123
  489SOL    HW2 2367   4.762   5.736   4.980
  490SOL     OW 2368   0.870   6.582   2.909
  490SOL    HW1 2369   0.792   6.546   2.857
  490SOL    HW2 2370   0.911   6.508   2.963
  491SOL     OW 2371   1.343   3.483   1.838
  491SOL    HW1 2372   1.248   3.492   1.809
  491SOL    HW2 2373   1.367   3.557   1.900
  492SOL     OW 2374   1.553   0.192   5.655
  492SOL    HW1 2375   1.603   0.259   5.709
  492SOL    HW2 2376   1.534   0.228   5.564
  493SOL     OW 2377   3.707   6.381   5.614
  493SOL    HW1 2378   3.798   6.344   5.630
  493SOL    HW2 2379   3.713   6.461   5.554
  494SOL     OW 2380   0.899   6.735   6.670
  494SOL    HW1 2381   0.964   6.802   6.703
  494SOL    HW2 2382   0.891   6.740   6.571
  495SOL     OW 2383   4.090   5.912   3.590
  495SOL    HW1 2384   4.018   5.958   3.643
  495SOL    HW2 2385   4.179   5.928   3.632
  496SOL     OW 2386   5.328   3.072   1.713
  496SOL    HW1 2387   5.394   3.052   1.786
  496SOL    HW2 2388   5.347   3.162   1.675
  497SOL     OW 2389   3.223   1.653   4.724
  497SOL    HW1 2390   3.169   1.599   4.789
  497SOL    HW2 2391   3.274   1.723   4.774
  498SOL     OW 2392   1.027   4.914   1.802
  498SOL    HW1 2393   0.990   4.967   1.726
  498SOL    HW2 2394   1.010   4.961   1.888
  499SOL     OW 2395   1.778   5.416   4.505
  499SOL    HW1 2396   1.741   5.508   4.500
  499SOL    HW2 2397   1.820   5.393   4.416
  500SOL     OW 2398   0.146   2.017   6.095
  500SOL    HW1 2399   0.140   2.036   5.996
  500SOL    HW2 2400   0.164   1.920   6.109
  501SOL     OW 2401   3.688   0.268   0.993
  501SOL    HW1 2402   3.724   0.317   1.072
  501SOL    HW2 2403   3.678   0.171   1.016
  502SOL     OW 2404   0.650   4.039   5.732
  502SOL    HW1 2405   0.604   3.956   5.700
  502SOL    HW2 2406   0.635   4.112   5.666
  503SOL     OW 2407   0.187   4.830   6.633
  503SOL    HW1 2408   0.134   4.908   6.666
  503SOL    HW2 2409   0.250   4.859   6.562
  504SOL     OW 2410   0.702   5.277   2.154
  504SOL    HW1 2411   0.694   5.258   2.251
  504SOL    HW2 2412   0.798   5.288   2.129
  505SOL     OW 2413   3.060   6.059   4.472
  505SOL    HW1 2414   3.140   6.081   4.528
  505SOL    HW2 2415   2.984   6.120   4.497
  506SOL     OW 2416   3.038   5.016   3.666
  506SOL    HW1 2417   3.033   4.917   3.656
  506SOL    HW2 2418   3.094   5.054   3.592
  507SOL     OW 2419   3.142   0.375   3.335
  507SOL    HW1 2420   3.082   0.314   3.284
  507SOL    HW2 2421   3.141   0.466   3.294
  508SOL     OW 2422   0.180   3.494   2.581
  508SOL    HW1 2423   0.265   3.517   2.535
  508SOL    HW2 2424   0.122   3.576   2.586
  509SOL     OW 2425   2.965   1.436   1.084
  509SOL    HW1 2426   2.958   1.369   1.157
  509SOL    HW2 2427   3.061   1.446   1.057
  510SOL     OW 2428   6.513   4.434   0.081
  510SOL    HW1 2429   6.473   4.402   7.014
  510SOL    HW2 2430   6.449   4.497   0.125
  511SOL     OW 2431   0.923   2.272   5.938
  511SOL    HW1 2432   0.889   2.360   5.907
  511SOL    HW2 2433   0.933   2.210   5.860
  512SOL     OW 2434   6.962   2.390   6.546
  512SOL    HW1 2435   6.915   2.384   6.634
  512SOL    HW2 2436   7.013   2.476   6.542
  513SOL     OW 2437   5.479   6.764   3.274
  513SOL    HW1 2438   5.520   6.792   3.360
  513SOL    HW2 2439   5.534   6.797   3.198
  514SOL     OW 2440   6.221   0.420   4.260
  514SOL    HW1 2441   6.174   0.335   4.233
  514SOL    HW2 2442   6.255   0.411   4.353
  515SOL     OW 2443   1.319   6.909   1.059
  515SOL    HW1 2444   1.347   6.898   0.964
  515SOL    HW2 2445   1.392   6.878   1.120
  516SOL     OW 2446   2.854   4.862   2.037
  516SOL    HW1 2447   2.815   4.771   2.021
  516SOL    HW2 2448   2.917   4.884   1.962
  517SOL     OW 2449   3.768   5.032   1.678
  517SOL    HW1 2450   3.726   5.064   1.594
  517SOL    HW2 2451   3.820   5.106   1.720
  518SOL     OW 2452   2.002   2.175   3.889
  518SOL    HW1 2453   1.962   2.241   3.825
  518SOL    HW2 2454   1.930   2.119   3.928
  519SOL     OW 2455   0.682   6.521   4.017
  519SOL    HW1 2456   0.768   6.525   4.067
  519SOL    HW2 2457   0.680   6.593   3.948
  520SOL     OW 2458   5.966   3.969   6.870
  520SOL    HW1 2459   5.984   4.025   6.789
  520SOL    HW2 2460   5.947   3.875   6.843
  521SOL     OW 2461   6.367   6.000   4.766
  521SOL    HW1 2462   6.435   6.028   4.698
  521SOL    HW2 2463   6.382   6.051   4.850
  522SOL     OW 2464   3.538   3.214   3.828
  522SOL    HW1 2465   3.597   3.204   3.908
  522SOL    HW2 2466   3.574   3.159   3.753
  523SOL     OW 2467   0.510   6.367   1.775
  523SOL    HW1 2468   0.414   6.341   1.777
  523SOL    HW2 2469   0.563   6.298   1.725
  524SOL     OW 2470   0.516   1.915   2.667
  524SOL    HW1 2471   0.581   1.849   2.704
  524SOL    HW2 2472   0.512   1.906   2.568
  525SOL     OW 2473   2.073   4.280   5.898
  525SOL    HW1 2474   2.120   4.299   5.812
  525SOL    HW2 2475   2.067   4.181   5.911
  526SOL     OW 2476   3.094   6.220   3.968
  526SOL    HW1 2477   3.156   6.232   3.890
  526SOL    HW2 2478   3.052   6.130   3.963
  527SOL     OW 2479   6.712   3.022   0.825
  527SOL    HW1 2480   6.731   2.937   0.775
  527SOL    HW2 2481   6.650   3.004   0.900
  528SOL     OW 2482   1.588   2.569   3.800
  528SOL    HW1 2483   1.656   2.540   3.867
  528SOL    HW2 2484   1.584   2.669   3.798
  529SOL     OW 2485   1.539   5.103   5.183
  529SOL    HW1 2486   1.535   5.009   5.148
  529SOL    HW2 2487   1.613   5.110   5.250
  530SOL     OW 2488   4.148   3.434   3.872
  530SOL    HW1 2489   4.165   3.336   3.873
  530SOL    HW2 2490   4.130   3.466   3.965
  531SOL     OW 2491   0.781   2.300   2.851
  531SOL    HW1 2492   0.758   2.225   2.789
  531SOL    HW2 2493   0.700   2.354   2.869
  532SOL     OW 2494   0.802   3.200   0.439
  532SOL    HW1 2495   0.900   3.183   0.453
  532SOL    HW2 2496   0.768   3.139   0.367
  533SOL     OW 2497   3.966   0.085   4.025
  533SOL    HW1 2498   3.975   0.050   4.119
  533SOL    HW2 2499   3.885   0.045   3.983
  534SOL     OW 2500   5.209   6.312   2.584
  534SOL    HW1 2501   5.113   6.290   2.566
  534SOL    HW2 2502   5.265   6.230   2.576
  535SOL     OW 2503   6.720   3.650   4.286
  535SOL    HW1 2504   6.697   3.565   4.239
  535SOL    HW2 2505   6.687   3.645   4.380
  536SOL     OW 2506   5.834   5.093   2.612
  536SOL    HW1 2507   5.883   5.046   2.685
  536SOL    HW2 2508   5.873   5.184   2.598
  537SOL     OW 2509   2.253   6.357   4.690
  537SOL    HW1 2510   2.287   6.312   4.608
  537SOL    HW2 2511   2.316   6.430   4.717
  538SOL     OW 2512   1.118   4.231   4.069
  538SOL    HW1 2513   1.180   4.300   4.108
  538SOL    HW2 2514   1.074   4.267   3.988
  539SOL     OW 2515   1.742   5.144   1.401
  539SOL    HW1 2516   1.757   5.056   1.446
  539SOL    HW2 2517   1.830   5.182   1.374
  540SOL     OW 2518   1.373   1.301   2.785
  540SOL    HW1 2519   1.392   1.368   2.713
  540SOL    HW2 2520   1.318   1.344   2.856
  541SOL     OW 2521   5.361   5.502   3.714
  541SOL    HW1 2522   5.411   5.547   3.788
  541SOL    HW2 2523   5.290   5.442   3.752
  542SOL     OW 2524   5.640   5.853   0.087
  542SOL    HW1 2525   5.636   5.754   0.076
  542SOL    HW2 2526   5.667   5.875   0.181
  543SOL     OW 2527   0.574   2.988   4.640
  543SOL    HW1 2528   0.667   2.965   4.669
  543SOL    HW2 2529   0.522   3.023   4.718
  544SOL     OW 2530   1.589   4.806   0.340
  544SOL    HW1 2531   1.546   4.758   0.263
  544SOL    HW2 2532   1.687   4.786   0.342
  545SOL     OW 2533   3.214   1.710   1.145
  545SOL    HW1 2534   3.219   1.613   1.120
  545SOL    HW2 2535   3.277   1.763   1.088
  546SOL     OW 2536   2.294   3.357   0.214
  546SOL    HW1 2537   2.229   3.432   0.229
  546SOL    HW2 2538   2.308   3.308   0.299
  547SOL     OW 2539   3.821   1.216   0.189
  547SOL    HW1 2540   3.783   1.127   0.215
  547SOL    HW2 2541   3.759   1.261   0.125
  548SOL     OW 2542   3.409   3.407   2.342
  548SOL    HW1 2543   3.309   3.411   2.346
  548SOL    HW2 2544   3.438   3.338   2.276
  549SOL     OW 2545   5.920   3.099   0.902
  549SOL    HW1 2546   5.962   3.189   0.904
  549SOL    HW2 2547   5.829   3.105   0.861
  550SOL     OW 2548   1.075   5.967   3.888
  550SOL    HW1 2549   1.074   6.049   3.945
  550SOL    HW2 2550   1.127   5.895   3.934
  551SOL     OW 2551   1.133   0.270   2.242
  551SOL    HW1 2552   1.064   0.205   2.209
  551SOL    HW2 2553   1.221   0.251   2.198
  552SOL     OW 2554   6.675   4.699   6.964
  552SOL    HW1 2555   6.604   4.652   6.911
  552SOL    HW2 2556   6.698   4.785   6.920
  553SOL     OW 2557   2.738   6.102   3.706
  553SOL    HW1 2558   2.656   6.157   3.723
  553SOL    HW2 2559   2.788   6.139   3.628
  554SOL     OW 2560   6.753   6.556   6.445
  554SOL    HW1 2561   6.724   6.598   6.531
  554SOL    HW2 2562   6.721   6.461   6.441
  555SOL     OW 2563   2.363   4.389   4.683
  555SOL    HW1 2564   2.317   4.307   4.647
  555SOL    HW2 2565   2.338   4.401   4.779
  556SOL     OW 2566   4.438   2.014   4.067
  556SOL    HW1 2567   4.504   2.003   4.142
  556SOL    HW2 2568   4.365   2.075   4.096
  557SOL     OW 2569   0.285   5.615   0.908
  557SOL    HW1 2570   0.190   5.586   0.924
  557SOL    HW2 2571   0.299   5.705   0.951
  558SOL     OW 2572   2.915   3.446   3.768
  558SOL    HW1 2573   2.899   3.508   3.690
  558SOL    HW2 2574   2.946   3.500   3.846
  559SOL     OW 2575   6.963   5.557   6.974
  559SOL    HW1 2576   6.960   5.526   6.879
  559SOL    HW2 2577   6.938   5.654   6.979
  560SOL     OW 2578   5.292   4.844   5.229
  560SOL    HW1 2579   5.365   4.884   5.174
  560SOL    HW2 2580   5.248   4.915   5.284
  561SOL     OW 2581   0.925   1.795   1.516
  561SOL    HW1 2582   0.964   1.705   1.495
  561SOL    HW2 2583   0.899   1.841   1.431
  562SOL     OW 2584   4.561   7.005   5.989
  562SOL    HW1 2585   4.612   0.045   6.051
  562SOL    HW2 2586   4.617   6.926   5.963
  563SOL     OW 2587   2.886   0.488   3.449
  563SOL    HW1 2588   2.957   0.486   3.378
  563SOL    HW2 2589   2.880   0.398   3.491
  564SOL     OW 2590   1.480   2.202   6.670
  564SOL    HW1 2591   1.391   2.202   6.624
  564SOL    HW2 2592   1.474   2.150   6.755
  565SOL     OW 2593   3.314   3.023   5.110
  565SOL    HW1 2594   3.375   2.944   5.114
  565SOL    HW2 2595   3.344   3.092   5.176
  566SOL     OW 2596   6.914   4.812   3.562
  566SOL    HW1 2597   6.960   4.829   3.648
  566SOL    HW2 2598   6.815   4.811   3.577
  567SOL     OW 2599   2.984   2.927   1.282
  567SOL    HW1 2600   2.984   2.907   1.380
  567SOL    HW2 2601   2.905   2.983   1.259
  568SOL     OW 2602   5.032   0.609   0.153
  568SOL    HW1 2603   5.063   0.517   0.128
  568SOL    HW2 2604   4.940   0.603   0.193
  569SOL     OW 2605   1.780   2.816   6.363
  569SOL    HW1 2606   1.725   2.753   6.308
  569SOL    HW2 2607   1.764   2.910   6.334
  570SOL     OW 2608   3.793   5.764   6.770
  570SOL    HW1 2609   3.811   5.859   6.743
  570SOL    HW2 2610   3.810   5.703   6.693
  571SOL     OW 2611   3.404   6.874   2.207
  571SOL    HW1 2612   3.333   6.827   2.153
  571SOL    HW2 2613   3.417   6.826   2.293
  572SOL     OW 2614   2.674   4.695   5.576
  572SOL    HW1 2615   2.625   4.613   5.547
  572SOL    HW2 2616   2.767   4.693   5.538
  573SOL     OW 2617   5.362   1.236   5.488
  573SOL    HW1 2618   5.336   1.141   5.470
  573SOL    HW2 2619   5.444   1.238   5.545
  574SOL     OW 2620   3.971   1.732   4.263
  574SOL    HW1 2621   4.052   1.697   4.216
  574SOL    HW2 2622   3.959   1.829   4.240
  575SOL     OW 2623   4.964   3.916   6.819
  575SOL    HW1 2624   5.011   3.841   6.773
  575SOL    HW2 2625   4.873   3.928   6.779
  576SOL     OW 2626   0.681   1.990   3.192
  576SOL    HW1 2627   0.616   1.985   3.268
  576SOL    HW2 2628   0.653   1.927   3.120
  577SOL     OW 2629   1.585   1.135   2.727
  577SOL    HW1 2630   1.516   1.194   2.770
  577SOL    HW2 2631   1.676   1.172   2.744
  578SOL     OW 2632   5.620   6.024   4.150
  578SOL    HW1 2633   5.541   6.077   4.180
  578SOL    HW2 2634   5.591   5.956   4.083
  579SOL     OW 2635   1.817   3.553   3.240
  579SOL    HW1 2636   1.909   3.517   3.225
  579SOL    HW2 2637   1.755   3.516   3.171
  580SOL     OW 2638   5.178   5.737   7.000
  580SOL    HW1 2639   5.249   5.744   0.051
  580SOL    HW2 2640   5.203   5.794   6.921
  581SOL     OW 2641   2.569   3.444   1.427
  581SOL    HW1 2642   2.651   3.482   1.384
  581SOL    HW2 2643   2.583   3.436   1.525
  582SOL     OW 2644   4.434   6.277   1.788
  582SOL    HW1 2645   4.416   6.376   1.780
  582SOL    HW2 2646   4.533   6.262   1.798
  583SOL     OW 2647   3.012   6.062   5.566
  583SOL    HW1 2648   3.009   6.094   5.660
  583SOL    HW2 2649   2.991   5.964   5.564
  584SOL     OW 2650   2.846   4.794   6.683
  584SOL    HW1 2651   2.750   4.798   6.714
  584SOL    HW2 2652   2.906   4.789   6.763
  585SOL     OW 2653   5.444   2.741   6.208
  585SOL    HW1 2654   5.429   2.718   6.304
  585SOL    HW2 2655   5.541   2.760   6.193
  586SOL     OW 2656   3.687   0.515   6.179
  586SOL    HW1 2657   3.589   0.531   6.194
  586SOL    HW2 2658   3.739   0.590   6.219
  587SOL     OW 2659   4.450   1.749   5.071
  587SOL    HW1 2660   4.400   1.794   4.998
  587SOL    HW2 2661   4.388   1.692   5.124
  588SOL     OW 2662   1.609   4.725   2.335
  588SOL    HW1 2663   1.525   4.704   2.286
  588SOL    HW2 2664   1.667   4.644   2.339
  589SOL     OW 2665   3.214   4.585   1.370
  589SOL    HW1 2666   3.156   4.658   1.408
  589SOL    HW2 2667   3.188   4.569   1.275
  590SOL     OW 2668   4.828   3.027   3.295
  590SOL    HW1 2669   4.844   2.988   3.386
  590SOL    HW2 2670   4.738   2.999   3.262
  591SOL     OW 2671   2.996   5.218   3.894
  591SOL    HW1 2672   2.946   5.183   3.973
  591SOL    HW2 2673   3.002   5.147   3.824
  592SOL     OW 2674   3.910   1.008   0.996
  592SOL    HW1 2675   3.953   1.079   0.941
  592SOL    HW2 2676   3.825   0.978   0.952
  593SOL     OW 2677   4.716   2.769   4.031
  593SOL    HW1 2678   4.654   2.719   3.971
  593SOL    HW2 2679   4.778   2.704   4.077
  594SOL     OW 2680   6.745   1.983   0.190
  594SOL    HW1 2681   6.842   1.999   0.173
  594SOL    HW2 2682   6.692   2.062   0.156
  595SOL     OW 2683   5.686   0.267   3.356
  595SOL    HW1 2684   5.741   0.243   3.276
  595SOL    HW2 2685   5.589   0.267   3.332
  596SOL     OW 2686   0.785   5.300   3.386
  596SOL    HW1 2687   0.754   5.389   3.354
  596SOL    HW2 2688   0.736   5.228   3.336
  597SOL     OW 2689   2.915   0.420   6.990
  597SOL    HW1 2690   2.853   0.465   6.925
  597SOL    HW2 2691   2.873   0.337   0.006
  598SOL     OW 2692   4.247   4.920   5.521
  598SOL    HW1 2693   4.342   4.949   5.517
  598SOL    HW2 2694   4.205   4.955   5.605
  599SOL     OW 2695   1.901   6.294   2.085
  599SOL    HW1 2696   1.844   6.376   2.074
  599SOL    HW2 2697   1.889   6.235   2.005
  600SOL     OW 2698   6.986   1.295   6.280
  600SOL    HW1 2699   6.930   1.356   6.224
  600SOL    HW2 2700   6.935   1.212   6.301
  601SOL     OW 2701   1.797   0.611   4.684
  601SOL    HW1 2702   1.888   0.582   4.713
  601SOL    HW2 2703   1.780   0.580   4.590
  602SOL     OW 2704   2.198   2.486   6.470
  602SOL    HW1 2705   2.131   2.557   6.454
  602SOL    HW2 2706   2.153   2.396   6.472
  603SOL     OW 2707   2.236   2.382   5.463
  603SOL    HW1 2708   2.252   2.384   5.561
  603SOL    HW2 2709   2.167   2.312   5.442
  604SOL     OW 2710   1.246   2.778   1.687
  604SOL    HW1 2711   1.278   2.862   1.731
  604SOL    HW2 2712   1.237   2.706   1.757
  605SOL     OW 2713   6.426   6.748   1.304
  605SOL    HW1 2714   6.519   6.747   1.267
  605SOL    HW2 2715   6.365   6.795   1.240
  606SOL     OW 2716   4.202   6.645   6.943
  606SOL    HW1 2717   4.280   6.698   6.909
  606SOL    HW2 2718   4.235   6.571   7.001
  607SOL     OW 2719   6.806   6.140   5.893
  607SOL    HW1 2720   6.778   6.185   5.808
  607SOL    HW2 2721   6.894   6.176   5.923
  608SOL     OW 2722   3.514   5.662   6.824
  608SOL    HW1 2723   3.584   5.731   6.805
  608SOL    HW2 2724   3.544   5.605   6.900
  609SOL     OW 2725   3.961   3.062   3.090
  609SOL    HW1 2726   3.918   3.003   3.158
  609SOL    HW2 2727   3.983   3.150   3.132
  610SOL     OW 2728   5.363   3.834   1.766
  610SOL    HW1 2729   5.377   3.740   1.737
  610SOL    HW2 2730   5.388   3.844   1.862
  611SOL     OW 2731   3.732   6.835   0.901
  611SOL    HW1 2732   3.743   6.744   0.941
  611SOL    HW2 2733   3.741   6.829   0.802
  612SOL     OW 2734   3.950   6.601   5.759
  612SOL    HW1 2735   3.893   6.569   5.834
  612SOL    HW2 2736   4.031   6.542   5.751
  613SOL     OW 2737   4.171   6.150   5.640
  613SOL    HW1 2738   4.208   6.228   5.690
  613SOL    HW2 2739   4.192   6.161   5.542
  614SOL     OW 2740   4.962   5.204   0.972
  614SOL    HW1 2741   5.050   5.217   0.926
  614SOL    HW2 2742   4.934   5.290   1.016
  615SOL     OW 2743   6.571   2.466   1.547
  615SOL    HW1 2744   6.656   2.487   1.499
  615SOL    HW2 2745   6.494   2.478   1.485
  616SOL     OW 2746   6.931   2.419   3.989
  616SOL    HW1 2747   6.924   2.384   4.083
  616SOL    HW2 2748   6.870   2.368   3.929
  617SOL     OW 2749   6.528   4.689   6.486
  617SOL    HW1 2750   6.614   4.663   6.443
  617SOL    HW2 2751   6.453   4.635   6.447
  618SOL     OW 2752   6.592   2.340   6.719
  618SOL    HW1 2753   6.576   2.412   6.651
  618SOL    HW2 2754   6.682   2.353   6.761
  619SOL     OW 2755   4.578   1.252   0.025
  619SOL    HW1 2756   4.647   1.320   0.050
  619SOL    HW2 2757   4.581   1.176   0.090
  620SOL     OW 2758   4.415   3.026   1.273
  620SOL    HW1 2759   4.337   3.087   1.259
  620SOL    HW2 2760   4.415   2.994   1.368
  621SOL     OW 2761   2.923   6.538   6.759
  621SOL    HW1 2762   2.902   6.453   6.807
  621SOL    HW2 2763   2.896   6.530   6.663
  622SOL     OW 2764   2.006   0.536   5.104
  622SOL    HW1 2765   2.051   0.599   5.168
  622SOL    HW2 2766   2.063   0.454   5.094
  623SOL     OW 2767   0.470   5.490   6.154
  623SOL    HW1 2768   0.567   5.512   6.166
  623SOL    HW2 2769   0.456   5.448   6.064
  624SOL     OW 2770   0.082   2.123   1.096
  624SOL    HW1 2771   0.181   2.117   1.079
  624SOL    HW2 2772   0.067   2.163   1.186
  625SOL     OW 2773   1.497   1.616   2.358
  625SOL    HW1 2774   1.436   1.597   2.282
  625SOL    HW2 2775   1.588   1.639   2.323
  626SOL     OW 2776   1.973   5.758   3.314
  626SOL    HW1 2777   2.018   5.845   3.333
  626SOL    HW2 2778   2.040   5.693   3.276
  627SOL     OW 2779   5.904   6.534   6.885
  627SOL    HW1 2780   5.912   6.456   6.947
  627SOL    HW2 2781   5.842   6.602   6.926
  628SOL     OW 2782   5.897   5.559   5.855
  628SOL    HW1 2783   5.958   5.481   5.868
  628SOL    HW2 2784   5.918   5.604   5.768
  629SOL     OW 2785   0.260   0.497   6.453
  629SOL    HW1 2786   0.277   0.404   6.485
  629SOL    HW2 2787   0.206   0.494   6.368
  630SOL     OW 2788   0.888   1.613   1.260
  630SOL    HW1 2789   0.818   1.555   1.217
  630SOL    HW2 2790   0.941   1.658   1.189
  631SOL     OW 2791   4.013   0.172   5.034
  631SOL    HW1 2792   3.915   0.183   5.050
  631SOL    HW2 2793   4.028   0.094   4.973
  632SOL     OW 2794   3.366   1.490   0.841
  632SOL    HW1 2795   3.312   1.433   0.779
  632SOL    HW2 2796   3.461   1.459   0.839
  633SOL     OW 2797   3.423   3.637   6.789
  633SOL    HW1 2798   3.365   3.588   6.724
  633SOL    HW2 2799   3.439   3.730   6.756
  634SOL     OW 2800   3.664   3.502   1.184
  634SOL    HW1 2801   3.594   3.439   1.217
  634SOL    HW2 2802   3.749   3.487   1.235
  635SOL     OW 2803   4.689   5.483   1.701
  635SOL    HW1 2804   4.627   5.539   1.755
  635SOL    HW2 2805   4.714   5.401   1.754
  636SOL     OW 2806   2.874   6.076   0.150
  636SOL    HW1 2807   2.842   6.006   0.088
  636SOL    HW2 2808   2.797   6.110   0.204
  637SOL     OW 2809   0.212   3.180   3.290
  637SOL    HW1 2810   0.169   3.107   3.343
  637SOL    HW2 2811   0.305   3.152   3.265
  638SOL     OW 2812   5.425   2.257   4.361
  638SOL    HW1 2813   5.472   2.249   4.273
  638SOL    HW2 2814   5.437   2.173   4.414
  639SOL     OW 2815   5.035   3.881   3.113
  639SOL    HW1 2816   5.102   3.943   3.071
  639SOL    HW2 2817   5.009   3.811   3.046
  640SOL     OW 2818   0.544   5.466   3.626
  640SOL    HW1 2819   0.537   5.449   3.528
  640SOL    HW2 2820   0.509   5.387   3.676
  641SOL     OW 2821   6.709   5.269   4.468
  641SOL    HW1 2822   6.795   5.228   4.439
  641SOL    HW2 2823   6.711   5.368   4.453
  642SOL     OW 2824   6.635   3.270   4.453
  642SOL    HW1 2825   6.690   3.261   4.370
  642SOL    HW2 2826   6.683   3.328   4.518
  643SOL     OW 2827   5.915   5.425   5.422
  643SOL    HW1 2828   5.941   5.338   5.465
  643SOL    HW2 2829   5.838   5.409   5.359
  644SOL     OW 2830   1.451   6.663   4.318
  644SOL    HW1 2831   1.435   6.761   4.306
  644SOL    HW2 2832   1.408   6.613   4.242
  645SOL     OW 2833   3.661   0.711   4.248
  645SOL    HW1 2834   3.728   0.696   4.320
  645SOL    HW2 2835   3.595   0.636   4.247
  646SOL     OW 2836   3.646   1.241   4.415
  646SOL    HW1 2837   3.610   1.149   4.431
  646SOL    HW2 2838   3.681   1.278   4.501
  647SOL     OW 2839   5.391   1.310   4.777
  647SOL    HW1 2840   5.396   1.409   4.788
  647SOL    HW2 2841   5.301   1.284   4.741
  648SOL     OW 2842   0.693   3.686   4.154
  648SOL    HW1 2843   0.680   3.604   4.211
  648SOL    HW2 2844   0.663   3.666   4.061
  649SOL     OW 2845   2.647   4.184   0.918
  649SOL    HW1 2846   2.658   4.127   1.000
  649SOL    HW2 2847   2.560   4.233   0.924
  650SOL     OW 2848   5.998   4.079   0.294
  650SOL    HW1 2849   6.058   4.001   0.276
  650SOL    HW2 2850   6.053   4.159   0.319
  651SOL     OW 2851   0.154   6.038   6.074
  651SOL    HW1 2852   0.111   6.121   6.038
  651SOL    HW2 2853   0.135   6.030   6.172
  652SOL     OW 2854   4.511   0.201   3.376
  652SOL    HW1 2855   4.466   0.166   3.457
  652SOL    HW2 2856   4.584   0.138   3.348
  653SOL     OW 2857   1.217   5.647   5.744
  653SOL    HW1 2858   1.252   5.696   5.664
  653SOL    HW2 2859   1.273   5.670   5.824
  654SOL     OW 2860   0.594   4.048   6.266
  654SOL    HW1 2861   0.617   4.046   6.363
  654SOL    HW2 2862   0.629   4.133   6.225
  655SOL     OW 2863   0.395   5.885   2.006
  655SOL    HW1 2864   0.345   5.971   2.002
  655SOL    HW2 2865   0.376   5.832   1.923
  656SOL     OW 2866   1.449   5.984   1.539
  656SOL    HW1 2867   1.494   6.025   1.618
  656SOL    HW2 2868   1.518   5.958   1.471
  657SOL     OW 2869   2.287   3.208   1.793
  657SOL    HW1 2870   2.302   3.192   1.695
  657SOL    HW2 2871   2.335   3.292   1.820
  658SOL     OW 2872   2.726   4.198   6.664
  658SOL    HW1 2873   2.714   4.099   6.664
  658SOL    HW2 2874   2.765   4.227   6.751
  659SOL     OW 2875   1.895   5.722   5.924
  659SOL    HW1 2876   1.921   5.633   5.961
  659SOL    HW2 2877   1.951   5.793   5.966
  660SOL     OW 2878   5.632   4.312   2.221
  660SOL    HW1 2879   5.654   4.342   2.313
  660SOL    HW2 2880   5.711   4.266   2.180
  661SOL     OW 2881   4.973   5.066   3.531
  661SOL    HW1 2882   5.042   5.056   3.459
  661SOL    HW2 2883   4.952   5.163   3.544
  662SOL     OW 2884   3.574   0.771   4.915
  662SOL    HW1 2885   3.599   0.816   4.829
  662SOL    HW2 2886   3.635   0.803   4.988
  663SOL     OW 2887   1.926   3.518   6.652
  663SOL    HW1 2888   1.959   3.437   6.604
  663SOL    HW2 2889   1.892   3.492   6.742
  664SOL     OW 2890   0.282   4.926   6.386
  664SOL    HW1 2891   0.353   4.928   6.316
  664SOL    HW2 2892   0.221   5.004   6.375
  665SOL     OW 2893   4.780   4.777   1.440
  665SOL    HW1 2894   4.801   4.680   1.451
  665SOL    HW2 2895   4.787   4.823   1.528
  666SOL     OW 2896   5.133   1.754   2.721
  666SOL    HW1 2897   5.089   1.713   2.642
  666SOL    HW2 2898   5.065   1.805   2.774
  667SOL     OW 2899   6.344   4.509   3.744
  667SOL    HW1 2900   6.425   4.563   3.765
  667SOL    HW2 2901   6.267   4.542   3.799
  668SOL     OW 2902   5.146   6.210   6.318
  668SOL    HW1 2903   5.243   6.219   6.342
  668SOL    HW2 2904   5.138   6.164   6.230
  669SOL     OW 2905   3.790   0.279   4.205
  669SOL    HW1 2906   3.867   0.335   4.236
  669SOL    HW2 2907   3.774   0.295   4.107
  670SOL     OW 2908   3.062   2.871   0.636
  670SOL    HW1 2909   3.028   2.908   0.723
  670SOL    HW2 2910   3.158   2.897   0.625
  671SOL     OW 2911   2.109   6.135   1.207
  671SOL    HW1 2912   2.030   6.122   1.146
  671SOL    HW2 2913   2.114   6.231   1.234
  672SOL     OW 2914   1.116   5.371   1.813
  672SOL    HW1 2915   1.041   5.356   1.878
  672SOL    HW2 2916   1.163   5.285   1.796
  673SOL     OW 2917   0.491   0.497   1.427
  673SOL    HW1 2918   0.540   0.545   1.500
  673SOL    HW2 2919   0.396   0.528   1.425
  674SOL     OW 2920   0.466   2.692   5.339
  674SOL    HW1 2921   0.532   2.711   5.266
  674SOL    HW2 2922   0.402   2.621   5.309
  675SOL     OW 2923   0.118   0.836   3.771
  675SOL    HW1 2924   0.207   0.849   3.816
  675SOL    HW2 2925   0.091   0.920   3.725
  676SOL     OW 2926   3.909   6.058   3.001
  676SOL    HW1 2927   3.966   5.980   2.973
  676SOL    HW2 2928   3.835   6.025   3.060
  677SOL     OW 2929   6.562   1.787   0.140
  677SOL    HW1 2930   6.608   1.705   0.173
  677SOL    HW2 2931   6.626   1.864   0.141
  678SOL     OW 2932   2.082   1.387   5.386
  678SOL    HW1 2933   2.084   1.324   5.309
  678SOL    HW2 2934   2.175   1.419   5.405
  679SOL     OW 2935   4.655   1.935   4.282
  679SOL    HW1 2936   4.753   1.954   4.276
  679SOL    HW2 2937   4.637   1.877   4.361
  680SOL     OW 2938   5.539   5.183   5.298
  680SOL    HW1 2939   5.449   5.140   5.314
  680SOL    HW2 2940   5.587   5.133   5.226
  681SOL     OW 2941   5.377   5.136   1.781
  681SOL    HW1 2942   5.411   5.228   1.763
  681SOL    HW2 2943   5.451   5.070   1.768
  682SOL     OW 2944   1.201   0.887   0.747
  682SOL    HW1 2945   1.134   0.950   0.785
  682SOL    HW2 2946   1.202   0.895   0.647
  683SOL     OW 2947   3.840   3.941   0.353
  683SOL    HW1 2948   3.904   3.986   0.415
  683SOL    HW2 2949   3.855   3.842   0.354
  684SOL     OW 2950   0.154   1.035   6.838
  684SOL    HW1 2951   0.169   1.116   6.895
  684SOL    HW2 2952   0.058   1.029   6.813
  685SOL     OW 2953   4.676   0.907   4.446
  685SOL    HW1 2954   4.656   0.847   4.368
  685SOL    HW2 2955   4.631   0.996   4.432
  686SOL     OW 2956   5.287   2.379   3.843
  686SOL    HW1 2957   5.248   2.314   3.908
  686SOL    HW2 2958   5.346   2.444   3.892
  687SOL     OW 2959   0.718   2.099   4.583
  687SOL    HW1 2960   0.785   2.172   4.568
  687SOL    HW2 2961   0.745   2.018   4.532
  688SOL     OW 2962   1.083   2.079   0.436
  688SOL    HW1 2963   1.128   2.075   0.525
  688SOL    HW2 2964   1.062   1.987   0.405
  689SOL     OW 2965   6.675   3.754   6.408
  689SOL    HW1 2966   6.686   3.755   6.507
  689SOL    HW2 2967   6.631   3.668   6.380
  690SOL     OW 2968   0.434   4.550   2.744
  690SOL    HW1 2969   0.412   4.546   2.646
  690SOL    HW2 2970   0.351   4.573   2.795
  691SOL     OW 2971   2.572   6.828   6.748
  691SOL    HW1 2972   2.587   6.913   6.798
  691SOL    HW2 2973   2.474   6.813   6.736
  692SOL     OW 2974   2.840   6.577   3.603
  692SOL    HW1 2975   2.838   6.557   3.505
  692SOL    HW2 2976   2.935   6.574   3.635
  693SOL     OW 2977   6.196   0.974   2.929
  693SOL    HW1 2978   6.132   0.972   3.006
  693SOL    HW2 2979   6.216   1.069   2.904
  694SOL     OW 2980   3.818   5.577   2.810
  694SOL    HW1 2981   3.885   5.504   2.797
  694SOL    HW2 2982   3.821   5.640   2.732
  695SOL     OW 2983   4.183   6.202   3.993
  695SOL    HW1 2984   4.110   6.187   4.060
  695SOL    HW2 2985   4.159   6.280   3.935
  696SOL     OW 2986   3.992   4.804   2.280
  696SOL    HW1 2987   4.035   4.733   2.224
  696SOL    HW2 2988   3.901   4.823   2.245
  697SOL     OW 2989   2.076   3.441   3.378
  697SOL    HW1 2990   2.110   3.360   3.426
  697SOL    HW2 2991   2.071   3.518   3.441
  698SOL     OW 2992   5.459   6.558   7.015
  698SOL    HW1 2993   5.397   6.567   6.937
  698SOL    HW2 2994   5.488   6.463   0.005
  699SOL     OW 2995   2.013   3.160   6.266
  699SOL    HW1 2996   2.024   3.250   6.223
  699SOL    HW2 2997   2.070   3.094   6.218
  700SOL     OW 2998   2.764   1.620   2.784
  700SOL    HW1 2999   2.716   1.705   2.760
  700SOL    HW2 3000   2.808   1.582   2.703
  701SOL     OW 3001   6.506   3.563   5.548
  701SOL    HW1 3002   6.411   3.592   5.538
  701SOL    HW2 3003   6.559   3.637   5.588
  702SOL     OW 3004   0.688   5.674   5.239
  702SOL    HW1 3005   0.783   5.659   5.211
  702SOL    HW2 3006   0.670   5.620   5.322
  703SOL     OW 3007   3.573   3.984   6.141
  703SOL    HW1 3008   3.595   3.914   6.208
  703SOL    HW2 3009   3.653   4.002   6.083
  704SOL     OW 3010   1.713   1.678   0.026
  704SOL    HW1 3011   1.685   1.643   0.115
  704SOL    HW2 3012   1.812   1.671   0.017
  705SOL     OW 3013   6.055   5.978   2.608
  705SOL    HW1 3014   6.026   5.950   2.700
  705SOL    HW2 3015   5.998   6.054   2.577
  706SOL     OW 3016   4.771   2.855   4.335
  706SOL    HW1 3017   4.722   2.849   4.248
  706SOL    HW2 3018   4.750   2.942   4.380
  707SOL     OW 3019   4.693   5.687   2.814
  707SOL    HW1 3020   4.750   5.743   2.874
  707SOL    HW2 3021   4.643   5.620   2.868
  708SOL     OW 3022   4.662   6.505   1.461
  708SOL    HW1 3023   4.592   6.545   1.521
  708SOL    HW2 3024   4.752   6.516   1.502
  709SOL     OW 3025   0.909   5.605   0.933
  709SOL    HW1 3026   0.944   5.519   0.896
  709SOL    HW2 3027   0.880   5.590   1.028
  710SOL     OW 3028   3.915   3.381   2.542
  710SOL    HW1 3029   3.995   3.346   2.592
  710SOL    HW2 3030   3.839   3.318   2.553
  711SOL     OW 3031   6.653   3.356   5.675
  711SOL    HW1 3032   6.595   3.411   5.614
  711SOL    HW2 3033   6.748   3.383   5.665
  712SOL     OW 3034   3.994   3.197   1.196
  712SOL    HW1 3035   4.049   3.247   1.262
  712SOL    HW2 3036   3.960   3.261   1.127
  713SOL     OW 3037   4.352   2.532   5.715
  713SOL    HW1 3038   4.336   2.627   5.744
  713SOL    HW2 3039   4.364   2.529   5.616
  714SOL     OW 3040   6.138   4.599   3.493
  714SOL    HW1 3041   6.194   4.516   3.496
  714SOL    HW2 3042   6.052   4.583   3.541
  715SOL     OW 3043   5.789   5.839   0.332
  715SOL    HW1 3044   5.754   5.761   0.384
  715SOL    HW2 3045   5.886   5.823   0.311
  716SOL     OW 3046   0.519   0.813   1.842
  716SOL    HW1 3047   0.540   0.724   1.883
  716SOL    HW2 3048   0.578   0.883   1.882
  717SOL     OW 3049   6.416   4.513   5.810
  717SOL    HW1 3050   6.369   4.564   5.739
  717SOL    HW2 3051   6.360   4.434   5.837
  718SOL     OW 3052   5.436   2.794   5.809
  718SOL    HW1 3053   5.342   2.771   5.834
  718SOL    HW2 3054   5.498   2.723   5.842
  719SOL     OW 3055   6.059   0.697   1.451
  719SOL    HW1 3056   6.044   0.776   1.392
  719SOL    HW2 3057   5.973   0.671   1.495
  720SOL     OW 3058   3.438   0.514   5.749
  720SOL    HW1 3059   3.355   0.563   5.726
  720SOL    HW2 3060   3.442   0.428   5.698
  721SOL     OW 3061   2.510   2.031   3.814
  721SOL    HW1 3062   2.585   1.990   3.762
  721SOL    HW2 3063   2.542   2.054   3.906
  722SOL     OW 3064   2.727   0.514   5.467
  722SOL    HW1 3065   2.742   0.436   5.528
  722SOL    HW2 3066   2.803   0.579   5.477
  723SOL     OW 3067   2.034   4.626   2.986
  723SOL    HW1 3068   2.082   4.550   2.941
  723SOL    HW2 3069   2.022   4.605   3.083
  724SOL     OW 3070   1.021   2.954   4.301
  724SOL    HW1 3071   1.103   2.914   4.260
  724SOL    HW2 3072   1.011   3.049   4.271
  725SOL     OW 3073   2.394   5.737   0.854
  725SOL    HW1 3074   2.449   5.808   0.810
  725SOL    HW2 3075   2.305   5.731   0.809
  726SOL     OW 3076   3.662   5.354   1.157
  726SOL    HW1 3077   3.753   5.320   1.180
  726SOL    HW2 3078   3.595   5.312   1.218
  727SOL     OW 3079   5.435   4.380   5.175
  727SOL    HW1 3080   5.385   4.456   5.216
  727SOL    HW2 3081   5.497   4.341   5.243
  728SOL     OW 3082   6.704   2.803   5.006
  728SOL    HW1 3083   6.680   2.863   4.930
  728SOL    HW2 3084   6.733   2.858   5.085
  729SOL     OW 3085   1.302   2.014   1.130
  729SOL    HW1 3086   1.251   1.946   1.184
  729SOL    HW2 3087   1.374   2.053   1.187
  730SOL     OW 3088   5.459   0.401   4.483
  730SOL    HW1 3089   5.396   0.377   4.557
  730SOL    HW2 3090   5.554   0.393   4.516
  731SOL     OW 3091   5.154   4.547   6.111
  731SOL    HW1 3092   5.148   4.584   6.203
  731SOL    HW2 3093   5.074   4.490   6.092
  732SOL     OW 3094   6.936   2.606   1.506
  732SOL    HW1 3095   6.864   2.651   1.559
  732SOL    HW2 3096   6.994   2.675   1.464
  733SOL     OW 3097   5.323   5.937   5.237
  733SOL    HW1 3098   5.397   5.907   5.298
  733SOL    HW2 3099   5.268   5.858   5.211
  734SOL     OW 3100   0.168   5.162   2.776
  734SOL    HW1 3101   0.140   5.068   2.760
  734SOL    HW2 3102   0.169   5.181   2.874
  735SOL     OW 3103   4.172   1.916   0.437
  735SOL    HW1 3104   4.240   1.872   0.495
  735SOL    HW2 3105   4.192   1.894   0.341
  736SOL     OW 3106   0.215   1.214   3.894
  736SOL    HW1 3107   0.236   1.167   3.808
  736SOL    HW2 3108   0.207   1.146   3.968
  737SOL     OW 3109   4.859   1.886   5.489
  737SOL    HW1 3110   4.952   1.921   5.503
  737SOL    HW2 3111   4.816   1.937   5.415
  738SOL     OW 3112   2.267   4.188   1.177
  738SOL    HW1 3113   2.202   4.264   1.176
  738SOL    HW2 3114   2.235   4.117   1.239
  739SOL     OW 3115   4.436   6.946   3.956
  739SOL    HW1 3116   4.422   0.007   4.014
  739SOL    HW2 3117   4.438   6.975   3.860
  740SOL     OW 3118   6.362   0.525   1.151
  740SOL    HW1 3119   6.283   0.498   1.206
  740SOL    HW2 3120   6.363   0.473   1.065
  741SOL     OW 3121   2.112   6.355   3.361
  741SOL    HW1 3122   2.199   6.403   3.376
  741SOL    HW2 3123   2.061   6.400   3.288
  742SOL     OW 3124   2.932   6.784   2.725
  742SOL    HW1 3125   2.876   6.704   2.745
  742SOL    HW2 3126   2.995   6.800   2.800
  743SOL     OW 3127   0.051   4.947   3.228
  743SOL    HW1 3128   0.142   4.937   3.188
  743SOL    HW2 3129   0.040   4.881   3.302
  744SOL     OW 3130   5.696   0.676   6.928
  744SOL    HW1 3131   5.602   0.674   6.894
  744SOL    HW2 3132   5.747   0.748   6.881
  745SOL     OW 3133   1.407   4.759   4.402
  745SOL    HW1 3134   1.484   4.695   4.412
  745SOL    HW2 3135   1.404   4.819   4.481
  746SOL     OW 3136   0.094   4.116   6.586
  746SOL    HW1 3137   0.116   4.018   6.577
  746SOL    HW2 3138   0.083   4.138   6.683
  747SOL     OW 3139   3.419   6.432   4.494
  747SOL    HW1 3140   3.427   6.351   4.436
  747SOL    HW2 3141   3.404   6.513   4.437
  748SOL     OW 3142   3.882   5.154   2.040
  748SOL    HW1 3143   3.883   5.171   1.942
  748SOL    HW2 3144   3.817   5.080   2.060
  749SOL     OW 3145   6.100   4.196   5.008
  749SOL    HW1 3146   6.036   4.173   5.082
  749SOL    HW2 3147   6.136   4.111   4.968
  750SOL     OW 3148   1.586   2.066   1.294
  750SOL    HW1 3149   1.549   2.145   1.342
  750SOL    HW2 3150   1.625   2.002   1.361
  751SOL     OW 3151   3.852   2.012   0.099
  751SOL    HW1 3152   3.895   1.983   0.184
  751SOL    HW2 3153   3.804   2.099   0.114
  752SOL     OW 3154   3.259   1.220   1.810
  752SOL    HW1 3155   3.300   1.165   1.883
  752SOL    HW2 3156   3.266   1.317   1.833
  753SOL     OW 3157   2.375   2.977   5.465
  753SOL    HW1 3158   2.312   2.899   5.456
  753SOL    HW2 3159   2.406   3.005   5.375
  754SOL     OW 3160   5.336   2.866   5.333
  754SOL    HW1 3161   5.258   2.854   5.272
  754SOL    HW2 3162   5.309   2.845   5.427
  755SOL     OW 3163   1.879   4.771   5.927
  755SOL    HW1 3164   1.911   4.722   5.846
  755SOL    HW2 3165   1.818   4.845   5.899
  756SOL     OW 3166   3.008   6.793   6.429
  756SOL    HW1 3167   2.916   6.803   6.465
  756SOL    HW2 3168   3.063   6.872   6.457
  757SOL     OW 3169   0.408   0.639   3.987
  757SOL    HW1 3170   0.387   0.721   4.039
  757SOL    HW2 3171   0.447   0.570   4.048
  758SOL     OW 3172   3.288   0.493   1.982
  758SOL    HW1 3173   3.204   0.446   2.010
  758SOL    HW2 3174   3.268   0.552   1.903
  759SOL     OW 3175   0.163   1.409   1.386
  759SOL    HW1 3176   0.261   1.431   1.385
  759SOL    HW2 3177   0.113   1.482   1.433
  760SOL     OW 3178   5.487   6.894   5.281
  760SOL    HW1 3179   5.469   6.799   5.252
  760SOL    HW2 3180   5.579   6.921   5.249
  761SOL     OW 3181   5.169   3.756   5.931
  761SOL    HW1 3182   5.132   3.719   6.016
  761SOL    HW2 3183   5.109   3.731   5.855
  762SOL     OW 3184   2.412   0.527   4.857
  762SOL    HW1 3185   2.408   0.429   4.840
  762SOL    HW2 3186   2.409   0.576   4.770
  763SOL     OW 3187   4.107   5.269   6.640
  763SOL    HW1 3188   4.163   5.297   6.562
  763SOL    HW2 3189   4.113   5.170   6.652
  764SOL     OW 3190   4.665   0.945   4.821
  764SOL    HW1 3191   4.716   0.886   4.883
  764SOL    HW2 3192   4.727   1.012   4.780
  765SOL     OW 3193   1.678   6.070   1.708
  765SOL    HW1 3194   1.708   6.160   1.678
  765SOL    HW2 3195   1.708   6.054   1.802
  766SOL     OW 3196   2.490   3.147   5.730
  766SOL    HW1 3197   2.519   3.239   5.759
  766SOL    HW2 3198   2.550   3.115   5.657
  767SOL     OW 3199   6.293   5.200   1.515
  767SOL    HW1 3200   6.232   5.251   1.576
  767SOL    HW2 3201   6.251   5.113   1.491
  768SOL     OW 3202   2.405   6.806   2.449
  768SOL    HW1 3203   2.316   6.852   2.440
  768SOL    HW2 3204   2.478   6.874   2.443
  769SOL     OW 3205   2.996   0.810   5.133
  769SOL    HW1 3206   3.041   0.732   5.176
  769SOL    HW2 3207   3.027   0.820   5.039
  770SOL     OW 3208   2.070   4.911   2.947
  770SOL    HW1 3209   2.167   4.903   2.925
  770SOL    HW2 3210   2.031   4.819   2.960
  771SOL     OW 3211   1.503   5.697   2.641
  771SOL    HW1 3212   1.486   5.603   2.669
  771SOL    HW2 3213   1.417   5.749   2.644
  772SOL     OW 3214   5.741   6.103   0.003
  772SOL    HW1 3215   5.837   6.092   6.996
  772SOL    HW2 3216   5.702   6.013   0.025
  773SOL     OW 3217   6.913   4.138   4.238
  773SOL    HW1 3218   7.011   4.128   4.254
  773SOL    HW2 3219   6.897   4.209   4.169
  774SOL     OW 3220   1.759   1.690   1.450
  774SOL    HW1 3221   1.709   1.689   1.537
  774SOL    HW2 3222   1.707   1.638   1.382
  775SOL     OW 3223   0.988   2.533   3.860
  775SOL    HW1 3224   1.043   2.464   3.813
  775SOL    HW2 3225   1.003   2.622   3.816
  776SOL     OW 3226   1.422   6.814   6.376
  776SOL    HW1 3227   1.374   6.901   6.386
  776SOL    HW2 3228   1.514   6.830   6.341
  777SOL     OW 3229   2.244   4.617   1.682
  777SOL    HW1 3230   2.253   4.613   1.582
  777SOL    HW2 3231   2.285   4.536   1.723
  778SOL     OW 3232   2.218   1.495   2.132
  778SOL    HW1 3233   2.282   1.463   2.201
  778SOL    HW2 3234   2.228   1.594   2.120
  779SOL     OW 3235   6.599   2.677   2.075
  779SOL    HW1 3236   6.539   2.727   2.011
  779SOL    HW2 3237   6.682   2.649   2.027
  780SOL     OW 3238   0.081   4.059   3.852
  780SOL    HW1 3239   0.059   4.086   3.759
  780SOL    HW2 3240   0.171   4.015   3.854
  781SOL     OW 3241   6.353   6.930   6.722
  781SOL    HW1 3242   6.291   7.003   6.693
  781SOL    HW2 3243   6.353   6.858   6.653
  782SOL     OW 3244   2.001   4.113   6.271
  782SOL    HW1 3245   2.051   4.035   6.234
  782SOL    HW2 3246   1.933   4.143   6.205
  783SOL     OW 3247   4.772   4.915   1.660
  783SOL    HW1 3248   4.831   4.995   1.669
  783SOL    HW2 3249   4.686   4.932   1.710
  784SOL     OW 3250   4.869   4.807   0.767
  784SOL    HW1 3251   4.922   4.872   0.714
  784SOL    HW2 3252   4.776   4.802   0.730
  785SOL     OW 3253   0.391   2.726   3.574
  785SOL    HW1 3254   0.415   2.650   3.633
  785SOL    HW2 3255   0.397   2.697   3.478
  786SOL     OW 3256   1.298   1.029   2.740
  786SOL    HW1 3257   1.397   1.026   2.751
  786SOL    HW2 3258   1.263   1.118   2.770
  787SOL     OW 3259   2.294   0.564   0.238
  787SOL    HW1 3260   2.239   0.487   0.268
  787SOL    HW2 3261   2.361   0.533   0.171
  788SOL     OW 3262   3.501   2.600   6.479
  788SOL    HW1 3263   3.530   2.537   6.407
  788SOL    HW2 3264   3.434   2.664   6.443
  789SOL     OW 3265   5.122   3.755   0.304
  789SOL    HW1 3266   5.108   3.764   0.402
  789SOL    HW2 3267   5.042   3.791   0.255
  790SOL     OW 3268   2.602   1.413   3.622
  790SOL    HW1 3269   2.616   1.446   3.715
  790SOL    HW2 3270   2.691   1.401   3.577
  791SOL     OW 3271   2.211   5.879   3.909
  791SOL    HW1 3272   2.285   5.844   3.966
  791SOL    HW2 3273   2.230   5.857   3.813
  792SOL     OW 3274   1.117   0.528   0.951
  792SOL    HW1 3275   1.046   0.564   0.890
  792SOL    HW2 3276   1.073   0.480   1.027
  793SOL     OW 3277   4.684   5.017   3.559
  793SOL    HW1 3278   4.780   5.043   3.554
  793SOL    HW2 3279   4.636   5.048   3.477
  794SOL     OW 3280   3.697   3.913   5.805
  794SOL    HW1 3281   3.768   3.852   5.772
  794SOL    HW2 3282   3.609   3.888   5.763
  795SOL     OW 3283   3.066   6.684   4.389
  795SOL    HW1 3284   2.970   6.669   4.365
  795SOL    HW2 3285   3.116   6.716   4.308
  796SOL     OW 3286   6.765   2.294   6.318
  796SOL    HW1 3287   6.821   2.211   6.306
  796SOL    HW2 3288   6.818   2.363   6.367
  797SOL     OW 3289   5.394   2.697   0.710
  797SOL    HW1 3290   5.463   2.625   0.718
  797SOL    HW2 3291   5.388   2.746   0.797
  798SOL     OW 3292   3.748   6.418   2.234
  798SOL    HW1 3293   3.814   6.484   2.198
  798SOL    HW2 3294   3.691   6.463   2.303
  799SOL     OW 3295   0.588   6.542   5.449
  799SOL    HW1 3296   0.497   6.558   5.487
  799SOL    HW2 3297   0.638   6.629   5.445
  800SOL     OW 3298   5.210   2.198   2.962
  800SOL    HW1 3299   5.271   2.250   2.902
  800SOL    HW2 3300   5.150   2.140   2.907
  801SOL     OW 3301   1.581   3.821   4.411
  801SOL    HW1 3302   1.562   3.749   4.344
  801SOL    HW2 3303   1.650   3.883   4.375
  802SOL     OW 3304   3.748   2.084   0.893
  802SOL    HW1 3305   3.799   2.078   0.978
  802SOL    HW2 3306   3.811   2.080   0.816
  803SOL     OW 3307   0.358   6.599   5.564
  803SOL    HW1 3308   0.403   6.543   5.633
  803SOL    HW2 3309   0.260   6.585   5.568
  804SOL     OW 3310   5.569   5.608   6.351
  804SOL    HW1 3311   5.577   5.514   6.383
  804SOL    HW2 3312   5.516   5.611   6.267
  805SOL     OW 3313   3.185   0.118   4.334
  805SOL    HW1 3314   3.285   0.122   4.321
  805SOL    HW2 3315   3.141   0.113   4.245
  806SOL     OW 3316   4.964   1.395   4.322
  806SOL    HW1 3317   5.004   1.349   4.401
  806SOL    HW2 3318   5.029   1.463   4.286
  807SOL     OW 3319   1.465   0.801   5.246
  807SOL    HW1 3320   1.401   0.832   5.317
  807SOL    HW2 3321   1.548   0.856   5.249
  808SOL     OW 3322   4.009   3.782   6.302
  808SOL    HW1 3323   4.085   3.785   6.238
  808SOL    HW2 3324   3.932   3.835   6.266
  809SOL     OW 3325   0.369   4.766   1.065
  809SOL    HW1 3326   0.287   4.817   1.038
  809SOL    HW2 3327   0.415   4.732   0.983
  810SOL     OW 3328   3.763   3.646   0.962
  810SOL    HW1 3329   3.753   3.744   0.976
  810SOL    HW2 3330   3.717   3.597   1.036
  811SOL     OW 3331   4.683   5.354   5.225
  811SOL    HW1 3332   4.729   5.432   5.269
  811SOL    HW2 3333   4.748   5.279   5.214
  812SOL     OW 3334   0.441   0.920   2.405
  812SOL    HW1 3335   0.501   0.953   2.477
  812SOL    HW2 3336   0.479   0.837   2.364
  813SOL     OW 3337   3.843   6.812   4.277
  813SOL    HW1 3338   3.838   6.713   4.286
  813SOL    HW2 3339   3.847   6.853   4.369
  814SOL     OW 3340   6.196   6.223   2.132
  814SOL    HW1 3341   6.209   6.245   2.229
  814SOL    HW2 3342   6.155   6.132   2.124
  815SOL     OW 3343   0.434   3.660   3.206
  815SOL    HW1 3344   0.354   3.603   3.185
  815SOL    HW2 3345   0.420   3.752   3.172
  816SOL     OW 3346   6.215   6.697   6.909
  816SOL    HW1 3347   6.213   6.771   6.842
  816SOL    HW2 3348   6.122   6.667   6.930
  817SOL     OW 3349   1.650   4.488   0.798
  817SOL    HW1 3350   1.667   4.427   0.720
  817SOL    HW2 3351   1.584   4.558   0.771
  818SOL     OW 3352   6.413   2.889   2.536
  818SOL    HW1 3353   6.396   2.790   2.541
  818SOL    HW2 3354   6.384   2.923   2.447
  819SOL     OW 3355   5.413   2.362   2.541
  819SOL    HW1 3356   5.376   2.447   2.503
  819SOL    HW2 3357   5.385   2.285   2.484
  820SOL     OW 3358   3.385   1.995   5.446
  820SOL    HW1 3359   3.323   1.927   5.407
  820SOL    HW2 3360   3.401   2.068   5.380
  821SOL     OW 3361   1.083   4.403   1.181
  821SOL    HW1 3362   1.083   4.501   1.202
  821SOL    HW2 3363   1.087   4.350   1.266
  822SOL     OW 3364   1.209   4.856   3.665
  822SOL    HW1 3365   1.246   4.772   3.703
  822SOL    HW2 3366   1.223   4.931   3.729
  823SOL     OW 3367   4.867   3.625   6.291
  823SOL    HW1 3368   4.954   3.659   6.255
  823SOL    HW2 3369   4.793   3.682   6.257
  824SOL     OW 3370   5.542   1.170   6.075
  824SOL    HW1 3371   5.493   1.157   5.989
  824SOL    HW2 3372   5.480   1.205   6.144
  825SOL     OW 3373   6.948   4.577   1.381
  825SOL    HW1 3374   7.007   4.581   1.301
  825SOL    HW2 3375   6.853   4.565   1.352
  826SOL     OW 3376   4.372   3.110   5.617
  826SOL    HW1 3377   4.357   3.180   5.547
  826SOL    HW2 3378   4.385   3.021   5.574
  827SOL     OW 3379   2.903   4.669   5.432
  827SOL    HW1 3380   2.895   4.757   5.384
  827SOL    HW2 3381   2.893   4.594   5.366
  828SOL     OW 3382   5.617   6.611   6.740
  828SOL    HW1 3383   5.576   6.552   6.810
  828SOL    HW2 3384   5.716   6.599   6.741
  829SOL     OW 3385   3.790   4.050   2.976
  829SOL    HW1 3386   3.843   4.100   3.045
  829SOL    HW2 3387   3.693   4.056   2.998
  830SOL     OW 3388   4.875   5.133   6.597
  830SOL    HW1 3389   4.812   5.062   6.627
  830SOL    HW2 3390   4.844   5.172   6.510
  831SOL     OW 3391   6.138   0.283   0.130
  831SOL    HW1 3392   6.121   0.379   0.149
  831SOL    HW2 3393   6.087   0.226   0.194
  832SOL     OW 3394   3.262   0.683   1.775
  832SOL    HW1 3395   3.345   0.682   1.720
  832SOL    HW2 3396   3.243   0.776   1.807
  833SOL     OW 3397   1.391   3.798   5.880
  833SOL    HW1 3398   1.314   3.859   5.859
  833SOL    HW2 3399   1.465   3.852   5.921
  834SOL     OW 3400   3.842   3.667   0.374
  834SOL    HW1 3401   3.896   3.587   0.401
  834SOL    HW2 3402   3.768   3.638   0.313
  835SOL     OW 3403   3.684   0.202   5.785
  835SOL    HW1 3404   3.665   0.280   5.846
  835SOL    HW2 3405   3.769   0.219   5.735
  836SOL     OW 3406   3.838   5.897   5.987
  836SOL    HW1 3407   3.833   5.945   6.075
  836SOL    HW2 3408   3.872   5.804   6.002
  837SOL     OW 3409   5.390   0.153   0.581
  837SOL    HW1 3410   5.353   0.145   0.674
  837SOL    HW2 3411   5.346   0.229   0.534
  838SOL     OW 3412   2.733   0.770   4.627
  838SOL    HW1 3413   2.693   0.852   4.670
  838SOL    HW2 3414   2.782   0.717   4.696
  839SOL     OW 3415   1.167   2.499   2.274
  839SOL    HW1 3416   1.244   2.562   2.271
  839SOL    HW2 3417   1.130   2.487   2.182
  840SOL     OW 3418   6.415   5.479   0.446
  840SOL    HW1 3419   6.387   5.531   0.365
  840SOL    HW2 3420   6.490   5.528   0.492
  841SOL     OW 3421   3.958   4.864   6.974
  841SOL    HW1 3422   3.939   4.813   6.889
  841SOL    HW2 3423   4.005   4.803   0.019
  842SOL     OW 3424   4.303   0.136   4.804
  842SOL    HW1 3425   4.285   0.220   4.752
  842SOL    HW2 3426   4.217   0.087   4.818
  843SOL     OW 3427   0.748   1.238   0.808
  843SOL    HW1 3428   0.758   1.222   0.906
  843SOL    HW2 3429   0.700   1.324   0.793
  844SOL     OW 3430   5.511   0.720   0.179
  844SOL    HW1 3431   5.458   0.737   0.262
  844SOL    HW2 3432   5.599   0.680   0.204
  845SOL     OW 3433   5.241   4.581   5.216
  845SOL    HW1 3434   5.256   4.678   5.196
  845SOL    HW2 3435   5.160   4.571   5.273
  846SOL     OW 3436   2.041   1.760   6.080
  846SOL    HW1 3437   2.090   1.749   6.167
  846SOL    HW2 3438   2.106   1.784   6.008
  847SOL     OW 3439   1.156   3.113   1.532
  847SOL    HW1 3440   1.137   3.139   1.437
  847SOL    HW2 3441   1.092   3.159   1.593
  848SOL     OW 3442   6.318   0.298   5.529
  848SOL    HW1 3443   6.413   0.291   5.499
  848SOL    HW2 3444   6.299   0.225   5.595
  849SOL     OW 3445   6.936   3.404   5.775
  849SOL    HW1 3446   7.013   3.433   5.718
  849SOL    HW2 3447   6.942   3.306   5.792
  850SOL     OW 3448   4.955   0.584   3.138
  850SOL    HW1 3449   5.044   0.556   3.103
  850SOL    HW2 3450   4.887   0.514   3.114
  851SOL     OW 3451   6.900   1.723   2.711
  851SOL    HW1 3452   6.827   1.759   2.770
  851SOL    HW2 3453   6.952   1.653   2.760
  852SOL     OW 3454   1.177   3.203   6.784
  852SOL    HW1 3455   1.083   3.180   6.808
  852SOL    HW2 3456   1.179   3.289   6.733
  853SOL     OW 3457   1.693   4.250   1.504
  853SOL    HW1 3458   1.654   4.328   1.456
  853SOL    HW2 3459   1.627   4.214   1.569
  854SOL     OW 3460   5.365   5.710   1.196
  854SOL    HW1 3461   5.310   5.649   1.140
  854SOL    HW2 3462   5.461   5.700   1.172
  855SOL     OW 3463   0.013   6.758   1.877
  855SOL    HW1 3464   0.011   6.800   1.968
  855SOL    HW2 3465   6.960   6.797   1.820
  856SOL     OW 3466   0.773   2.449   5.098
  856SOL    HW1 3467   0.723   2.442   5.011
  856SOL    HW2 3468   0.870   2.432   5.082
  857SOL     OW 3469   5.700   4.058   1.871
  857SOL    HW1 3470   5.789   4.101   1.890
  857SOL    HW2 3471   5.637   4.128   1.838
  858SOL     OW 3472   2.705   3.522   1.069
  858SOL    HW1 3473   2.766   3.542   0.993
  858SOL    HW2 3474   2.621   3.576   1.059
  859SOL     OW 3475   6.325   5.653   4.953
  859SOL    HW1 3476   6.235   5.609   4.948
  859SOL    HW2 3477   6.352   5.685   4.862
  860SOL     OW 3478   5.398   3.121   0.627
  860SOL    HW1 3479   5.312   3.151   0.669
  860SOL    HW2 3480   5.393   3.023   0.608
  861SOL     OW 3481   2.629   5.612   3.451
  861SOL    HW1 3482   2.699   5.639   3.518
  861SOL    HW2 3483   2.672   5.601   3.361
  862SOL     OW 3484   1.213   3.796   5.152
  862SOL    HW1 3485   1.194   3.867   5.085
  862SOL    HW2 3486   1.299   3.817   5.200
  863SOL     OW 3487   5.794   1.168   0.776
  863SOL    HW1 3488   5.887   1.194   0.801
  863SOL    HW2 3489   5.734   1.248   0.781
  864SOL     OW 3490   4.224   5.403   4.032
  864SOL    HW1 3491   4.200   5.430   3.939
  864SOL    HW2 3492   4.313   5.359   4.032
  865SOL     OW 3493   0.957   6.364   5.808
  865SOL    HW1 3494   0.884   6.409   5.757
  865SOL    HW2 3495   0.986   6.282   5.759
  866SOL     OW 3496   1.904   2.336   1.978
  866SOL    HW1 3497   1.990   2.343   1.927
  866SOL    HW2 3498   1.924   2.321   2.075
  867SOL     OW 3499   4.012   3.802   0.627
  867SOL    HW1 3500   4.110   3.788   0.615
  867SOL    HW2 3501   3.962   3.728   0.582
  868SOL     OW 3502   6.048   1.332   1.004
  868SOL    HW1 3503   6.139   1.291   0.999
  868SOL    HW2 3504   6.022   1.365   0.913
  869SOL     OW 3505   0.433   4.659   3.145
  869SOL    HW1 3506   0.404   4.595   3.217
  869SOL    HW2 3507   0.524   4.632   3.111
  870SOL     OW 3508   4.515   3.117   0.801
  870SOL    HW1 3509   4.477   3.173   0.728
  870SOL    HW2 3510   4.560   3.037   0.762
  871SOL     OW 3511   4.475   2.420   3.141
  871SOL    HW1 3512   4.499   2.398   3.046
  871SOL    HW2 3513   4.387   2.379   3.163
  872SOL     OW 3514   5.678   2.890   3.919
  872SOL    HW1 3515   5.714   2.857   3.831
  872SOL    HW2 3516   5.583   2.861   3.929
  873SOL     OW 3517   5.593   6.849   4.228
  873SOL    HW1 3518   5.496   6.871   4.234
  873SOL    HW2 3519   5.605   6.764   4.176
  874SOL     OW 3520   0.980   4.433   6.124
  874SOL    HW1 3521   1.031   4.350   6.145
  874SOL    HW2 3522   0.965   4.440   6.025
  875SOL     OW 3523   3.737   3.366   0.569
  875SOL    HW1 3524   3.654   3.380   0.515
  875SOL    HW2 3525   3.804   3.315   0.516
  876SOL     OW 3526   0.533   4.377   2.388
  876SOL    HW1 3527   0.500   4.283   2.385
  876SOL    HW2 3528   0.589   4.390   2.470
  877SOL     OW 3529   3.869   4.242   6.141
  877SOL    HW1 3530   3.905   4.257   6.049
  877SOL    HW2 3531   3.774   4.274   6.145
  878SOL     OW 3532   3.706   6.053   5.410
  878SOL    HW1 3533   3.639   6.097   5.350
  878SOL    HW2 3534   3.789   6.032   5.358
  879SOL     OW 3535   4.028   2.297   0.875
  879SOL    HW1 3536   4.122   2.301   0.843
  879SOL    HW2 3537   3.969   2.262   0.803
  880SOL     OW 3538   3.325   4.083   4.440
  880SOL    HW1 3539   3.359   4.105   4.531
  880SOL    HW2 3540   3.233   4.043   4.447
  881SOL     OW 3541   4.864   4.130   4.719
  881SOL    HW1 3542   4.892   4.038   4.745
  881SOL    HW2 3543   4.889   4.194   4.792
  882SOL     OW 3544   0.888   2.699   4.329
  882SOL    HW1 3545   0.926   2.780   4.285
  882SOL    HW2 3546   0.789   2.697   4.316
  883SOL     OW 3547   4.635   6.516   6.932
  883SOL    HW1 3548   4.574   6.455   6.882
  883SOL    HW2 3549   4.596   6.608   6.936
  884SOL     OW 3550   0.027   4.344   0.223
  884SOL    HW1 3551   6.998   4.266   0.263
  884SOL    HW2 3552   0.108   4.312   0.174
  885SOL     OW 3553   4.678   6.001   6.365
  885SOL    HW1 3554   4.686   5.921   6.305
  885SOL    HW2 3555   4.618   5.978   6.442
  886SOL     OW 3556   4.090   1.206   1.407
  886SOL    HW1 3557   4.039   1.121   1.424
  886SOL    HW2 3558   4.110   1.214   1.309
  887SOL     OW 3559   3.636   6.207   4.262
  887SOL    HW1 3560   3.584   6.219   4.178
  887SOL    HW2 3561   3.573   6.188   4.338
  888SOL     OW 3562   6.467   5.559   2.545
  888SOL    HW1 3563   6.552   5.513   2.521
  888SOL    HW2 3564   6.433   5.611   2.466
  889SOL     OW 3565   0.997   6.678   5.822
  889SOL    HW1 3566   0.936   6.715   5.891
  889SOL    HW2 3567   1.003   6.579   5.831
  890SOL     OW 3568   1.725   5.799   2.450
  890SOL    HW1 3569   1.678   5.867   2.395
  890SOL    HW2 3570   1.660   5.756   2.513
  891SOL     OW 3571   6.541   3.509   0.395
  891SOL    HW1 3572   6.559   3.566   0.474
  891SOL    HW2 3573   6.447   3.477   0.398
  892SOL     OW 3574   3.695   4.207   5.867
  892SOL    HW1 3575   3.677   4.111   5.846
  892SOL    HW2 3576   3.634   4.237   5.940
  893SOL     OW 3577   2.271   0.658   2.301
  893SOL    HW1 3578   2.212   0.578   2.314
  893SOL    HW2 3579   2.216   0.733   2.264
  894SOL     OW 3580   0.887   2.428   3.216
  894SOL    HW1 3581   0.953   2.386   3.154
  894SOL    HW2 3582   0.905   2.398   3.309
  895SOL     OW 3583   1.123   5.446   3.903
  895SOL    HW1 3584   1.212   5.403   3.891
  895SOL    HW2 3585   1.052   5.388   3.862
  896SOL     OW 3586   6.074   0.022   1.466
  896SOL    HW1 3587   6.117   0.073   1.541
  896SOL    HW2 3588   5.994   6.992   1.501
  897SOL     OW 3589   4.359   0.847   6.614
  897SOL    HW1 3590   4.457   0.861   6.629
  897SOL    HW2 3591   4.338   0.851   6.517
  898SOL     OW 3592   3.116   6.421   3.222
  898SOL    HW1 3593   3.104   6.362   3.143
  898SOL    HW2 3594   3.029   6.465   3.245
  899SOL     OW 3595   0.545   5.483   0.997
  899SOL    HW1 3596   0.458   5.511   0.956
  899SOL    HW2 3597   0.620   5.527   0.949
  900SOL     OW 3598   4.786   6.095   0.403
  900SOL    HW1 3599   4.880   6.083   0.435
  900SOL    HW2 3600   4.788   6.123   0.307
  901SOL     OW 3601   1.224   0.819   5.098
  901SOL    HW1 3602   1.163   0.856   5.167
  901SOL    HW2 3603   1.308   0.785   5.141
  902SOL     OW 3604   0.856   2.526   0.854
  902SOL    HW1 3605   0.916   2.453   0.823
  902SOL    HW2 3606   0.907   2.612   0.858
  903SOL     OW 3607   6.624   3.532   6.265
  903SOL    HW1 3608   6.684   3.546   6.186
  903SOL    HW2 3609   6.563   3.455   6.247
  904SOL     OW 3610   2.310   2.703   2.981
  904SOL    HW1 3611   2.303   2.796   2.947
  904SOL    HW2 3612   2.262   2.641   2.919
  905SOL     OW 3613   4.915   4.036   5.809
  905SOL    HW1 3614   4.950   4.085   5.730
  905SOL    HW2 3615   4.816   4.025   5.801
  906SOL     OW 3616   0.628   3.073   6.199
  906SOL    HW1 3617   0.666   3.052   6.109
  906SOL    HW2 3618   0.639   3.170   6.219
  907SOL     OW 3619   5.021   2.426   2.534
  907SOL    HW1 3620   4.945   2.482   2.501
  907SOL    HW2 3621   5.095   2.427   2.467
  908SOL     OW 3622   2.281   5.183   3.127
  908SOL    HW1 3623   2.366   5.146   3.089
  908SOL    HW2 3624   2.261   5.138   3.213
  909SOL     OW 3625   2.597   6.000   2.477
  909SOL    HW1 3626   2.558   6.021   2.388
  909SOL    HW2 3627   2.526   6.007   2.548
  910SOL     OW 3628   2.500   0.980   0.348
  910SOL    HW1 3629   2.458   0.954   0.435
  910SOL    HW2 3630   2.466   0.921   0.275
  911SOL     OW 3631   6.825   5.948   0.367
  911SOL    HW1 3632   6.772   5.901   0.296
  911SOL    HW2 3633   6.841   5.885   0.443
  912SOL     OW 3634   5.375   0.424   3.736
  912SOL    HW1 3635   5.467   0.386   3.742
  912SOL    HW2 3636   5.381   0.522   3.718
  913SOL     OW 3637   1.876   1.111   3.640
  913SOL    HW1 3638   1.966   1.067   3.635
  913SOL    HW2 3639   1.820   1.081   3.564
  914SOL     OW 3640   1.928   5.628   5.190
  914SOL    HW1 3641   2.024   5.615   5.162
  914SOL    HW2 3642   1.878   5.671   5.115
  915SOL     OW 3643   0.495   3.226   0.691
  915SOL    HW1 3644   0.548   3.147   0.660
  915SOL    HW2 3645   0.523   3.250   0.784
  916SOL     OW 3646   1.849   2.786   2.440
  916SOL    HW1 3647   1.852   2.876   2.395
  916SOL    HW2 3648   1.888   2.718   2.379
  917SOL     OW 3649   5.772   0.452   2.203
  917SOL    HW1 3650   5.839   0.466   2.130
  917SOL    HW2 3651   5.706   0.527   2.204
  918SOL     OW 3652   3.096   6.984   0.749
  918SOL    HW1 3653   3.184   0.011   0.759
  918SOL    HW2 3654   3.050   6.982   0.838
  919SOL     OW 3655   6.556   6.033   2.712
  919SOL    HW1 3656   6.543   6.005   2.807
  919SOL    HW2 3657   6.564   5.951   2.654
  920SOL     OW 3658   2.329   5.439   3.053
  920SOL    HW1 3659   2.297   5.520   3.102
  920SOL    HW2 3660   2.296   5.356   3.100
  921SOL     OW 3661   4.970   4.450   3.241
  921SOL    HW1 3662   4.938   4.416   3.153
  921SOL    HW2 3663   5.043   4.518   3.227
  922SOL     OW 3664   3.346   3.368   5.802
  922SOL    HW1 3665   3.285   3.348   5.726
  922SOL    HW2 3666   3.294   3.405   5.879
  923SOL     OW 3667   2.887   4.871   5.728
  923SOL    HW1 3668   2.945   4.805   5.681
  923SOL    HW2 3669   2.838   4.825   5.802
  924SOL     OW 3670   5.981   2.521   2.937
  924SOL    HW1 3671   5.995   2.616   2.968
  924SOL    HW2 3672   6.000   2.459   3.013
  925SOL     OW 3673   0.495   1.627   6.564
  925SOL    HW1 3674   0.418   1.691   6.566
  925SOL    HW2 3675   0.476   1.556   6.495
  926SOL     OW 3676   5.500   1.052   0.456
  926SOL    HW1 3677   5.594   1.025   0.439
  926SOL    HW2 3678   5.484   1.056   0.555
  927SOL     OW 3679   6.438   4.034   3.055
  927SOL    HW1 3680   6.491   3.996   3.131
  927SOL    HW2 3681   6.433   4.133   3.064
  928SOL     OW 3682   1.122   5.931   0.565
  928SOL    HW1 3683   1.068   5.985   0.500
  928SOL    HW2 3684   1.065   5.859   0.604
  929SOL     OW 3685   0.050   1.067   1.173
  929SOL    HW1 3686   0.044   1.015   1.258
  929SOL    HW2 3687   0.145   1.091   1.156
  930SOL     OW 3688   5.489   6.345   4.469
  930SOL    HW1 3689   5.546   6.287   4.527
  930SOL    HW2 3690   5.404   6.297   4.447
  931SOL     OW 3691   5.721   1.971   3.180
  931SOL    HW1 3692   5.787   2.019   3.237
  931SOL    HW2 3693   5.654   1.924   3.237
  932SOL     OW 3694   3.174   6.706   2.899
  932SOL    HW1 3695   3.240   6.782   2.895
  932SOL    HW2 3696   3.210   6.628   2.849
  933SOL     OW 3697   1.256   6.154   3.422
  933SOL    HW1 3698   1.355   6.145   3.425
  933SOL    HW2 3699   1.215   6.094   3.490
  934SOL     OW 3700   1.994   0.464   5.622
  934SOL    HW1 3701   1.934   0.529   5.574
  934SOL    HW2 3702   2.061   0.427   5.558
  935SOL     OW 3703   4.871   4.377   4.934
  935SOL    HW1 3704   4.782   4.356   4.974
  935SOL    HW2 3705   4.943   4.331   4.986
  936SOL     OW 3706   1.210   0.314   6.243
  936SOL    HW1 3707   1.114   0.330   6.220
  936SOL    HW2 3708   1.224   0.327   6.341
  937SOL     OW 3709   4.858   1.058   4.634
  937SOL    HW1 3710   4.832   1.014   4.548
  937SOL    HW2 3711   4.930   1.004   4.679
  938SOL     OW 3712   6.839   5.457   5.684
  938SOL    HW1 3713   6.896   5.430   5.606
  938SOL    HW2 3714   6.830   5.556   5.686
  939SOL     OW 3715   5.879   0.221   5.583
  939SOL    HW1 3716   5.935   0.264   5.653
  939SOL    HW2 3717   5.844   0.291   5.520
  940SOL     OW 3718   0.430   2.582   1.986
  940SOL    HW1 3719   0.401   2.488   1.967
  940SOL    HW2 3720   0.436   2.596   2.084
  941SOL     OW 3721   5.581   1.254   5.618
  941SOL    HW1 3722   5.645   1.310   5.670
  941SOL    HW2 3723   5.622   1.164   5.602
  942SOL     OW 3724   5.076   6.745   3.129
  942SOL    HW1 3725   5.012   6.713   3.198
  942SOL    HW2 3726   5.148   6.799   3.172
  943SOL     OW 3727   2.154   3.259   3.635
  943SOL    HW1 3728   2.137   3.185   3.700
  943SOL    HW2 3729   2.205   3.332   3.680
  944SOL     OW 3730   0.078   3.596   6.022
  944SOL    HW1 3731   7.012   3.604   6.074
  944SOL    HW2 3732   0.115   3.504   6.032
  945SOL     OW 3733   6.079   4.088   4.722
  945SOL    HW1 3734   6.172   4.083   4.686
  945SOL    HW2 3735   6.047   3.997   4.747
  946SOL     OW 3736   5.218   2.563   6.139
  946SOL    HW1 3737   5.241   2.472   6.171
  946SOL    HW2 3738   5.300   2.621   6.143
  947SOL     OW 3739   3.808   2.932   4.191
  947SOL    HW1 3740   3.859   2.937   4.277
  947SOL    HW2 3741   3.829   3.012   4.135
  948SOL     OW 3742   3.891   6.953   1.568
  948SOL    HW1 3743   3.805   6.903   1.566
  948SOL    HW2 3744   3.949   6.923   1.492
  949SOL     OW 3745   0.938   6.431   6.593
  949SOL    HW1 3746   0.957   6.375   6.513
  949SOL    HW2 3747   1.003   6.507   6.597
  950SOL     OW 3748   4.729   5.260   1.489
  950SOL    HW1 3749   4.814   5.213   1.514
  950SOL    HW2 3750   4.726   5.350   1.533
  951SOL     OW 3751   2.258   0.990   3.906
  951SOL    HW1 3752   2.288   0.942   3.823
  951SOL    HW2 3753   2.281   0.935   3.986
  952SOL     OW 3754   4.731   1.935   3.040
  952SOL    HW1 3755   4.719   1.914   3.137
  952SOL    HW2 3756   4.645   1.916   2.992
  953SOL     OW 3757   5.535   5.794   4.007
  953SOL    HW1 3758   5.490   5.723   4.061
  953SOL    HW2 3759   5.571   5.753   3.922
  954SOL     OW 3760   4.425   5.864   0.625
  954SOL    HW1 3761   4.423   5.930   0.701
  954SOL    HW2 3762   4.494   5.893   0.558
  955SOL     OW 3763   0.092   3.946   2.969
  955SOL    HW1 3764   0.038   3.893   3.035
  955SOL    HW2 3765   0.032   4.004   2.915
  956SOL     OW 3766   6.998   2.180   2.769
  956SOL    HW1 3767   6.910   2.133   2.775
  956SOL    HW2 3768   0.051   2.120   2.804
  957SOL     OW 3769   6.716   4.366   5.200
  957SOL    HW1 3770   6.653   4.384   5.125
  957SOL    HW2 3771   6.748   4.452   5.239
  958SOL     OW 3772   4.425   1.823   2.109
  958SOL    HW1 3773   4.454   1.903   2.056
  958SOL    HW2 3774   4.326   1.810   2.098
  959SOL     OW 3775   3.430   5.424   2.573
  959SOL    HW1 3776   3.364   5.362   2.533
  959SOL    HW2 3777   3.421   5.515   2.532
  960SOL     OW 3778   0.959   6.123   1.935
  960SOL    HW1 3779   0.950   6.085   1.843
  960SOL    HW2 3780   1.045   6.173   1.942
  961SOL     OW 3781   5.003   0.279   3.438
  961SOL    HW1 3782   5.003   0.233   3.526
  961SOL    HW2 3783   4.926   0.343   3.433
  962SOL     OW 3784   0.447   0.642   5.345
  962SOL    HW1 3785   0.461   0.711   5.416
  962SOL    HW2 3786   0.406   0.686   5.265
  963SOL     OW 3787   6.532   1.808   5.983
  963SOL    HW1 3788   6.484   1.835   5.899
  963SOL    HW2 3789   6.606   1.873   6.001
  964SOL     OW 3790   5.568   4.723   0.112
  964SOL    HW1 3791   5.610   4.737   0.202
  964SOL    HW2 3792   5.548   4.626   0.098
  965SOL     OW 3793   5.503   2.179   0.914
  965SOL    HW1 3794   5.499   2.239   0.994
  965SOL    HW2 3795   5.586   2.124   0.918
  966SOL     OW 3796   5.216   2.174   1.836
  966SOL    HW1 3797   5.175   2.262   1.812
  966SOL    HW2 3798   5.303   2.163   1.787
  967SOL     OW 3799   2.072   4.255   1.631
  967SOL    HW1 3800   2.101   4.225   1.722
  967SOL    HW2 3801   2.153   4.276   1.576
  968SOL     OW 3802   3.382   1.171   1.520
  968SOL    HW1 3803   3.471   1.159   1.564
  968SOL    HW2 3804   3.317   1.208   1.586
  969SOL     OW 3805   3.424   6.033   6.296
  969SOL    HW1 3806   3.446   5.936   6.284
  969SOL    HW2 3807   3.330   6.041   6.331
  970SOL     OW 3808   5.801   0.875   5.912
  970SOL    HW1 3809   5.740   0.796   5.918
  970SOL    HW2 3810   5.838   0.896   6.003
  971SOL     OW 3811   6.858   2.092   3.323
  971SOL    HW1 3812   6.761   2.114   3.318
  971SOL    HW2 3813   6.905   2.132   3.244
  972SOL     OW 3814   5.641   3.381   2.068
  972SOL    HW1 3815   5.598   3.374   1.978
  972SOL    HW2 3816   5.582   3.339   2.137
  973SOL     OW 3817   0.454   4.827   0.163
  973SOL    HW1 3818   0.373   4.772   0.186
  973SOL    HW2 3819   0.434   4.884   0.084
  974SOL     OW 3820   5.381   6.474   2.706
  974SOL    HW1 3821   5.314   6.422   2.654
  974SOL    HW2 3822   5.446   6.517   2.643
  975SOL     OW 3823   1.231   6.279   0.010
  975SOL    HW1 3824   1.301   6.322   0.067
  975SOL    HW2 3825   1.230   6.322   6.939
  976SOL     OW 3826   0.205   3.367   2.833
  976SOL    HW1 3827   0.227   3.381   2.737
  976SOL    HW2 3828   0.275   3.311   2.876
  977SOL     OW 3829   0.821   0.642   2.468
  977SOL    HW1 3830   0.832   0.687   2.556
  977SOL    HW2 3831   0.822   0.542   2.480
  978SOL     OW 3832   4.191   3.655   5.805
  978SOL    HW1 3833   4.157   3.586   5.870
  978SOL    HW2 3834   4.122   3.725   5.791
  979SOL     OW 3835   6.479   2.414   0.508
  979SOL    HW1 3836   6.461   2.426   0.410
  979SOL    HW2 3837   6.522   2.496   0.544
  980SOL     OW 3838   4.683   2.407   4.284
  980SOL    HW1 3839   4.728   2.320   4.260
  980SOL    HW2 3840   4.751   2.480   4.288
  981SOL     OW 3841   0.148   1.783   4.621
  981SOL    HW1 3842   0.217   1.791   4.693
  981SOL    HW2 3843   0.172   1.844   4.546
  982SOL     OW 3844   2.580   2.448   3.938
  982SOL    HW1 3845   2.567   2.521   4.006
  982SOL    HW2 3846   2.495   2.436   3.887
  983SOL     OW 3847   5.810   2.553   5.015
  983SOL    HW1 3848   5.852   2.487   5.078
  983SOL    HW2 3849   5.877   2.581   4.946
  984SOL     OW 3850   2.570   1.748   4.488
  984SOL    HW1 3851   2.571   1.772   4.391
  984SOL    HW2 3852   2.643   1.681   4.506
  985SOL     OW 3853   5.497   4.461   4.879
  985SOL    HW1 3854   5.567   4.406   4.832
  985SOL    HW2 3855   5.456   4.406   4.951
  986SOL     OW 3856   6.160   4.439   1.007
  986SOL    HW1 3857   6.122   4.531   1.023
  986SOL    HW2 3858   6.170   4.392   1.094
  987SOL     OW 3859   4.532   6.884   2.033
  987SOL    HW1 3860   4.457   6.903   1.970
  987SOL    HW2 3861   4.548   6.786   2.038
  988SOL     OW 3862   2.970   3.207   2.867
  988SOL    HW1 3863   3.004   3.126   2.819
  988SOL    HW2 3864   2.956   3.281   2.801
  989SOL     OW 3865   6.368   0.607   5.547
  989SOL    HW1 3866   6.403   0.532   5.489
  989SOL    HW2 3867   6.420   0.690   5.528
  990SOL     OW 3868   3.697   0.343   2.096
  990SOL    HW1 3869   3.663   0.434   2.117
  990SOL    HW2 3870   3.629   0.293   2.042
  991SOL     OW 3871   0.778   2.260   5.322
  991SOL    HW1 3872   0.774   2.310   5.236
  991SOL    HW2 3873   0.863   2.208   5.326
  992SOL     OW 3874   6.902   2.775   2.062
  992SOL    HW1 3875   6.931   2.828   1.982
  992SOL    HW2 3876   6.828   2.824   2.109
  993SOL     OW 3877   1.052   4.479   1.462
  993SOL    HW1 3878   1.112   4.495   1.540
  993SOL    HW2 3879   0.959   4.460   1.494
  994SOL     OW 3880   3.685   4.345   1.621
  994SOL    HW1 3881   3.773   4.305   1.645
  994SOL    HW2 3882   3.697   4.442   1.599
  995SOL     OW 3883   4.005   3.183   4.916
  995SOL    HW1 3884   4.061   3.241   4.976
  995SOL    HW2 3885   4.055   3.164   4.832
  996SOL     OW 3886   3.032   4.859   4.461
  996SOL    HW1 3887   2.972   4.798   4.409
  996SOL    HW2 3888   2.978   4.910   4.527
  997SOL     OW 3889   0.657   1.051   2.964
  997SOL    HW1 3890   0.703   1.103   3.036
  997SOL    HW2 3891   0.709   0.967   2.946
  998SOL     OW 3892   4.520   6.963   4.395
  998SOL    HW1 3893   4.424   6.944   4.418
  998SOL    HW2 3894   4.547   6.908   4.316
  999SOL     OW 3895   4.837   4.343   3.014
  999SOL    HW1 3896   4.755   4.381   2.971
  999SOL    HW2 3897   4.846   4.247   2.989
 1000SOL     OW 3898   2.507   1.207   1.919
 1000SOL    HW1 3899   2.500   1.107   1.910
 1000SOL    HW2 3900   2.451   1.237   1.997
 1001SOL     OW 3901   5.106   5.859   0.441
 1001SOL    HW1 3902   5.149   5.815   0.520
 1001SOL    HW2 3903   5.077   5.952   0.465
 1002SOL     OW 3904   5.776   1.608   1.116
 1002SOL    HW1 3905   5.874   1.602   1.135
 1002SOL    HW2 3906   5.761   1.619   1.018
 1003SOL     OW 3907   1.893   6.717   2.017
 1003SOL    HW1 3908   1.993   6.720   2.025
 1003SOL    HW2 3909   1.860   6.628   2.049
 1004SOL     OW 3910   0.252   0.025   2.547
 1004SOL    HW1 3911   0.321   0.001   2.478
 1004SOL    HW2 3912   0.293   0.084   2.616
 1005SOL     OW 3913   2.271   2.896   3.985
 1005SOL    HW1 3914   2.207   2.957   3.938
 1005SOL    HW2 3915   2.282   2.926   4.080
 1006SOL     OW 3916   0.967   4.951   1.351
 1006SOL    HW1 3917   0.936   4.909   1.266
 1006SOL    HW2 3918   1.011   5.038   1.331
 1007SOL     OW 3919   4.304   6.852   5.434
 1007SOL    HW1 3920   4.393   6.897   5.426
 1007SOL    HW2 3921   4.242   6.888   5.365
 1008SOL     OW 3922   1.608   2.787   5.135
 1008SOL    HW1 3923   1.642   2.700   5.098
 1008SOL    HW2 3924   1.508   2.787   5.133
 1009SOL     OW 3925   0.370   5.363   5.093
 1009SOL    HW1 3926   0.277   5.350   5.126
 1009SOL    HW2 3927   0.406   5.449   5.129
 1010SOL     OW 3928   3.482   2.841   6.072
 1010SOL    HW1 3929   3.414   2.768   6.064
 1010SOL    HW2 3930   3.556   2.811   6.134
 1011SOL     OW 3931   2.286   4.812   2.420
 1011SOL    HW1 3932   2.260   4.817   2.323
 1011SOL    HW2 3933   2.222   4.865   2.475
 1012SOL     OW 3934   0.053   0.750   1.871
 1012SOL    HW1 3935   6.987   0.738   1.820
 1012SOL    HW2 3936   0.125   0.784   1.810
 1013SOL     OW 3937   1.183   0.791   5.374
 1013SOL    HW1 3938   1.198   0.725   5.447
 1013SOL    HW2 3939   1.145   0.875   5.413
 1014SOL     OW 3940   5.873   5.503   6.430
 1014SOL    HW1 3941   5.839   5.448   6.354
 1014SOL    HW2 3942   5.861   5.600   6.408
 1015SOL     OW 3943   2.506   6.790   5.956
 1015SOL    HW1 3944   2.447   6.865   5.985
 1015SOL    HW2 3945   2.451   6.708   5.942
 1016SOL     OW 3946   4.013   3.656   6.537
 1016SOL    HW1 3947   4.002   3.557   6.542
 1016SOL    HW2 3948   4.019   3.684   6.441
 1017SOL     OW 3949   4.313   2.603   1.129
 1017SOL    HW1 3950   4.354   2.663   1.060
 1017SOL    HW2 3951   4.343   2.509   1.113
 1018SOL     OW 3952   0.057   4.353   3.587
 1018SOL    HW1 3953   0.150   4.327   3.559
 1018SOL    HW2 3954   7.018   4.272   3.591
 1019SOL     OW 3955   6.686   6.774   1.215
 1019SOL    HW1 3956   6.718   6.846   1.153
 1019SOL    HW2 3957   6.745   6.773   1.296
 1020SOL     OW 3958   0.598   0.868   1.564
 1020SOL    HW1 3959   0.647   0.783   1.546
 1020SOL    HW2 3960   0.585   0.878   1.663
 1021SOL     OW 3961   5.427   0.181   1.386
 1021SOL    HW1 3962   5.348   0.124   1.409
 1021SOL    HW2 3963   5.509   0.141   1.428
 1022SOL     OW 3964   3.847   4.913   5.537
 1022SOL    HW1 3965   3.761   4.878   5.574
 1022SOL    HW2 3966   3.855   4.886   5.441
 1023SOL     OW 3967   0.855   6.949   3.158
 1023SOL    HW1 3968   0.910   6.873   3.194
 1023SOL    HW2 3969   0.759   6.934   3.181
 1024SOL     OW 3970   0.326   2.692   4.057
 1024SOL    HW1 3971   0.305   2.776   4.008
 1024SOL    HW2 3972   0.267   2.618   4.023
 1025SOL     OW 3973   3.529   3.256   1.102
 1025SOL    HW1 3974   3.501   3.348   1.075
 1025SOL    HW2 3975   3.465   3.189   1.065
 1026SOL     OW 3976   2.251   2.691   0.554
 1026SOL    HW1 3977   2.178   2.641   0.602
 1026SOL    HW2 3978   2.268   2.778   0.601
 1027SOL     OW 3979   3.071   6.391   1.767
 1027SOL    HW1 3980   3.050   6.298   1.798
 1027SOL    HW2 3981   3.165   6.395   1.735
 1028SOL     OW 3982   3.254   6.029   0.685
 1028SOL    HW1 3983   3.227   6.086   0.762
 1028SOL    HW2 3984   3.181   6.028   0.617
 1029SOL     OW 3985   1.948   6.948   6.888
 1029SOL    HW1 3986   1.874   6.891   6.853
 1029SOL    HW2 3987   1.996   6.899   6.961
 1030SOL     OW 3988   3.142   2.958   1.894
 1030SOL    HW1 3989   3.140   2.877   1.836
 1030SOL    HW2 3990   3.084   3.029   1.853
 1031SOL     OW 3991   5.599   4.670   0.786
 1031SOL    HW1 3992   5.512   4.679   0.738
 1031SOL    HW2 3993   5.636   4.578   0.770
 1032SOL     OW 3994   2.207   2.045   5.391
 1032SOL    HW1 3995   2.226   2.064   5.295
 1032SOL    HW2 3996   2.119   2.085   5.417
 1033SOL     OW 3997   1.462   6.871   0.824
 1033SOL    HW1 3998   1.506   6.958   0.849
 1033SOL    HW2 3999   1.480   6.852   0.727
 1034SOL     OW 4000   0.617   5.032   4.778
 1034SOL    HW1 4001   0.612   5.128   4.803
 1034SOL    HW2 4002   0.656   4.980   4.854
 1035SOL     OW 4003   0.142   1.001   5.076
 1035SOL    HW1 4004   0.076   1.060   5.122
 1035SOL    HW2 4005   0.214   1.058   5.035
 1036SOL     OW 4006   3.556   1.401   1.912
 1036SOL    HW1 4007   3.608   1.428   1.992
 1036SOL    HW2 4008   3.548   1.301   1.910
 1037SOL     OW 4009   1.887   0.917   1.999
 1037SOL    HW1 4010   1.870   0.865   1.915
 1037SOL    HW2 4011   1.886   1.015   1.978
 1038SOL     OW 4012   1.540   0.530   4.756
 1038SOL    HW1 4013   1.633   0.548   4.724
 1038SOL    HW2 4014   1.521   0.586   4.837
 1039SOL     OW 4015   3.325   4.278   5.343
 1039SOL    HW1 4016   3.249   4.218   5.318
 1039SOL    HW2 4017   3.390   4.284   5.267
 1040SOL     OW 4018   4.268   2.293   2.680
 1040SOL    HW1 4019   4.359   2.328   2.659
 1040SOL    HW2 4020   4.236   2.332   2.766
 1041SOL     OW 4021   0.068   0.327   3.747
 1041SOL    HW1 4022   0.111   0.257   3.690
 1041SOL    HW2 4023   0.018   0.392   3.689
 1042SOL     OW 4024   4.971   5.278   2.027
 1042SOL    HW1 4025   4.997   5.337   2.102
 1042SOL    HW2 4026   5.046   5.214   2.007
 1043SOL     OW 4027   3.582   1.532   5.123
 1043SOL    HW1 4028   3.667   1.497   5.083
 1043SOL    HW2 4029   3.568   1.627   5.093
 1044SOL     OW 4030   5.192   5.183   2.648
 1044SOL    HW1 4031   5.181   5.112   2.717
 1044SOL    HW2 4032   5.134   5.261   2.672
 1045SOL     OW 4033   4.560   6.241   2.169
 1045SOL    HW1 4034   4.525   6.292   2.247
 1045SOL    HW2 4035   4.499   6.165   2.147
 1046SOL     OW 4036   1.316   0.725   0.139
 1046SOL    HW1 4037   1.402   0.695   0.097
 1046SOL    HW2 4038   1.252   0.648   0.140
 1047SOL     OW 4039   1.948   1.180   3.170
 1047SOL    HW1 4040   1.966   1.115   3.096
 1047SOL    HW2 4041   1.995   1.150   3.253
 1048SOL     OW 4042   4.663   6.343   4.423
 1048SOL    HW1 4043   4.640   6.438   4.439
 1048SOL    HW2 4044   4.700   6.303   4.507
 1049SOL     OW 4045   6.374   6.006   3.574
 1049SOL    HW1 4046   6.409   5.931   3.518
 1049SOL    HW2 4047   6.352   6.084   3.516
 1050SOL     OW 4048   4.164   5.101   1.184
 1050SOL    HW1 4049   4.147   5.096   1.085
 1050SOL    HW2 4050   4.081   5.075   1.233
 1051SOL     OW 4051   2.554   5.912   1.059
 1051SOL    HW1 4052   2.458   5.937   1.046
 1051SOL    HW2 4053   2.566   5.870   1.149
 1052SOL     OW 4054   3.652   0.869   4.659
 1052SOL    HW1 4055   3.741   0.908   4.682
 1052SOL    HW2 4056   3.612   0.921   4.582
 1053SOL     OW 4057   5.664   4.944   3.108
 1053SOL    HW1 4058   5.749   4.988   3.079
 1053SOL    HW2 4059   5.622   4.897   3.030
 1054SOL     OW 4060   3.157   4.064   5.879
 1054SOL    HW1 4061   3.068   4.060   5.833
 1054SOL    HW2 4062   3.150   4.122   5.960
 1055SOL     OW 4063   3.814   6.608   5.202
 1055SOL    HW1 4064   3.820   6.615   5.301
 1055SOL    HW2 4065   3.791   6.513   5.177
 1056SOL     OW 4066   1.959   5.725   6.579
 1056SOL    HW1 4067   2.017   5.660   6.628
 1056SOL    HW2 4068   1.875   5.741   6.631
 1057SOL     OW 4069   2.987   3.191   1.813
 1057SOL    HW1 4070   2.962   3.241   1.896
 1057SOL    HW2 4071   2.911   3.132   1.785
 1058SOL     OW 4072   4.743   1.440   3.703
 1058SOL    HW1 4073   4.650   1.451   3.737
 1058SOL    HW2 4074   4.795   1.524   3.720
 1059SOL     OW 4075   2.561   0.620   1.504
 1059SOL    HW1 4076   2.569   0.654   1.410
 1059SOL    HW2 4077   2.542   0.697   1.565
 1060SOL     OW 4078   0.163   4.421   4.757
 1060SOL    HW1 4079   0.091   4.468   4.705
 1060SOL    HW2 4080   0.122   4.370   4.832
 1061SOL     OW 4081   6.090   3.281   0.769
 1061SOL    HW1 4082   6.033   3.287   0.687
 1061SOL    HW2 4083   6.118   3.374   0.796
 1062SOL     OW 4084   5.495   4.045   6.347
 1062SOL    HW1 4085   5.548   4.006   6.272
 1062SOL    HW2 4086   5.457   4.133   6.320
 1063SOL     OW 4087   1.672   5.006   2.322
 1063SOL    HW1 4088   1.659   5.013   2.421
 1063SOL    HW2 4089   1.638   4.918   2.290
 1064SOL     OW 4090   1.898   4.226   1.998
 1064SOL    HW1 4091   1.878   4.224   1.900
 1064SOL    HW2 4092   1.836   4.290   2.044
 1065SOL     OW 4093   3.169   0.420   3.711
 1065SOL    HW1 4094   3.232   0.464   3.776
 1065SOL    HW2 4095   3.212   0.416   3.621
 1066SOL     OW 4096   4.307   6.971   3.327
 1066SOL    HW1 4097   4.225   6.941   3.376
 1066SOL    HW2 4098   4.367   6.893   3.309
 1067SOL     OW 4099   0.508   3.905   0.797
 1067SOL    HW1 4100   0.586   3.872   0.849
 1067SOL    HW2 4101   0.450   3.828   0.770
 1068SOL     OW 4102   5.329   5.812   3.082
 1068SOL    HW1 4103   5.373   5.723   3.082
 1068SOL    HW2 4104   5.354   5.862   3.165
 1069SOL     OW 4105   4.391   5.258   1.233
 1069SOL    HW1 4106   4.319   5.190   1.217
 1069SOL    HW2 4107   4.361   5.347   1.197
 1070SOL     OW 4108   6.945   0.405   2.327
 1070SOL    HW1 4109   6.987   0.446   2.408
 1070SOL    HW2 4110   6.963   0.307   2.327
 1071SOL     OW 4111   1.785   0.731   3.558
 1071SOL    HW1 4112   1.825   0.719   3.649
 1071SOL    HW2 4113   1.856   0.760   3.494
 1072SOL     OW 4114   2.153   0.993   0.779
 1072SOL    HW1 4115   2.233   0.969   0.723
 1072SOL    HW2 4116   2.125   1.087   0.759
 1073SOL     OW 4117   4.778   6.965   1.453
 1073SOL    HW1 4118   4.750   6.870   1.467
 1073SOL    HW2 4119   4.749   0.001   1.531
 1074SOL     OW 4120   1.944   5.285   1.268
 1074SOL    HW1 4121   1.900   5.364   1.226
 1074SOL    HW2 4122   2.042   5.286   1.247
 1075SOL     OW 4123   5.031   6.505   4.330
 1075SOL    HW1 4124   5.120   6.542   4.301
 1075SOL    HW2 4125   5.043   6.451   4.413
 1076SOL     OW 4126   0.001   2.867   5.360
 1076SOL    HW1 4127   0.044   2.783   5.326
 1076SOL    HW2 4128   0.071   2.923   5.406
 1077SOL     OW 4129   5.680   0.477   1.450
 1077SOL    HW1 4130   5.725   0.504   1.365
 1077SOL    HW2 4131   5.583   0.501   1.445
 1078SOL     OW 4132   0.984   1.497   2.714
 1078SOL    HW1 4133   1.057   1.546   2.666
 1078SOL    HW2 4134   0.981   1.403   2.682
 1079SOL     OW 4135   2.256   6.391   2.396
 1079SOL    HW1 4136   2.280   6.418   2.302
 1079SOL    HW2 4137   2.328   6.422   2.459
 1080SOL     OW 4138   0.755   4.033   3.639
 1080SOL    HW1 4139   0.835   3.973   3.641
 1080SOL    HW2 4140   0.781   4.123   3.604
 1081SOL     OW 4141   0.094   5.331   5.779
 1081SOL    HW1 4142   0.108   5.394   5.703
 1081SOL    HW2 4143   0.174   5.271   5.789
 1082SOL     OW 4144   4.094   1.973   5.645
 1082SOL    HW1 4145   4.160   1.932   5.582
 1082SOL    HW2 4146   4.020   1.907   5.662
 1083SOL     OW 4147   4.178   3.871   6.898
 1083SOL    HW1 4148   4.150   3.815   6.976
 1083SOL    HW2 4149   4.117   3.949   6.888
 1084SOL     OW 4150   5.555   6.286   6.954
 1084SOL    HW1 4151   5.619   6.209   6.955
 1084SOL    HW2 4152   5.462   6.251   6.948
 1085SOL     OW 4153   1.182   3.938   4.050
 1085SOL    HW1 4154   1.202   4.036   4.044
 1085SOL    HW2 4155   1.102   3.925   4.109
 1086SOL     OW 4156   6.622   6.498   1.164
 1086SOL    HW1 4157   6.650   6.594   1.175
 1086SOL    HW2 4158   6.523   6.492   1.172
 1087SOL     OW 4159   5.235   1.654   4.999
 1087SOL    HW1 4160   5.226   1.659   5.099
 1087SOL    HW2 4161   5.162   1.597   4.962
 1088SOL     OW 4162   6.439   4.598   3.080
 1088SOL    HW1 4163   6.515   4.655   3.110
 1088SOL    HW2 4164   6.353   4.638   3.111
 1089SOL     OW 4165   1.498   6.210   4.074
 1089SOL    HW1 4166   1.430   6.152   4.029
 1089SOL    HW2 4167   1.567   6.152   4.117
 1090SOL     OW 4168   1.925   2.337   3.678
 1090SOL    HW1 4169   1.983   2.409   3.639
 1090SOL    HW2 4170   1.894   2.276   3.605
 1091SOL     OW 4171   3.109   1.877   5.321
 1091SOL    HW1 4172   3.168   1.807   5.281
 1091SOL    HW2 4173   3.103   1.955   5.259
 1092SOL     OW 4174   1.965   3.756   1.652
 1092SOL    HW1 4175   2.041   3.712   1.700
 1092SOL    HW2 4176   1.883   3.699   1.658
 1093SOL     OW 4177   1.953   1.456   2.416
 1093SOL    HW1 4178   2.004   1.371   2.403
 1093SOL    HW2 4179   2.016   1.533   2.420
 1094SOL     OW 4180   0.634   6.806   3.310
 1094SOL    HW1 4181   0.638   6.772   3.216
 1094SOL    HW2 4182   0.598   6.735   3.370
 1095SOL     OW 4183   0.499   2.687   6.438
 1095SOL    HW1 4184   0.445   2.731   6.509
 1095SOL    HW2 4185   0.460   2.708   6.348
 1096SOL     OW 4186   3.432   4.463   1.655
 1096SOL    HW1 4187   3.505   4.409   1.614
 1096SOL    HW2 4188   3.470   4.517   1.731
 1097SOL     OW 4189   2.044   4.646   4.220
 1097SOL    HW1 4190   2.052   4.745   4.215
 1097SOL    HW2 4191   2.048   4.608   4.128
 1098SOL     OW 4192   4.549   3.215   0.274
 1098SOL    HW1 4193   4.529   3.137   0.216
 1098SOL    HW2 4194   4.580   3.292   0.218
 1099SOL     OW 4195   4.282   1.563   5.304
 1099SOL    HW1 4196   4.306   1.516   5.219
 1099SOL    HW2 4197   4.235   1.500   5.365
 1100SOL     OW 4198   3.419   1.856   5.806
 1100SOL    HW1 4199   3.350   1.929   5.800
 1100SOL    HW2 4200   3.471   1.852   5.721
 1101SOL     OW 4201   6.194   2.391   6.668
 1101SOL    HW1 4202   6.216   2.350   6.756
 1101SOL    HW2 4203   6.219   2.488   6.670
 1102SOL     OW 4204   0.458   6.148   4.760
 1102SOL    HW1 4205   0.391   6.078   4.736
 1102SOL    HW2 4206   0.420   6.211   4.828
 1103SOL     OW 4207   3.709   1.316   0.430
 1103SOL    HW1 4208   3.677   1.224   0.406
 1103SOL    HW2 4209   3.721   1.369   0.346
 1104SOL     OW 4210   2.203   2.713   5.422
 1104SOL    HW1 4211   2.228   2.616   5.418
 1104SOL    HW2 4212   2.212   2.753   5.331
 1105SOL     OW 4213   6.747   4.061   5.120
 1105SOL    HW1 4214   6.713   4.134   5.061
 1105SOL    HW2 4215   6.681   4.045   5.193
 1106SOL     OW 4216   0.339   1.934   1.647
 1106SOL    HW1 4217   0.359   2.012   1.587
 1106SOL    HW2 4218   0.280   1.964   1.722
 1107SOL     OW 4219   1.732   0.362   6.903
 1107SOL    HW1 4220   1.713   0.435   6.839
 1107SOL    HW2 4221   1.796   0.394   6.973
 1108SOL     OW 4222   3.657   0.429   5.920
 1108SOL    HW1 4223   3.571   0.466   5.885
 1108SOL    HW2 4224   3.664   0.449   6.018
 1109SOL     OW 4225   4.602   0.461   4.617
 1109SOL    HW1 4226   4.616   0.560   4.610
 1109SOL    HW2 4227   4.685   0.414   4.586
 1110SOL     OW 4228   2.486   1.717   3.293
 1110SOL    HW1 4229   2.537   1.791   3.336
 1110SOL    HW2 4230   2.546   1.669   3.229
 1111SOL     OW 4231   4.575   5.377   6.374
 1111SOL    HW1 4232   4.615   5.397   6.463
 1111SOL    HW2 4233   4.641   5.399   6.302
 1112SOL     OW 4234   4.887   1.497   2.564
 1112SOL    HW1 4235   4.793   1.492   2.528
 1112SOL    HW2 4236   4.893   1.445   2.649
 1113SOL     OW 4237   6.427   4.054   2.108
 1113SOL    HW1 4238   6.352   4.009   2.059
 1113SOL    HW2 4239   6.390   4.133   2.158
 1114SOL     OW 4240   3.830   1.925   6.668
 1114SOL    HW1 4241   3.894   1.861   6.624
 1114SOL    HW2 4242   3.867   2.018   6.662
 1115SOL     OW 4243   4.244   3.301   6.790
 1115SOL    HW1 4244   4.329   3.334   6.750
 1115SOL    HW2 4245   4.237   3.202   6.779
 1116SOL     OW 4246   4.923   6.339   5.773
 1116SOL    HW1 4247   4.992   6.328   5.845
 1116SOL    HW2 4248   4.968   6.345   5.684
 1117SOL     OW 4249   1.880   2.522   2.314
 1117SOL    HW1 4250   1.894   2.576   2.231
 1117SOL    HW2 4251   1.892   2.425   2.292
 1118SOL     OW 4252   2.696   4.705   0.996
 1118SOL    HW1 4253   2.635   4.647   0.943
 1118SOL    HW2 4254   2.769   4.649   1.035
 1119SOL     OW 4255   4.040   4.420   1.064
 1119SOL    HW1 4256   3.941   4.419   1.047
 1119SOL    HW2 4257   4.056   4.407   1.162
 1120SOL     OW 4258   6.274   6.771   5.797
 1120SOL    HW1 4259   6.252   6.675   5.815
 1120SOL    HW2 4260   6.319   6.778   5.707
 1121SOL     OW 4261   5.120   5.014   3.300
 1121SOL    HW1 4262   5.195   5.042   3.239
 1121SOL    HW2 4263   5.043   4.983   3.245
 1122SOL     OW 4264   5.495   3.416   6.847
 1122SOL    HW1 4265   5.434   3.493   6.866
 1122SOL    HW2 4266   5.456   3.332   6.882
 1123SOL     OW 4267   4.717   1.232   3.521
 1123SOL    HW1 4268   4.800   1.179   3.541
 1123SOL    HW2 4269   4.717   1.315   3.577
 1124SOL     OW 4270   0.379   3.710   5.193
 1124SOL    HW1 4271   0.286   3.740   5.215
 1124SOL    HW2 4272   0.443   3.784   5.212
 1125SOL     OW 4273   3.590   1.850   4.932
 1125SOL    HW1 4274   3.529   1.886   5.002
 1125SOL    HW2 4275   3.538   1.827   4.851
 1126SOL     OW 4276   6.157   4.915   6.666
 1126SOL    HW1 4277   6.067   4.907   6.622
 1126SOL    HW2 4278   6.227   4.928   6.596
 1127SOL     OW 4279   5.402   5.177   4.739
 1127SOL    HW1 4280   5.362   5.132   4.659
 1127SOL    HW2 4281   5.354   5.148   4.822
 1128SOL     OW 4282   5.474   1.697   5.488
 1128SOL    HW1 4283   5.400   1.643   5.448
 1128SOL    HW2 4284   5.435   1.774   5.538
 1129SOL     OW 4285   2.718   0.577   6.905
 1129SOL    HW1 4286   2.714   0.658   6.963
 1129SOL    HW2 4287   2.668   0.592   6.821
 1130SOL     OW 4288   2.838   4.837   0.658
 1130SOL    HW1 4289   2.754   4.891   0.660
 1130SOL    HW2 4290   2.901   4.876   0.591
 1131SOL     OW 4291   0.080   5.595   6.027
 1131SOL    HW1 4292   0.077   5.498   6.002
 1131SOL    HW2 4293   0.032   5.608   6.114
 1132SOL     OW 4294   5.092   0.822   1.492
 1132SOL    HW1 4295   5.064   0.916   1.510
 1132SOL    HW2 4296   5.192   0.817   1.488
 1133SOL     OW 4297   0.739   0.410   1.313
 1133SOL    HW1 4298   0.709   0.468   1.389
 1133SOL    HW2 4299   0.661   0.392   1.253
 1134SOL     OW 4300   5.418   1.039   2.056
 1134SOL    HW1 4301   5.346   1.108   2.050
 1134SOL    HW2 4302   5.481   1.063   2.130
 1135SOL     OW 4303   2.590   1.291   2.772
 1135SOL    HW1 4304   2.656   1.219   2.793
 1135SOL    HW2 4305   2.518   1.255   2.713
 1136SOL     OW 4306   3.635   5.161   3.539
 1136SOL    HW1 4307   3.598   5.143   3.630
 1136SOL    HW2 4308   3.616   5.084   3.479
 1137SOL     OW 4309   1.321   0.864   6.546
 1137SOL    HW1 4310   1.345   0.826   6.457
 1137SOL    HW2 4311   1.268   0.948   6.533
 1138SOL     OW 4312   0.193   0.830   6.029
 1138SOL    HW1 4313   0.275   0.785   6.065
 1138SOL    HW2 4314   0.198   0.928   6.045
 1139SOL     OW 4315   3.334   5.028   1.548
 1139SOL    HW1 4316   3.414   4.987   1.592
 1139SOL    HW2 4317   3.316   5.118   1.589
 1140SOL     OW 4318   4.111   1.299   2.026
 1140SOL    HW1 4319   4.142   1.220   1.974
 1140SOL    HW2 4320   4.191   1.346   2.065
 1141SOL     OW 4321   0.289   6.135   6.781
 1141SOL    HW1 4322   0.367   6.166   6.834
 1141SOL    HW2 4323   0.286   6.035   6.780
 1142SOL     OW 4324   2.849   0.004   4.642
 1142SOL    HW1 4325   2.897   0.019   4.728
 1142SOL    HW2 4326   2.911   6.977   4.578
 1143SOL     OW 4327   1.667   3.751   2.550
 1143SOL    HW1 4328   1.617   3.835   2.573
 1143SOL    HW2 4329   1.655   3.732   2.452
 1144SOL     OW 4330   6.595   5.035   4.553
 1144SOL    HW1 4331   6.638   5.117   4.515
 1144SOL    HW2 4332   6.520   5.006   4.493
 1145SOL     OW 4333   6.529   3.711   2.377
 1145SOL    HW1 4334   6.578   3.793   2.347
 1145SOL    HW2 4335   6.458   3.736   2.443
 1146SOL     OW 4336   6.436   0.815   2.435
 1146SOL    HW1 4337   6.423   0.740   2.371
 1146SOL    HW2 4338   6.356   0.823   2.494
 1147SOL     OW 4339   2.366   4.919   1.555
 1147SOL    HW1 4340   2.306   4.966   1.490
 1147SOL    HW2 4341   2.441   4.979   1.580
 1148SOL     OW 4342   5.353   6.086   0.872
 1148SOL    HW1 4343   5.324   6.169   0.919
 1148SOL    HW2 4344   5.381   6.110   0.778
 1149SOL     OW 4345   6.873   4.150   2.881
 1149SOL    HW1 4346   6.888   4.208   2.961
 1149SOL    HW2 4347   6.779   4.116   2.881
 1150SOL     OW 4348   2.323   3.634   6.958
 1150SOL    HW1 4349   2.349   3.588   6.873
 1150SOL    HW2 4350   2.249   3.583   7.002
 1151SOL     OW 4351   4.680   4.791   6.820
 1151SOL    HW1 4352   4.666   4.856   6.745
 1151SOL    HW2 4353   4.769   4.808   6.863
 1152SOL     OW 4354   5.520   4.769   5.856
 1152SOL    HW1 4355   5.565   4.723   5.780
 1152SOL    HW2 4356   5.571   4.853   5.878
 1153SOL     OW 4357   1.979   0.507   1.276
 1153SOL    HW1 4358   1.887   0.546   1.278
 1153SOL    HW2 4359   2.046   0.578   1.295
 1154SOL     OW 4360   0.650   4.512   1.343
 1154SOL    HW1 4361   0.714   4.482   1.414
 1154SOL    HW2 4362   0.598   4.434   1.308
 1155SOL     OW 4363   2.614   5.588   6.326
 1155SOL    HW1 4364   2.681   5.542   6.268
 1155SOL    HW2 4365   2.526   5.540   6.320
 1156SOL     OW 4366   3.881   1.636   4.544
 1156SOL    HW1 4367   3.980   1.638   4.559
 1156SOL    HW2 4368   3.862   1.638   4.446
 1157SOL     OW 4369   5.877   0.458   5.440
 1157SOL    HW1 4370   5.957   0.517   5.432
 1157SOL    HW2 4371   5.846   0.432   5.348
 1158SOL     OW 4372   0.136   5.308   5.218
 1158SOL    HW1 4373   0.064   5.357   5.171
 1158SOL    HW2 4374   0.100   5.222   5.254
 1159SOL     OW 4375   6.579   0.212   4.203
 1159SOL    HW1 4376   6.512   0.172   4.140
 1159SOL    HW2 4377   6.578   0.311   4.194
 1160SOL     OW 4378   4.150   3.758   1.024
 1160SOL    HW1 4379   4.066   3.758   1.079
 1160SOL    HW2 4380   4.183   3.851   1.013
 1161SOL     OW 4381   6.298   0.129   6.434
 1161SOL    HW1 4382   6.215   0.108   6.487
 1161SOL    HW2 4383   6.286   0.216   6.386
 1162SOL     OW 4384   3.156   2.405   6.454
 1162SOL    HW1 4385   3.101   2.411   6.538
 1162SOL    HW2 4386   3.099   2.370   6.380
 1163SOL     OW 4387   6.618   3.479   1.745
 1163SOL    HW1 4388   6.586   3.523   1.661
 1163SOL    HW2 4389   6.626   3.547   1.818
 1164SOL     OW 4390   5.959   3.202   4.929
 1164SOL    HW1 4391   5.979   3.116   4.975
 1164SOL    HW2 4392   5.936   3.272   4.996
 1165SOL     OW 4393   2.844   4.846   4.030
 1165SOL    HW1 4394   2.814   4.926   3.978
 1165SOL    HW2 4395   2.812   4.763   3.984
 1166SOL     OW 4396   3.882   6.923   0.376
 1166SOL    HW1 4397   3.786   6.919   0.347
 1166SOL    HW2 4398   3.910   6.832   0.408
 1167SOL     OW 4399   4.226   6.363   6.637
 1167SOL    HW1 4400   4.176   6.449   6.640
 1167SOL    HW2 4401   4.165   6.287   6.658
 1168SOL     OW 4402   5.117   2.061   3.681
 1168SOL    HW1 4403   5.122   2.156   3.714
 1168SOL    HW2 4404   5.210   2.028   3.663
 1169SOL     OW 4405   5.191   2.266   5.718
 1169SOL    HW1 4406   5.111   2.224   5.676
 1169SOL    HW2 4407   5.218   2.213   5.798
 1170SOL     OW 4408   4.957   0.801   2.962
 1170SOL    HW1 4409   4.871   0.783   2.914
 1170SOL    HW2 4410   4.975   0.727   3.027
 1171SOL     OW 4411   2.837   6.324   6.886
 1171SOL    HW1 4412   2.853   6.331   6.985
 1171SOL    HW2 4413   2.840   6.227   6.859
 1172SOL     OW 4414   3.061   4.096   1.921
 1172SOL    HW1 4415   3.069   4.020   1.985
 1172SOL    HW2 4416   3.036   4.179   1.971
 1173SOL     OW 4417   2.916   0.778   6.578
 1173SOL    HW1 4418   2.963   0.702   6.624
 1173SOL    HW2 4419   2.874   0.744   6.493
 1174SOL     OW 4420   3.489   4.912   1.027
 1174SOL    HW1 4421   3.536   4.996   1.000
 1174SOL    HW2 4422   3.543   4.833   0.996
 1175SOL     OW 4423   3.837   3.228   6.594
 1175SOL    HW1 4424   3.746   3.268   6.609
 1175SOL    HW2 4425   3.890   3.288   6.534
 1176SOL     OW 4426   5.960   5.118   6.405
 1176SOL    HW1 4427   5.946   5.109   6.306
 1176SOL    HW2 4428   5.993   5.210   6.426
 1177SOL     OW 4429   6.867   1.719   5.429
 1177SOL    HW1 4430   6.804   1.661   5.479
 1177SOL    HW2 4431   6.854   1.706   5.331
 1178SOL     OW 4432   2.857   4.003   0.702
 1178SOL    HW1 4433   2.795   3.949   0.646
 1178SOL    HW2 4434   2.826   4.001   0.798
 1179SOL     OW 4435   3.486   6.279   0.735
 1179SOL    HW1 4436   3.449   6.229   0.656
 1179SOL    HW2 4437   3.411   6.329   0.780
 1180SOL     OW 4438   1.958   5.940   3.972
 1180SOL    HW1 4439   2.051   5.931   3.934
 1180SOL    HW2 4440   1.914   6.021   3.933
 1181SOL     OW 4441   0.345   3.092   5.746
 1181SOL    HW1 4442   0.424   3.047   5.704
 1181SOL    HW2 4443   0.365   3.188   5.761
 1182SOL     OW 4444   3.120   4.861   3.343
 1182SOL    HW1 4445   3.144   4.819   3.256
 1182SOL    HW2 4446   3.022   4.853   3.358
 1183SOL     OW 4447   3.344   5.428   2.017
 1183SOL    HW1 4448   3.385   5.337   2.018
 1183SOL    HW2 4449   3.366   5.474   1.931
 1184SOL     OW 4450   5.764   6.909   6.089
 1184SOL    HW1 4451   5.828   6.919   6.165
 1184SOL    HW2 4452   5.783   6.978   6.019
 1185SOL     OW 4453   0.346   0.938   1.127
 1185SOL    HW1 4454   0.417   0.899   1.185
 1185SOL    HW2 4455   0.388   0.991   1.053
 1186SOL     OW 4456   5.638   5.421   5.301
 1186SOL    HW1 4457   5.607   5.327   5.312
 1186SOL    HW2 4458   5.693   5.429   5.219
 1187SOL     OW 4459   5.422   6.477   5.664
 1187SOL    HW1 4460   5.359   6.502   5.590
 1187SOL    HW2 4461   5.495   6.546   5.670
 1188SOL     OW 4462   3.496   5.089   6.364
 1188SOL    HW1 4463   3.529   5.176   6.328
 1188SOL    HW2 4464   3.448   5.104   6.451
 1189SOL     OW 4465   5.980   0.686   1.079
 1189SOL    HW1 4466   6.076   0.702   1.056
 1189SOL    HW2 4467   5.945   0.765   1.130
 1190SOL     OW 4468   3.038   6.077   2.773
 1190SOL    HW1 4469   3.014   6.074   2.675
 1190SOL    HW2 4470   3.132   6.046   2.785
 1191SOL     OW 4471   2.495   6.518   4.394
 1191SOL    HW1 4472   2.444   6.597   4.360
 1191SOL    HW2 4473   2.593   6.538   4.391
 1192SOL     OW 4474   5.605   6.509   3.435
 1192SOL    HW1 4475   5.647   6.597   3.414
 1192SOL    HW2 4476   5.675   6.445   3.467
 1193SOL     OW 4477   0.347   0.374   5.080
 1193SOL    HW1 4478   0.409   0.452   5.080
 1193SOL    HW2 4479   0.252   0.407   5.079
 1194SOL     OW 4480   6.588   1.513   1.053
 1194SOL    HW1 4481   6.491   1.491   1.063
 1194SOL    HW2 4482   6.641   1.460   1.119
 1195SOL     OW 4483   6.841   3.195   0.278
 1195SOL    HW1 4484   6.879   3.245   0.356
 1195SOL    HW2 4485   6.795   3.259   0.216
 1196SOL     OW 4486   6.277   4.783   3.635
 1196SOL    HW1 4487   6.256   4.825   3.724
 1196SOL    HW2 4488   6.205   4.718   3.611
 1197SOL     OW 4489   4.377   6.634   4.534
 1197SOL    HW1 4490   4.367   6.722   4.580
 1197SOL    HW2 4491   4.472   6.622   4.504
 1198SOL     OW 4492   1.437   3.686   2.028
 1198SOL    HW1 4493   1.365   3.746   1.992
 1198SOL    HW2 4494   1.525   3.713   1.988
 1199SOL     OW 4495   3.045   3.566   2.921
 1199SOL    HW1 4496   3.008   3.530   3.006
 1199SOL    HW2 4497   3.145   3.561   2.923
 1200SOL     OW 4498   3.749   4.083   4.471
 1200SOL    HW1 4499   3.723   4.139   4.550
 1200SOL    HW2 4500   3.709   4.120   4.388
 1201SOL     OW 4501   6.770   1.003   5.086
 1201SOL    HW1 4502   6.842   1.040   5.145
 1201SOL    HW2 4503   6.791   1.023   4.990
 1202SOL     OW 4504   6.972   6.229   5.594
 1202SOL    HW1 4505   6.916   6.311   5.586
 1202SOL    HW2 4506   6.991   6.211   5.690
 1203SOL     OW 4507   0.371   6.468   0.563
 1203SOL    HW1 4508   0.338   6.374   0.560
 1203SOL    HW2 4509   0.469   6.468   0.583
 1204SOL     OW 4510   4.900   1.230   1.787
 1204SOL    HW1 4511   4.916   1.320   1.747
 1204SOL    HW2 4512   4.846   1.238   1.870
 1205SOL     OW 4513   3.649   3.697   0.155
 1205SOL    HW1 4514   3.715   3.748   0.099
 1205SOL    HW2 4515   3.613   3.620   0.102
 1206SOL     OW 4516   0.860   3.210   4.811
 1206SOL    HW1 4517   0.832   3.239   4.903
 1206SOL    HW2 4518   0.909   3.285   4.766
 1207SOL     OW 4519   0.210   0.706   1.138
 1207SOL    HW1 4520   0.255   0.672   1.220
 1207SOL    HW2 4521   0.254   0.791   1.109
 1208SOL     OW 4522   3.471   3.554   1.639
 1208SOL    HW1 4523   3.474   3.599   1.729
 1208SOL    HW2 4524   3.408   3.604   1.579
 1209SOL     OW 4525   5.159   0.111   4.436
 1209SOL    HW1 4526   5.127   0.185   4.496
 1209SOL    HW2 4527   5.118   0.024   4.465
 1210SOL     OW 4528   4.498   6.748   3.708
 1210SOL    HW1 4529   4.460   6.692   3.634
 1210SOL    HW2 4530   4.454   6.724   3.794
 1211SOL     OW 4531   0.718   3.163   2.859
 1211SOL    HW1 4532   0.751   3.213   2.779
 1211SOL    HW2 4533   0.687   3.227   2.929
 1212SOL     OW 4534   6.491   0.268   5.952
 1212SOL    HW1 4535   6.531   0.300   5.866
 1212SOL    HW2 4536   6.520   0.328   6.026
 1213SOL     OW 4537   5.585   2.142   2.227
 1213SOL    HW1 4538   5.624   2.102   2.144
 1213SOL    HW2 4539   5.657   2.187   2.280
 1214SOL     OW 4540   0.664   2.448   6.840
 1214SOL    HW1 4541   0.695   2.539   6.814
 1214SOL    HW2 4542   0.569   2.454   6.874
 1215SOL     OW 4543   1.317   4.973   2.671
 1215SOL    HW1 4544   1.348   4.899   2.612
 1215SOL    HW2 4545   1.239   5.019   2.629
 1216SOL     OW 4546   5.668   1.393   0.825
 1216SOL    HW1 4547   5.622   1.383   0.914
 1216SOL    HW2 4548   5.653   1.486   0.791
 1217SOL     OW 4549   2.583   4.995   0.685
 1217SOL    HW1 4550   2.584   5.093   0.705
 1217SOL    HW2 4551   2.551   4.981   0.591
 1218SOL     OW 4552   1.647   2.559   4.966
 1218SOL    HW1 4553   1.566   2.563   4.908
 1218SOL    HW2 4554   1.723   2.518   4.916
 1219SOL     OW 4555   5.642   5.375   2.108
 1219SOL    HW1 4556   5.555   5.342   2.072
 1219SOL    HW2 4557   5.675   5.450   2.051
 1220SOL     OW 4558   6.994   3.962   2.308
 1220SOL    HW1 4559   0.006   4.018   2.231
 1220SOL    HW2 4560   6.938   3.886   2.272
 1221SOL     OW 4561   5.127   3.715   6.686
 1221SOL    HW1 4562   5.198   3.725   6.616
 1221SOL    HW2 4563   5.056   3.653   6.652
 1222SOL     OW 4564   6.890   1.094   6.746
 1222SOL    HW1 4565   6.849   1.130   6.831
 1222SOL    HW2 4566   6.852   1.004   6.727
 1223SOL     OW 4567   3.945   0.863   0.095
 1223SOL    HW1 4568   3.952   0.763   0.086
 1223SOL    HW2 4569   3.958   0.905   0.005
 1224SOL     OW 4570   3.302   6.131   6.865
 1224SOL    HW1 4571   3.378   6.170   6.814
 1224SOL    HW2 4572   3.309   6.158   6.961
 1225SOL     OW 4573   3.648   2.571   6.724
 1225SOL    HW1 4574   3.608   2.591   6.634
 1225SOL    HW2 4575   3.582   2.520   6.779
 1226SOL     OW 4576   3.756   6.234   0.557
 1226SOL    HW1 4577   3.699   6.312   0.581
 1226SOL    HW2 4578   3.850   6.251   0.588
 1227SOL     OW 4579   4.927   4.688   5.710
 1227SOL    HW1 4580   4.860   4.703   5.637
 1227SOL    HW2 4581   4.992   4.617   5.683
 1228SOL     OW 4582   3.395   2.237   6.373
 1228SOL    HW1 4583   3.300   2.271   6.375
 1228SOL    HW2 4584   3.445   2.275   6.450
 1229SOL     OW 4585   2.240   5.595   0.299
 1229SOL    HW1 4586   2.186   5.511   0.291
 1229SOL    HW2 4587   2.241   5.624   0.395
 1230SOL     OW 4588   5.170   6.087   2.164
 1230SOL    HW1 4589   5.251   6.146   2.171
 1230SOL    HW2 4590   5.153   6.043   2.252
 1231SOL     OW 4591   1.681   2.190   5.577
 1231SOL    HW1 4592   1.702   2.096   5.603
 1231SOL    HW2 4593   1.604   2.191   5.514
 1232SOL     OW 4594   6.764   1.012   4.812
 1232SOL    HW1 4595   6.833   1.084   4.800
 1232SOL    HW2 4596   6.744   0.971   4.723
 1233SOL     OW 4597   1.005   5.492   4.878
 1233SOL    HW1 4598   1.006   5.455   4.971
 1233SOL    HW2 4599   1.025   5.418   4.813
 1234SOL     OW 4600   5.892   3.071   5.560
 1234SOL    HW1 4601   5.867   2.974   5.562
 1234SOL    HW2 4602   5.810   3.127   5.574
 1235SOL     OW 4603   6.049   4.590   1.912
 1235SOL    HW1 4604   6.038   4.689   1.922
 1235SOL    HW2 4605   5.967   4.544   1.947
 1236SOL     OW 4606   4.461   1.212   1.178
 1236SOL    HW1 4607   4.544   1.201   1.233
 1236SOL    HW2 4608   4.421   1.122   1.160
 1237SOL     OW 4609   1.564   4.623   5.769
 1237SOL    HW1 4610   1.574   4.552   5.838
 1237SOL    HW2 4611   1.468   4.649   5.761
 1238SOL     OW 4612   1.564   0.611   6.260
 1238SOL    HW1 4613   1.510   0.662   6.193
 1238SOL    HW2 4614   1.649   0.660   6.278
 1239SOL     OW 4615   0.567   0.066   6.977
 1239SOL    HW1 4616   0.480   0.084   6.931
 1239SOL    HW2 4617   0.616   7.013   6.928
 1240SOL     OW 4618   5.857   6.175   1.078
 1240SOL    HW1 4619   5.925   6.117   1.034
 1240SOL    HW2 4620   5.826   6.246   1.014
 1241SOL     OW 4621   6.348   4.159   5.539
 1241SOL    HW1 4622   6.364   4.070   5.581
 1241SOL    HW2 4623   6.254   4.187   5.556
 1242SOL     OW 4624   2.119   3.686   1.343
 1242SOL    HW1 4625   2.094   3.682   1.440
 1242SOL    HW2 4626   2.214   3.655   1.332
 1243SOL     OW 4627   1.280   0.286   5.164
 1243SOL    HW1 4628   1.354   0.344   5.198
 1243SOL    HW2 4629   1.192   0.328   5.186
 1244SOL     OW 4630   5.309   6.520   4.289
 1244SOL    HW1 4631   5.338   6.596   4.231
 1244SOL    HW2 4632   5.378   6.504   4.360
 1245SOL     OW 4633   5.487   4.522   0.357
 1245SOL    HW1 4634   5.415   4.557   0.416
 1245SOL    HW2 4635   5.502   4.425   0.377
 1246SOL     OW 4636   3.450   1.232   1.251
 1246SOL    HW1 4637   3.424   1.163   1.184
 1246SOL    HW2 4638   3.413   1.207   1.341
 1247SOL     OW 4639   0.071   6.577   5.564
 1247SOL    HW1 4640   0.011   6.653   5.588
 1247SOL    HW2 4641   0.027   6.520   5.495
 1248SOL     OW 4642   2.216   6.668   4.235
 1248SOL    HW1 4643   2.269   6.695   4.315
 1248SOL    HW2 4644   2.242   6.725   4.157
 1249SOL     OW 4645   6.798   2.473   1.981
 1249SOL    HW1 4646   6.775   2.442   2.073
 1249SOL    HW2 4647   6.875   2.536   1.985
 1250SOL     OW 4648   5.434   5.289   3.255
 1250SOL    HW1 4649   5.529   5.318   3.246
 1250SOL    HW2 4650   5.379   5.334   3.184
 1251SOL     OW 4651   2.641   1.343   3.061
 1251SOL    HW1 4652   2.737   1.357   3.036
 1251SOL    HW2 4653   2.583   1.354   2.980
 1252SOL     OW 4654   4.028   4.123   6.850
 1252SOL    HW1 4655   4.050   4.185   6.774
 1252SOL    HW2 4656   4.025   4.175   6.935
 1253SOL     OW 4657   3.320   6.478   2.220
 1253SOL    HW1 4658   3.402   6.458   2.167
 1253SOL    HW2 4659   3.262   6.541   2.168
 1254SOL     OW 4660   0.716   2.621   3.788
 1254SOL    HW1 4661   0.759   2.639   3.876
 1254SOL    HW2 4662   0.775   2.654   3.715
 1255SOL     OW 4663   5.778   1.315   6.083
 1255SOL    HW1 4664   5.820   1.287   5.997
 1255SOL    HW2 4665   5.695   1.262   6.098
 1256SOL     OW 4666   6.857   0.453   3.312
 1256SOL    HW1 4667   6.859   0.470   3.214
 1256SOL    HW2 4668   6.782   0.505   3.354
 1257SOL     OW 4669   0.105   5.107   4.678
 1257SOL    HW1 4670   0.067   5.115   4.770
 1257SOL    HW2 4671   0.175   5.036   4.677
 1258SOL     OW 4672   1.618   5.037   3.032
 1258SOL    HW1 4673   1.531   5.044   2.983
 1258SOL    HW2 4674   1.693   5.060   2.969
 1259SOL     OW 4675   3.231   0.558   4.456
 1259SOL    HW1 4676   3.214   0.460   4.467
 1259SOL    HW2 4677   3.312   0.584   4.509
 1260SOL     OW 4678   3.158   2.012   6.835
 1260SOL    HW1 4679   3.176   2.076   6.761
 1260SOL    HW2 4680   3.068   2.030   6.875
 1261SOL     OW 4681   6.612   5.340   6.846
 1261SOL    HW1 4682   6.562   5.265   6.803
 1261SOL    HW2 4683   6.547   5.407   6.882
 1262SOL     OW 4684   5.858   3.938   1.583
 1262SOL    HW1 4685   5.869   4.037   1.583
 1262SOL    HW2 4686   5.761   3.915   1.583
 1263SOL     OW 4687   6.934   1.736   1.129
 1263SOL    HW1 4688   6.835   1.739   1.141
 1263SOL    HW2 4689   6.958   1.770   1.038
 1264SOL     OW 4690   6.494   3.620   1.491
 1264SOL    HW1 4691   6.583   3.645   1.451
 1264SOL    HW2 4692   6.454   3.700   1.535
 1265SOL     OW 4693   4.772   6.189   4.015
 1265SOL    HW1 4694   4.770   6.164   3.918
 1265SOL    HW2 4695   4.690   6.154   4.061
 1266SOL     OW 4696   0.397   1.369   4.733
 1266SOL    HW1 4697   0.329   1.382   4.806
 1266SOL    HW2 4698   0.461   1.297   4.760
 1267SOL     OW 4699   4.873   6.394   1.072
 1267SOL    HW1 4700   4.961   6.440   1.070
 1267SOL    HW2 4701   4.809   6.446   1.129
 1268SOL     OW 4702   3.666   3.003   0.650
 1268SOL    HW1 4703   3.699   3.018   0.557
 1268SOL    HW2 4704   3.685   3.084   0.705
 1269SOL     OW 4705   5.731   5.188   4.629
 1269SOL    HW1 4706   5.795   5.266   4.627
 1269SOL    HW2 4707   5.647   5.216   4.676
 1270SOL     OW 4708   1.468   3.619   3.458
 1270SOL    HW1 4709   1.470   3.526   3.423
 1270SOL    HW2 4710   1.464   3.683   3.382
 1271SOL     OW 4711   2.714   2.257   3.452
 1271SOL    HW1 4712   2.714   2.342   3.506
 1271SOL    HW2 4713   2.622   2.219   3.450
 1272SOL     OW 4714   5.235   5.443   0.135
 1272SOL    HW1 4715   5.283   5.371   0.085
 1272SOL    HW2 4716   5.289   5.469   0.215
 1273SOL     OW 4717   0.221   3.860   0.137
 1273SOL    HW1 4718   0.205   3.769   0.100
 1273SOL    HW2 4719   0.134   3.903   0.159
 1274SOL     OW 4720   6.767   4.533   1.163
 1274SOL    HW1 4721   6.802   4.626   1.163
 1274SOL    HW2 4722   6.841   4.469   1.142
 1275SOL     OW 4723   3.934   2.137   4.980
 1275SOL    HW1 4724   3.996   2.207   4.943
 1275SOL    HW2 4725   3.854   2.129   4.920
 1276SOL     OW 4726   0.212   5.725   4.665
 1276SOL    HW1 4727   0.213   5.643   4.722
 1276SOL    HW2 4728   0.213   5.699   4.568
 1277SOL     OW 4729   1.395   5.881   6.202
 1277SOL    HW1 4730   1.478   5.851   6.153
 1277SOL    HW2 4731   1.418   5.956   6.264
 1278SOL     OW 4732   0.831   6.843   4.695
 1278SOL    HW1 4733   0.834   6.914   4.624
 1278SOL    HW2 4734   0.751   6.859   4.753
 1279SOL     OW 4735   2.824   6.187   0.549
 1279SOL    HW1 4736   2.885   6.108   0.543
 1279SOL    HW2 4737   2.771   6.181   0.634
 1280SOL     OW 4738   3.151   6.341   5.195
 1280SOL    HW1 4739   3.058   6.332   5.161
 1280SOL    HW2 4740   3.214   6.295   5.132
 1281SOL     OW 4741   1.893   6.549   3.529
 1281SOL    HW1 4742   1.964   6.590   3.472
 1281SOL    HW2 4743   1.936   6.498   3.604
 1282SOL     OW 4744   0.523   2.145   6.957
 1282SOL    HW1 4745   0.513   2.196   6.871
 1282SOL    HW2 4746   0.483   2.054   6.947
 1283SOL     OW 4747   0.650   3.056   5.670
 1283SOL    HW1 4748   0.692   3.082   5.757
 1283SOL    HW2 4749   0.625   2.959   5.674
 1284SOL     OW 4750   4.702   2.184   1.184
 1284SOL    HW1 4751   4.749   2.272   1.172
 1284SOL    HW2 4752   4.770   2.110   1.188
 1285SOL     OW 4753   4.421   2.078   6.445
 1285SOL    HW1 4754   4.479   2.012   6.494
 1285SOL    HW2 4755   4.431   2.065   6.347
 1286SOL     OW 4756   4.913   3.724   1.741
 1286SOL    HW1 4757   4.815   3.712   1.725
 1286SOL    HW2 4758   4.945   3.805   1.691
 1287SOL     OW 4759   5.948   5.894   5.193
 1287SOL    HW1 4760   5.902   5.808   5.171
 1287SOL    HW2 4761   5.879   5.966   5.206
 1288SOL     OW 4762   4.651   3.216   6.628
 1288SOL    HW1 4763   4.706   3.269   6.564
 1288SOL    HW2 4764   4.558   3.207   6.592
 1289SOL     OW 4765   0.789   6.271   1.622
 1289SOL    HW1 4766   0.776   6.307   1.530
 1289SOL    HW2 4767   0.787   6.171   1.620
 1290SOL     OW 4768   0.299   5.928   6.507
 1290SOL    HW1 4769   0.338   5.900   6.419
 1290SOL    HW2 4770   0.263   5.848   6.554
 1291SOL     OW 4771   0.402   3.713   4.921
 1291SOL    HW1 4772   0.319   3.767   4.910
 1291SOL    HW2 4773   0.432   3.715   5.016
 1292SOL     OW 4774   0.048   5.879   1.985
 1292SOL    HW1 4775   0.087   5.971   1.993
 1292SOL    HW2 4776   6.975   5.878   2.024
 1293SOL     OW 4777   0.995   1.817   0.407
 1293SOL    HW1 4778   0.911   1.802   0.459
 1293SOL    HW2 4779   1.069   1.765   0.448
 1294SOL     OW 4780   0.743   2.964   6.464
 1294SOL    HW1 4781   0.699   2.986   6.377
 1294SOL    HW2 4782   0.837   2.934   6.447
 1295SOL     OW 4783   0.129   3.469   2.087
 1295SOL    HW1 4784   0.161   3.396   2.147
 1295SOL    HW2 4785   0.176   3.464   1.999
 1296SOL     OW 4786   3.775   6.806   5.882
 1296SOL    HW1 4787   3.848   6.839   5.821
 1296SOL    HW2 4788   3.784   6.851   5.971
 1297SOL     OW 4789   6.635   0.904   1.630
 1297SOL    HW1 4790   6.682   0.992   1.630
 1297SOL    HW2 4791   6.638   0.865   1.722
 1298SOL     OW 4792   5.262   4.834   2.592
 1298SOL    HW1 4793   5.217   4.882   2.668
 1298SOL    HW2 4794   5.194   4.785   2.538
 1299SOL     OW 4795   1.308   3.958   3.017
 1299SOL    HW1 4796   1.292   4.040   3.072
 1299SOL    HW2 4797   1.220   3.920   2.988
 1300SOL     OW 4798   3.014   3.306   1.251
 1300SOL    HW1 4799   3.050   3.264   1.334
 1300SOL    HW2 4800   2.930   3.260   1.224
 1301SOL     OW 4801   0.765   6.423   1.325
 1301SOL    HW1 4802   0.784   6.491   1.254
 1301SOL    HW2 4803   0.751   6.333   1.283
 1302SOL     OW 4804   4.847   0.071   5.767
 1302SOL    HW1 4805   4.864   0.082   5.865
 1302SOL    HW2 4806   4.831   0.161   5.725
 1303SOL     OW 4807   4.642   2.105   1.487
 1303SOL    HW1 4808   4.681   2.078   1.575
 1303SOL    HW2 4809   4.715   2.141   1.428
 1304SOL     OW 4810   1.853   1.101   6.469
 1304SOL    HW1 4811   1.914   1.129   6.394
 1304SOL    HW2 4812   1.778   1.166   6.476
 1305SOL     OW 4813   5.188   3.439   0.561
 1305SOL    HW1 4814   5.284   3.467   0.563
 1305SOL    HW2 4815   5.130   3.514   0.593
 1306SOL     OW 4816   0.621   4.751   3.551
 1306SOL    HW1 4817   0.559   4.809   3.497
 1306SOL    HW2 4818   0.665   4.807   3.621
 1307SOL     OW 4819   0.670   4.618   3.894
 1307SOL    HW1 4820   0.658   4.705   3.847
 1307SOL    HW2 4821   0.656   4.631   3.992
 1308SOL     OW 4822   6.099   6.690   5.197
 1308SOL    HW1 4823   6.112   6.591   5.199
 1308SOL    HW2 4824   6.050   6.715   5.114
 1309SOL     OW 4825   5.800   3.749   5.265
 1309SOL    HW1 4826   5.779   3.827   5.206
 1309SOL    HW2 4827   5.715   3.713   5.304
 1310SOL     OW 4828   6.738   4.034   3.936
 1310SOL    HW1 4829   6.755   3.954   3.994
 1310SOL    HW2 4830   6.805   4.037   3.863
 1311SOL     OW 4831   0.679   6.487   4.810
 1311SOL    HW1 4832   0.718   6.543   4.737
 1311SOL    HW2 4833   0.581   6.507   4.818
 1312SOL     OW 4834   1.379   6.821   0.223
 1312SOL    HW1 4835   1.443   6.898   0.226
 1312SOL    HW2 4836   1.430   6.735   0.223
 1313SOL     OW 4837   0.307   4.276   3.493
 1313SOL    HW1 4838   0.297   4.193   3.438
 1313SOL    HW2 4839   0.404   4.288   3.516
 1314SOL     OW 4840   4.192   1.132   5.515
 1314SOL    HW1 4841   4.196   1.048   5.569
 1314SOL    HW2 4842   4.247   1.203   5.561
 1315SOL     OW 4843   0.133   1.219   1.601
 1315SOL    HW1 4844   0.039   1.242   1.627
 1315SOL    HW2 4845   0.160   1.272   1.521
 1316SOL     OW 4846   1.512   5.571   4.914
 1316SOL    HW1 4847   1.481   5.529   4.829
 1316SOL    HW2 4848   1.535   5.500   4.981
 1317SOL     OW 4849   2.285   4.697   6.708
 1317SOL    HW1 4850   2.364   4.667   6.654
 1317SOL    HW2 4851   2.227   4.618   6.727
 1318SOL     OW 4852   0.781   1.966   1.316
 1318SOL    HW1 4853   0.769   2.061   1.345
 1318SOL    HW2 4854   0.822   1.964   1.225
 1319SOL     OW 4855   6.982   0.159   0.423
 1319SOL    HW1 4856   6.904   0.172   0.362
 1319SOL    HW2 4857   0.046   0.146   0.370
 1320SOL     OW 4858   4.749   4.091   0.933
 1320SOL    HW1 4859   4.752   4.005   0.985
 1320SOL    HW2 4860   4.698   4.076   0.848
 1321SOL     OW 4861   5.679   1.214   6.745
 1321SOL    HW1 4862   5.709   1.296   6.794
 1321SOL    HW2 4863   5.621   1.159   6.805
 1322SOL     OW 4864   3.939   0.632   3.488
 1322SOL    HW1 4865   3.992   0.555   3.453
 1322SOL    HW2 4866   3.901   0.609   3.577
 1323SOL     OW 4867   4.728   0.662   5.742
 1323SOL    HW1 4868   4.806   0.612   5.705
 1323SOL    HW2 4869   4.650   0.651   5.681
 1324SOL     OW 4870   1.008   3.479   0.625
 1324SOL    HW1 4871   0.924   3.427   0.610
 1324SOL    HW2 4872   0.999   3.569   0.583
 1325SOL     OW 4873   2.029   0.434   2.962
 1325SOL    HW1 4874   1.974   0.385   2.895
 1325SOL    HW2 4875   2.096   0.373   3.003
 1326SOL     OW 4876   4.962   3.478   4.804
 1326SOL    HW1 4877   5.026   3.547   4.769
 1326SOL    HW2 4878   4.924   3.508   4.891
 1327SOL     OW 4879   0.814   5.687   1.978
 1327SOL    HW1 4880   0.761   5.706   2.061
 1327SOL    HW2 4881   0.778   5.605   1.934
 1328SOL     OW 4882   1.245   3.015   0.774
 1328SOL    HW1 4883   1.324   3.054   0.726
 1328SOL    HW2 4884   1.168   3.079   0.769
 1329SOL     OW 4885   0.060   2.396   1.638
 1329SOL    HW1 4886   7.018   2.459   1.593
 1329SOL    HW2 4887   0.022   2.368   1.726
 1330SOL     OW 4888   0.497   1.734   2.081
 1330SOL    HW1 4889   0.541   1.754   1.993
 1330SOL    HW2 4890   0.486   1.819   2.132
 1331SOL     OW 4891   5.135   2.731   2.729
 1331SOL    HW1 4892   5.069   2.756   2.800
 1331SOL    HW2 4893   5.091   2.672   2.661
 1332SOL     OW 4894   2.703   6.982   5.961
 1332SOL    HW1 4895   2.704   7.012   5.866
 1332SOL    HW2 4896   2.636   6.908   5.972
 1333SOL     OW 4897   3.695   3.722   4.565
 1333SOL    HW1 4898   3.738   3.801   4.609
 1333SOL    HW2 4899   3.610   3.752   4.521
 1334SOL     OW 4900   6.172   1.562   4.308
 1334SOL    HW1 4901   6.145   1.512   4.226
 1334SOL    HW2 4902   6.102   1.550   4.379
 1335SOL     OW 4903   2.166   2.240   3.190
 1335SOL    HW1 4904   2.143   2.217   3.285
 1335SOL    HW2 4905   2.188   2.157   3.140
 1336SOL     OW 4906   1.886   2.292   5.107
 1336SOL    HW1 4907   1.939   2.358   5.161
 1336SOL    HW2 4908   1.850   2.337   5.026
 1337SOL     OW 4909   2.071   2.419   4.640
 1337SOL    HW1 4910   2.160   2.374   4.651
 1337SOL    HW2 4911   2.017   2.370   4.571
 1338SOL     OW 4912   5.116   1.941   5.490
 1338SOL    HW1 4913   5.190   1.873   5.492
 1338SOL    HW2 4914   5.156   2.033   5.488
 1339SOL     OW 4915   6.872   2.033   6.288
 1339SOL    HW1 4916   6.862   1.970   6.365
 1339SOL    HW2 4917   6.959   2.081   6.296
 1340SOL     OW 4918   6.969   2.421   2.577
 1340SOL    HW1 4919   6.985   2.335   2.624
 1340SOL    HW2 4920   6.873   2.426   2.547
 1341SOL     OW 4921   5.399   6.639   5.992
 1341SOL    HW1 4922   5.352   6.727   5.999
 1341SOL    HW2 4923   5.415   6.602   6.083
 1342SOL     OW 4924   1.997   5.474   6.104
 1342SOL    HW1 4925   2.007   5.379   6.076
 1342SOL    HW2 4926   2.053   5.491   6.185
 1343SOL     OW 4927   4.475   5.979   3.103
 1343SOL    HW1 4928   4.413   6.043   3.147
 1343SOL    HW2 4929   4.510   5.914   3.171
 1344SOL     OW 4930   6.664   5.836   4.415
 1344SOL    HW1 4931   6.646   5.805   4.322
 1344SOL    HW2 4932   6.754   5.881   4.419
 1345SOL     OW 4933   1.551   0.742   2.782
 1345SOL    HW1 4934   1.601   0.739   2.696
 1345SOL    HW2 4935   1.588   0.674   2.845
 1346SOL     OW 4936   0.654   6.056   4.944
 1346SOL    HW1 4937   0.564   6.076   4.904
 1346SOL    HW2 4938   0.681   5.963   4.919
 1347SOL     OW 4939   6.323   6.654   4.440
 1347SOL    HW1 4940   6.286   6.574   4.487
 1347SOL    HW2 4941   6.317   6.640   4.341
 1348SOL     OW 4942   5.442   5.368   2.532
 1348SOL    HW1 4943   5.350   5.380   2.569
 1348SOL    HW2 4944   5.476   5.278   2.556
 1349SOL     OW 4945   4.558   2.812   5.978
 1349SOL    HW1 4946   4.584   2.887   5.917
 1349SOL    HW2 4947   4.599   2.727   5.946
 1350SOL     OW 4948   5.044   5.228   5.387
 1350SOL    HW1 4949   5.071   5.286   5.310
 1350SOL    HW2 4950   4.952   5.193   5.372
 1351SOL     OW 4951   5.901   1.912   3.546
 1351SOL    HW1 4952   5.810   1.907   3.590
 1351SOL    HW2 4953   5.971   1.921   3.617
 1352SOL     OW 4954   6.917   6.600   2.424
 1352SOL    HW1 4955   6.846   6.563   2.483
 1352SOL    HW2 4956   6.935   6.537   2.348
 1353SOL     OW 4957   0.425   3.179   0.452
 1353SOL    HW1 4958   0.335   3.135   0.458
 1353SOL    HW2 4959   0.449   3.218   0.540
 1354SOL     OW 4960   0.983   3.205   0.814
 1354SOL    HW1 4961   1.057   3.271   0.820
 1354SOL    HW2 4962   0.937   3.215   0.725
 1355SOL     OW 4963   6.853   2.389   4.939
 1355SOL    HW1 4964   6.914   2.435   4.874
 1355SOL    HW2 4965   6.877   2.292   4.944
 1356SOL     OW 4966   3.128   3.138   3.072
 1356SOL    HW1 4967   3.052   3.112   3.132
 1356SOL    HW2 4968   3.092   3.163   2.982
 1357SOL     OW 4969   1.203   3.030   5.584
 1357SOL    HW1 4970   1.245   2.954   5.535
 1357SOL    HW2 4971   1.252   3.045   5.671
 1358SOL     OW 4972   4.331   0.387   5.810
 1358SOL    HW1 4973   4.424   0.360   5.835
 1358SOL    HW2 4974   4.270   0.371   5.888
 1359SOL     OW 4975   5.581   4.197   1.623
 1359SOL    HW1 4976   5.485   4.171   1.614
 1359SOL    HW2 4977   5.622   4.202   1.531
 1360SOL     OW 4978   4.220   2.687   0.334
 1360SOL    HW1 4979   4.291   2.690   0.404
 1360SOL    HW2 4980   4.238   2.612   0.271
 1361SOL     OW 4981   6.869   5.359   4.978
 1361SOL    HW1 4982   6.914   5.448   4.984
 1361SOL    HW2 4983   6.865   5.330   4.882
 1362SOL     OW 4984   3.174   4.083   3.912
 1362SOL    HW1 4985   3.141   4.047   3.825
 1362SOL    HW2 4986   3.127   4.037   3.987
 1363SOL     OW 4987   0.083   5.878   3.084
 1363SOL    HW1 4988   0.131   5.906   3.167
 1363SOL    HW2 4989   0.001   5.933   3.073
 1364SOL     OW 4990   6.638   2.573   1.147
 1364SOL    HW1 4991   6.708   2.537   1.209
 1364SOL    HW2 4992   6.611   2.664   1.176
 1365SOL     OW 4993   0.979   2.571   6.302
 1365SOL    HW1 4994   0.979   2.471   6.307
 1365SOL    HW2 4995   0.945   2.600   6.212
 1366SOL     OW 4996   1.135   4.423   6.822
 1366SOL    HW1 4997   1.117   4.513   6.783
 1366SOL    HW2 4998   1.220   4.387   6.784
 1367SOL     OW 4999   1.986   0.007   2.842
 1367SOL    HW1 5000   1.940   6.959   2.900
 1367SOL    HW2 5001   2.070   0.038   2.887
 1368SOL     OW 5002   6.174   0.679   3.448
 1368SOL    HW1 5003   6.225   0.763   3.463
 1368SOL    HW2 5004   6.222   0.603   3.491
 1369SOL     OW 5005   2.500   0.127   1.379
 1369SOL    HW1 5006   2.423   0.072   1.349
 1369SOL    HW2 5007   2.471   0.187   1.454
 1370SOL     OW 5008   4.033   1.559   1.903
 1370SOL    HW1 5009   3.977   1.480   1.879
 1370SOL    HW2 5010   3.976   1.627   1.950
 1371SOL     OW 5011   6.408   1.311   4.153
 1371SOL    HW1 5012   6.320   1.316   4.106
 1371SOL    HW2 5013   6.399   1.254   4.234
 1372SOL     OW 5014   1.476   3.130   0.703
 1372SOL    HW1 5015   1.535   3.149   0.781
 1372SOL    HW2 5016   1.491   3.199   0.632
 1373SOL     OW 5017   4.957   2.134   6.826
 1373SOL    HW1 5018   4.935   2.111   6.731
 1373SOL    HW2 5019   4.883   2.190   6.864
 1374SOL     OW 5020   5.017   1.746   6.864
 1374SOL    HW1 5021   5.046   1.750   6.959
 1374SOL    HW2 5022   5.007   1.839   6.828
 1375SOL     OW 5023   0.626   3.996   6.529
 1375SOL    HW1 5024   0.693   4.058   6.571
 1375SOL    HW2 5025   0.541   3.997   6.582
 1376SOL     OW 5026   4.420   4.878   5.129
 1376SOL    HW1 5027   4.345   4.933   5.165
 1376SOL    HW2 5028   4.428   4.892   5.030
 1377SOL     OW 5029   0.624   3.541   5.714
 1377SOL    HW1 5030   0.583   3.463   5.666
 1377SOL    HW2 5031   0.625   3.522   5.812
 1378SOL     OW 5032   5.875   0.773   4.740
 1378SOL    HW1 5033   5.867   0.713   4.660
 1378SOL    HW2 5034   5.901   0.719   4.820
 1379SOL     OW 5035   3.559   6.838   3.122
 1379SOL    HW1 5036   3.515   6.749   3.132
 1379SOL    HW2 5037   3.612   6.840   3.038
 1380SOL     OW 5038   0.107   6.696   2.556
 1380SOL    HW1 5039   0.015   6.698   2.517
 1380SOL    HW2 5040   0.110   6.753   2.639
 1381SOL     OW 5041   5.757   2.304   6.750
 1381SOL    HW1 5042   5.676   2.255   6.782
 1381SOL    HW2 5043   5.826   2.238   6.722
 1382SOL     OW 5044   4.670   3.445   0.157
 1382SOL    HW1 5045   4.700   3.535   0.126
 1382SOL    HW2 5046   4.737   3.376   0.130
 1383SOL     OW 5047   0.781   0.408   2.162
 1383SOL    HW1 5048   0.797   0.338   2.232
 1383SOL    HW2 5049   0.688   0.401   2.128
 1384SOL     OW 5050   4.658   7.013   1.731
 1384SOL    HW1 5051   4.689   6.919   1.718
 1384SOL    HW2 5052   4.682   0.024   1.823
 1385SOL     OW 5053   1.872   4.108   3.628
 1385SOL    HW1 5054   1.855   4.041   3.555
 1385SOL    HW2 5055   1.807   4.183   3.620
 1386SOL     OW 5056   3.501   0.632   4.576
 1386SOL    HW1 5057   3.541   0.718   4.606
 1386SOL    HW2 5058   3.572   0.571   4.542
 1387SOL     OW 5059   3.464   5.623   2.194
 1387SOL    HW1 5060   3.548   5.627   2.140
 1387SOL    HW2 5061   3.403   5.555   2.154
 1388SOL     OW 5062   0.407   0.036   3.099
 1388SOL    HW1 5063   0.475   0.007   3.031
 1388SOL    HW2 5064   0.454   0.084   3.174
 1389SOL     OW 5065   6.420   1.071   3.687
 1389SOL    HW1 5066   6.428   1.096   3.784
 1389SOL    HW2 5067   6.511   1.047   3.652
 1390SOL     OW 5068   5.931   3.413   6.305
 1390SOL    HW1 5069   5.883   3.326   6.313
 1390SOL    HW2 5070   5.995   3.408   6.228
 1391SOL     OW 5071   6.275   0.026   5.424
 1391SOL    HW1 5072   6.231   0.095   5.366
 1391SOL    HW2 5073   6.374   0.042   5.426
 1392SOL     OW 5074   5.550   6.505   6.489
 1392SOL    HW1 5075   5.594   6.415   6.494
 1392SOL    HW2 5076   5.571   6.557   6.572
 1393SOL     OW 5077   6.739   3.586   5.976
 1393SOL    HW1 5078   6.808   3.544   5.916
 1393SOL    HW2 5079   6.708   3.672   5.935
 1394SOL     OW 5080   3.874   5.861   4.948
 1394SOL    HW1 5081   3.775   5.854   4.949
 1394SOL    HW2 5082   3.906   5.867   4.853
 1395SOL     OW 5083   1.762   4.495   4.064
 1395SOL    HW1 5084   1.783   4.430   4.137
 1395SOL    HW2 5085   1.745   4.444   3.979
 1396SOL     OW 5086   0.706   0.389   4.600
 1396SOL    HW1 5087   0.791   0.351   4.564
 1396SOL    HW2 5088   0.716   0.488   4.611
 1397SOL     OW 5089   0.800   5.640   4.536
 1397SOL    HW1 5090   0.882   5.582   4.540
 1397SOL    HW2 5091   0.745   5.616   4.456
 1398SOL     OW 5092   2.263   1.590   6.790
 1398SOL    HW1 5093   2.325   1.511   6.787
 1398SOL    HW2 5094   2.260   1.626   6.883
 1399SOL     OW 5095   3.652   6.885   0.249
 1399SOL    HW1 5096   3.658   6.799   0.301
 1399SOL    HW2 5097   3.568   6.885   0.195
 1400SOL     OW 5098   0.252   1.934   4.404
 1400SOL    HW1 5099   0.291   2.021   4.435
 1400SOL    HW2 5100   0.325   1.874   4.374
 1401SOL     OW 5101   6.000   6.970   4.573
 1401SOL    HW1 5102   6.078   6.907   4.569
 1401SOL    HW2 5103   5.916   6.920   4.551
 1402SOL     OW 5104   5.763   4.328   6.466
 1402SOL    HW1 5105   5.766   4.405   6.530
 1402SOL    HW2 5106   5.692   4.345   6.397
 1403SOL     OW 5107   1.991   2.157   1.515
 1403SOL    HW1 5108   1.934   2.235   1.489
 1403SOL    HW2 5109   2.051   2.133   1.439
 1404SOL     OW 5110   6.663   0.307   0.154
 1404SOL    HW1 5111   6.564   0.318   0.152
 1404SOL    HW2 5112   6.686   0.229   0.212
 1405SOL     OW 5113   2.555   4.221   1.244
 1405SOL    HW1 5114   2.489   4.168   1.191
 1405SOL    HW2 5115   2.578   4.171   1.328
 1406SOL     OW 5116   1.820   5.631   1.204
 1406SOL    HW1 5117   1.841   5.728   1.222
 1406SOL    HW2 5118   1.724   5.614   1.225
 1407SOL     OW 5119   1.411   4.095   3.368
 1407SOL    HW1 5120   1.372   4.111   3.277
 1407SOL    HW2 5121   1.470   4.172   3.392
 1408SOL     OW 5122   6.017   6.668   6.165
 1408SOL    HW1 5123   5.958   6.624   6.098
 1408SOL    HW2 5124   6.098   6.705   6.119
 1409SOL     OW 5125   0.861   0.364   5.111
 1409SOL    HW1 5126   0.897   0.311   5.188
 1409SOL    HW2 5127   0.917   0.446   5.098
 1410SOL     OW 5128   2.510   4.308   6.522
 1410SOL    HW1 5129   2.500   4.269   6.430
 1410SOL    HW2 5130   2.583   4.260   6.570
 1411SOL     OW 5131   3.526   6.628   0.307
 1411SOL    HW1 5132   3.455   6.610   0.239
 1411SOL    HW2 5133   3.593   6.554   0.306
 1412SOL     OW 5134   0.695   4.035   1.338
 1412SOL    HW1 5135   0.643   4.120   1.336
 1412SOL    HW2 5136   0.729   4.014   1.246
 1413SOL     OW 5137   2.341   1.538   4.537
 1413SOL    HW1 5138   2.280   1.533   4.615
 1413SOL    HW2 5139   2.410   1.608   4.553
 1414SOL     OW 5140   2.687   2.045   1.690
 1414SOL    HW1 5141   2.657   2.007   1.778
 1414SOL    HW2 5142   2.766   2.104   1.704
 1415SOL     OW 5143   3.164   1.592   3.980
 1415SOL    HW1 5144   3.184   1.495   3.967
 1415SOL    HW2 5145   3.242   1.647   3.951
 1416SOL     OW 5146   3.676   6.798   4.989
 1416SOL    HW1 5147   3.583   6.822   5.017
 1416SOL    HW2 5148   3.712   6.727   5.050
 1417SOL     OW 5149   3.049   2.914   6.739
 1417SOL    HW1 5150   2.958   2.918   6.780
 1417SOL    HW2 5151   3.044   2.949   6.645
 1418SOL     OW 5152   2.697   3.849   0.889
 1418SOL    HW1 5153   2.683   3.760   0.846
 1418SOL    HW2 5154   2.615   3.906   0.876
 1419SOL     OW 5155   2.981   5.721   3.852
 1419SOL    HW1 5156   2.921   5.711   3.931
 1419SOL    HW2 5157   3.009   5.630   3.820
 1420SOL     OW 5158   3.541   6.176   3.277
 1420SOL    HW1 5159   3.448   6.142   3.289
 1420SOL    HW2 5160   3.542   6.275   3.292
 1421SOL     OW 5161   0.681   4.151   4.030
 1421SOL    HW1 5162   0.596   4.176   3.986
 1421SOL    HW2 5163   0.693   4.203   4.114
 1422SOL     OW 5164   3.101   4.524   6.913
 1422SOL    HW1 5165   3.026   4.585   6.885
 1422SOL    HW2 5166   3.063   4.440   6.952
 1423SOL     OW 5167   3.856   0.760   4.435
 1423SOL    HW1 5168   3.846   0.817   4.516
 1423SOL    HW2 5169   3.946   0.773   4.395
 1424SOL     OW 5170   6.768   4.012   6.727
 1424SOL    HW1 5171   6.706   4.076   6.681
 1424SOL    HW2 5172   6.856   4.057   6.741
 1425SOL     OW 5173   2.199   5.519   5.162
 1425SOL    HW1 5174   2.295   5.532   5.136
 1425SOL    HW2 5175   2.190   5.530   5.261
 1426SOL     OW 5176   2.258   2.256   5.791
 1426SOL    HW1 5177   2.317   2.283   5.868
 1426SOL    HW2 5178   2.291   2.169   5.754
 1427SOL     OW 5179   6.857   6.732   3.722
 1427SOL    HW1 5180   6.898   6.823   3.729
 1427SOL    HW2 5181   6.929   6.664   3.707
 1428SOL     OW 5182   1.007   2.007   1.676
 1428SOL    HW1 5183   0.965   1.960   1.599
 1428SOL    HW2 5184   1.021   1.943   1.751
 1429SOL     OW 5185   5.886   1.630   0.516
 1429SOL    HW1 5186   5.948   1.700   0.480
 1429SOL    HW2 5187   5.795   1.670   0.530
 1430SOL     OW 5188   2.267   4.951   3.797
 1430SOL    HW1 5189   2.338   5.020   3.784
 1430SOL    HW2 5190   2.182   4.983   3.756
 1431SOL     OW 5191   2.483   2.909   6.243
 1431SOL    HW1 5192   2.415   2.857   6.192
 1431SOL    HW2 5193   2.572   2.864   6.238
 1432SOL     OW 5194   3.413   1.153   0.653
 1432SOL    HW1 5195   3.341   1.163   0.722
 1432SOL    HW2 5196   3.401   1.066   0.605
 1433SOL     OW 5197   4.262   0.314   5.160
 1433SOL    HW1 5198   4.312   0.261   5.229
 1433SOL    HW2 5199   4.230   0.253   5.088
 1434SOL     OW 5200   0.428   1.012   6.391
 1434SOL    HW1 5201   0.477   0.949   6.450
 1434SOL    HW2 5202   0.468   1.103   6.399
 1435SOL     OW 5203   6.666   0.110   2.922
 1435SOL    HW1 5204   6.634   0.198   2.887
 1435SOL    HW2 5205   6.716   0.125   3.007
 1436SOL     OW 5206   5.457   3.897   6.985
 1436SOL    HW1 5207   5.384   3.946   6.938
 1436SOL    HW2 5208   5.496   3.956   0.037
 1437SOL     OW 5209   3.472   1.403   6.117
 1437SOL    HW1 5210   3.482   1.361   6.207
 1437SOL    HW2 5211   3.403   1.475   6.121
 1438SOL     OW 5212   2.636   0.374   0.964
 1438SOL    HW1 5213   2.725   0.419   0.967
 1438SOL    HW2 5214   2.573   0.429   0.908
 1439SOL     OW 5215   0.327   5.057   0.467
 1439SOL    HW1 5216   0.412   5.019   0.432
 1439SOL    HW2 5217   0.298   5.133   0.409
 1440SOL     OW 5218   3.044   2.821   5.924
 1440SOL    HW1 5219   3.082   2.876   5.998
 1440SOL    HW2 5220   3.069   2.862   5.836
 1441SOL     OW 5221   5.847   3.692   4.103
 1441SOL    HW1 5222   5.937   3.732   4.086
 1441SOL    HW2 5223   5.843   3.658   4.197
 1442SOL     OW 5224   6.490   5.054   6.983
 1442SOL    HW1 5225   6.560   4.991   6.951
 1442SOL    HW2 5226   6.414   5.055   6.919
 1443SOL     OW 5227   1.233   2.841   4.798
 1443SOL    HW1 5228   1.242   2.923   4.742
 1443SOL    HW2 5229   1.157   2.786   4.764
 1444SOL     OW 5230   4.335   5.713   1.558
 1444SOL    HW1 5231   4.413   5.761   1.517
 1444SOL    HW2 5232   4.338   5.724   1.657
 1445SOL     OW 5233   0.040   2.808   2.269
 1445SOL    HW1 5234   0.082   2.724   2.305
 1445SOL    HW2 5235   6.995   2.785   2.196
 1446SOL     OW 5236   4.899   1.995   6.582
 1446SOL    HW1 5237   4.825   2.056   6.553
 1446SOL    HW2 5238   4.896   1.912   6.527
 1447SOL     OW 5239   6.140   6.812   5.451
 1447SOL    HW1 5240   6.192   6.898   5.446
 1447SOL    HW2 5241   6.137   6.770   5.360
 1448SOL     OW 5242   6.420   2.395   7.018
 1448SOL    HW1 5243   6.416   2.311   6.964
 1448SOL    HW2 5244   6.436   2.473   6.957
 1449SOL     OW 5245   6.454   0.919   0.021
 1449SOL    HW1 5246   6.437   0.897   0.117
 1449SOL    HW2 5247   6.545   0.960   0.013
 1450SOL     OW 5248   1.053   2.469   2.032
 1450SOL    HW1 5249   1.021   2.391   1.977
 1450SOL    HW2 5250   0.991   2.546   2.020
 1451SOL     OW 5251   3.018   1.079   2.712
 1451SOL    HW1 5252   3.027   1.173   2.746
 1451SOL    HW2 5253   3.009   1.080   2.613
 1452SOL     OW 5254   4.382   0.926   4.289
 1452SOL    HW1 5255   4.328   1.004   4.255
 1452SOL    HW2 5256   4.448   0.899   4.219
 1453SOL     OW 5257   0.293   3.229   5.369
 1453SOL    HW1 5258   0.335   3.271   5.449
 1453SOL    HW2 5259   0.225   3.292   5.330
 1454SOL     OW 5260   6.282   2.306   3.191
 1454SOL    HW1 5261   6.303   2.292   3.288
 1454SOL    HW2 5262   6.338   2.380   3.155
 1455SOL     OW 5263   1.162   0.572   1.362
 1455SOL    HW1 5264   1.185   0.664   1.328
 1455SOL    HW2 5265   1.110   0.523   1.292
 1456SOL     OW 5266   6.525   6.997   5.681
 1456SOL    HW1 5267   6.597   0.006   5.744
 1456SOL    HW2 5268   6.438   0.021   5.707
 1457SOL     OW 5269   1.369   0.207   1.341
 1457SOL    HW1 5270   1.364   0.195   1.242
 1457SOL    HW2 5271   1.409   0.296   1.362
 1458SOL     OW 5272   6.201   6.548   3.552
 1458SOL    HW1 5273   6.148   6.469   3.585
 1458SOL    HW2 5274   6.139   6.624   3.532
 1459SOL     OW 5275   2.314   5.284   5.609
 1459SOL    HW1 5276   2.305   5.288   5.708
 1459SOL    HW2 5277   2.230   5.317   5.567
 1460SOL     OW 5278   0.263   4.807   5.583
 1460SOL    HW1 5279   0.192   4.811   5.513
 1460SOL    HW2 5280   0.230   4.753   5.660
 1461SOL     OW 5281   0.544   5.185   3.636
 1461SOL    HW1 5282   0.583   5.176   3.728
 1461SOL    HW2 5283   0.455   5.140   3.633
 1462SOL     OW 5284   0.884   0.563   6.072
 1462SOL    HW1 5285   0.813   0.632   6.059
 1462SOL    HW2 5286   0.922   0.538   5.983
 1463SOL     OW 5287   0.348   5.260   7.011
 1463SOL    HW1 5288   0.309   5.173   0.021
 1463SOL    HW2 5289   0.351   5.264   6.912
 1464SOL     OW 5290   6.136   6.628   0.935
 1464SOL    HW1 5291   6.149   6.724   0.908
 1464SOL    HW2 5292   6.199   6.605   1.009
 1465SOL     OW 5293   1.700   1.608   3.962
 1465SOL    HW1 5294   1.702   1.611   4.062
 1465SOL    HW2 5295   1.605   1.613   3.931
 1466SOL     OW 5296   1.224   1.210   2.290
 1466SOL    HW1 5297   1.234   1.180   2.195
 1466SOL    HW2 5298   1.292   1.163   2.347
 1467SOL     OW 5299   1.981   2.265   2.238
 1467SOL    HW1 5300   1.974   2.180   2.289
 1467SOL    HW2 5301   2.077   2.282   2.215
 1468SOL     OW 5302   5.393   5.359   2.984
 1468SOL    HW1 5303   5.453   5.301   2.928
 1468SOL    HW2 5304   5.426   5.453   2.981
 1469SOL     OW 5305   1.060   1.549   2.078
 1469SOL    HW1 5306   0.974   1.589   2.048
 1469SOL    HW2 5307   1.109   1.512   1.999
 1470SOL     OW 5308   1.921   1.012   2.758
 1470SOL    HW1 5309   1.840   1.051   2.801
 1470SOL    HW2 5310   1.954   0.935   2.812
 1471SOL     OW 5311   0.944   0.226   0.761
 1471SOL    HW1 5312   0.951   0.325   0.758
 1471SOL    HW2 5313   0.874   0.196   0.696
 1472SOL     OW 5314   4.036   5.814   5.132
 1472SOL    HW1 5315   3.987   5.759   5.200
 1472SOL    HW2 5316   3.988   5.810   5.045
 1473SOL     OW 5317   5.763   6.126   3.383
 1473SOL    HW1 5318   5.795   6.220   3.391
 1473SOL    HW2 5319   5.835   6.063   3.412
 1474SOL     OW 5320   6.083   5.826   3.073
 1474SOL    HW1 5321   6.050   5.756   3.136
 1474SOL    HW2 5322   6.039   5.913   3.095
 1475SOL     OW 5323   6.439   0.509   1.472
 1475SOL    HW1 5324   6.415   0.502   1.569
 1475SOL    HW2 5325   6.377   0.450   1.419
 1476SOL     OW 5326   2.370   1.674   1.253
 1476SOL    HW1 5327   2.372   1.598   1.188
 1476SOL    HW2 5328   2.455   1.675   1.306
 1477SOL     OW 5329   3.350   0.827   6.882
 1477SOL    HW1 5330   3.346   0.751   6.818
 1477SOL    HW2 5331   3.261   0.874   6.883
 1478SOL     OW 5332   5.337   5.043   0.438
 1478SOL    HW1 5333   5.280   4.961   0.433
 1478SOL    HW2 5334   5.402   5.034   0.514
 1479SOL     OW 5335   1.519   3.343   6.881
 1479SOL    HW1 5336   1.500   3.296   6.968
 1479SOL    HW2 5337   1.434   3.350   6.829
 1480SOL     OW 5338   3.270   0.076   6.265
 1480SOL    HW1 5339   3.226   0.024   6.192
 1480SOL    HW2 5340   3.323   0.151   6.225
 1481SOL     OW 5341   0.331   2.468   5.275
 1481SOL    HW1 5342   0.270   2.390   5.287
 1481SOL    HW2 5343   0.415   2.454   5.329
 1482SOL     OW 5344   5.090   2.576   0.916
 1482SOL    HW1 5345   5.068   2.486   0.952
 1482SOL    HW2 5346   5.170   2.612   0.964
 1483SOL     OW 5347   5.828   1.828   6.009
 1483SOL    HW1 5348   5.799   1.830   5.913
 1483SOL    HW2 5349   5.759   1.782   6.064
 1484SOL     OW 5350   5.528   5.665   4.271
 1484SOL    HW1 5351   5.618   5.708   4.268
 1484SOL    HW2 5352   5.495   5.663   4.365
 1485SOL     OW 5353   3.326   1.932   3.344
 1485SOL    HW1 5354   3.231   1.907   3.322
 1485SOL    HW2 5355   3.333   2.032   3.352
 1486SOL     OW 5356   4.863   2.387   3.089
 1486SOL    HW1 5357   4.837   2.312   3.028
 1486SOL    HW2 5358   4.948   2.429   3.056
 1487SOL     OW 5359   6.576   2.865   6.794
 1487SOL    HW1 5360   6.670   2.842   6.768
 1487SOL    HW2 5361   6.551   2.953   6.754
 1488SOL     OW 5362   5.688   2.039   3.863
 1488SOL    HW1 5363   5.735   1.975   3.924
 1488SOL    HW2 5364   5.751   2.114   3.840
 1489SOL     OW 5365   4.061   5.188   3.677
 1489SOL    HW1 5366   3.973   5.139   3.686
 1489SOL    HW2 5367   4.135   5.127   3.705
 1490SOL     OW 5368   1.229   3.075   1.051
 1490SOL    HW1 5369   1.238   3.000   1.117
 1490SOL    HW2 5370   1.250   3.041   0.960
 1491SOL     OW 5371   6.467   4.045   3.793
 1491SOL    HW1 5372   6.554   4.028   3.838
 1491SOL    HW2 5373   6.398   4.067   3.862
 1492SOL     OW 5374   5.632   1.590   2.626
 1492SOL    HW1 5375   5.585   1.602   2.538
 1492SOL    HW2 5376   5.661   1.679   2.660
 1493SOL     OW 5377   4.712   0.216   3.746
 1493SOL    HW1 5378   4.659   0.136   3.717
 1493SOL    HW2 5379   4.691   0.237   3.842
 1494SOL     OW 5380   5.926   1.697   5.509
 1494SOL    HW1 5381   5.981   1.779   5.522
 1494SOL    HW2 5382   5.927   1.642   5.592
 1495SOL     OW 5383   6.615   2.532   5.035
 1495SOL    HW1 5384   6.684   2.468   5.000
 1495SOL    HW2 5385   6.641   2.625   5.010
 1496SOL     OW 5386   0.518   1.621   2.524
 1496SOL    HW1 5387   0.456   1.583   2.593
 1496SOL    HW2 5388   0.513   1.566   2.441
 1497SOL     OW 5389   6.780   2.993   3.842
 1497SOL    HW1 5390   6.865   2.978   3.791
 1497SOL    HW2 5391   6.799   2.991   3.940
 1498SOL     OW 5392   2.064   4.699   6.292
 1498SOL    HW1 5393   2.086   4.613   6.244
 1498SOL    HW2 5394   1.974   4.731   6.263
 1499SOL     OW 5395   0.985   3.528   6.388
 1499SOL    HW1 5396   1.067   3.585   6.390
 1499SOL    HW2 5397   0.978   3.480   6.300
 1500SOL     OW 5398   6.722   6.507   0.020
 1500SOL    HW1 5399   6.660   6.585   0.029
 1500SOL    HW2 5400   6.782   6.521   6.959
 1501SOL     OW 5401   5.394   1.822   6.169
 1501SOL    HW1 5402   5.467   1.754   6.157
 1501SOL    HW2 5403   5.336   1.796   6.246
 1502SOL     OW 5404   5.778   0.602   0.896
 1502SOL    HW1 5405   5.835   0.629   0.974
 1502SOL    HW2 5406   5.764   0.680   0.836
 1503SOL     OW 5407   2.619   1.829   2.210
 1503SOL    HW1 5408   2.587   1.893   2.140
 1503SOL    HW2 5409   2.621   1.737   2.171
 1504SOL     OW 5410   1.001   0.554   4.777
 1504SOL    HW1 5411   1.016   0.534   4.874
 1504SOL    HW2 5412   0.938   0.630   4.768
 1505SOL     OW 5413   6.097   0.386   5.676
 1505SOL    HW1 5414   6.102   0.484   5.695
 1505SOL    HW2 5415   6.148   0.365   5.593
 1506SOL     OW 5416   1.566   5.529   1.270
 1506SOL    HW1 5417   1.498   5.556   1.338
 1506SOL    HW2 5418   1.568   5.429   1.263
 1507SOL     OW 5419   0.530   1.751   5.512
 1507SOL    HW1 5420   0.546   1.731   5.415
 1507SOL    HW2 5421   0.520   1.666   5.563
 1508SOL     OW 5422   6.805   0.341   1.846
 1508SOL    HW1 5423   6.719   0.300   1.876
 1508SOL    HW2 5424   6.839   0.292   1.765
 1509SOL     OW 5425   4.537   2.596   6.189
 1509SOL    HW1 5426   4.611   2.530   6.180
 1509SOL    HW2 5427   4.554   2.673   6.127
 1510SOL     OW 5428   5.728   2.884   4.868
 1510SOL    HW1 5429   5.714   2.963   4.808
 1510SOL    HW2 5430   5.804   2.829   4.834
 1511SOL     OW 5431   3.411   3.289   1.450
 1511SOL    HW1 5432   3.449   3.336   1.530
 1511SOL    HW2 5433   3.478   3.223   1.416
 1512SOL     OW 5434   0.398   5.524   1.260
 1512SOL    HW1 5435   0.431   5.507   1.167
 1512SOL    HW2 5436   0.317   5.583   1.257
 1513SOL     OW 5437   3.228   0.709   3.628
 1513SOL    HW1 5438   3.319   0.670   3.646
 1513SOL    HW2 5439   3.218   0.724   3.530
 1514SOL     OW 5440   5.009   2.500   5.948
 1514SOL    HW1 5441   5.075   2.524   6.019
 1514SOL    HW2 5442   5.007   2.401   5.936
 1515SOL     OW 5443   5.943   2.963   5.062
 1515SOL    HW1 5444   5.870   2.933   5.002
 1515SOL    HW2 5445   5.905   3.012   5.141
 1516SOL     OW 5446   0.366   6.875   0.649
 1516SOL    HW1 5447   0.401   6.810   0.582
 1516SOL    HW2 5448   0.266   6.869   0.652
 1517SOL     OW 5449   4.085   6.229   3.600
 1517SOL    HW1 5450   4.039   6.242   3.513
 1517SOL    HW2 5451   4.017   6.211   3.671
 1518SOL     OW 5452   0.609   2.985   0.605
 1518SOL    HW1 5453   0.585   2.903   0.656
 1518SOL    HW2 5454   0.605   2.967   0.507
 1519SOL     OW 5455   6.236   5.059   1.928
 1519SOL    HW1 5456   6.305   5.013   1.873
 1519SOL    HW2 5457   6.215   5.004   2.009
 1520SOL     OW 5458   0.561   3.849   2.538
 1520SOL    HW1 5459   0.526   3.760   2.509
 1520SOL    HW2 5460   0.485   3.907   2.567
 1521SOL     OW 5461   2.352   4.160   0.327
 1521SOL    HW1 5462   2.405   4.106   0.261
 1521SOL    HW2 5463   2.406   4.173   0.410
 1522SOL     OW 5464   6.583   0.015   4.742
 1522SOL    HW1 5465   6.602   0.105   4.702
 1522SOL    HW2 5466   6.633   6.965   4.690
 1523SOL     OW 5467   4.934   4.053   0.037
 1523SOL    HW1 5468   4.875   4.005   0.102
 1523SOL    HW2 5469   4.956   3.992   6.980
 1524SOL     OW 5470   1.715   2.487   1.807
 1524SOL    HW1 5471   1.728   2.585   1.826
 1524SOL    HW2 5472   1.749   2.434   1.884
 1525SOL     OW 5473   6.668   2.233   0.130
 1525SOL    HW1 5474   6.642   2.311   0.187
 1525SOL    HW2 5475   6.696   2.265   0.040
 1526SOL     OW 5476   0.832   0.116   6.685
 1526SOL    HW1 5477   0.883   0.176   6.624
 1526SOL    HW2 5478   0.823   0.159   6.775
 1527SOL     OW 5479   3.835   0.928   5.617
 1527SOL    HW1 5480   3.870   0.834   5.607
 1527SOL    HW2 5481   3.757   0.942   5.556
 1528SOL     OW 5482   4.975   5.678   2.385
 1528SOL    HW1 5483   4.922   5.653   2.466
 1528SOL    HW2 5484   5.071   5.687   2.409
 1529SOL     OW 5485   4.027   0.342   0.649
 1529SOL    HW1 5486   4.124   0.320   0.661
 1529SOL    HW2 5487   3.983   0.350   0.739
 1530SOL     OW 5488   3.461   1.476   3.068
 1530SOL    HW1 5489   3.415   1.408   3.011
 1530SOL    HW2 5490   3.494   1.432   3.152
 1531SOL     OW 5491   5.371   0.910   4.872
 1531SOL    HW1 5492   5.325   0.821   4.869
 1531SOL    HW2 5493   5.403   0.935   4.781
 1532SOL     OW 5494   3.201   3.804   5.684
 1532SOL    HW1 5495   3.300   3.806   5.675
 1532SOL    HW2 5496   3.166   3.898   5.690
 1533SOL     OW 5497   0.048   3.118   0.104
 1533SOL    HW1 5498   6.988   3.138   0.163
 1533SOL    HW2 5499   0.052   3.020   0.087
 1534SOL     OW 5500   1.778   5.270   6.444
 1534SOL    HW1 5501   1.780   5.358   6.398
 1534SOL    HW2 5502   1.867   5.252   6.486
 1535SOL     OW 5503   5.005   6.024   4.679
 1535SOL    HW1 5504   5.043   6.023   4.772
 1535SOL    HW2 5505   5.039   5.945   4.629
 1536SOL     OW 5506   4.028   4.308   5.229
 1536SOL    HW1 5507   4.022   4.209   5.235
 1536SOL    HW2 5508   4.122   4.335   5.207
 1537SOL     OW 5509   3.889   6.257   3.387
 1537SOL    HW1 5510   3.878   6.183   3.321
 1537SOL    HW2 5511   3.798   6.286   3.419
 1538SOL     OW 5512   3.586   5.634   5.729
 1538SOL    HW1 5513   3.568   5.546   5.685
 1538SOL    HW2 5514   3.501   5.687   5.733
 1539SOL     OW 5515   4.113   3.766   1.946
 1539SOL    HW1 5516   4.159   3.694   1.997
 1539SOL    HW2 5517   4.106   3.740   1.849
 1540SOL     OW 5518   1.422   0.077   6.196
 1540SOL    HW1 5519   1.376   0.011   6.137
 1540SOL    HW2 5520   1.354   0.131   6.246
 1541SOL     OW 5521   3.713   2.869   2.402
 1541SOL    HW1 5522   3.626   2.911   2.374
 1541SOL    HW2 5523   3.705   2.839   2.497
 1542SOL     OW 5524   6.561   6.297   1.499
 1542SOL    HW1 5525   6.518   6.319   1.587
 1542SOL    HW2 5526   6.652   6.338   1.495
 1543SOL     OW 5527   3.480   3.978   3.837
 1543SOL    HW1 5528   3.394   4.009   3.879
 1543SOL    HW2 5529   3.545   4.053   3.835
 1544SOL     OW 5530   3.272   3.747   2.143
 1544SOL    HW1 5531   3.227   3.659   2.159
 1544SOL    HW2 5532   3.368   3.731   2.121
 1545SOL     OW 5533   5.091   0.936   4.722
 1545SOL    HW1 5534   5.086   0.998   4.801
 1545SOL    HW2 5535   5.112   0.844   4.753
 1546SOL     OW 5536   4.809   6.542   6.141
 1546SOL    HW1 5537   4.732   6.479   6.144
 1546SOL    HW2 5538   4.883   6.507   6.199
 1547SOL     OW 5539   1.917   3.953   3.103
 1547SOL    HW1 5540   1.845   3.925   3.167
 1547SOL    HW2 5541   1.915   3.893   3.023
 1548SOL     OW 5542   4.520   4.125   6.109
 1548SOL    HW1 5543   4.460   4.177   6.170
 1548SOL    HW2 5544   4.493   4.029   6.109
 1549SOL     OW 5545   4.370   1.169   2.747
 1549SOL    HW1 5546   4.305   1.215   2.687
 1549SOL    HW2 5547   4.335   1.079   2.771
 1550SOL     OW 5548   2.720   4.930   6.225
 1550SOL    HW1 5549   2.658   4.927   6.303
 1550SOL    HW2 5550   2.792   4.862   6.237
 1551SOL     OW 5551   2.570   3.766   6.839
 1551SOL    HW1 5552   2.472   3.753   6.822
 1551SOL    HW2 5553   2.608   3.828   6.771
 1552SOL     OW 5554   0.494   0.096   1.170
 1552SOL    HW1 5555   0.437   0.134   1.097
 1552SOL    HW2 5556   0.495   0.160   1.248
 1553SOL     OW 5557   6.766   0.751   5.655
 1553SOL    HW1 5558   6.805   0.660   5.670
 1553SOL    HW2 5559   6.802   0.788   5.569
 1554SOL     OW 5560   3.955   1.790   3.513
 1554SOL    HW1 5561   3.962   1.869   3.573
 1554SOL    HW2 5562   3.866   1.745   3.527
 1555SOL     OW 5563   5.119   1.651   6.585
 1555SOL    HW1 5564   5.087   1.659   6.680
 1555SOL    HW2 5565   5.044   1.671   6.523
 1556SOL     OW 5566   3.736   0.971   0.229
 1556SOL    HW1 5567   3.723   0.921   0.315
 1556SOL    HW2 5568   3.812   0.931   0.178
 1557SOL     OW 5569   2.149   1.442   6.351
 1557SOL    HW1 5570   2.071   1.504   6.343
 1557SOL    HW2 5571   2.225   1.490   6.395
 1558SOL     OW 5572   5.322   1.146   4.272
 1558SOL    HW1 5573   5.312   1.056   4.316
 1558SOL    HW2 5574   5.363   1.210   4.337
 1559SOL     OW 5575   0.097   2.441   6.909
 1559SOL    HW1 5576   0.035   2.519   6.905
 1559SOL    HW2 5577   0.074   2.385   6.989
 1560SOL     OW 5578   3.244   1.231   6.287
 1560SOL    HW1 5579   3.335   1.239   6.329
 1560SOL    HW2 5580   3.246   1.271   6.195
 1561SOL     OW 5581   6.264   6.633   2.697
 1561SOL    HW1 5582   6.240   6.552   2.750
 1561SOL    HW2 5583   6.355   6.621   2.658
 1562SOL     OW 5584   4.348   6.096   1.465
 1562SOL    HW1 5585   4.443   6.078   1.441
 1562SOL    HW2 5586   4.288   6.041   1.407
 1563SOL     OW 5587   2.523   0.950   5.933
 1563SOL    HW1 5588   2.482   1.034   5.896
 1563SOL    HW2 5589   2.622   0.955   5.926
 1564SOL     OW 5590   1.258   2.278   2.459
 1564SOL    HW1 5591   1.246   2.357   2.400
 1564SOL    HW2 5592   1.195   2.284   2.536
 1565SOL     OW 5593   4.175   5.736   4.295
 1565SOL    HW1 5594   4.235   5.680   4.353
 1565SOL    HW2 5595   4.088   5.689   4.281
 1566SOL     OW 5596   5.816   4.845   4.569
 1566SOL    HW1 5597   5.911   4.826   4.595
 1566SOL    HW2 5598   5.756   4.776   4.610
 1567SOL     OW 5599   6.616   6.242   6.993
 1567SOL    HW1 5600   6.580   6.242   6.900
 1567SOL    HW2 5601   6.651   6.333   7.016
 1568SOL     OW 5602   1.984   6.787   1.770
 1568SOL    HW1 5603   1.944   6.713   1.825
 1568SOL    HW2 5604   2.030   6.852   1.831
 1569SOL     OW 5605   3.150   0.027   3.612
 1569SOL    HW1 5606   3.239   0.063   3.583
 1569SOL    HW2 5607   3.105   0.094   3.670
 1570SOL     OW 5608   2.545   6.557   0.413
 1570SOL    HW1 5609   2.498   6.491   0.354
 1570SOL    HW2 5610   2.619   6.601   0.361
 1571SOL     OW 5611   6.267   1.800   2.936
 1571SOL    HW1 5612   6.309   1.746   3.009
 1571SOL    HW2 5613   6.179   1.835   2.967
 1572SOL     OW 5614   1.775   6.053   0.749
 1572SOL    HW1 5615   1.815   6.142   0.725
 1572SOL    HW2 5616   1.832   6.009   0.818
 1573SOL     OW 5617   6.251   3.915   1.947
 1573SOL    HW1 5618   6.276   3.819   1.941
 1573SOL    HW2 5619   6.228   3.950   1.856
 1574SOL     OW 5620   6.381   2.001   3.726
 1574SOL    HW1 5621   6.375   1.912   3.682
 1574SOL    HW2 5622   6.402   1.989   3.823
 1575SOL     OW 5623   2.477   2.005   1.300
 1575SOL    HW1 5624   2.455   1.930   1.236
 1575SOL    HW2 5625   2.428   2.087   1.272
 1576SOL     OW 5626   0.965   0.609   3.207
 1576SOL    HW1 5627   0.872   0.645   3.210
 1576SOL    HW2 5628   1.025   0.667   3.262
 1577SOL     OW 5629   2.573   0.430   5.841
 1577SOL    HW1 5630   2.664   0.397   5.868
 1577SOL    HW2 5631   2.538   0.492   5.911
 1578SOL     OW 5632   5.614   2.075   5.719
 1578SOL    HW1 5633   5.654   2.161   5.689
 1578SOL    HW2 5634   5.649   2.051   5.810
 1579SOL     OW 5635   6.925   2.159   2.147
 1579SOL    HW1 5636   0.002   2.139   2.130
 1579SOL    HW2 5637   6.876   2.074   2.165
 1580SOL     OW 5638   3.649   4.189   4.233
 1580SOL    HW1 5639   3.699   4.219   4.152
 1580SOL    HW2 5640   3.555   4.166   4.208
 1581SOL     OW 5641   6.094   4.354   4.643
 1581SOL    HW1 5642   6.007   4.396   4.618
 1581SOL    HW2 5643   6.078   4.259   4.670
 1582SOL     OW 5644   1.724   6.505   4.375
 1582SOL    HW1 5645   1.808   6.547   4.341
 1582SOL    HW2 5646   1.647   6.567   4.359
 1583SOL     OW 5647   0.588   6.058   2.709
 1583SOL    HW1 5648   0.636   6.047   2.795
 1583SOL    HW2 5649   0.604   5.978   2.651
 1584SOL     OW 5650   0.806   5.713   6.019
 1584SOL    HW1 5651   0.896   5.672   6.006
 1584SOL    HW2 5652   0.813   5.812   6.017
 1585SOL     OW 5653   4.140   1.957   2.967
 1585SOL    HW1 5654   4.087   1.873   2.980
 1585SOL    HW2 5655   4.103   2.008   2.889
 1586SOL     OW 5656   3.110   4.843   2.125
 1586SOL    HW1 5657   3.151   4.798   2.046
 1586SOL    HW2 5658   3.014   4.863   2.106
 1587SOL     OW 5659   2.681   5.845   5.812
 1587SOL    HW1 5660   2.626   5.910   5.760
 1587SOL    HW2 5661   2.642   5.835   5.904
 1588SOL     OW 5662   4.113   0.633   2.335
 1588SOL    HW1 5663   4.048   0.569   2.294
 1588SOL    HW2 5664   4.196   0.585   2.362
 1589SOL     OW 5665   6.959   3.165   2.029
 1589SOL    HW1 5666   7.018   3.096   2.070
 1589SOL    HW2 5667   7.007   3.211   1.955
 1590SOL     OW 5668   4.203   0.240   4.452
 1590SOL    HW1 5669   4.248   0.226   4.364
 1590SOL    HW2 5670   4.110   0.203   4.448
 1591SOL     OW 5671   0.207   5.342   1.109
 1591SOL    HW1 5672   0.245   5.302   1.192
 1591SOL    HW2 5673   0.196   5.441   1.122
 1592SOL     OW 5674   2.507   3.920   6.394
 1592SOL    HW1 5675   2.444   3.988   6.357
 1592SOL    HW2 5676   2.549   3.869   6.319
 1593SOL     OW 5677   0.961   6.694   5.528
 1593SOL    HW1 5678   0.978   6.717   5.624
 1593SOL    HW2 5679   1.030   6.738   5.471
 1594SOL     OW 5680   1.483   6.889   1.496
 1594SOL    HW1 5681   1.523   6.798   1.506
 1594SOL    HW2 5682   1.550   6.958   1.525
 1595SOL     OW 5683   1.629   5.072   0.704
 1595SOL    HW1 5684   1.558   5.060   0.635
 1595SOL    HW2 5685   1.631   5.168   0.734
 1596SOL     OW 5686   0.436   3.096   3.946
 1596SOL    HW1 5687   0.372   3.020   3.938
 1596SOL    HW2 5688   0.419   3.146   4.031
 1597SOL     OW 5689   1.174   6.310   0.372
 1597SOL    HW1 5690   1.139   6.320   0.466
 1597SOL    HW2 5691   1.274   6.314   0.373
 1598SOL     OW 5692   6.726   4.578   5.377
 1598SOL    HW1 5693   6.643   4.612   5.332
 1598SOL    HW2 5694   6.701   4.536   5.464
 1599SOL     OW 5695   5.226   5.612   4.680
 1599SOL    HW1 5696   5.148   5.610   4.743
 1599SOL    HW2 5697   5.301   5.560   4.720
 1600SOL     OW 5698   4.058   0.887   3.515
 1600SOL    HW1 5699   4.006   0.802   3.522
 1600SOL    HW2 5700   4.152   0.867   3.486
 1601SOL     OW 5701   0.061   6.347   4.311
 1601SOL    HW1 5702   0.118   6.413   4.262
 1601SOL    HW2 5703   0.112   6.307   4.386
 1602SOL     OW 5704   3.680   5.205   3.857
 1602SOL    HW1 5705   3.759   5.152   3.888
 1602SOL    HW2 5706   3.700   5.303   3.866
 1603SOL     OW 5707   1.758   6.604   2.976
 1603SOL    HW1 5708   1.661   6.623   2.962
 1603SOL    HW2 5709   1.770   6.511   3.010
 1604SOL     OW 5710   5.416   4.480   1.138
 1604SOL    HW1 5711   5.510   4.514   1.130
 1604SOL    HW2 5712   5.417   4.388   1.178
 1605SOL     OW 5713   6.994   5.354   1.681
 1605SOL    HW1 5714   7.007   5.368   1.583
 1605SOL    HW2 5715   6.896   5.346   1.701
 1606SOL     OW 5716   3.557   6.654   5.522
 1606SOL    HW1 5717   3.533   6.634   5.618
 1606SOL    HW2 5718   3.656   6.642   5.510
 1607SOL     OW 5719   4.335   1.046   0.840
 1607SOL    HW1 5720   4.270   0.977   0.808
 1607SOL    HW2 5721   4.363   1.024   0.934
 1608SOL     OW 5722   0.371   0.927   3.857
 1608SOL    HW1 5723   0.418   0.970   3.934
 1608SOL    HW2 5724   0.371   0.990   3.779
 1609SOL     OW 5725   4.720   7.004   0.073
 1609SOL    HW1 5726   4.634   7.002   0.023
 1609SOL    HW2 5727   4.734   0.077   0.111
 1610SOL     OW 5728   6.222   4.676   6.801
 1610SOL    HW1 5729   6.182   4.596   6.755
 1610SOL    HW2 5730   6.168   4.757   6.779
 1611SOL     OW 5731   2.497   3.622   0.166
 1611SOL    HW1 5732   2.427   3.630   0.095
 1611SOL    HW2 5733   2.584   3.595   0.124
 1612SOL     OW 5734   2.769   0.381   0.367
 1612SOL    HW1 5735   2.818   0.293   0.369
 1612SOL    HW2 5736   2.693   0.378   0.432
 1613SOL     OW 5737   1.575   6.006   2.346
 1613SOL    HW1 5738   1.619   6.091   2.317
 1613SOL    HW2 5739   1.519   6.024   2.427
 1614SOL     OW 5740   5.233   2.281   6.622
 1614SOL    HW1 5741   5.328   2.271   6.593
 1614SOL    HW2 5742   5.231   2.323   6.713
 1615SOL     OW 5743   5.987   5.561   0.628
 1615SOL    HW1 5744   5.921   5.608   0.571
 1615SOL    HW2 5745   6.038   5.495   0.573
 1616SOL     OW 5746   3.589   1.121   5.148
 1616SOL    HW1 5747   3.620   1.153   5.237
 1616SOL    HW2 5748   3.621   1.185   5.077
 1617SOL     OW 5749   5.518   6.939   2.639
 1617SOL    HW1 5750   5.448   6.904   2.577
 1617SOL    HW2 5751   5.553   0.007   2.604
 1618SOL     OW 5752   1.219   5.776   2.696
 1618SOL    HW1 5753   1.134   5.725   2.696
 1618SOL    HW2 5754   1.216   5.847   2.767
 1619SOL     OW 5755   0.795   4.158   1.569
 1619SOL    HW1 5756   0.773   4.077   1.515
 1619SOL    HW2 5757   0.756   4.239   1.525
 1620SOL     OW 5758   2.758   4.344   1.685
 1620SOL    HW1 5759   2.756   4.248   1.714
 1620SOL    HW2 5760   2.809   4.398   1.752
 1621SOL     OW 5761   6.567   1.103   0.696
 1621SOL    HW1 5762   6.551   1.031   0.764
 1621SOL    HW2 5763   6.638   1.166   0.730
 1622SOL     OW 5764   0.430   3.048   4.866
 1622SOL    HW1 5765   0.472   3.122   4.918
 1622SOL    HW2 5766   0.401   2.975   4.928
 1623SOL     OW 5767   1.629   2.894   4.834
 1623SOL    HW1 5768   1.727   2.900   4.813
 1623SOL    HW2 5769   1.617   2.853   4.924
 1624SOL     OW 5770   3.238   1.713   5.172
 1624SOL    HW1 5771   3.303   1.774   5.126
 1624SOL    HW2 5772   3.263   1.618   5.155
 1625SOL     OW 5773   1.343   4.527   0.385
 1625SOL    HW1 5774   1.421   4.524   0.447
 1625SOL    HW2 5775   1.366   4.583   0.305
 1626SOL     OW 5776   4.223   0.986   0.375
 1626SOL    HW1 5777   4.171   1.046   0.314
 1626SOL    HW2 5778   4.222   1.024   0.468
 1627SOL     OW 5779   6.274   2.960   3.536
 1627SOL    HW1 5780   6.207   3.033   3.529
 1627SOL    HW2 5781   6.311   2.940   3.445
 1628SOL     OW 5782   4.837   4.577   0.535
 1628SOL    HW1 5783   4.864   4.618   0.622
 1628SOL    HW2 5784   4.798   4.486   0.552
 1629SOL     OW 5785   3.129   0.990   3.706
 1629SOL    HW1 5786   3.124   0.914   3.641
 1629SOL    HW2 5787   3.156   0.955   3.795
 1630SOL     OW 5788   1.028   5.023   6.297
 1630SOL    HW1 5789   1.029   4.965   6.215
 1630SOL    HW2 5790   1.100   5.091   6.292
 1631SOL     OW 5791   0.894   2.892   0.546
 1631SOL    HW1 5792   0.814   2.921   0.598
 1631SOL    HW2 5793   0.934   2.971   0.498
 1632SOL     OW 5794   5.747   2.042   0.934
 1632SOL    HW1 5795   5.798   1.997   0.860
 1632SOL    HW2 5796   5.717   1.974   1.000
 1633SOL     OW 5797   5.401   3.923   4.653
 1633SOL    HW1 5798   5.447   3.925   4.742
 1633SOL    HW2 5799   5.459   3.873   4.588
 1634SOL     OW 5800   4.068   5.420   4.254
 1634SOL    HW1 5801   4.126   5.426   4.173
 1634SOL    HW2 5802   3.975   5.447   4.230
 1635SOL     OW 5803   0.132   5.034   7.014
 1635SOL    HW1 5804   0.064   5.094   6.972
 1635SOL    HW2 5805   0.188   4.990   6.943
 1636SOL     OW 5806   2.883   4.517   1.085
 1636SOL    HW1 5807   2.880   4.463   1.001
 1636SOL    HW2 5808   2.884   4.457   1.165
 1637SOL     OW 5809   0.101   0.575   2.985
 1637SOL    HW1 5810   0.005   0.574   3.012
 1637SOL    HW2 5811   0.156   0.611   3.060
 1638SOL     OW 5812   0.024   4.444   3.331
 1638SOL    HW1 5813   7.004   4.381   3.264
 1638SOL    HW2 5814   0.009   4.408   3.423
 1639SOL     OW 5815   5.455   6.422   1.751
 1639SOL    HW1 5816   5.452   6.323   1.732
 1639SOL    HW2 5817   5.402   6.470   1.681
 1640SOL     OW 5818   6.011   0.333   6.902
 1640SOL    HW1 5819   6.050   0.425   6.900
 1640SOL    HW2 5820   6.064   0.276   6.964
 1641SOL     OW 5821   4.380   1.632   3.089
 1641SOL    HW1 5822   4.305   1.601   3.146
 1641SOL    HW2 5823   4.344   1.680   3.008
 1642SOL     OW 5824   6.970   3.264   6.469
 1642SOL    HW1 5825   6.956   3.271   6.371
 1642SOL    HW2 5826   6.913   3.331   6.516
 1643SOL     OW 5827   2.521   5.071   4.557
 1643SOL    HW1 5828   2.493   4.990   4.505
 1643SOL    HW2 5829   2.471   5.073   4.644
 1644SOL     OW 5830   5.690   4.080   6.571
 1644SOL    HW1 5831   5.697   4.166   6.521
 1644SOL    HW2 5832   5.734   4.007   6.518
 1645SOL     OW 5833   3.369   5.096   6.854
 1645SOL    HW1 5834   3.273   5.114   6.833
 1645SOL    HW2 5835   3.395   5.146   6.937
 1646SOL     OW 5836   2.611   6.489   0.119
 1646SOL    HW1 5837   2.621   6.538   0.033
 1646SOL    HW2 5838   2.517   6.457   0.128
 1647SOL     OW 5839   5.873   3.231   4.350
 1647SOL    HW1 5840   5.957   3.178   4.361
 1647SOL    HW2 5841   5.798   3.170   4.325
 1648SOL     OW 5842   5.573   5.345   0.611
 1648SOL    HW1 5843   5.555   5.248   0.593
 1648SOL    HW2 5844   5.543   5.368   0.704
 1649SOL     OW 5845   3.467   1.511   3.579
 1649SOL    HW1 5846   3.436   1.453   3.655
 1649SOL    HW2 5847   3.409   1.592   3.572
 1650SOL     OW 5848   1.088   6.086   5.406
 1650SOL    HW1 5849   1.088   6.180   5.371
 1650SOL    HW2 5850   1.182   6.058   5.427
 1651SOL     OW 5851   0.610   1.952   1.658
 1651SOL    HW1 5852   0.629   2.031   1.716
 1651SOL    HW2 5853   0.515   1.925   1.669
 1652SOL     OW 5854   1.062   3.210   2.732
 1652SOL    HW1 5855   1.113   3.126   2.713
 1652SOL    HW2 5856   1.100   3.285   2.678
 1653SOL     OW 5857   0.911   0.130   0.208
 1653SOL    HW1 5858   0.982   0.200   0.214
 1653SOL    HW2 5859   0.936   0.062   0.139
 1654SOL     OW 5860   0.185   3.486   1.803
 1654SOL    HW1 5861   0.280   3.468   1.775
 1654SOL    HW2 5862   0.134   3.524   1.726
 1655SOL     OW 5863   0.301   1.830   4.845
 1655SOL    HW1 5864   0.268   1.844   4.938
 1655SOL    HW2 5865   0.395   1.861   4.838
 1656SOL     OW 5866   2.138   4.383   2.876
 1656SOL    HW1 5867   2.144   4.376   2.777
 1656SOL    HW2 5868   2.176   4.301   2.918
 1657SOL     OW 5869   6.702   0.982   4.120
 1657SOL    HW1 5870   6.746   0.941   4.040
 1657SOL    HW2 5871   6.768   0.985   4.195
 1658SOL     OW 5872   6.646   6.762   1.683
 1658SOL    HW1 5873   6.636   6.818   1.765
 1658SOL    HW2 5874   6.558   6.721   1.660
 1659SOL     OW 5875   3.784   0.030   6.990
 1659SOL    HW1 5876   3.697   7.007   7.016
 1659SOL    HW2 5877   3.770   0.087   6.909
 1660SOL     OW 5878   1.362   5.640   3.383
 1660SOL    HW1 5879   1.439   5.657   3.323
 1660SOL    HW2 5880   1.371   5.696   3.466
 1661SOL     OW 5881   2.988   6.602   1.083
 1661SOL    HW1 5882   2.960   6.646   1.168
 1661SOL    HW2 5883   2.974   6.665   1.006
 1662SOL     OW 5884   0.371   0.695   4.285
 1662SOL    HW1 5885   0.421   0.753   4.349
 1662SOL    HW2 5886   0.427   0.616   4.261
 1663SOL     OW 5887   4.424   6.595   3.235
 1663SOL    HW1 5888   4.404   6.589   3.333
 1663SOL    HW2 5889   4.339   6.600   3.183
 1664SOL     OW 5890   1.806   6.246   4.972
 1664SOL    HW1 5891   1.799   6.268   4.874
 1664SOL    HW2 5892   1.722   6.274   5.018
 1665SOL     OW 5893   0.105   2.580   2.746
 1665SOL    HW1 5894   0.196   2.570   2.706
 1665SOL    HW2 5895   0.043   2.512   2.705
 1666SOL     OW 5896   5.674   1.570   6.448
 1666SOL    HW1 5897   5.703   1.592   6.541
 1666SOL    HW2 5898   5.668   1.471   6.437
 1667SOL     OW 5899   0.061   5.978   0.787
 1667SOL    HW1 5900   0.080   6.075   0.800
 1667SOL    HW2 5901   0.085   5.952   0.693
 1668SOL     OW 5902   5.024   6.464   3.856
 1668SOL    HW1 5903   5.068   6.554   3.862
 1668SOL    HW2 5904   4.959   6.454   3.932
 1669SOL     OW 5905   6.767   5.090   6.511
 1669SOL    HW1 5906   6.762   5.010   6.571
 1669SOL    HW2 5907   6.793   5.170   6.565
 1670SOL     OW 5908   0.441   3.463   6.015
 1670SOL    HW1 5909   0.412   3.464   6.111
 1670SOL    HW2 5910   0.527   3.514   6.005
 1671SOL     OW 5911   5.367   1.395   2.996
 1671SOL    HW1 5912   5.282   1.377   3.045
 1671SOL    HW2 5913   5.358   1.479   2.942
 1672SOL     OW 5914   1.472   2.825   0.897
 1672SOL    HW1 5915   1.514   2.751   0.845
 1672SOL    HW2 5916   1.423   2.886   0.834
 1673SOL     OW 5917   1.228   1.205   4.742
 1673SOL    HW1 5918   1.308   1.248   4.699
 1673SOL    HW2 5919   1.197   1.264   4.817
 1674SOL     OW 5920   0.964   3.198   2.283
 1674SOL    HW1 5921   0.914   3.129   2.230
 1674SOL    HW2 5922   0.906   3.230   2.358
 1675SOL     OW 5923   5.378   6.795   0.537
 1675SOL    HW1 5924   5.389   6.823   0.442
 1675SOL    HW2 5925   5.448   6.727   0.560
 1676SOL     OW 5926   2.026   2.645   1.851
 1676SOL    HW1 5927   2.090   2.721   1.861
 1676SOL    HW2 5928   2.077   2.559   1.845
 1677SOL     OW 5929   3.592   3.506   4.096
 1677SOL    HW1 5930   3.590   3.410   4.121
 1677SOL    HW2 5931   3.655   3.555   4.157
 1678SOL     OW 5932   5.792   4.376   3.452
 1678SOL    HW1 5933   5.816   4.464   3.493
 1678SOL    HW2 5934   5.791   4.305   3.523
 1679SOL     OW 5935   2.283   2.530   4.449
 1679SOL    HW1 5936   2.355   2.573   4.395
 1679SOL    HW2 5937   2.267   2.584   4.532
 1680SOL     OW 5938   0.001   2.694   5.009
 1680SOL    HW1 5939   0.080   2.700   4.949
 1680SOL    HW2 5940   7.012   2.778   5.062
 1681SOL     OW 5941   6.894   5.655   6.694
 1681SOL    HW1 5942   6.801   5.653   6.733
 1681SOL    HW2 5943   6.904   5.579   6.630
 1682SOL     OW 5944   1.915   0.703   5.491
 1682SOL    HW1 5945   1.848   0.674   5.423
 1682SOL    HW2 5946   1.870   0.764   5.557
 1683SOL     OW 5947   4.532   4.678   1.742
 1683SOL    HW1 5948   4.449   4.644   1.697
 1683SOL    HW2 5949   4.525   4.776   1.755
 1684SOL     OW 5950   1.331   6.366   2.157
 1684SOL    HW1 5951   1.345   6.323   2.246
 1684SOL    HW2 5952   1.274   6.306   2.100
 1685SOL     OW 5953   2.627   1.245   4.842
 1685SOL    HW1 5954   2.651   1.341   4.848
 1685SOL    HW2 5955   2.706   1.189   4.865
 1686SOL     OW 5956   2.316   5.997   4.476
 1686SOL    HW1 5957   2.235   5.949   4.441
 1686SOL    HW2 5958   2.305   6.095   4.462
 1687SOL     OW 5959   2.112   3.107   2.004
 1687SOL    HW1 5960   2.171   3.153   1.938
 1687SOL    HW2 5961   2.029   3.076   1.959
 1688SOL     OW 5962   2.118   2.555   4.155
 1688SOL    HW1 5963   2.070   2.575   4.241
 1688SOL    HW2 5964   2.146   2.459   4.154
 1689SOL     OW 5965   5.855   0.985   2.911
 1689SOL    HW1 5966   5.895   0.903   2.952
 1689SOL    HW2 5967   5.828   1.049   2.983
 1690SOL     OW 5968   1.382   2.935   4.470
 1690SOL    HW1 5969   1.416   2.854   4.517
 1690SOL    HW2 5970   1.379   2.918   4.372
 1691SOL     OW 5971   5.807   3.641   3.373
 1691SOL    HW1 5972   5.844   3.715   3.430
 1691SOL    HW2 5973   5.754   3.681   3.298
 1692SOL     OW 5974   5.357   6.496   1.491
 1692SOL    HW1 5975   5.368   6.428   1.418
 1692SOL    HW2 5976   5.434   6.560   1.488
 1693SOL     OW 5977   6.626   2.053   2.187
 1693SOL    HW1 5978   6.575   2.137   2.168
 1693SOL    HW2 5979   6.640   2.046   2.286
 1694SOL     OW 5980   5.522   1.216   2.795
 1694SOL    HW1 5981   5.604   1.273   2.788
 1694SOL    HW2 5982   5.452   1.264   2.847
 1695SOL     OW 5983   4.083   0.526   6.383
 1695SOL    HW1 5984   4.084   0.497   6.478
 1695SOL    HW2 5985   4.175   0.520   6.345
 1696SOL     OW 5986   4.130   5.513   0.994
 1696SOL    HW1 5987   4.192   5.547   1.064
 1696SOL    HW2 5988   4.181   5.459   0.927
 1697SOL     OW 5989   6.027   0.892   0.429
 1697SOL    HW1 5990   6.075   0.864   0.512
 1697SOL    HW2 5991   5.991   0.811   0.382
 1698SOL     OW 5992   3.495   0.249   6.882
 1698SOL    HW1 5993   3.551   0.322   6.920
 1698SOL    HW2 5994   3.514   0.163   6.930
 1699SOL     OW 5995   2.430   1.200   6.678
 1699SOL    HW1 5996   2.341   1.240   6.659
 1699SOL    HW2 5997   2.500   1.247   6.625
 1700SOL     OW 5998   6.475   3.932   3.553
 1700SOL    HW1 5999   6.460   3.975   3.642
 1700SOL    HW2 6000   6.388   3.903   3.514
 1701SOL     OW 6001   4.898   4.324   5.589
 1701SOL    HW1 6002   4.855   4.337   5.678
 1701SOL    HW2 6003   4.970   4.392   5.576
 1702SOL     OW 6004   6.198   1.223   0.295
 1702SOL    HW1 6005   6.270   1.292   0.290
 1702SOL    HW2 6006   6.181   1.200   0.391
 1703SOL     OW 6007   3.710   2.646   0.825
 1703SOL    HW1 6008   3.667   2.558   0.801
 1703SOL    HW2 6009   3.649   2.721   0.798
 1704SOL     OW 6010   1.194   1.806   1.339
 1704SOL    HW1 6011   1.195   1.868   1.418
 1704SOL    HW2 6012   1.228   1.716   1.367
 1705SOL     OW 6013   3.006   2.160   2.360
 1705SOL    HW1 6014   3.091   2.162   2.307
 1705SOL    HW2 6015   2.929   2.184   2.300
 1706SOL     OW 6016   5.108   0.957   2.309
 1706SOL    HW1 6017   5.035   0.978   2.243
 1706SOL    HW2 6018   5.162   1.039   2.325
 1707SOL     OW 6019   4.890   2.156   1.708
 1707SOL    HW1 6020   4.931   2.237   1.666
 1707SOL    HW2 6021   4.804   2.182   1.753
 1708SOL     OW 6022   4.951   5.450   2.254
 1708SOL    HW1 6023   4.863   5.422   2.293
 1708SOL    HW2 6024   4.977   5.539   2.291
 1709SOL     OW 6025   3.169   6.194   2.237
 1709SOL    HW1 6026   3.072   6.178   2.224
 1709SOL    HW2 6027   3.186   6.292   2.252
 1710SOL     OW 6028   4.842   4.612   3.749
 1710SOL    HW1 6029   4.912   4.655   3.693
 1710SOL    HW2 6030   4.858   4.634   3.845
 1711SOL     OW 6031   1.595   4.298   4.305
 1711SOL    HW1 6032   1.567   4.262   4.394
 1711SOL    HW2 6033   1.668   4.241   4.267
 1712SOL     OW 6034   6.351   2.285   4.854
 1712SOL    HW1 6035   6.364   2.316   4.948
 1712SOL    HW2 6036   6.428   2.228   4.826
 1713SOL     OW 6037   4.758   2.432   1.825
 1713SOL    HW1 6038   4.719   2.507   1.878
 1713SOL    HW2 6039   4.740   2.447   1.728
 1714SOL     OW 6040   3.623   0.912   5.453
 1714SOL    HW1 6041   3.634   1.004   5.416
 1714SOL    HW2 6042   3.555   0.862   5.400
 1715SOL     OW 6043   1.208   5.643   3.155
 1715SOL    HW1 6044   1.168   5.649   3.247
 1715SOL    HW2 6045   1.307   5.630   3.162
 1716SOL     OW 6046   5.241   0.246   2.816
 1716SOL    HW1 6047   5.164   0.240   2.879
 1716SOL    HW2 6048   5.326   0.233   2.866
 1717SOL     OW 6049   2.619   6.152   5.982
 1717SOL    HW1 6050   2.613   6.080   6.052
 1717SOL    HW2 6051   2.626   6.241   6.027
 1718SOL     OW 6052   2.644   1.601   1.859
 1718SOL    HW1 6053   2.676   1.507   1.845
 1718SOL    HW2 6054   2.718   1.664   1.835
 1719SOL     OW 6055   2.484   3.084   1.392
 1719SOL    HW1 6056   2.402   3.099   1.338
 1719SOL    HW2 6057   2.499   2.986   1.404
 1720SOL     OW 6058   0.025   2.838   0.232
 1720SOL    HW1 6059   0.123   2.820   0.235
 1720SOL    HW2 6060   7.005   2.824   0.324
 1721SOL     OW 6061   2.096   0.343   1.892
 1721SOL    HW1 6062   2.137   0.267   1.942
 1721SOL    HW2 6063   2.126   0.340   1.797
 1722SOL     OW 6064   3.541   1.057   3.193
 1722SOL    HW1 6065   3.463   1.063   3.132
 1722SOL    HW2 6066   3.511   1.067   3.288
 1723SOL     OW 6067   5.686   2.424   1.822
 1723SOL    HW1 6068   5.743   2.453   1.899
 1723SOL    HW2 6069   5.742   2.380   1.753
 1724SOL     OW 6070   6.729   3.102   1.887
 1724SOL    HW1 6071   6.801   3.115   1.955
 1724SOL    HW2 6072   6.659   3.173   1.898
 1725SOL     OW 6073   2.562   4.844   6.435
 1725SOL    HW1 6074   2.538   4.759   6.482
 1725SOL    HW2 6075   2.499   4.916   6.463
 1726SOL     OW 6076   6.435   4.669   5.001
 1726SOL    HW1 6077   6.340   4.673   5.033
 1726SOL    HW2 6078   6.467   4.574   5.003
 1727SOL     OW 6079   3.352   2.866   3.583
 1727SOL    HW1 6080   3.291   2.879   3.505
 1727SOL    HW2 6081   3.301   2.881   3.668
 1728SOL     OW 6082   5.110   4.975   4.897
 1728SOL    HW1 6083   5.142   4.918   4.821
 1728SOL    HW2 6084   5.186   5.028   4.934
 1729SOL     OW 6085   2.283   4.352   3.204
 1729SOL    HW1 6086   2.268   4.446   3.237
 1729SOL    HW2 6087   2.195   4.312   3.178
 1730SOL     OW 6088   1.316   6.941   5.541
 1730SOL    HW1 6089   1.283   6.868   5.480
 1730SOL    HW2 6090   1.388   6.905   5.600
 1731SOL     OW 6091   0.157   3.972   3.415
 1731SOL    HW1 6092   0.145   3.907   3.490
 1731SOL    HW2 6093   0.179   3.922   3.331
 1732SOL     OW 6094   2.279   4.985   5.613
 1732SOL    HW1 6095   2.278   5.084   5.632
 1732SOL    HW2 6096   2.207   4.963   5.547
 1733SOL     OW 6097   1.716   4.877   1.873
 1733SOL    HW1 6098   1.784   4.831   1.930
 1733SOL    HW2 6099   1.760   4.949   1.820
 1734SOL     OW 6100   4.771   3.302   1.333
 1734SOL    HW1 6101   4.680   3.343   1.339
 1734SOL    HW2 6102   4.803   3.303   1.239
 1735SOL     OW 6103   5.037   5.253   0.151
 1735SOL    HW1 6104   4.945   5.283   0.176
 1735SOL    HW2 6105   5.097   5.333   0.147
 1736SOL     OW 6106   3.275   4.006   0.387
 1736SOL    HW1 6107   3.332   4.040   0.312
 1736SOL    HW2 6108   3.184   4.045   0.380
 1737SOL     OW 6109   3.883   1.391   4.057
 1737SOL    HW1 6110   3.884   1.297   4.024
 1737SOL    HW2 6111   3.958   1.442   4.015
 1738SOL     OW 6112   1.641   2.992   4.115
 1738SOL    HW1 6113   1.624   2.906   4.162
 1738SOL    HW2 6114   1.554   3.040   4.099
 1739SOL     OW 6115   0.240   1.573   5.404
 1739SOL    HW1 6116   0.207   1.641   5.469
 1739SOL    HW2 6117   0.312   1.518   5.448
 1740SOL     OW 6118   0.043   2.262   5.917
 1740SOL    HW1 6119   0.077   2.284   6.008
 1740SOL    HW2 6120   0.114   2.279   5.850
 1741SOL     OW 6121   2.195   0.632   3.934
 1741SOL    HW1 6122   2.130   0.673   3.997
 1741SOL    HW2 6123   2.282   0.616   3.981
 1742SOL     OW 6124   5.493   0.816   6.456
 1742SOL    HW1 6125   5.526   0.740   6.400
 1742SOL    HW2 6126   5.393   0.821   6.451
 1743SOL     OW 6127   0.856   2.134   2.271
 1743SOL    HW1 6128   0.909   2.050   2.284
 1743SOL    HW2 6129   0.911   2.213   2.301
 1744SOL     OW 6130   6.419   2.693   3.593
 1744SOL    HW1 6131   6.416   2.788   3.623
 1744SOL    HW2 6132   6.351   2.678   3.521
 1745SOL     OW 6133   5.464   5.547   2.312
 1745SOL    HW1 6134   5.523   5.520   2.236
 1745SOL    HW2 6135   5.474   5.481   2.386
 1746SOL     OW 6136   1.724   4.078   4.641
 1746SOL    HW1 6137   1.741   4.031   4.554
 1746SOL    HW2 6138   1.762   4.025   4.716
 1747SOL     OW 6139   4.540   1.320   3.328
 1747SOL    HW1 6140   4.611   1.269   3.377
 1747SOL    HW2 6141   4.548   1.302   3.230
 1748SOL     OW 6142   0.758   1.048   5.225
 1748SOL    HW1 6143   0.682   1.091   5.272
 1748SOL    HW2 6144   0.840   1.104   5.234
 1749SOL     OW 6145   2.306   6.878   5.212
 1749SOL    HW1 6146   2.226   6.924   5.248
 1749SOL    HW2 6147   2.278   6.796   5.162
 1750SOL     OW 6148   5.005   6.094   4.132
 1750SOL    HW1 6149   4.926   6.114   4.075
 1750SOL    HW2 6150   5.055   6.178   4.152
 1751SOL     OW 6151   3.960   0.122   4.465
 1751SOL    HW1 6152   3.868   0.146   4.435
 1751SOL    HW2 6153   3.964   0.024   4.485
 1752SOL     OW 6154   6.295   1.915   2.303
 1752SOL    HW1 6155   6.272   2.006   2.337
 1752SOL    HW2 6156   6.380   1.884   2.346
 1753SOL     OW 6157   6.199   1.038   1.163
 1753SOL    HW1 6158   6.110   1.010   1.200
 1753SOL    HW2 6159   6.251   0.957   1.137
 1754SOL     OW 6160   1.361   4.364   6.719
 1754SOL    HW1 6161   1.351   4.305   6.639
 1754SOL    HW2 6162   1.429   4.325   6.781
 1755SOL     OW 6163   0.041   6.231   1.410
 1755SOL    HW1 6164   7.008   6.259   1.328
 1755SOL    HW2 6165   0.079   6.313   1.454
 1756SOL     OW 6166   4.356   5.220   5.727
 1756SOL    HW1 6167   4.427   5.289   5.716
 1756SOL    HW2 6168   4.319   5.224   5.820
 1757SOL     OW 6169   2.314   5.339   4.780
 1757SOL    HW1 6170   2.308   5.251   4.826
 1757SOL    HW2 6171   2.238   5.397   4.808
 1758SOL     OW 6172   2.652   0.757   4.366
 1758SOL    HW1 6173   2.728   0.775   4.429
 1758SOL    HW2 6174   2.567   0.791   4.406
 1759SOL     OW 6175   1.545   6.316   5.088
 1759SOL    HW1 6176   1.540   6.291   5.185
 1759SOL    HW2 6177   1.489   6.397   5.072
 1760SOL     OW 6178   5.324   1.493   3.395
 1760SOL    HW1 6179   5.294   1.398   3.401
 1760SOL    HW2 6180   5.261   1.543   3.335
 1761SOL     OW 6181   0.044   0.912   1.428
 1761SOL    HW1 6182   0.012   0.819   1.410
 1761SOL    HW2 6183   0.143   0.912   1.443
 1762SOL     OW 6184   0.883   1.026   4.457
 1762SOL    HW1 6185   0.828   1.082   4.394
 1762SOL    HW2 6186   0.971   1.006   4.415
 1763SOL     OW 6187   1.008   4.124   4.297
 1763SOL    HW1 6188   1.037   4.160   4.209
 1763SOL    HW2 6189   0.952   4.042   4.283
 1764SOL     OW 6190   2.158   3.289   2.445
 1764SOL    HW1 6191   2.088   3.288   2.517
 1764SOL    HW2 6192   2.218   3.367   2.458
 1765SOL     OW 6193   3.699   0.906   1.508
 1765SOL    HW1 6194   3.792   0.877   1.529
 1765SOL    HW2 6195   3.703   0.986   1.448
 1766SOL     OW 6196   5.200   4.600   2.913
 1766SOL    HW1 6197   5.173   4.687   2.954
 1766SOL    HW2 6198   5.300   4.591   2.915
 1767SOL     OW 6199   0.942   3.875   2.368
 1767SOL    HW1 6200   0.946   3.962   2.319
 1767SOL    HW2 6201   1.033   3.835   2.373
 1768SOL     OW 6202   3.685   1.452   6.663
 1768SOL    HW1 6203   3.658   1.471   6.569
 1768SOL    HW2 6204   3.626   1.502   6.726
 1769SOL     OW 6205   4.545   1.221   6.445
 1769SOL    HW1 6206   4.594   1.230   6.532
 1769SOL    HW2 6207   4.450   1.251   6.457
 1770SOL     OW 6208   6.842   4.680   4.756
 1770SOL    HW1 6209   6.784   4.642   4.827
 1770SOL    HW2 6210   6.786   4.708   4.678
 1771SOL     OW 6211   2.090   5.265   0.915
 1771SOL    HW1 6212   2.032   5.295   0.840
 1771SOL    HW2 6213   2.184   5.295   0.899
 1772SOL     OW 6214   3.363   6.562   3.090
 1772SOL    HW1 6215   3.307   6.487   3.126
 1772SOL    HW2 6216   3.388   6.542   2.996
 1773SOL     OW 6217   2.884   3.282   5.919
 1773SOL    HW1 6218   2.843   3.205   5.870
 1773SOL    HW2 6219   2.979   3.294   5.889
 1774SOL     OW 6220   4.885   6.492   1.606
 1774SOL    HW1 6221   4.953   6.558   1.575
 1774SOL    HW2 6222   4.880   6.494   1.706
 1775SOL     OW 6223   1.754   4.728   5.369
 1775SOL    HW1 6224   1.849   4.749   5.344
 1775SOL    HW2 6225   1.746   4.630   5.387
 1776SOL     OW 6226   5.119   1.138   6.056
 1776SOL    HW1 6227   5.174   1.165   6.135
 1776SOL    HW2 6228   5.115   1.214   5.991
 1777SOL     OW 6229   3.346   6.256   5.888
 1777SOL    HW1 6230   3.376   6.285   5.797
 1777SOL    HW2 6231   3.425   6.253   5.949
 1778SOL     OW 6232   4.716   2.187   4.692
 1778SOL    HW1 6233   4.793   2.140   4.649
 1778SOL    HW2 6234   4.630   2.150   4.657
 1779SOL     OW 6235   4.140   1.405   4.762
 1779SOL    HW1 6236   4.191   1.488   4.737
 1779SOL    HW2 6237   4.183   1.361   4.841
 1780SOL     OW 6238   2.477   4.176   6.023
 1780SOL    HW1 6239   2.422   4.178   5.939
 1780SOL    HW2 6240   2.516   4.267   6.040
 1781SOL     OW 6241   5.075   5.146   4.035
 1781SOL    HW1 6242   5.094   5.068   3.975
 1781SOL    HW2 6243   5.003   5.120   4.100
 1782SOL     OW 6244   3.032   1.834   3.563
 1782SOL    HW1 6245   2.964   1.761   3.556
 1782SOL    HW2 6246   3.036   1.885   3.477
 1783SOL     OW 6247   2.353   3.195   5.970
 1783SOL    HW1 6248   2.261   3.203   5.931
 1783SOL    HW2 6249   2.417   3.162   5.900
 1784SOL     OW 6250   2.445   1.442   2.292
 1784SOL    HW1 6251   2.510   1.497   2.240
 1784SOL    HW2 6252   2.464   1.345   2.276
 1785SOL     OW 6253   6.048   6.200   3.429
 1785SOL    HW1 6254   6.138   6.193   3.385
 1785SOL    HW2 6255   6.053   6.160   3.520
 1786SOL     OW 6256   1.402   3.548   0.710
 1786SOL    HW1 6257   1.499   3.565   0.725
 1786SOL    HW2 6258   1.371   3.597   0.628
 1787SOL     OW 6259   2.530   1.326   5.108
 1787SOL    HW1 6260   2.522   1.426   5.108
 1787SOL    HW2 6261   2.440   1.285   5.095
 1788SOL     OW 6262   3.842   4.137   0.180
 1788SOL    HW1 6263   3.842   4.051   0.231
 1788SOL    HW2 6264   3.754   4.183   0.193
 1789SOL     OW 6265   5.567   2.988   2.368
 1789SOL    HW1 6266   5.471   3.008   2.384
 1789SOL    HW2 6267   5.577   2.917   2.299
 1790SOL     OW 6268   3.712   0.461   4.416
 1790SOL    HW1 6269   3.640   0.429   4.354
 1790SOL    HW2 6270   3.799   0.463   4.367
 1791SOL     OW 6271   6.621   1.129   4.495
 1791SOL    HW1 6272   6.713   1.101   4.524
 1791SOL    HW2 6273   6.569   1.160   4.574
 1792SOL     OW 6274   0.867   1.230   4.679
 1792SOL    HW1 6275   0.793   1.165   4.662
 1792SOL    HW2 6276   0.832   1.323   4.670
 1793SOL     OW 6277   6.187   0.800   3.790
 1793SOL    HW1 6278   6.117   0.762   3.850
 1793SOL    HW2 6279   6.154   0.884   3.748
 1794SOL     OW 6280   4.835   6.179   6.070
 1794SOL    HW1 6281   4.883   6.245   6.012
 1794SOL    HW2 6282   4.799   6.226   6.151
 1795SOL     OW 6283   6.280   5.310   1.996
 1795SOL    HW1 6284   6.379   5.320   2.011
 1795SOL    HW2 6285   6.254   5.215   2.011
 1796SOL     OW 6286   2.057   0.908   4.736
 1796SOL    HW1 6287   1.979   0.878   4.789
 1796SOL    HW2 6288   2.139   0.907   4.794
 1797SOL     OW 6289   1.331   6.668   5.362
 1797SOL    HW1 6290   1.420   6.627   5.343
 1797SOL    HW2 6291   1.261   6.621   5.309
 1798SOL     OW 6292   4.279   3.274   5.431
 1798SOL    HW1 6293   4.302   3.297   5.336
 1798SOL    HW2 6294   4.205   3.333   5.463
 1799SOL     OW 6295   5.896   2.976   6.477
 1799SOL    HW1 6296   5.918   3.045   6.546
 1799SOL    HW2 6297   5.892   3.020   6.387
 1800SOL     OW 6298   4.930   4.761   3.279
 1800SOL    HW1 6299   4.880   4.762   3.365
 1800SOL    HW2 6300   5.006   4.696   3.286
 1801SOL     OW 6301   1.255   1.411   3.022
 1801SOL    HW1 6302   1.284   1.375   3.111
 1801SOL    HW2 6303   1.172   1.466   3.034
 1802SOL     OW 6304   6.216   6.729   3.108
 1802SOL    HW1 6305   6.303   6.709   3.062
 1802SOL    HW2 6306   6.141   6.687   3.056
 1803SOL     OW 6307   6.560   6.689   2.135
 1803SOL    HW1 6308   6.518   6.779   2.120
 1803SOL    HW2 6309   6.650   6.701   2.176
 1804SOL     OW 6310   3.651   3.219   5.459
 1804SOL    HW1 6311   3.667   3.309   5.499
 1804SOL    HW2 6312   3.696   3.149   5.515
 1805SOL     OW 6313   1.289   4.692   6.211
 1805SOL    HW1 6314   1.310   4.730   6.121
 1805SOL    HW2 6315   1.193   4.711   6.234
 1806SOL     OW 6316   0.868   2.361   1.693
 1806SOL    HW1 6317   0.806   2.424   1.740
 1806SOL    HW2 6318   0.899   2.403   1.607
 1807SOL     OW 6319   6.362   2.265   6.477
 1807SOL    HW1 6320   6.300   2.201   6.432
 1807SOL    HW2 6321   6.314   2.312   6.551
 1808SOL     OW 6322   5.429   4.790   4.442
 1808SOL    HW1 6323   5.474   4.727   4.505
 1808SOL    HW2 6324   5.342   4.751   4.413
 1809SOL     OW 6325   2.595   2.313   5.164
 1809SOL    HW1 6326   2.602   2.280   5.070
 1809SOL    HW2 6327   2.516   2.373   5.172
 1810SOL     OW 6328   1.412   0.189   4.438
 1810SOL    HW1 6329   1.461   0.119   4.490
 1810SOL    HW2 6330   1.403   0.272   4.493
 1811SOL     OW 6331   4.788   4.668   2.856
 1811SOL    HW1 6332   4.840   4.584   2.839
 1811SOL    HW2 6333   4.727   4.685   2.778
 1812SOL     OW 6334   4.871   6.795   6.234
 1812SOL    HW1 6335   4.883   6.739   6.152
 1812SOL    HW2 6336   4.781   6.777   6.274
 1813SOL     OW 6337   4.955   5.100   1.508
 1813SOL    HW1 6338   4.994   5.045   1.434
 1813SOL    HW2 6339   5.006   5.084   1.592
 1814SOL     OW 6340   6.177   0.621   0.903
 1814SOL    HW1 6341   6.114   0.556   0.945
 1814SOL    HW2 6342   6.271   0.589   0.914
 1815SOL     OW 6343   6.127   0.537   2.925
 1815SOL    HW1 6344   6.150   0.474   2.999
 1815SOL    HW2 6345   6.110   0.486   2.841
 1816SOL     OW 6346   2.710   4.941   0.366
 1816SOL    HW1 6347   2.736   4.845   0.367
 1816SOL    HW2 6348   2.788   4.997   0.338
 1817SOL     OW 6349   4.008   0.458   3.049
 1817SOL    HW1 6350   4.091   0.496   3.090
 1817SOL    HW2 6351   3.928   0.499   3.092
 1818SOL     OW 6352   1.990   6.550   1.073
 1818SOL    HW1 6353   2.045   6.617   1.123
 1818SOL    HW2 6354   1.895   6.557   1.101
 1819SOL     OW 6355   1.679   6.827   1.785
 1819SOL    HW1 6356   1.756   6.883   1.816
 1819SOL    HW2 6357   1.605   6.887   1.754
 1820SOL     OW 6358   3.541   0.526   2.555
 1820SOL    HW1 6359   3.582   0.608   2.515
 1820SOL    HW2 6360   3.574   0.445   2.506
 1821SOL     OW 6361   2.508   1.379   1.506
 1821SOL    HW1 6362   2.421   1.353   1.466
 1821SOL    HW2 6363   2.542   1.462   1.462
 1822SOL     OW 6364   0.666   2.568   1.678
 1822SOL    HW1 6365   0.675   2.647   1.618
 1822SOL    HW2 6366   0.574   2.565   1.717
 1823SOL     OW 6367   2.996   6.240   3.044
 1823SOL    HW1 6368   3.029   6.253   2.950
 1823SOL    HW2 6369   3.010   6.144   3.071
 1824SOL     OW 6370   4.016   4.182   0.557
 1824SOL    HW1 6371   4.016   4.117   0.633
 1824SOL    HW2 6372   4.084   4.253   0.573
 1825SOL     OW 6373   0.841   2.347   4.476
 1825SOL    HW1 6374   0.758   2.379   4.522
 1825SOL    HW2 6375   0.825   2.341   4.378
 1826SOL     OW 6376   3.126   1.836   1.377
 1826SOL    HW1 6377   3.157   1.802   1.289
 1826SOL    HW2 6378   3.198   1.822   1.445
 1827SOL     OW 6379   6.509   5.173   1.116
 1827SOL    HW1 6380   6.566   5.222   1.051
 1827SOL    HW2 6381   6.439   5.235   1.153
 1828SOL     OW 6382   1.317   2.797   6.852
 1828SOL    HW1 6383   1.259   2.756   6.781
 1828SOL    HW2 6384   1.413   2.780   6.832
 1829SOL     OW 6385   4.270   1.061   3.067
 1829SOL    HW1 6386   4.253   0.996   2.993
 1829SOL    HW2 6387   4.185   1.078   3.117
 1830SOL     OW 6388   5.713   5.985   4.962
 1830SOL    HW1 6389   5.786   6.019   4.902
 1830SOL    HW2 6390   5.721   6.030   5.052
 1831SOL     OW 6391   5.797   6.195   2.045
 1831SOL    HW1 6392   5.878   6.246   2.014
 1831SOL    HW2 6393   5.721   6.259   2.056
 1832SOL     OW 6394   4.361   1.565   0.762
 1832SOL    HW1 6395   4.409   1.637   0.811
 1832SOL    HW2 6396   4.390   1.476   0.797
 1833SOL     OW 6397   5.491   0.565   1.860
 1833SOL    HW1 6398   5.436   0.649   1.856
 1833SOL    HW2 6399   5.431   0.487   1.881
 1834SOL     OW 6400   2.171   4.020   0.516
 1834SOL    HW1 6401   2.073   4.004   0.534
 1834SOL    HW2 6402   2.189   4.005   0.419
 1835SOL     OW 6403   0.256   4.876   1.891
 1835SOL    HW1 6404   0.216   4.922   1.811
 1835SOL    HW2 6405   0.327   4.933   1.931
 1836SOL     OW 6406   5.563   2.508   1.575
 1836SOL    HW1 6407   5.561   2.604   1.550
 1836SOL    HW2 6408   5.607   2.498   1.665
 1837SOL     OW 6409   1.085   6.842   5.347
 1837SOL    HW1 6410   1.041   6.886   5.270
 1837SOL    HW2 6411   1.154   6.777   5.314
 1838SOL     OW 6412   6.505   0.903   5.144
 1838SOL    HW1 6413   6.457   0.941   5.223
 1838SOL    HW2 6414   6.600   0.935   5.145
 1839SOL     OW 6415   0.516   1.253   5.336
 1839SOL    HW1 6416   0.524   1.340   5.287
 1839SOL    HW2 6417   0.422   1.218   5.326
 1840SOL     OW 6418   4.012   0.032   1.982
 1840SOL    HW1 6419   3.981   7.001   1.901
 1840SOL    HW2 6420   3.978   0.126   1.978
 1841SOL     OW 6421   2.715   1.044   3.364
 1841SOL    HW1 6422   2.660   0.969   3.327
 1841SOL    HW2 6423   2.708   1.044   3.464
 1842SOL     OW 6424   1.519   5.949   1.094
 1842SOL    HW1 6425   1.540   5.932   1.191
 1842SOL    HW2 6426   1.493   6.045   1.082
 1843SOL     OW 6427   6.056   0.495   4.790
 1843SOL    HW1 6428   6.044   0.401   4.757
 1843SOL    HW2 6429   5.978   0.519   4.849
 1844SOL     OW 6430   3.424   6.892   5.053
 1844SOL    HW1 6431   3.329   6.870   5.031
 1844SOL    HW2 6432   3.428   6.939   5.142
 1845SOL     OW 6433   2.369   6.592   4.780
 1845SOL    HW1 6434   2.351   6.690   4.769
 1845SOL    HW2 6435   2.452   6.580   4.836
 1846SOL     OW 6436   3.717   1.106   2.447
 1846SOL    HW1 6437   3.759   1.051   2.376
 1846SOL    HW2 6438   3.659   1.176   2.406
 1847SOL     OW 6439   1.705   6.999   5.750
 1847SOL    HW1 6440   1.751   0.002   5.836
 1847SOL    HW2 6441   1.645   0.056   5.724
 1848SOL     OW 6442   2.160   6.377   2.906
 1848SOL    HW1 6443   2.255   6.405   2.921
 1848SOL    HW2 6444   2.145   6.359   2.809
 1849SOL     OW 6445   4.523   2.632   1.340
 1849SOL    HW1 6446   4.554   2.715   1.385
 1849SOL    HW2 6447   4.551   2.634   1.244
 1850SOL     OW 6448   0.074   2.533   2.332
 1850SOL    HW1 6449   7.006   2.500   2.296
 1850SOL    HW2 6450   0.072   2.527   2.432
 1851SOL     OW 6451   0.891   3.519   6.906
 1851SOL    HW1 6452   0.807   3.467   6.916
 1851SOL    HW2 6453   0.949   3.504   6.986
 1852SOL     OW 6454   6.994   4.672   2.619
 1852SOL    HW1 6455   0.032   4.591   2.606
 1852SOL    HW2 6456   6.989   4.723   2.533
 1853SOL     OW 6457   6.814   2.601   3.349
 1853SOL    HW1 6458   6.799   2.593   3.447
 1853SOL    HW2 6459   6.830   2.698   3.326
 1854SOL     OW 6460   1.946   5.524   2.889
 1854SOL    HW1 6461   1.964   5.434   2.849
 1854SOL    HW2 6462   1.988   5.594   2.832
 1855SOL     OW 6463   5.875   3.746   5.528
 1855SOL    HW1 6464   5.843   3.740   5.434
 1855SOL    HW2 6465   5.846   3.665   5.578
 1856SOL     OW 6466   5.024   3.193   5.809
 1856SOL    HW1 6467   5.043   3.200   5.711
 1856SOL    HW2 6468   5.103   3.153   5.855
 1857SOL     OW 6469   3.920   1.995   0.394
 1857SOL    HW1 6470   3.829   1.974   0.430
 1857SOL    HW2 6471   3.989   1.943   0.444
 1858SOL     OW 6472   5.525   3.264   3.258
 1858SOL    HW1 6473   5.569   3.292   3.173
 1858SOL    HW2 6474   5.569   3.312   3.335
 1859SOL     OW 6475   4.871   1.944   3.683
 1859SOL    HW1 6476   4.971   1.945   3.681
 1859SOL    HW2 6477   4.836   2.022   3.630
 1860SOL     OW 6478   0.322   1.179   4.964
 1860SOL    HW1 6479   0.328   1.277   4.979
 1860SOL    HW2 6480   0.411   1.143   4.937
 1861SOL     OW 6481   5.517   0.422   2.480
 1861SOL    HW1 6482   5.563   0.471   2.406
 1861SOL    HW2 6483   5.551   0.453   2.568
 1862SOL     OW 6484   2.662   0.222   6.324
 1862SOL    HW1 6485   2.573   0.177   6.316
 1862SOL    HW2 6486   2.680   0.275   6.242
 1863SOL     OW 6487   7.007   2.891   3.690
 1863SOL    HW1 6488   6.992   2.805   3.738
 1863SOL    HW2 6489   0.037   2.874   3.604
 1864SOL     OW 6490   2.972   5.917   4.819
 1864SOL    HW1 6491   3.023   5.998   4.849
 1864SOL    HW2 6492   3.034   5.839   4.815
 1865SOL     OW 6493   3.765   0.378   0.218
 1865SOL    HW1 6494   3.730   0.357   0.309
 1865SOL    HW2 6495   3.864   0.389   0.222
 1866SOL     OW 6496   6.605   4.686   3.528
 1866SOL    HW1 6497   6.648   4.681   3.437
 1866SOL    HW2 6498   6.507   4.705   3.517
 1867SOL     OW 6499   1.787   3.984   1.223
 1867SOL    HW1 6500   1.827   4.043   1.293
 1867SOL    HW2 6501   1.692   4.011   1.206
 1868SOL     OW 6502   4.995   3.028   6.410
 1868SOL    HW1 6503   4.929   2.955   6.389
 1868SOL    HW2 6504   5.087   2.988   6.417
 1869SOL     OW 6505   6.500   3.151   4.955
 1869SOL    HW1 6506   6.588   3.129   4.912
 1869SOL    HW2 6507   6.465   3.069   5.001
 1870SOL     OW 6508   1.271   3.381   5.030
 1870SOL    HW1 6509   1.262   3.282   5.038
 1870SOL    HW2 6510   1.344   3.413   5.091
 1871SOL     OW 6511   0.314   0.524   0.363
 1871SOL    HW1 6512   0.322   0.455   0.435
 1871SOL    HW2 6513   0.401   0.530   0.314
 1872SOL     OW 6514   4.583   2.120   0.197
 1872SOL    HW1 6515   4.505   2.157   0.248
 1872SOL    HW2 6516   4.561   2.030   0.162
 1873SOL     OW 6517   6.066   0.644   5.817
 1873SOL    HW1 6518   6.069   0.693   5.904
 1873SOL    HW2 6519   6.111   0.698   5.746
 1874SOL     OW 6520   1.617   1.273   6.714
 1874SOL    HW1 6521   1.608   1.359   6.766
 1874SOL    HW2 6522   1.634   1.294   6.618
 1875SOL     OW 6523   6.471   0.537   0.872
 1875SOL    HW1 6524   6.531   0.460   0.850
 1875SOL    HW2 6525   6.526   0.618   0.891
 1876SOL     OW 6526   3.698   5.765   6.353
 1876SOL    HW1 6527   3.732   5.715   6.433
 1876SOL    HW2 6528   3.631   5.710   6.305
 1877SOL     OW 6529   1.393   1.628   3.631
 1877SOL    HW1 6530   1.300   1.642   3.595
 1877SOL    HW2 6531   1.440   1.560   3.576
 1878SOL     OW 6532   6.807   2.930   4.162
 1878SOL    HW1 6533   6.829   2.835   4.182
 1878SOL    HW2 6534   6.892   2.982   4.153
 1879SOL     OW 6535   2.420   6.140   4.065
 1879SOL    HW1 6536   2.323   6.153   4.046
 1879SOL    HW2 6537   2.442   6.043   4.064
 1880SOL     OW 6538   0.081   1.929   3.217
 1880SOL    HW1 6539   0.069   1.850   3.278
 1880SOL    HW2 6540   0.116   2.007   3.270
 1881SOL     OW 6541   1.429   1.553   3.905
 1881SOL    HW1 6542   1.438   1.563   3.806
 1881SOL    HW2 6543   1.340   1.588   3.934
 1882SOL     OW 6544   1.045   4.658   6.717
 1882SOL    HW1 6545   1.014   4.753   6.728
 1882SOL    HW2 6546   1.140   4.657   6.686
 1883SOL     OW 6547   0.990   3.465   3.381
 1883SOL    HW1 6548   0.913   3.512   3.423
 1883SOL    HW2 6549   1.074   3.487   3.430
 1884SOL     OW 6550   5.887   2.448   1.154
 1884SOL    HW1 6551   5.831   2.367   1.174
 1884SOL    HW2 6552   5.970   2.446   1.209
 1885SOL     OW 6553   0.367   2.263   0.236
 1885SOL    HW1 6554   0.345   2.243   0.332
 1885SOL    HW2 6555   0.458   2.229   0.215
 1886SOL     OW 6556   2.798   1.882   0.786
 1886SOL    HW1 6557   2.729   1.824   0.830
 1886SOL    HW2 6558   2.882   1.880   0.839
 1887SOL     OW 6559   0.325   4.583   5.392
 1887SOL    HW1 6560   0.398   4.585   5.324
 1887SOL    HW2 6561   0.347   4.648   5.465
 1888SOL     OW 6562   3.115   1.896   6.518
 1888SOL    HW1 6563   3.106   1.947   6.433
 1888SOL    HW2 6564   3.025   1.861   6.546
 1889SOL     OW 6565   5.713   2.183   6.166
 1889SOL    HW1 6566   5.676   2.267   6.205
 1889SOL    HW2 6567   5.702   2.108   6.232
 1890SOL     OW 6568   1.368   5.380   5.258
 1890SOL    HW1 6569   1.282   5.431   5.249
 1890SOL    HW2 6570   1.350   5.282   5.253
 1891SOL     OW 6571   5.442   3.413   4.321
 1891SOL    HW1 6572   5.419   3.509   4.333
 1891SOL    HW2 6573   5.393   3.358   4.389
 1892SOL     OW 6574   3.877   0.449   0.881
 1892SOL    HW1 6575   3.812   0.382   0.918
 1892SOL    HW2 6576   3.833   0.503   0.809
 1893SOL     OW 6577   3.324   1.631   5.956
 1893SOL    HW1 6578   3.352   1.724   5.930
 1893SOL    HW2 6579   3.277   1.634   6.044
 1894SOL     OW 6580   3.801   3.973   2.336
 1894SOL    HW1 6581   3.721   4.025   2.308
 1894SOL    HW2 6582   3.857   3.952   2.256
 1895SOL     OW 6583   5.120   1.083   2.694
 1895SOL    HW1 6584   5.173   1.130   2.624
 1895SOL    HW2 6585   5.036   1.048   2.654
 1896SOL     OW 6586   0.609   0.413   3.414
 1896SOL    HW1 6587   0.512   0.436   3.417
 1896SOL    HW2 6588   0.663   0.490   3.448
 1897SOL     OW 6589   0.767   5.064   2.356
 1897SOL    HW1 6590   0.867   5.059   2.348
 1897SOL    HW2 6591   0.742   5.066   2.453
 1898SOL     OW 6592   3.113   5.100   2.230
 1898SOL    HW1 6593   3.032   5.151   2.200
 1898SOL    HW2 6594   3.116   5.012   2.183
 1899SOL     OW 6595   0.774   2.130   2.645
 1899SOL    HW1 6596   0.871   2.138   2.620
 1899SOL    HW2 6597   0.724   2.089   2.569
 1900SOL     OW 6598   1.275   0.048   5.028
 1900SOL    HW1 6599   1.276   0.112   5.105
 1900SOL    HW2 6600   1.201   0.073   4.965
 1901SOL     OW 6601   2.240   1.402   1.379
 1901SOL    HW1 6602   2.217   1.426   1.284
 1901SOL    HW2 6603   2.232   1.483   1.436
 1902SOL     OW 6604   2.551   2.428   4.814
 1902SOL    HW1 6605   2.478   2.478   4.768
 1902SOL    HW2 6606   2.624   2.406   4.749
 1903SOL     OW 6607   6.712   4.298   3.830
 1903SOL    HW1 6608   6.738   4.210   3.871
 1903SOL    HW2 6609   6.713   4.369   3.900
 1904SOL     OW 6610   6.336   6.376   4.064
 1904SOL    HW1 6611   6.264   6.309   4.049
 1904SOL    HW2 6612   6.296   6.459   4.103
 1905SOL     OW 6613   1.845   1.146   4.657
 1905SOL    HW1 6614   1.886   1.183   4.574
 1905SOL    HW2 6615   1.915   1.100   4.712
 1906SOL     OW 6616   3.129   0.062   5.133
 1906SOL    HW1 6617   3.187   0.032   5.058
 1906SOL    HW2 6618   3.100   7.002   5.188
 1907SOL     OW 6619   3.380   6.994   3.295
 1907SOL    HW1 6620   3.310   6.922   3.288
 1907SOL    HW2 6621   3.460   6.967   3.241
 1908SOL     OW 6622   4.217   0.757   4.983
 1908SOL    HW1 6623   4.189   0.690   4.914
 1908SOL    HW2 6624   4.299   0.804   4.953
 1909SOL     OW 6625   1.223   4.163   2.590
 1909SOL    HW1 6626   1.231   4.240   2.653
 1909SOL    HW2 6627   1.239   4.078   2.639
 1910SOL     OW 6628   0.299   2.637   6.751
 1910SOL    HW1 6629   0.354   2.703   6.802
 1910SOL    HW2 6630   0.229   2.599   6.811
 1911SOL     OW 6631   6.038   2.857   5.797
 1911SOL    HW1 6632   5.975   2.852   5.719
 1911SOL    HW2 6633   6.131   2.838   5.766
 1912SOL     OW 6634   3.647   7.008   1.092
 1912SOL    HW1 6635   3.548   7.002   1.091
 1912SOL    HW2 6636   3.686   6.945   1.025
 1913SOL     OW 6637   1.265   5.737   5.486
 1913SOL    HW1 6638   1.345   5.793   5.464
 1913SOL    HW2 6639   1.213   5.719   5.403
 1914SOL     OW 6640   3.545   2.284   6.939
 1914SOL    HW1 6641   3.641   2.267   6.964
 1914SOL    HW2 6642   3.523   2.379   6.959
 1915SOL     OW 6643   3.797   1.731   5.463
 1915SOL    HW1 6644   3.838   1.744   5.554
 1915SOL    HW2 6645   3.858   1.674   5.407
 1916SOL     OW 6646   3.328   6.122   1.133
 1916SOL    HW1 6647   3.335   6.162   1.225
 1916SOL    HW2 6648   3.322   6.022   1.141
 1917SOL     OW 6649   3.203   3.013   4.260
 1917SOL    HW1 6650   3.251   3.030   4.174
 1917SOL    HW2 6651   3.233   2.926   4.299
 1918SOL     OW 6652   0.809   1.070   0.017
 1918SOL    HW1 6653   0.724   1.123   0.012
 1918SOL    HW2 6654   0.839   1.048   6.943
 1919SOL     OW 6655   2.468   0.307   1.579
 1919SOL    HW1 6656   2.493   0.318   1.675
 1919SOL    HW2 6657   2.516   0.376   1.524
 1920SOL     OW 6658   1.147   5.239   2.881
 1920SOL    HW1 6659   1.116   5.198   2.967
 1920SOL    HW2 6660   1.243   5.263   2.888
 1921SOL     OW 6661   1.541   4.381   0.120
 1921SOL    HW1 6662   1.626   4.330   0.137
 1921SOL    HW2 6663   1.463   4.328   0.152
 1922SOL     OW 6664   3.136   4.212   0.981
 1922SOL    HW1 6665   3.139   4.136   1.046
 1922SOL    HW2 6666   3.040   4.236   0.962
 1923SOL     OW 6667   3.372   0.965   6.189
 1923SOL    HW1 6668   3.377   0.950   6.091
 1923SOL    HW2 6669   3.377   1.063   6.209
 1924SOL     OW 6670   5.115   5.071   1.722
 1924SOL    HW1 6671   5.198   5.111   1.759
 1924SOL    HW2 6672   5.064   5.025   1.795
 1925SOL     OW 6673   2.453   3.631   0.995
 1925SOL    HW1 6674   2.450   3.605   0.898
 1925SOL    HW2 6675   2.370   3.598   1.040
 1926SOL     OW 6676   1.365   6.811   2.835
 1926SOL    HW1 6677   1.290   6.846   2.779
 1926SOL    HW2 6678   1.381   6.873   2.912
 1927SOL     OW 6679   3.259   4.798   6.486
 1927SOL    HW1 6680   3.324   4.782   6.412
 1927SOL    HW2 6681   3.212   4.884   6.471
 1928SOL     OW 6682   0.116   3.578   5.654
 1928SOL    HW1 6683   0.129   3.649   5.586
 1928SOL    HW2 6684   0.056   3.611   5.727
 1929SOL     OW 6685   0.886   6.002   1.691
 1929SOL    HW1 6686   0.951   5.927   1.685
 1929SOL    HW2 6687   0.802   5.971   1.737
 1930SOL     OW 6688   3.553   4.085   6.929
 1930SOL    HW1 6689   3.637   4.089   6.874
 1930SOL    HW2 6690   3.552   4.162   6.993
 1931SOL     OW 6691   6.902   2.925   2.458
 1931SOL    HW1 6692   6.900   3.024   2.443
 1931SOL    HW2 6693   6.962   2.882   2.390
 1932SOL     OW 6694   4.876   3.626   3.420
 1932SOL    HW1 6695   4.850   3.544   3.370
 1932SOL    HW2 6696   4.850   3.615   3.516
 1933SOL     OW 6697   2.541   4.545   0.851
 1933SOL    HW1 6698   2.512   4.460   0.896
 1933SOL    HW2 6699   2.486   4.559   0.769
 1934SOL     OW 6700   0.892   0.296   4.830
 1934SOL    HW1 6701   0.848   0.317   4.917
 1934SOL    HW2 6702   0.929   0.379   4.790
 1935SOL     OW 6703   3.621   6.621   4.554
 1935SOL    HW1 6704   3.582   6.711   4.537
 1935SOL    HW2 6705   3.550   6.552   4.547
 1936SOL     OW 6706   6.438   3.666   4.082
 1936SOL    HW1 6707   6.480   3.735   4.141
 1936SOL    HW2 6708   6.413   3.587   4.137
 1937SOL     OW 6709   4.877   0.209   0.709
 1937SOL    HW1 6710   4.970   0.236   0.684
 1937SOL    HW2 6711   4.864   0.222   0.807
 1938SOL     OW 6712   2.547   0.937   1.972
 1938SOL    HW1 6713   2.621   0.945   2.039
 1938SOL    HW2 6714   2.568   0.862   1.909
 1939SOL     OW 6715   0.378   0.278   4.609
 1939SOL    HW1 6716   0.340   0.198   4.562
 1939SOL    HW2 6717   0.476   0.282   4.593
 1940SOL     OW 6718   4.650   4.558   6.939
 1940SOL    HW1 6719   4.720   4.494   6.907
 1940SOL    HW2 6720   4.657   4.644   6.887
 1941SOL     OW 6721   0.299   4.493   3.315
 1941SOL    HW1 6722   0.330   4.423   3.379
 1941SOL    HW2 6723   0.200   4.499   3.318
 1942SOL     OW 6724   5.139   0.401   1.595
 1942SOL    HW1 6725   5.102   0.486   1.635
 1942SOL    HW2 6726   5.200   0.424   1.519
 1943SOL     OW 6727   2.379   6.399   2.155
 1943SOL    HW1 6728   2.368   6.497   2.144
 1943SOL    HW2 6729   2.465   6.370   2.112
 1944SOL     OW 6730   5.809   2.545   0.306
 1944SOL    HW1 6731   5.797   2.639   0.338
 1944SOL    HW2 6732   5.751   2.484   0.360
 1945SOL     OW 6733   3.405   5.530   1.781
 1945SOL    HW1 6734   3.377   5.459   1.717
 1945SOL    HW2 6735   3.381   5.620   1.744
 1946SOL     OW 6736   6.697   0.308   1.451
 1946SOL    HW1 6737   6.633   0.379   1.481
 1946SOL    HW2 6738   6.730   0.257   1.530
 1947SOL     OW 6739   4.274   6.911   5.120
 1947SOL    HW1 6740   4.345   6.981   5.107
 1947SOL    HW2 6741   4.307   6.824   5.083
 1948SOL     OW 6742   5.783   5.578   3.878
 1948SOL    HW1 6743   5.734   5.517   3.942
 1948SOL    HW2 6744   5.717   5.630   3.824
 1949SOL     OW 6745   3.404   4.385   6.446
 1949SOL    HW1 6746   3.312   4.423   6.449
 1949SOL    HW2 6747   3.412   4.322   6.369
 1950SOL     OW 6748   4.118   4.360   0.775
 1950SOL    HW1 6749   4.096   4.317   0.863
 1950SOL    HW2 6750   4.036   4.405   0.738
 1951SOL     OW 6751   5.881   4.256   6.774
 1951SOL    HW1 6752   5.839   4.166   6.768
 1951SOL    HW2 6753   5.817   4.321   6.815
 1952SOL     OW 6754   4.353   2.177   0.328
 1952SOL    HW1 6755   4.410   2.180   0.410
 1952SOL    HW2 6756   4.257   2.191   0.354
 1953SOL     OW 6757   5.675   1.865   7.011
 1953SOL    HW1 6758   5.625   1.950   0.009
 1953SOL    HW2 6759   5.763   1.869   0.039
 1954SOL     OW 6760   5.504   1.320   3.537
 1954SOL    HW1 6761   5.549   1.341   3.624
 1954SOL    HW2 6762   5.474   1.405   3.494
 1955SOL     OW 6763   0.970   1.181   2.357
 1955SOL    HW1 6764   0.966   1.238   2.440
 1955SOL    HW2 6765   1.064   1.182   2.322
 1956SOL     OW 6766   4.964   6.678   2.663
 1956SOL    HW1 6767   4.886   6.616   2.665
 1956SOL    HW2 6768   4.942   6.758   2.606
 1957SOL     OW 6769   6.041   4.973   4.349
 1957SOL    HW1 6770   5.947   5.001   4.371
 1957SOL    HW2 6771   6.098   5.055   4.337
 1958SOL     OW 6772   5.031   2.174   2.706
 1958SOL    HW1 6773   5.037   2.267   2.669
 1958SOL    HW2 6774   4.975   2.117   2.646
 1959SOL     OW 6775   0.530   1.137   4.808
 1959SOL    HW1 6776   0.568   1.089   4.887
 1959SOL    HW2 6777   0.578   1.109   4.725
 1960SOL     OW 6778   6.510   4.418   2.005
 1960SOL    HW1 6779   6.599   4.374   1.994
 1960SOL    HW2 6780   6.441   4.368   1.952
 1961SOL     OW 6781   5.933   4.390   4.103
 1961SOL    HW1 6782   5.853   4.366   4.047
 1961SOL    HW2 6783   5.939   4.327   4.180
 1962SOL     OW 6784   2.112   6.670   3.685
 1962SOL    HW1 6785   2.044   6.601   3.712
 1962SOL    HW2 6786   2.201   6.645   3.722
 1963SOL     OW 6787   0.813   1.648   2.069
 1963SOL    HW1 6788   0.826   1.720   2.137
 1963SOL    HW2 6789   0.760   1.573   2.110
 1964SOL     OW 6790   4.758   4.163   0.404
 1964SOL    HW1 6791   4.734   4.235   0.339
 1964SOL    HW2 6792   4.745   4.074   0.362
 1965SOL     OW 6793   0.981   3.433   4.733
 1965SOL    HW1 6794   0.966   3.450   4.635
 1965SOL    HW2 6795   1.073   3.460   4.757
 1966SOL     OW 6796   6.710   6.771   0.450
 1966SOL    HW1 6797   6.625   6.808   0.411
 1966SOL    HW2 6798   6.734   6.687   0.402
 1967SOL     OW 6799   5.574   2.541   5.610
 1967SOL    HW1 6800   5.574   2.552   5.709
 1967SOL    HW2 6801   5.589   2.630   5.567
 1968SOL     OW 6802   2.896   7.001   6.959
 1968SOL    HW1 6803   2.896   0.022   6.868
 1968SOL    HW2 6804   2.879   6.903   6.953
 1969SOL     OW 6805   1.323   1.642   2.134
 1969SOL    HW1 6806   1.375   1.633   2.049
 1969SOL    HW2 6807   1.226   1.629   2.115
 1970SOL     OW 6808   2.130   6.832   6.081
 1970SOL    HW1 6809   2.093   6.773   6.153
 1970SOL    HW2 6810   2.084   6.813   5.995
 1971SOL     OW 6811   6.889   0.510   5.697
 1971SOL    HW1 6812   6.925   0.491   5.606
 1971SOL    HW2 6813   6.918   0.438   5.760
 1972SOL     OW 6814   5.155   2.373   2.237
 1972SOL    HW1 6815   5.069   2.336   2.272
 1972SOL    HW2 6816   5.209   2.299   2.196
 1973SOL     OW 6817   3.036   2.653   0.227
 1973SOL    HW1 6818   3.062   2.582   0.161
 1973SOL    HW2 6819   2.997   2.731   0.178
 1974SOL     OW 6820   5.732   6.618   4.515
 1974SOL    HW1 6821   5.767   6.711   4.503
 1974SOL    HW2 6822   5.634   6.620   4.532
 1975SOL     OW 6823   2.458   1.684   3.784
 1975SOL    HW1 6824   2.404   1.608   3.750
 1975SOL    HW2 6825   2.554   1.657   3.789
 1976SOL     OW 6826   0.267   6.810   6.703
 1976SOL    HW1 6827   0.352   6.764   6.676
 1976SOL    HW2 6828   0.189   6.753   6.679
 1977SOL     OW 6829   0.744   3.609   4.460
 1977SOL    HW1 6830   0.768   3.706   4.461
 1977SOL    HW2 6831   0.690   3.588   4.541
 1978SOL     OW 6832   1.916   0.180   3.232
 1978SOL    HW1 6833   1.981   0.219   3.167
 1978SOL    HW2 6834   1.823   0.199   3.201
 1979SOL     OW 6835   6.203   4.469   6.182
 1979SOL    HW1 6836   6.119   4.439   6.226
 1979SOL    HW2 6837   6.261   4.389   6.162
 1980SOL     OW 6838   2.877   0.638   4.832
 1980SOL    HW1 6839   2.962   0.683   4.860
 1980SOL    HW2 6840   2.898   0.568   4.764
 1981SOL     OW 6841   6.493   1.868   2.482
 1981SOL    HW1 6842   6.532   1.935   2.546
 1981SOL    HW2 6843   6.429   1.809   2.531
 1982SOL     OW 6844   0.279   4.301   5.243
 1982SOL    HW1 6845   0.254   4.397   5.246
 1982SOL    HW2 6846   0.200   4.246   5.270
 1983SOL     OW 6847   0.202   1.526   3.153
 1983SOL    HW1 6848   0.274   1.592   3.176
 1983SOL    HW2 6849   0.151   1.560   3.075
 1984SOL     OW 6850   6.237   1.894   5.139
 1984SOL    HW1 6851   6.202   1.944   5.218
 1984SOL    HW2 6852   6.318   1.841   5.166
 1985SOL     OW 6853   1.330   6.214   2.386
 1985SOL    HW1 6854   1.324   6.125   2.430
 1985SOL    HW2 6855   1.278   6.281   2.439
 1986SOL     OW 6856   1.728   0.994   0.196
 1986SOL    HW1 6857   1.739   1.083   0.152
 1986SOL    HW2 6858   1.756   0.922   0.133
 1987SOL     OW 6859   1.992   2.457   2.547
 1987SOL    HW1 6860   1.988   2.539   2.603
 1987SOL    HW2 6861   1.952   2.475   2.457
 1988SOL     OW 6862   5.746   4.426   0.616
 1988SOL    HW1 6863   5.753   4.332   0.648
 1988SOL    HW2 6864   5.682   4.431   0.539
 1989SOL     OW 6865   2.640   6.004   4.466
 1989SOL    HW1 6866   2.544   5.979   4.475
 1989SOL    HW2 6867   2.656   6.042   4.375
 1990SOL     OW 6868   3.470   6.624   0.579
 1990SOL    HW1 6869   3.406   6.701   0.584
 1990SOL    HW2 6870   3.493   6.606   0.483
 1991SOL     OW 6871   3.817   4.484   6.784
 1991SOL    HW1 6872   3.778   4.444   6.701
 1991SOL    HW2 6873   3.886   4.552   6.758
 1992SOL     OW 6874   0.909   0.788   0.703
 1992SOL    HW1 6875   0.859   0.854   0.646
 1992SOL    HW2 6876   0.994   0.830   0.734
 1993SOL     OW 6877   3.741   3.108   4.926
 1993SOL    HW1 6878   3.719   3.160   4.844
 1993SOL    HW2 6879   3.840   3.113   4.943
 1994SOL     OW 6880   0.439   1.032   0.895
 1994SOL    HW1 6881   0.510   1.074   0.951
 1994SOL    HW2 6882   0.448   1.066   0.801
 1995SOL     OW 6883   5.141   2.509   3.106
 1995SOL    HW1 6884   5.164   2.413   3.119
 1995SOL    HW2 6885   5.127   2.552   3.195
 1996SOL     OW 6886   2.554   3.275   0.086
 1996SOL    HW1 6887   2.460   3.308   0.096
 1996SOL    HW2 6888   2.597   3.270   0.176
 1997SOL     OW 6889   4.343   1.430   4.488
 1997SOL    HW1 6890   4.267   1.435   4.423
 1997SOL    HW2 6891   4.395   1.515   4.486
 1998SOL     OW 6892   2.273   4.487   6.334
 1998SOL    HW1 6893   2.221   4.421   6.389
 1998SOL    HW2 6894   2.226   4.504   6.248
 1999SOL     OW 6895   2.790   6.976   0.863
 1999SOL    HW1 6896   2.696   6.983   0.898
 1999SOL    HW2 6897   2.808   6.883   0.833
 2000SOL     OW 6898   4.565   2.273   5.274
 2000SOL    HW1 6899   4.598   2.285   5.181
 2000SOL    HW2 6900   4.626   2.321   5.337
 2001SOL     OW 6901   2.971   1.450   1.864
 2001SOL    HW1 6902   2.896   1.386   1.875
 2001SOL    HW2 6903   3.058   1.404   1.884
 2002SOL     OW 6904   0.980   4.921   6.748
 2002SOL    HW1 6905   0.965   4.988   6.820
 2002SOL    HW2 6906   1.054   4.953   6.688
 2003SOL     OW 6907   6.076   5.851   2.356
 2003SOL    HW1 6908   6.093   5.895   2.444
 2003SOL    HW2 6909   5.984   5.812   2.356
 2004SOL     OW 6910   5.573   0.732   5.670
 2004SOL    HW1 6911   5.549   0.796   5.743
 2004SOL    HW2 6912   5.657   0.684   5.694
 2005SOL     OW 6913   1.131   5.058   0.454
 2005SOL    HW1 6914   1.106   5.090   0.363
 2005SOL    HW2 6915   1.077   5.106   0.523
 2006SOL     OW 6916   4.871   6.410   4.102
 2006SOL    HW1 6917   4.836   6.316   4.096
 2006SOL    HW2 6918   4.911   6.425   4.192
 2007SOL     OW 6919   4.009   4.688   0.839
 2007SOL    HW1 6920   4.078   4.652   0.902
 2007SOL    HW2 6921   3.967   4.613   0.788
 2008SOL     OW 6922   2.609   5.384   4.057
 2008SOL    HW1 6923   2.532   5.398   3.994
 2008SOL    HW2 6924   2.579   5.329   4.135
 2009SOL     OW 6925   5.843   0.703   2.557
 2009SOL    HW1 6926   5.810   0.692   2.651
 2009SOL    HW2 6927   5.846   0.800   2.534
 2010SOL     OW 6928   2.043   1.997   0.726
 2010SOL    HW1 6929   1.986   2.017   0.647
 2010SOL    HW2 6930   2.139   2.011   0.702
 2011SOL     OW 6931   6.905   6.905   4.877
 2011SOL    HW1 6932   6.907   7.005   4.869
 2011SOL    HW2 6933   6.853   6.879   4.959
 2012SOL     OW 6934   1.782   3.520   1.906
 2012SOL    HW1 6935   1.872   3.493   1.871
 2012SOL    HW2 6936   1.712   3.459   1.869
 2013SOL     OW 6937   6.278   2.151   3.488
 2013SOL    HW1 6938   6.310   2.093   3.413
 2013SOL    HW2 6939   6.296   2.106   3.575
 2014SOL     OW 6940   2.694   5.070   3.312
 2014SOL    HW1 6941   2.610   5.086   3.364
 2014SOL    HW2 6942   2.741   5.157   3.296
 2015SOL     OW 6943   2.155   0.387   0.377
 2015SOL    HW1 6944   2.063   0.424   0.390
 2015SOL    HW2 6945   2.164   0.303   0.431
 2016SOL     OW 6946   0.902   6.361   4.901
 2016SOL    HW1 6947   0.814   6.384   4.859
 2016SOL    HW2 6948   0.913   6.414   4.985
 2017SOL     OW 6949   3.064   0.079   4.067
 2017SOL    HW1 6950   2.976   0.090   4.114
 2017SOL    HW2 6951   3.064   0.133   3.983
 2018SOL     OW 6952   5.595   6.666   5.500
 2018SOL    HW1 6953   5.592   6.668   5.400
 2018SOL    HW2 6954   5.603   6.760   5.535
 2019SOL     OW 6955   5.565   2.984   6.927
 2019SOL    HW1 6956   5.509   2.905   6.901
 2019SOL    HW2 6957   5.642   2.953   6.983
 2020SOL     OW 6958   1.167   6.232   4.945
 2020SOL    HW1 6959   1.142   6.138   4.921
 2020SOL    HW2 6960   1.114   6.295   4.889
 2021SOL     OW 6961   1.143   5.996   3.630
 2021SOL    HW1 6962   1.155   6.009   3.729
 2021SOL    HW2 6963   1.141   5.898   3.610
 2022SOL     OW 6964   1.748   3.819   3.248
 2022SOL    HW1 6965   1.651   3.830   3.269
 2022SOL    HW2 6966   1.771   3.722   3.248
 2023SOL     OW 6967   6.381   0.641   6.138
 2023SOL    HW1 6968   6.374   0.653   6.039
 2023SOL    HW2 6969   6.405   0.728   6.180
 2024SOL     OW 6970   0.422   6.632   4.098
 2024SOL    HW1 6971   0.497   6.571   4.123
 2024SOL    HW2 6972   0.457   6.726   4.092
 2025SOL     OW 6973   2.689   1.940   3.388
 2025SOL    HW1 6974   2.698   2.039   3.376
 2025SOL    HW2 6975   2.780   1.899   3.395
 2026SOL     OW 6976   0.548   2.703   5.823
 2026SOL    HW1 6977   0.620   2.751   5.873
 2026SOL    HW2 6978   0.520   2.758   5.744
 2027SOL     OW 6979   0.788   0.974   0.434
 2027SOL    HW1 6980   0.840   1.026   0.502
 2027SOL    HW2 6981   0.705   0.937   0.477
 2028SOL     OW 6982   3.199   6.748   5.027
 2028SOL    HW1 6983   3.214   6.685   5.103
 2028SOL    HW2 6984   3.105   6.780   5.028
 2029SOL     OW 6985   6.354   0.550   0.596
 2029SOL    HW1 6986   6.294   0.627   0.616
 2029SOL    HW2 6987   6.396   0.518   0.681
 2030SOL     OW 6988   2.425   1.169   2.597
 2030SOL    HW1 6989   2.388   1.189   2.506
 2030SOL    HW2 6990   2.367   1.102   2.643
 2031SOL     OW 6991   6.475   5.756   1.194
 2031SOL    HW1 6992   6.501   5.661   1.214
 2031SOL    HW2 6993   6.376   5.767   1.205
 2032SOL     OW 6994   4.693   0.058   2.056
 2032SOL    HW1 6995   4.747   0.043   2.139
 2032SOL    HW2 6996   4.631   7.000   2.043
 2033SOL     OW 6997   2.965   4.214   6.524
 2033SOL    HW1 6998   2.872   4.222   6.561
 2033SOL    HW2 6999   2.981   4.121   6.493
 2034SOL     OW 7000   3.066   5.998   5.251
 2034SOL    HW1 7001   3.165   6.004   5.240
 2034SOL    HW2 7002   3.044   5.969   5.344
 2035SOL     OW 7003   0.438   0.676   3.109
 2035SOL    HW1 7004   0.441   0.578   3.090
 2035SOL    HW2 7005   0.370   0.694   3.180
 2036SOL     OW 7006   1.495   4.363   3.009
 2036SOL    HW1 7007   1.583   4.327   2.979
 2036SOL    HW2 7008   1.489   4.461   2.988
 2037SOL     OW 7009   6.498   2.745   5.536
 2037SOL    HW1 7010   6.498   2.712   5.442
 2037SOL    HW2 7011   6.588   2.780   5.559
 2038SOL     OW 7012   1.477   2.556   0.157
 2038SOL    HW1 7013   1.525   2.586   0.240
 2038SOL    HW2 7014   1.541   2.559   0.080
 2039SOL     OW 7015   0.489   5.446   3.350
 2039SOL    HW1 7016   0.560   5.457   3.281
 2039SOL    HW2 7017   0.409   5.501   3.324
 2040SOL     OW 7018   3.129   3.419   4.872
 2040SOL    HW1 7019   3.192   3.386   4.802
 2040SOL    HW2 7020   3.062   3.347   4.893
 2041SOL     OW 7021   0.755   5.883   5.416
 2041SOL    HW1 7022   0.824   5.828   5.464
 2041SOL    HW2 7023   0.725   5.835   5.334
 2042SOL     OW 7024   4.824   5.470   0.129
 2042SOL    HW1 7025   4.883   5.485   0.051
 2042SOL    HW2 7026   4.834   5.545   0.194
 2043SOL     OW 7027   6.870   3.461   3.788
 2043SOL    HW1 7028   6.917   3.374   3.774
 2043SOL    HW2 7029   6.775   3.444   3.815
 2044SOL     OW 7030   6.315   6.921   1.780
 2044SOL    HW1 7031   6.343   6.868   1.699
 2044SOL    HW2 7032   6.225   6.890   1.810
 2045SOL     OW 7033   2.397   5.160   4.043
 2045SOL    HW1 7034   2.427   5.203   4.128
 2045SOL    HW2 7035   2.358   5.070   4.063
 2046SOL     OW 7036   6.547   2.425   4.296
 2046SOL    HW1 7037   6.454   2.419   4.259
 2046SOL    HW2 7038   6.544   2.410   4.395
 2047SOL     OW 7039   6.295   1.819   0.083
 2047SOL    HW1 7040   6.278   1.918   0.084
 2047SOL    HW2 7041   6.386   1.801   0.119
 2048SOL     OW 7042   1.709   6.702   6.210
 2048SOL    HW1 7043   1.670   6.612   6.189
 2048SOL    HW2 7044   1.691   6.764   6.134
 2049SOL     OW 7045   5.868   1.409   5.355
 2049SOL    HW1 7046   5.795   1.453   5.406
 2049SOL    HW2 7047   5.916   1.344   5.414
 2050SOL     OW 7048   6.809   3.003   4.431
 2050SOL    HW1 7049   6.857   3.041   4.511
 2050SOL    HW2 7050   6.851   3.038   4.347
 2051SOL     OW 7051   1.064   5.373   0.445
 2051SOL    HW1 7052   1.139   5.423   0.403
 2051SOL    HW2 7053   1.029   5.304   0.381
 2052SOL     OW 7054   1.656   3.606   0.748
 2052SOL    HW1 7055   1.725   3.588   0.678
 2052SOL    HW2 7056   1.702   3.626   0.835
 2053SOL     OW 7057   5.754   6.877   4.440
 2053SOL    HW1 7058   5.727   6.877   4.344
 2053SOL    HW2 7059   5.681   6.917   4.495
 2054SOL     OW 7060   3.515   4.081   3.024
 2054SOL    HW1 7061   3.424   4.081   2.982
 2054SOL    HW2 7062   3.514   4.141   3.104
 2055SOL     OW 7063   6.264   3.393   3.099
 2055SOL    HW1 7064   6.168   3.369   3.085
 2055SOL    HW2 7065   6.275   3.492   3.091
 2056SOL     OW 7066   3.622   6.065   2.730
 2056SOL    HW1 7067   3.590   6.021   2.814
 2056SOL    HW2 7068   3.699   6.013   2.693
 2057SOL     OW 7069   5.423   4.058   5.405
 2057SOL    HW1 7070   5.439   3.978   5.463
 2057SOL    HW2 7071   5.384   4.132   5.460
 2058SOL     OW 7072   0.406   1.664   3.275
 2058SOL    HW1 7073   0.454   1.717   3.344
 2058SOL    HW2 7074   0.468   1.644   3.199
 2059SOL     OW 7075   1.762   5.795   6.307
 2059SOL    HW1 7076   1.711   5.876   6.338
 2059SOL    HW2 7077   1.855   5.822   6.284
 2060SOL     OW 7078   0.481   4.556   1.798
 2060SOL    HW1 7079   0.430   4.618   1.737
 2060SOL    HW2 7080   0.499   4.602   1.885
 2061SOL     OW 7081   0.974   1.973   3.581
 2061SOL    HW1 7082   0.906   2.046   3.575
 2061SOL    HW2 7083   1.052   1.997   3.523
 2062SOL     OW 7084   6.492   6.509   3.887
 2062SOL    HW1 7085   6.448   6.438   3.941
 2062SOL    HW2 7086   6.468   6.497   3.791
 2063SOL     OW 7087   2.293   6.810   6.718
 2063SOL    HW1 7088   2.234   6.854   6.650
 2063SOL    HW2 7089   2.240   6.747   6.774
 2064SOL     OW 7090   1.077   2.175   5.268
 2064SOL    HW1 7091   1.071   2.228   5.352
 2064SOL    HW2 7092   1.174   2.162   5.244
 2065SOL     OW 7093   6.372   2.410   5.092
 2065SOL    HW1 7094   6.316   2.475   5.144
 2065SOL    HW2 7095   6.465   2.447   5.083
 2066SOL     OW 7096   0.490   4.724   4.171
 2066SOL    HW1 7097   0.441   4.653   4.120
 2066SOL    HW2 7098   0.581   4.689   4.197
 2067SOL     OW 7099   6.471   4.810   0.974
 2067SOL    HW1 7100   6.458   4.713   0.955
 2067SOL    HW2 7101   6.529   4.822   1.054
 2068SOL     OW 7102   2.139   0.512   4.585
 2068SOL    HW1 7103   2.079   0.441   4.623
 2068SOL    HW2 7104   2.115   0.600   4.625
 2069SOL     OW 7105   0.196   2.459   3.944
 2069SOL    HW1 7106   0.101   2.456   3.974
 2069SOL    HW2 7107   0.211   2.388   3.876
 2070SOL     OW 7108   0.527   1.248   1.564
 2070SOL    HW1 7109   0.448   1.216   1.616
 2070SOL    HW2 7110   0.559   1.335   1.603
 2071SOL     OW 7111   6.537   6.666   5.898
 2071SOL    HW1 7112   6.463   6.731   5.882
 2071SOL    HW2 7113   6.499   6.577   5.924
 2072SOL     OW 7114   4.344   6.369   4.164
 2072SOL    HW1 7115   4.291   6.384   4.247
 2072SOL    HW2 7116   4.295   6.305   4.105
 2073SOL     OW 7117   4.019   0.113   5.320
 2073SOL    HW1 7118   4.002   0.172   5.241
 2073SOL    HW2 7119   4.033   0.019   5.290
 2074SOL     OW 7120   1.841   2.630   6.929
 2074SOL    HW1 7121   1.826   2.704   6.864
 2074SOL    HW2 7122   1.820   2.543   6.885
 2075SOL     OW 7123   6.721   3.305   2.828
 2075SOL    HW1 7124   6.810   3.336   2.861
 2075SOL    HW2 7125   6.702   3.214   2.864
 2076SOL     OW 7126   6.215   0.178   6.756
 2076SOL    HW1 7127   6.122   0.215   6.762
 2076SOL    HW2 7128   6.276   0.246   6.717
 2077SOL     OW 7129   6.010   2.846   3.301
 2077SOL    HW1 7130   6.004   2.945   3.312
 2077SOL    HW2 7131   5.987   2.822   3.206
 2078SOL     OW 7132   1.649   6.082   6.019
 2078SOL    HW1 7133   1.577   6.151   6.028
 2078SOL    HW2 7134   1.618   6.008   5.960
 2079SOL     OW 7135   5.420   2.494   3.397
 2079SOL    HW1 7136   5.466   2.409   3.372
 2079SOL    HW2 7137   5.428   2.559   3.321
 2080SOL     OW 7138   1.700   6.829   4.526
 2080SOL    HW1 7139   1.694   6.809   4.428
 2080SOL    HW2 7140   1.639   6.767   4.576
 2081SOL     OW 7141   1.427   5.350   4.428
 2081SOL    HW1 7142   1.513   5.320   4.388
 2081SOL    HW2 7143   1.351   5.313   4.376
 2082SOL     OW 7144   0.601   0.150   2.845
 2082SOL    HW1 7145   0.635   0.219   2.908
 2082SOL    HW2 7146   0.623   0.059   2.880
 2083SOL     OW 7147   6.439   5.127   5.805
 2083SOL    HW1 7148   6.467   5.075   5.724
 2083SOL    HW2 7149   6.520   5.161   5.853
 2084SOL     OW 7150   0.819   4.072   3.063
 2084SOL    HW1 7151   0.839   4.084   2.966
 2084SOL    HW2 7152   0.839   3.978   3.090
 2085SOL     OW 7153   4.760   0.319   6.965
 2085SOL    HW1 7154   4.794   0.241   6.913
 2085SOL    HW2 7155   4.800   0.317   0.038
 2086SOL     OW 7156   4.272   5.945   5.803
 2086SOL    HW1 7157   4.327   5.989   5.874
 2086SOL    HW2 7158   4.239   6.014   5.739
 2087SOL     OW 7159   4.915   0.666   1.643
 2087SOL    HW1 7160   4.966   0.739   1.599
 2087SOL    HW2 7161   4.817   0.686   1.638
 2088SOL     OW 7162   1.849   5.858   0.486
 2088SOL    HW1 7163   1.917   5.831   0.555
 2088SOL    HW2 7164   1.767   5.801   0.497
 2089SOL     OW 7165   5.182   2.295   6.317
 2089SOL    HW1 7166   5.223   2.204   6.315
 2089SOL    HW2 7167   5.211   2.343   6.400
 2090SOL     OW 7168   4.267   3.619   5.487
 2090SOL    HW1 7169   4.286   3.647   5.581
 2090SOL    HW2 7170   4.346   3.639   5.429
 2091SOL     OW 7171   0.024   5.551   0.938
 2091SOL    HW1 7172   6.990   5.598   0.867
 2091SOL    HW2 7173   7.006   5.459   0.952
 2092SOL     OW 7174   4.461   3.723   0.094
 2092SOL    HW1 7175   4.443   3.795   0.162
 2092SOL    HW2 7176   4.556   3.729   0.064
 2093SOL     OW 7177   2.859   2.347   1.425
 2093SOL    HW1 7178   2.928   2.274   1.417
 2093SOL    HW2 7179   2.857   2.382   1.518
 2094SOL     OW 7180   5.587   1.792   3.404
 2094SOL    HW1 7181   5.490   1.770   3.394
 2094SOL    HW2 7182   5.597   1.867   3.469
 2095SOL     OW 7183   5.936   6.948   5.301
 2095SOL    HW1 7184   5.993   6.920   5.378
 2095SOL    HW2 7185   5.845   6.972   5.333
 2096SOL     OW 7186   4.745   4.091   3.180
 2096SOL    HW1 7187   4.805   4.098   3.100
 2096SOL    HW2 7188   4.656   4.055   3.152
 2097SOL     OW 7189   2.854   3.466   6.477
 2097SOL    HW1 7190   2.897   3.537   6.534
 2097SOL    HW2 7191   2.801   3.404   6.535
 2098SOL     OW 7192   3.734   6.253   1.898
 2098SOL    HW1 7193   3.735   6.176   1.962
 2098SOL    HW2 7194   3.800   6.237   1.825
 2099SOL     OW 7195   3.306   2.707   6.311
 2099SOL    HW1 7196   3.364   2.661   6.244
 2099SOL    HW2 7197   3.210   2.687   6.291
 2100SOL     OW 7198   5.473   2.240   6.506
 2100SOL    HW1 7199   5.542   2.293   6.455
 2100SOL    HW2 7200   5.508   2.148   6.522
 2101SOL     OW 7201   1.316   0.135   1.597
 2101SOL    HW1 7202   1.223   0.098   1.607
 2101SOL    HW2 7203   1.326   0.177   1.507
 2102SOL     OW 7204   5.101   4.954   2.796
 2102SOL    HW1 7205   5.144   4.957   2.887
 2102SOL    HW2 7206   5.004   4.934   2.806
 2103SOL     OW 7207   3.385   4.103   6.606
 2103SOL    HW1 7208   3.469   4.056   6.633
 2103SOL    HW2 7209   3.407   4.192   6.567
 2104SOL     OW 7210   1.919   4.593   1.197
 2104SOL    HW1 7211   1.957   4.573   1.287
 2104SOL    HW2 7212   1.837   4.650   1.207
 2105SOL     OW 7213   5.328   5.086   4.989
 2105SOL    HW1 7214   5.322   5.176   5.033
 2105SOL    HW2 7215   5.407   5.037   5.024
 2106SOL     OW 7216   4.887   4.319   1.032
 2106SOL    HW1 7217   4.831   4.241   1.006
 2106SOL    HW2 7218   4.978   4.287   1.062
 2107SOL     OW 7219   5.853   2.796   5.297
 2107SOL    HW1 7220   5.853   2.722   5.229
 2107SOL    HW2 7221   5.800   2.873   5.263
 2108SOL     OW 7222   6.786   6.128   4.662
 2108SOL    HW1 7223   6.803   6.179   4.746
 2108SOL    HW2 7224   6.691   6.143   4.633
 2109SOL     OW 7225   4.373   6.009   2.058
 2109SOL    HW1 7226   4.466   6.003   2.022
 2109SOL    HW2 7227   4.338   5.918   2.077
 2110SOL     OW 7228   2.340   1.830   0.291
 2110SOL    HW1 7229   2.352   1.741   0.335
 2110SOL    HW2 7230   2.407   1.840   0.217
 2111SOL     OW 7231   2.030   2.696   6.393
 2111SOL    HW1 7232   2.097   2.767   6.414
 2111SOL    HW2 7233   1.938   2.735   6.396
 2112SOL     OW 7234   5.109   3.028   0.279
 2112SOL    HW1 7235   5.033   3.033   0.343
 2112SOL    HW2 7236   5.123   3.117   0.236
 2113SOL     OW 7237   2.542   1.840   4.213
 2113SOL    HW1 7238   2.532   1.934   4.180
 2113SOL    HW2 7239   2.538   1.777   4.136
 2114SOL     OW 7240   2.090   1.874   6.334
 2114SOL    HW1 7241   2.142   1.871   6.420
 2114SOL    HW2 7242   2.019   1.944   6.340
 2115SOL     OW 7243   1.304   4.245   3.146
 2115SOL    HW1 7244   1.383   4.268   3.089
 2115SOL    HW2 7245   1.306   4.299   3.230
 2116SOL     OW 7246   0.836   4.835   2.790
 2116SOL    HW1 7247   0.768   4.780   2.839
 2116SOL    HW2 7248   0.795   4.920   2.759
 2117SOL     OW 7249   6.873   4.648   2.078
 2117SOL    HW1 7250   6.843   4.564   2.032
 2117SOL    HW2 7251   6.849   4.727   2.022
 2118SOL     OW 7252   6.406   2.597   2.856
 2118SOL    HW1 7253   6.401   2.599   2.757
 2118SOL    HW2 7254   6.370   2.683   2.893
 2119SOL     OW 7255   1.320   0.659   0.838
 2119SOL    HW1 7256   1.251   0.596   0.874
 2119SOL    HW2 7257   1.278   0.723   0.774
 2120SOL     OW 7258   0.318   4.709   3.651
 2120SOL    HW1 7259   0.289   4.756   3.568
 2120SOL    HW2 7260   0.399   4.654   3.632
 2121SOL     OW 7261   1.591   3.874   6.404
 2121SOL    HW1 7262   1.609   3.788   6.357
 2121SOL    HW2 7263   1.678   3.915   6.432
 2122SOL     OW 7264   5.543   4.388   5.974
 2122SOL    HW1 7265   5.446   4.411   5.971
 2122SOL    HW2 7266   5.597   4.473   5.974
 2123SOL     OW 7267   6.724   5.290   2.210
 2123SOL    HW1 7268   6.669   5.255   2.287
 2123SOL    HW2 7269   6.777   5.369   2.241
 2124SOL     OW 7270   3.148   2.276   1.025
 2124SOL    HW1 7271   3.195   2.211   1.084
 2124SOL    HW2 7272   3.158   2.369   1.062
 2125SOL     OW 7273   2.029   0.587   2.561
 2125SOL    HW1 7274   1.991   0.498   2.588
 2125SOL    HW2 7275   1.960   0.658   2.575
 2126SOL     OW 7276   4.040   2.427   6.538
 2126SOL    HW1 7277   4.006   2.424   6.444
 2126SOL    HW2 7278   4.135   2.397   6.540
 2127SOL     OW 7279   0.900   1.988   5.220
 2127SOL    HW1 7280   0.972   2.057   5.224
 2127SOL    HW2 7281   0.875   1.971   5.125
 2128SOL     OW 7282   6.387   3.468   4.294
 2128SOL    HW1 7283   6.448   3.399   4.333
 2128SOL    HW2 7284   6.292   3.443   4.312
 2129SOL     OW 7285   4.570   3.130   5.355
 2129SOL    HW1 7286   4.581   3.155   5.451
 2129SOL    HW2 7287   4.508   3.052   5.348
 2130SOL     OW 7288   3.588   0.617   2.861
 2130SOL    HW1 7289   3.501   0.651   2.897
 2130SOL    HW2 7290   3.584   0.613   2.762
 2131SOL     OW 7291   4.605   1.671   6.814
 2131SOL    HW1 7292   4.574   1.657   6.720
 2131SOL    HW2 7293   4.525   1.670   6.875
 2132SOL     OW 7294   3.693   0.902   0.501
 2132SOL    HW1 7295   3.705   0.805   0.522
 2132SOL    HW2 7296   3.596   0.925   0.506
 2133SOL     OW 7297   3.416   3.521   1.055
 2133SOL    HW1 7298   3.386   3.531   0.960
 2133SOL    HW2 7299   3.462   3.605   1.084
 2134SOL     OW 7300   0.930   0.548   5.798
 2134SOL    HW1 7301   0.844   0.590   5.767
 2134SOL    HW2 7302   0.976   0.505   5.720
 2135SOL     OW 7303   1.721   3.016   5.266
 2135SOL    HW1 7304   1.696   2.934   5.213
 2135SOL    HW2 7305   1.705   3.097   5.210
 2136SOL     OW 7306   0.626   4.294   4.265
 2136SOL    HW1 7307   0.546   4.249   4.306
 2136SOL    HW2 7308   0.686   4.327   4.338
 2137SOL     OW 7309   1.043   5.528   4.559
 2137SOL    HW1 7310   1.103   5.605   4.584
 2137SOL    HW2 7311   1.066   5.449   4.615
 2138SOL     OW 7312   6.984   0.825   2.531
 2138SOL    HW1 7313   6.924   0.901   2.557
 2138SOL    HW2 7314   7.009   0.834   2.435
 2139SOL     OW 7315   3.387   0.926   2.567
 2139SOL    HW1 7316   3.302   0.873   2.558
 2139SOL    HW2 7317   3.396   0.959   2.660
 2140SOL     OW 7318   3.696   6.366   3.990
 2140SOL    HW1 7319   3.769   6.359   4.057
 2140SOL    HW2 7320   3.611   6.332   4.029
 2141SOL     OW 7321   6.199   4.368   1.943
 2141SOL    HW1 7322   6.143   4.451   1.943
 2141SOL    HW2 7323   6.213   4.337   2.037
 2142SOL     OW 7324   1.439   2.104   3.300
 2142SOL    HW1 7325   1.408   2.185   3.349
 2142SOL    HW2 7326   1.500   2.131   3.225
 2143SOL     OW 7327   2.957   4.380   1.489
 2143SOL    HW1 7328   2.917   4.329   1.412
 2143SOL    HW2 7329   2.896   4.373   1.568
 2144SOL     OW 7330   1.195   5.737   4.006
 2144SOL    HW1 7331   1.171   5.661   3.945
 2144SOL    HW2 7332   1.194   5.705   4.101
 2145SOL     OW 7333   4.506   5.969   4.098
 2145SOL    HW1 7334   4.408   5.953   4.084
 2145SOL    HW2 7335   4.517   6.041   4.167
 2146SOL     OW 7336   2.701   3.841   1.165
 2146SOL    HW1 7337   2.719   3.812   1.071
 2146SOL    HW2 7338   2.602   3.849   1.179
 2147SOL     OW 7339   6.776   1.478   6.192
 2147SOL    HW1 7340   6.718   1.512   6.265
 2147SOL    HW2 7341   6.773   1.540   6.114
 2148SOL     OW 7342   5.349   2.158   5.462
 2148SOL    HW1 7343   5.386   2.196   5.377
 2148SOL    HW2 7344   5.425   2.136   5.524
 2149SOL     OW 7345   3.482   2.444   1.191
 2149SOL    HW1 7346   3.402   2.473   1.138
 2149SOL    HW2 7347   3.549   2.519   1.192
 2150SOL     OW 7348   3.015   1.892   2.427
 2150SOL    HW1 7349   3.001   1.845   2.340
 2150SOL    HW2 7350   3.005   1.990   2.414
 2151SOL     OW 7351   1.799   0.930   5.271
 2151SOL    HW1 7352   1.840   0.976   5.350
 2151SOL    HW2 7353   1.847   0.957   5.188
 2152SOL     OW 7354   3.894   6.304   1.661
 2152SOL    HW1 7355   3.934   6.395   1.674
 2152SOL    HW2 7356   3.955   6.235   1.701
 2153SOL     OW 7357   3.395   0.606   3.260
 2153SOL    HW1 7358   3.470   0.665   3.288
 2153SOL    HW2 7359   3.426   0.541   3.192
 2154SOL     OW 7360   4.960   6.908   4.956
 2154SOL    HW1 7361   4.914   6.821   4.970
 2154SOL    HW2 7362   4.983   6.949   5.044
 2155SOL     OW 7363   2.006   5.868   0.243
 2155SOL    HW1 7364   1.933   5.886   0.309
 2155SOL    HW2 7365   2.051   5.954   0.219
 2156SOL     OW 7366   3.014   1.001   4.660
 2156SOL    HW1 7367   3.045   1.084   4.706
 2156SOL    HW2 7368   2.972   1.025   4.572
 2157SOL     OW 7369   6.225   1.310   3.192
 2157SOL    HW1 7370   6.182   1.332   3.105
 2157SOL    HW2 7371   6.231   1.210   3.202
 2158SOL     OW 7372   4.151   6.110   1.018
 2158SOL    HW1 7373   4.053   6.127   1.006
 2158SOL    HW2 7374   4.186   6.170   1.091
 2159SOL     OW 7375   1.800   6.342   5.679
 2159SOL    HW1 7376   1.873   6.315   5.616
 2159SOL    HW2 7377   1.821   6.433   5.716
 2160SOL     OW 7378   4.471   4.147   0.641
 2160SOL    HW1 7379   4.425   4.235   0.626
 2160SOL    HW2 7380   4.569   4.158   0.630
 2161SOL     OW 7381   5.248   4.182   3.392
 2161SOL    HW1 7382   5.251   4.240   3.473
 2161SOL    HW2 7383   5.153   4.169   3.363
 2162SOL     OW 7384   2.901   1.023   1.059
 2162SOL    HW1 7385   2.829   0.963   1.025
 2162SOL    HW2 7386   2.860   1.102   1.103
 2163SOL     OW 7387   0.788   4.202   6.598
 2163SOL    HW1 7388   0.824   4.172   6.686
 2163SOL    HW2 7389   0.807   4.299   6.585
 2164SOL     OW 7390   1.344   3.062   6.933
 2164SOL    HW1 7391   1.359   2.967   6.905
 2164SOL    HW2 7392   1.282   3.106   6.869
 2165SOL     OW 7393   0.538   2.413   2.960
 2165SOL    HW1 7394   0.469   2.480   2.989
 2165SOL    HW2 7395   0.586   2.377   3.040
 2166SOL     OW 7396   1.446   2.298   4.646
 2166SOL    HW1 7397   1.390   2.349   4.580
 2166SOL    HW2 7398   1.470   2.358   4.723
 2167SOL     OW 7399   1.846   1.337   3.891
 2167SOL    HW1 7400   1.943   1.320   3.871
 2167SOL    HW2 7401   1.837   1.366   3.987
 2168SOL     OW 7402   0.969   1.707   3.856
 2168SOL    HW1 7403   0.892   1.725   3.795
 2168SOL    HW2 7404   0.938   1.646   3.930
 2169SOL     OW 7405   5.578   2.005   6.005
 2169SOL    HW1 7406   5.494   2.027   6.055
 2169SOL    HW2 7407   5.657   2.031   6.059
 2170SOL     OW 7408   6.428   5.406   5.349
 2170SOL    HW1 7409   6.407   5.417   5.252
 2170SOL    HW2 7410   6.438   5.496   5.392
 2171SOL     OW 7411   0.132   3.908   1.663
 2171SOL    HW1 7412   0.184   3.879   1.743
 2171SOL    HW2 7413   0.161   4.000   1.636
 2172SOL     OW 7414   3.103   2.429   0.400
 2172SOL    HW1 7415   3.079   2.522   0.372
 2172SOL    HW2 7416   3.023   2.370   0.394
 2173SOL     OW 7417   3.769   0.303   4.653
 2173SOL    HW1 7418   3.781   0.360   4.572
 2173SOL    HW2 7419   3.793   0.355   4.735
 2174SOL     OW 7420   5.650   5.206   5.046
 2174SOL    HW1 7421   5.653   5.117   5.001
 2174SOL    HW2 7422   5.740   5.250   5.041
 2175SOL     OW 7423   2.324   2.256   4.453
 2175SOL    HW1 7424   2.257   2.208   4.396
 2175SOL    HW2 7425   2.299   2.352   4.460
 2176SOL     OW 7426   0.872   2.687   0.030
 2176SOL    HW1 7427   0.820   2.674   6.965
 2176SOL    HW2 7428   0.952   2.743   0.012
 2177SOL     OW 7429   6.172   1.544   3.570
 2177SOL    HW1 7430   6.091   1.534   3.513
 2177SOL    HW2 7431   6.200   1.455   3.605
 2178SOL     OW 7432   1.079   3.126   0.444
 2178SOL    HW1 7433   1.140   3.085   0.376
 2178SOL    HW2 7434   1.127   3.198   0.494
 2179SOL     OW 7435   2.001   5.325   4.629
 2179SOL    HW1 7436   1.921   5.363   4.582
 2179SOL    HW2 7437   2.005   5.362   4.722
 2180SOL     OW 7438   2.310   2.918   1.791
 2180SOL    HW1 7439   2.262   2.894   1.708
 2180SOL    HW2 7440   2.316   3.018   1.799
 2181SOL     OW 7441   4.613   4.949   5.284
 2181SOL    HW1 7442   4.568   4.980   5.367
 2181SOL    HW2 7443   4.545   4.927   5.215
 2182SOL     OW 7444   0.550   3.271   4.524
 2182SOL    HW1 7445   0.602   3.265   4.608
 2182SOL    HW2 7446   0.484   3.196   4.520
 2183SOL     OW 7447   3.131   4.085   5.589
 2183SOL    HW1 7448   3.033   4.064   5.593
 2183SOL    HW2 7449   3.144   4.183   5.604
 2184SOL     OW 7450   4.598   1.903   6.579
 2184SOL    HW1 7451   4.651   1.925   6.661
 2184SOL    HW2 7452   4.611   1.806   6.556
 2185SOL     OW 7453   1.519   2.138   0.676
 2185SOL    HW1 7454   1.546   2.211   0.614
 2185SOL    HW2 7455   1.569   2.054   0.653
 2186SOL     OW 7456   0.369   5.286   2.338
 2186SOL    HW1 7457   0.287   5.235   2.366
 2186SOL    HW2 7458   0.435   5.288   2.413
 2187SOL     OW 7459   6.321   1.601   2.468
 2187SOL    HW1 7460   6.301   1.576   2.562
 2187SOL    HW2 7461   6.239   1.639   2.425
 2188SOL     OW 7462   5.740   6.202   4.302
 2188SOL    HW1 7463   5.659   6.248   4.340
 2188SOL    HW2 7464   5.711   6.124   4.247
 2189SOL     OW 7465   1.813   6.910   0.342
 2189SOL    HW1 7466   1.799   6.897   0.440
 2189SOL    HW2 7467   1.853   7.000   0.326
 2190SOL     OW 7468   0.612   2.893   1.801
 2190SOL    HW1 7469   0.551   2.838   1.744
 2190SOL    HW2 7470   0.704   2.891   1.762
 2191SOL     OW 7471   2.792   1.772   6.451
 2191SOL    HW1 7472   2.827   1.679   6.461
 2191SOL    HW2 7473   2.774   1.811   6.541
 2192SOL     OW 7474   3.963   0.875   3.007
 2192SOL    HW1 7475   3.904   0.938   3.058
 2192SOL    HW2 7476   3.989   0.917   2.919
 2193SOL     OW 7477   6.456   5.709   5.779
 2193SOL    HW1 7478   6.480   5.613   5.763
 2193SOL    HW2 7479   6.538   5.761   5.800
 2194SOL     OW 7480   2.173   4.875   6.496
 2194SOL    HW1 7481   2.115   4.824   6.433
 2194SOL    HW2 7482   2.225   4.810   6.552
 2195SOL     OW 7483   6.948   0.528   3.583
 2195SOL    HW1 7484   6.926   0.516   3.486
 2195SOL    HW2 7485   6.880   0.480   3.639
 2196SOL     OW 7486   3.542   0.495   4.861
 2196SOL    HW1 7487   3.486   0.458   4.787
 2196SOL    HW2 7488   3.537   0.595   4.860
 2197SOL     OW 7489   2.944   3.479   0.895
 2197SOL    HW1 7490   3.010   3.414   0.932
 2197SOL    HW2 7491   2.989   3.566   0.874
 2198SOL     OW 7492   6.736   1.044   0.507
 2198SOL    HW1 7493   6.668   1.063   0.578
 2198SOL    HW2 7494   6.712   0.960   0.459
 2199SOL     OW 7495   5.142   1.328   3.120
 2199SOL    HW1 7496   5.141   1.247   3.062
 2199SOL    HW2 7497   5.151   1.301   3.216
 2200SOL     OW 7498   3.312   0.329   4.712
 2200SOL    HW1 7499   3.349   0.236   4.713
 2200SOL    HW2 7500   3.265   0.347   4.799
 2201SOL     OW 7501   6.171   2.056   3.201
 2201SOL    HW1 7502   6.202   2.146   3.168
 2201SOL    HW2 7503   6.166   1.993   3.123
 2202SOL     OW 7504   2.896   5.063   2.568
 2202SOL    HW1 7505   2.803   5.101   2.560
 2202SOL    HW2 7506   2.946   5.081   2.483
 2203SOL     OW 7507   2.462   2.801   1.476
 2203SOL    HW1 7508   2.386   2.809   1.540
 2203SOL    HW2 7509   2.432   2.753   1.394
 2204SOL     OW 7510   4.484   0.746   6.912
 2204SOL    HW1 7511   4.462   0.721   7.006
 2204SOL    HW2 7512   4.403   0.784   6.867
 2205SOL     OW 7513   1.252   7.016   6.011
 2205SOL    HW1 7514   1.305   0.066   5.962
 2205SOL    HW2 7515   1.209   6.954   5.945
 2206SOL     OW 7516   2.761   4.333   6.335
 2206SOL    HW1 7517   2.747   4.352   6.432
 2206SOL    HW2 7518   2.676   4.349   6.285
 2207SOL     OW 7519   3.214   3.925   6.510
 2207SOL    HW1 7520   3.298   3.977   6.526
 2207SOL    HW2 7521   3.229   3.860   6.436
 2208SOL     OW 7522   1.464   6.328   2.692
 2208SOL    HW1 7523   1.533   6.322   2.621
 2208SOL    HW2 7524   1.400   6.402   2.670
 2209SOL     OW 7525   1.500   5.941   5.757
 2209SOL    HW1 7526   1.529   6.037   5.758
 2209SOL    HW2 7527   1.580   5.882   5.753
 2210SOL     OW 7528   6.908   5.101   3.938
 2210SOL    HW1 7529   6.970   5.163   3.986
 2210SOL    HW2 7530   6.814   5.136   3.945
 2211SOL     OW 7531   5.342   0.472   0.005
 2211SOL    HW1 7532   5.324   0.544   6.957
 2211SOL    HW2 7533   5.259   0.418   0.019
 2212SOL     OW 7534   1.956   6.286   6.801
 2212SOL    HW1 7535   1.883   6.221   6.824
 2212SOL    HW2 7536   1.942   6.318   6.707
 2213SOL     OW 7537   3.841   2.924   5.100
 2213SOL    HW1 7538   3.850   2.834   5.056
 2213SOL    HW2 7539   3.773   2.978   5.052
 2214SOL     OW 7540   3.863   3.056   5.566
 2214SOL    HW1 7541   3.883   3.027   5.473
 2214SOL    HW2 7542   3.888   2.983   5.630
 2215SOL     OW 7543   6.657   1.818   6.777
 2215SOL    HW1 7544   6.565   1.783   6.797
 2215SOL    HW2 7545   6.723   1.774   6.837
 2216SOL     OW 7546   1.802   0.245   6.227
 2216SOL    HW1 7547   1.882   0.229   6.169
 2216SOL    HW2 7548   1.735   0.299   6.177
 2217SOL     OW 7549   3.975   6.772   1.407
 2217SOL    HW1 7550   3.888   6.773   1.358
 2217SOL    HW2 7551   3.964   6.725   1.495
 2218SOL     OW 7552   0.465   6.787   0.878
 2218SOL    HW1 7553   0.448   6.834   0.791
 2218SOL    HW2 7554   0.379   6.749   0.911
 2219SOL     OW 7555   6.373   2.258   1.925
 2219SOL    HW1 7556   6.445   2.275   1.857
 2219SOL    HW2 7557   6.415   2.245   2.014
 2220SOL     OW 7558   1.088   0.331   3.935
 2220SOL    HW1 7559   1.092   0.426   3.905
 2220SOL    HW2 7560   1.177   0.288   3.920
 2221SOL     OW 7561   6.102   0.882   4.962
 2221SOL    HW1 7562   6.186   0.927   4.933
 2221SOL    HW2 7563   6.035   0.951   4.990
 2222SOL     OW 7564   4.253   0.200   0.827
 2222SOL    HW1 7565   4.289   0.174   0.737
 2222SOL    HW2 7566   4.173   0.144   0.848
 2223SOL     OW 7567   6.027   0.882   4.182
 2223SOL    HW1 7568   5.944   0.898   4.234
 2223SOL    HW2 7569   6.086   0.818   4.231
 2224SOL     OW 7570   1.942   4.110   1.428
 2224SOL    HW1 7571   2.017   4.131   1.490
 2224SOL    HW2 7572   1.863   4.166   1.450
 2225SOL     OW 7573   6.244   5.996   2.949
 2225SOL    HW1 7574   6.339   5.970   2.965
 2225SOL    HW2 7575   6.184   5.924   2.981
 2226SOL     OW 7576   4.114   5.068   0.903
 2226SOL    HW1 7577   4.161   4.997   0.851
 2226SOL    HW2 7578   4.081   5.139   0.841
 2227SOL     OW 7579   5.757   3.997   0.444
 2227SOL    HW1 7580   5.833   4.023   0.385
 2227SOL    HW2 7581   5.760   3.899   0.462
 2228SOL     OW 7582   2.516   5.014   1.283
 2228SOL    HW1 7583   2.537   5.094   1.227
 2228SOL    HW2 7584   2.466   4.946   1.228
 2229SOL     OW 7585   4.299   1.842   4.387
 2229SOL    HW1 7586   4.390   1.809   4.413
 2229SOL    HW2 7587   4.272   1.800   4.300
 2230SOL     OW 7588   5.959   5.741   5.569
 2230SOL    HW1 7589   5.998   5.809   5.507
 2230SOL    HW2 7590   6.025   5.668   5.585
 2231SOL     OW 7591   0.631   1.022   2.014
 2231SOL    HW1 7592   0.646   1.016   2.113
 2231SOL    HW2 7593   0.536   1.048   1.997
 2232SOL     OW 7594   0.866   2.939   4.693
 2232SOL    HW1 7595   0.852   3.032   4.728
 2232SOL    HW2 7596   0.940   2.938   4.626
 2233SOL     OW 7597   2.522   4.407   1.524
 2233SOL    HW1 7598   2.524   4.473   1.449
 2233SOL    HW2 7599   2.611   4.405   1.569
 2234SOL     OW 7600   4.101   1.984   1.883
 2234SOL    HW1 7601   4.086   1.921   1.807
 2234SOL    HW2 7602   4.053   2.070   1.866
 2235SOL     OW 7603   2.143   0.794   0.982
 2235SOL    HW1 7604   2.162   0.876   0.928
 2235SOL    HW2 7605   2.075   0.738   0.934
 2236SOL     OW 7606   1.052   4.066   6.396
 2236SOL    HW1 7607   0.962   4.104   6.418
 2236SOL    HW2 7608   1.052   3.967   6.411
 2237SOL     OW 7609   5.484   5.169   3.754
 2237SOL    HW1 7610   5.425   5.119   3.690
 2237SOL    HW2 7611   5.441   5.173   3.844
 2238SOL     OW 7612   5.203   4.673   1.676
 2238SOL    HW1 7613   5.112   4.696   1.708
 2238SOL    HW2 7614   5.244   4.752   1.630
 2239SOL     OW 7615   3.074   5.148   3.344
 2239SOL    HW1 7616   3.061   5.049   3.347
 2239SOL    HW2 7617   2.985   5.193   3.350
 2240SOL     OW 7618   5.003   6.038   3.813
 2240SOL    HW1 7619   4.934   5.979   3.855
 2240SOL    HW2 7620   5.086   6.037   3.868
 2241SOL     OW 7621   0.349   0.175   2.745
 2241SOL    HW1 7622   0.433   0.156   2.795
 2241SOL    HW2 7623   0.285   0.223   2.805
 2242SOL     OW 7624   4.960   1.833   2.948
 2242SOL    HW1 7625   4.864   1.858   2.957
 2242SOL    HW2 7626   5.013   1.879   3.019
 2243SOL     OW 7627   2.914   6.529   5.555
 2243SOL    HW1 7628   2.981   6.461   5.526
 2243SOL    HW2 7629   2.954   6.587   5.626
 2244SOL     OW 7630   2.207   6.686   1.996
 2244SOL    HW1 7631   2.287   6.678   1.936
 2244SOL    HW2 7632   2.175   6.595   2.022
 2245SOL     OW 7633   0.617   1.892   2.432
 2245SOL    HW1 7634   0.614   1.793   2.446
 2245SOL    HW2 7635   0.673   1.913   2.352
 2246SOL     OW 7636   1.052   1.133   6.043
 2246SOL    HW1 7637   1.151   1.143   6.037
 2246SOL    HW2 7638   1.009   1.223   6.037
 2247SOL     OW 7639   3.076   2.927   5.268
 2247SOL    HW1 7640   3.064   2.984   5.349
 2247SOL    HW2 7641   3.168   2.941   5.231
 2248SOL     OW 7642   3.868   3.963   6.124
 2248SOL    HW1 7643   3.895   3.931   6.033
 2248SOL    HW2 7644   3.869   4.063   6.126
 2249SOL     OW 7645   6.021   6.474   2.507
 2249SOL    HW1 7646   5.966   6.476   2.590
 2249SOL    HW2 7647   6.116   6.455   2.530
 2250SOL     OW 7648   4.253   3.542   0.149
 2250SOL    HW1 7649   4.327   3.588   0.100
 2250SOL    HW2 7650   4.224   3.461   0.098
 2251SOL     OW 7651   4.747   0.726   6.976
 2251SOL    HW1 7652   4.806   0.806   6.976
 2251SOL    HW2 7653   4.654   0.753   6.952
 2252SOL     OW 7654   5.379   2.362   2.818
 2252SOL    HW1 7655   5.364   2.452   2.858
 2252SOL    HW2 7656   5.414   2.372   2.725
 2253SOL     OW 7657   1.329   3.915   6.381
 2253SOL    HW1 7658   1.428   3.901   6.375
 2253SOL    HW2 7659   1.288   3.902   6.291
 2254SOL     OW 7660   2.953   3.539   5.261
 2254SOL    HW1 7661   2.927   3.615   5.201
 2254SOL    HW2 7662   3.020   3.571   5.328
 2255SOL     OW 7663   4.887   2.418   6.457
 2255SOL    HW1 7664   4.808   2.379   6.505
 2255SOL    HW2 7665   4.970   2.370   6.484
 2256SOL     OW 7666   4.964   5.977   1.614
 2256SOL    HW1 7667   4.915   5.890   1.610
 2256SOL    HW2 7668   4.940   6.032   1.534
 2257SOL     OW 7669   0.084   1.919   4.158
 2257SOL    HW1 7670   0.154   1.930   4.087
 2257SOL    HW2 7671   0.127   1.924   4.248
 2258SOL     OW 7672   1.052   5.609   5.968
 2258SOL    HW1 7673   1.078   5.519   6.002
 2258SOL    HW2 7674   1.090   5.623   5.877
 2259SOL     OW 7675   4.788   4.381   6.527
 2259SOL    HW1 7676   4.753   4.289   6.542
 2259SOL    HW2 7677   4.816   4.392   6.431
 2260SOL     OW 7678   5.618   4.441   3.238
 2260SOL    HW1 7679   5.620   4.356   3.185
 2260SOL    HW2 7680   5.667   4.427   3.324
 2261SOL     OW 7681   0.057   6.436   0.443
 2261SOL    HW1 7682   0.142   6.423   0.392
 2261SOL    HW2 7683   6.999   6.401   0.389
 2262SOL     OW 7684   5.401   1.729   2.121
 2262SOL    HW1 7685   5.312   1.773   2.112
 2262SOL    HW2 7686   5.392   1.650   2.182
 2263SOL     OW 7687   2.906   5.773   6.455
 2263SOL    HW1 7688   2.935   5.785   6.550
 2263SOL    HW2 7689   2.815   5.813   6.444
 2264SOL     OW 7690   3.423   3.337   0.805
 2264SOL    HW1 7691   3.346   3.300   0.754
 2264SOL    HW2 7692   3.501   3.274   0.798
 2265SOL     OW 7693   0.730   0.841   4.214
 2265SOL    HW1 7694   0.710   0.791   4.130
 2265SOL    HW2 7695   0.816   0.809   4.253
 2266SOL     OW 7696   6.437   2.101   1.362
 2266SOL    HW1 7697   6.394   2.133   1.278
 2266SOL    HW2 7698   6.537   2.100   1.350
 2267SOL     OW 7699   5.200   2.600   4.964
 2267SOL    HW1 7700   5.243   2.583   4.874
 2267SOL    HW2 7701   5.101   2.606   4.953
 2268SOL     OW 7702   6.829   3.915   6.217
 2268SOL    HW1 7703   6.782   3.851   6.278
 2268SOL    HW2 7704   6.891   3.971   6.271
 2269SOL     OW 7705   5.649   6.253   4.682
 2269SOL    HW1 7706   5.639   6.157   4.659
 2269SOL    HW2 7707   5.740   6.269   4.722
 2270SOL     OW 7708   3.706   2.402   6.282
 2270SOL    HW1 7709   3.706   2.333   6.354
 2270SOL    HW2 7710   3.799   2.436   6.269
 2271SOL     OW 7711   6.469   3.980   0.423
 2271SOL    HW1 7712   6.405   4.040   0.470
 2271SOL    HW2 7713   6.495   4.021   0.335
 2272SOL     OW 7714   6.144   1.539   5.329
 2272SOL    HW1 7715   6.086   1.471   5.374
 2272SOL    HW2 7716   6.093   1.582   5.254
 2273SOL     OW 7717   1.596   0.590   2.272
 2273SOL    HW1 7718   1.664   0.664   2.269
 2273SOL    HW2 7719   1.630   0.511   2.221
 2274SOL     OW 7720   1.322   2.094   5.801
 2274SOL    HW1 7721   1.304   2.151   5.881
 2274SOL    HW2 7722   1.402   2.037   5.817
 2275SOL     OW 7723   5.751   0.697   4.282
 2275SOL    HW1 7724   5.764   0.732   4.375
 2275SOL    HW2 7725   5.667   0.642   4.279
 2276SOL     OW 7726   2.985   4.796   1.236
 2276SOL    HW1 7727   2.948   4.705   1.220
 2276SOL    HW2 7728   2.936   4.863   1.179
 2277SOL     OW 7729   3.673   3.461   5.636
 2277SOL    HW1 7730   3.698   3.430   5.728
 2277SOL    HW2 7731   3.587   3.513   5.641
 2278SOL     OW 7732   6.488   5.483   3.843
 2278SOL    HW1 7733   6.441   5.395   3.841
 2278SOL    HW2 7734   6.574   5.473   3.894
 2279SOL     OW 7735   4.425   6.088   4.785
 2279SOL    HW1 7736   4.398   6.172   4.738
 2279SOL    HW2 7737   4.511   6.055   4.747
 2280SOL     OW 7738   0.203   6.008   4.719
 2280SOL    HW1 7739   0.201   5.911   4.698
 2280SOL    HW2 7740   0.169   6.023   4.812
 2281SOL     OW 7741   3.478   1.469   1.402
 2281SOL    HW1 7742   3.488   1.382   1.353
 2281SOL    HW2 7743   3.540   1.471   1.480
 2282SOL     OW 7744   4.572   6.544   5.214
 2282SOL    HW1 7745   4.502   6.488   5.170
 2282SOL    HW2 7746   4.614   6.604   5.146
 2283SOL     OW 7747   6.480   4.572   1.780
 2283SOL    HW1 7748   6.413   4.525   1.723
 2283SOL    HW2 7749   6.495   4.520   1.864
 2284SOL     OW 7750   2.256   2.369   0.404
 2284SOL    HW1 7751   2.261   2.447   0.341
 2284SOL    HW2 7752   2.241   2.285   0.352
 2285SOL     OW 7753   2.004   2.099   0.993
 2285SOL    HW1 7754   1.916   2.068   1.030
 2285SOL    HW2 7755   2.014   2.066   0.900
 2286SOL     OW 7756   0.648   0.091   4.727
 2286SOL    HW1 7757   0.667   0.189   4.731
 2286SOL    HW2 7758   0.669   0.049   4.815
 2287SOL     OW 7759   1.726   1.698   2.639
 2287SOL    HW1 7760   1.773   1.611   2.626
 2287SOL    HW2 7761   1.636   1.682   2.678
 2288SOL     OW 7762   5.755   5.204   3.998
 2288SOL    HW1 7763   5.681   5.270   4.010
 2288SOL    HW2 7764   5.782   5.201   3.902
 2289SOL     OW 7765   6.714   4.569   2.612
 2289SOL    HW1 7766   6.758   4.501   2.671
 2289SOL    HW2 7767   6.768   4.580   2.528
 2290SOL     OW 7768   1.528   3.496   2.228
 2290SOL    HW1 7769   1.505   3.569   2.164
 2290SOL    HW2 7770   1.621   3.464   2.208
 2291SOL     OW 7771   2.382   2.551   6.696
 2291SOL    HW1 7772   2.322   2.583   6.769
 2291SOL    HW2 7773   2.331   2.549   6.610
 2292SOL     OW 7774   5.975   2.556   3.708
 2292SOL    HW1 7775   6.033   2.557   3.790
 2292SOL    HW2 7776   6.032   2.542   3.627
 2293SOL     OW 7777   5.872   6.707   1.356
 2293SOL    HW1 7778   5.867   6.703   1.256
 2293SOL    HW2 7779   5.903   6.619   1.392
 2294SOL     OW 7780   3.800   0.672   6.405
 2294SOL    HW1 7781   3.895   0.643   6.395
 2294SOL    HW2 7782   3.747   0.599   6.450
 2295SOL     OW 7783   0.241   1.803   2.995
 2295SOL    HW1 7784   0.337   1.777   3.010
 2295SOL    HW2 7785   0.196   1.815   3.083
 2296SOL     OW 7786   3.491   5.968   2.481
 2296SOL    HW1 7787   3.454   5.953   2.572
 2296SOL    HW2 7788   3.416   5.987   2.417
 2297SOL     OW 7789   4.976   4.565   5.323
 2297SOL    HW1 7790   4.926   4.619   5.256
 2297SOL    HW2 7791   4.918   4.549   5.403
 2298SOL     OW 7792   3.934   3.902   2.112
 2298SOL    HW1 7793   3.984   3.823   2.075
 2298SOL    HW2 7794   3.950   3.981   2.053
 2299SOL     OW 7795   4.592   4.487   5.218
 2299SOL    HW1 7796   4.685   4.520   5.233
 2299SOL    HW2 7797   4.594   4.391   5.189
 2300SOL     OW 7798   2.212   5.850   2.974
 2300SOL    HW1 7799   2.184   5.946   2.980
 2300SOL    HW2 7800   2.182   5.813   2.886
 2301SOL     OW 7801   3.556   2.934   3.346
 2301SOL    HW1 7802   3.463   2.903   3.326
 2301SOL    HW2 7803   3.562   2.960   3.443
 2302SOL     OW 7804   3.758   0.397   1.214
 2302SOL    HW1 7805   3.839   0.350   1.251
 2302SOL    HW2 7806   3.715   0.451   1.286
 2303SOL     OW 7807   2.566   3.288   6.831
 2303SOL    HW1 7808   2.582   3.301   6.929
 2303SOL    HW2 7809   2.468   3.274   6.815
 2304SOL     OW 7810   5.496   6.723   3.928
 2304SOL    HW1 7811   5.503   6.681   3.838
 2304SOL    HW2 7812   5.548   6.670   3.995
 2305SOL     OW 7813   2.180   0.268   3.194
 2305SOL    HW1 7814   2.169   0.220   3.281
 2305SOL    HW2 7815   2.268   0.316   3.193
 2306SOL     OW 7816   2.394   5.411   2.045
 2306SOL    HW1 7817   2.463   5.469   2.001
 2306SOL    HW2 7818   2.440   5.339   2.097
 2307SOL     OW 7819   0.067   2.928   4.354
 2307SOL    HW1 7820   0.058   2.955   4.450
 2307SOL    HW2 7821   0.031   2.836   4.342
 2308SOL     OW 7822   2.132   4.764   1.865
 2308SOL    HW1 7823   2.117   4.860   1.842
 2308SOL    HW2 7824   2.170   4.717   1.785
 2309SOL     OW 7825   1.863   0.888   5.680
 2309SOL    HW1 7826   1.895   0.894   5.775
 2309SOL    HW2 7827   1.763   0.886   5.679
 2310SOL     OW 7828   5.836   5.502   0.851
 2310SOL    HW1 7829   5.860   5.408   0.874
 2310SOL    HW2 7830   5.876   5.526   0.763
 2311SOL     OW 7831   2.311   0.508   1.305
 2311SOL    HW1 7832   2.277   0.422   1.345
 2311SOL    HW2 7833   2.402   0.528   1.342
 2312SOL     OW 7834   4.656   6.094   3.422
 2312SOL    HW1 7835   4.743   6.144   3.422
 2312SOL    HW2 7836   4.583   6.155   3.393
 2313SOL     OW 7837   5.356   5.606   1.886
 2313SOL    HW1 7838   5.332   5.531   1.948
 2313SOL    HW2 7839   5.273   5.657   1.863
 2314SOL     OW 7840   5.475   5.992   3.652
 2314SOL    HW1 7841   5.417   6.030   3.579
 2314SOL    HW2 7842   5.439   6.021   3.741
 2315SOL     OW 7843   5.256   2.749   6.740
 2315SOL    HW1 7844   5.219   2.657   6.751
 2315SOL    HW2 7845   5.354   2.747   6.759
 2316SOL     OW 7846   4.576   1.725   3.884
 2316SOL    HW1 7847   4.535   1.754   3.798
 2316SOL    HW2 7848   4.550   1.789   3.956
 2317SOL     OW 7849   0.690   6.128   3.216
 2317SOL    HW1 7850   0.674   6.107   3.313
 2317SOL    HW2 7851   0.775   6.083   3.186
 2318SOL     OW 7852   0.830   2.653   3.536
 2318SOL    HW1 7853   0.860   2.563   3.504
 2318SOL    HW2 7854   0.748   2.680   3.487
 2319SOL     OW 7855   1.703   4.992   3.739
 2319SOL    HW1 7856   1.801   5.004   3.725
 2319SOL    HW2 7857   1.688   4.910   3.794
 2320SOL     OW 7858   0.766   2.734   4.041
 2320SOL    HW1 7859   0.756   2.829   4.070
 2320SOL    HW2 7860   0.858   2.702   4.064
 2321SOL     OW 7861   2.852   0.053   6.434
 2321SOL    HW1 7862   2.779   0.111   6.397
 2321SOL    HW2 7863   2.940   0.100   6.425
 2322SOL     OW 7864   2.616   1.718   5.011
 2322SOL    HW1 7865   2.709   1.705   4.978
 2322SOL    HW2 7866   2.561   1.761   4.939
 2323SOL     OW 7867   2.326   4.864   2.162
 2323SOL    HW1 7868   2.292   4.782   2.115
 2323SOL    HW2 7869   2.406   4.899   2.113
 2324SOL     OW 7870   6.248   6.539   1.890
 2324SOL    HW1 7871   6.149   6.543   1.876
 2324SOL    HW2 7872   6.269   6.554   1.986
 2325SOL     OW 7873   1.348   4.629   2.240
 2325SOL    HW1 7874   1.314   4.640   2.147
 2325SOL    HW2 7875   1.297   4.556   2.285
 2326SOL     OW 7876   3.312   4.913   5.448
 2326SOL    HW1 7877   3.336   4.861   5.365
 2326SOL    HW2 7878   3.214   4.901   5.467
 2327SOL     OW 7879   6.420   3.564   5.199
 2327SOL    HW1 7880   6.449   3.655   5.169
 2327SOL    HW2 7881   6.328   3.546   5.165
 2328SOL     OW 7882   3.226   2.175   3.264
 2328SOL    HW1 7883   3.224   2.141   3.170
 2328SOL    HW2 7884   3.138   2.216   3.287
 2329SOL     OW 7885   1.452   3.930   4.981
 2329SOL    HW1 7886   1.359   3.962   4.968
 2329SOL    HW2 7887   1.516   3.992   4.936
 2330SOL     OW 7888   1.073   3.625   2.115
 2330SOL    HW1 7889   1.058   3.526   2.116
 2330SOL    HW2 7890   0.985   3.672   2.119
 2331SOL     OW 7891   6.528   3.632   0.657
 2331SOL    HW1 7892   6.505   3.546   0.703
 2331SOL    HW2 7893   6.478   3.707   0.699
 2332SOL     OW 7894   4.386   1.758   5.727
 2332SOL    HW1 7895   4.457   1.799   5.670
 2332SOL    HW2 7896   4.428   1.697   5.794
 2333SOL     OW 7897   0.279   5.979   3.263
 2333SOL    HW1 7898   0.338   5.982   3.344
 2333SOL    HW2 7899   0.325   6.025   3.187
 2334SOL     OW 7900   2.540   0.303   0.208
 2334SOL    HW1 7901   2.512   0.275   0.300
 2334SOL    HW2 7902   2.627   0.258   0.185
 2335SOL     OW 7903   5.570   1.106   3.414
 2335SOL    HW1 7904   5.543   1.181   3.474
 2335SOL    HW2 7905   5.489   1.072   3.366
 2336SOL     OW 7906   4.241   2.044   5.107
 2336SOL    HW1 7907   4.188   1.964   5.079
 2336SOL    HW2 7908   4.193   2.091   5.181
 2337SOL     OW 7909   4.831   0.782   3.753
 2337SOL    HW1 7910   4.767   0.846   3.711
 2337SOL    HW2 7911   4.917   0.784   3.702
 2338SOL     OW 7912   1.066   0.967   6.867
 2338SOL    HW1 7913   1.153   0.966   6.818
 2338SOL    HW2 7914   1.083   0.958   6.965
 2339SOL     OW 7915   3.616   3.783   4.996
 2339SOL    HW1 7916   3.649   3.806   4.905
 2339SOL    HW2 7917   3.684   3.726   5.043
 2340SOL     OW 7918   5.046   5.454   6.169
 2340SOL    HW1 7919   5.098   5.412   6.244
 2340SOL    HW2 7920   5.096   5.441   6.083
 2341SOL     OW 7921   5.461   4.511   1.548
 2341SOL    HW1 7922   5.364   4.509   1.571
 2341SOL    HW2 7923   5.490   4.606   1.531
 2342SOL     OW 7924   0.329   6.249   5.248
 2342SOL    HW1 7925   0.324   6.286   5.155
 2342SOL    HW2 7926   0.416   6.277   5.290
 2343SOL     OW 7927   2.014   6.753   2.295
 2343SOL    HW1 7928   2.072   6.834   2.308
 2343SOL    HW2 7929   1.935   6.759   2.357
 2344SOL     OW 7930   1.481   1.201   1.256
 2344SOL    HW1 7931   1.481   1.143   1.337
 2344SOL    HW2 7932   1.492   1.145   1.174
 2345SOL     OW 7933   1.950   5.317   5.502
 2345SOL    HW1 7934   2.015   5.356   5.567
 2345SOL    HW2 7935   1.890   5.390   5.468
 2346SOL     OW 7936   4.961   3.248   4.651
 2346SOL    HW1 7937   4.959   3.321   4.719
 2346SOL    HW2 7938   5.004   3.282   4.567
 2347SOL     OW 7939   2.231   3.716   1.744
 2347SOL    HW1 7940   2.195   3.771   1.819
 2347SOL    HW2 7941   2.256   3.625   1.778
 2348SOL     OW 7942   3.427   6.111   3.843
 2348SOL    HW1 7943   3.453   6.021   3.878
 2348SOL    HW2 7944   3.330   6.110   3.817
 2349SOL     OW 7945   0.742   5.158   6.491
 2349SOL    HW1 7946   0.673   5.229   6.476
 2349SOL    HW2 7947   0.710   5.097   6.564
 2350SOL     OW 7948   5.350   6.484   6.673
 2350SOL    HW1 7949   5.321   6.570   6.716
 2350SOL    HW2 7950   5.422   6.503   6.607
 2351SOL     OW 7951   3.806   4.901   2.643
 2351SOL    HW1 7952   3.775   4.978   2.589
 2351SOL    HW2 7953   3.729   4.841   2.663
 2352SOL     OW 7954   1.234   3.611   2.355
 2352SOL    HW1 7955   1.328   3.608   2.323
 2352SOL    HW2 7956   1.172   3.616   2.277
 2353SOL     OW 7957   2.921   4.824   4.780
 2353SOL    HW1 7958   2.902   4.754   4.849
 2353SOL    HW2 7959   2.836   4.862   4.746
 2354SOL     OW 7960   3.239   2.160   6.626
 2354SOL    HW1 7961   3.248   2.096   6.550
 2354SOL    HW2 7962   3.328   2.202   6.645
 2355SOL     OW 7963   1.092   5.223   6.804
 2355SOL    HW1 7964   1.108   5.320   6.785
 2355SOL    HW2 7965   1.095   5.171   6.719
 2356SOL     OW 7966   2.598   4.206   0.644
 2356SOL    HW1 7967   2.589   4.119   0.595
 2356SOL    HW2 7968   2.631   4.190   0.737
 2357SOL     OW 7969   3.852   5.458   3.943
 2357SOL    HW1 7970   3.871   5.364   3.974
 2357SOL    HW2 7971   3.893   5.523   4.008
 2358SOL     OW 7972   2.728   5.543   4.750
 2358SOL    HW1 7973   2.812   5.501   4.784
 2358SOL    HW2 7974   2.746   5.590   4.663
 2359SOL     OW 7975   0.185   1.104   6.074
 2359SOL    HW1 7976   0.131   1.164   6.015
 2359SOL    HW2 7977   0.166   1.125   6.170
 2360SOL     OW 7978   4.782   6.040   5.838
 2360SOL    HW1 7979   4.705   5.978   5.852
 2360SOL    HW2 7980   4.794   6.098   5.919
 2361SOL     OW 7981   2.966   0.134   4.852
 2361SOL    HW1 7982   2.939   0.213   4.797
 2361SOL    HW2 7983   3.032   0.162   4.922
 2362SOL     OW 7984   3.566   6.662   5.786
 2362SOL    HW1 7985   3.650   6.712   5.809
 2362SOL    HW2 7986   3.564   6.576   5.836
 2363SOL     OW 7987   4.698   2.726   5.361
 2363SOL    HW1 7988   4.778   2.762   5.409
 2363SOL    HW2 7989   4.715   2.727   5.262
 2364SOL     OW 7990   0.313   2.581   2.993
 2364SOL    HW1 7991   0.342   2.674   2.970
 2364SOL    HW2 7992   0.261   2.543   2.916
 2365SOL     OW 7993   5.725   2.777   6.194
 2365SOL    HW1 7994   5.778   2.837   6.133
 2365SOL    HW2 7995   5.782   2.700   6.223
 2366SOL     OW 7996   1.548   3.917   5.620
 2366SOL    HW1 7997   1.528   3.821   5.638
 2366SOL    HW2 7998   1.640   3.925   5.582
 2367SOL     OW 7999   2.266   3.578   6.283
 2367SOL    HW1 8000   2.289   3.564   6.379
 2367SOL    HW2 8001   2.257   3.676   6.265
 2368SOL     OW 8002   4.995   0.690   4.238
 2368SOL    HW1 8003   5.052   0.735   4.170
 2368SOL    HW2 8004   5.049   0.670   4.319
 2369SOL     OW 8005   2.037   2.985   4.325
 2369SOL    HW1 8006   2.062   2.982   4.422
 2369SOL    HW2 8007   2.014   2.893   4.294
 2370SOL     OW 8008   4.328   4.134   6.981
 2370SOL    HW1 8009   4.301   4.203   6.914
 2370SOL    HW2 8010   4.261   4.059   6.980
 2371SOL     OW 8011   1.465   6.346   1.669
 2371SOL    HW1 8012   1.472   6.262   1.722
 2371SOL    HW2 8013   1.468   6.425   1.731
 2372SOL     OW 8014   1.189   2.146   0.916
 2372SOL    HW1 8015   1.222   2.113   1.005
 2372SOL    HW2 8016   1.174   2.069   0.855
 2373SOL     OW 8017   5.658   0.231   6.650
 2373SOL    HW1 8018   5.622   0.313   6.604
 2373SOL    HW2 8019   5.692   0.256   6.740
 2374SOL     OW 8020   6.470   0.070   3.810
 2374SOL    HW1 8021   6.456   0.047   3.714
 2374SOL    HW2 8022   6.568   0.082   3.827
 2375SOL     OW 8023   1.838   6.667   3.954
 2375SOL    HW1 8024   1.757   6.711   3.914
 2375SOL    HW2 8025   1.907   6.737   3.974
 2376SOL     OW 8026   6.402   2.770   4.131
 2376SOL    HW1 8027   6.386   2.685   4.180
 2376SOL    HW2 8028   6.389   2.847   4.194
 2377SOL     OW 8029   3.256   3.788   3.479
 2377SOL    HW1 8030   3.295   3.825   3.563
 2377SOL    HW2 8031   3.225   3.694   3.494
 2378SOL     OW 8032   5.369   1.574   6.702
 2378SOL    HW1 8033   5.406   1.651   6.755
 2378SOL    HW2 8034   5.295   1.607   6.644
 2379SOL     OW 8035   6.869   2.331   6.819
 2379SOL    HW1 8036   6.834   2.249   6.865
 2379SOL    HW2 8037   6.965   2.343   6.843
 2380SOL     OW 8038   6.734   0.033   5.903
 2380SOL    HW1 8039   6.808   0.005   5.843
 2380SOL    HW2 8040   6.698   6.973   5.952
 2381SOL     OW 8041   2.289   4.272   4.207
 2381SOL    HW1 8042   2.254   4.185   4.242
 2381SOL    HW2 8043   2.313   4.261   4.111
 2382SOL     OW 8044   2.162   5.020   2.587
 2382SOL    HW1 8045   2.088   4.953   2.595
 2382SOL    HW2 8046   2.203   5.035   2.677
 2383SOL     OW 8047   5.188   6.126   6.938
 2383SOL    HW1 8048   5.275   6.078   6.938
 2383SOL    HW2 8049   5.176   6.175   6.851
 2384SOL     OW 8050   1.207   0.856   2.224
 2384SOL    HW1 8051   1.202   0.756   2.225
 2384SOL    HW2 8052   1.155   0.892   2.302
 2385SOL     OW 8053   6.077   0.355   0.960
 2385SOL    HW1 8054   6.004   0.324   0.899
 2385SOL    HW2 8055   6.157   0.296   0.949
 2386SOL     OW 8056   3.930   4.884   4.204
 2386SOL    HW1 8057   3.863   4.880   4.278
 2386SOL    HW2 8058   3.883   4.909   4.119
 2387SOL     OW 8059   6.782   2.479   4.513
 2387SOL    HW1 8060   6.750   2.572   4.495
 2387SOL    HW2 8061   6.703   2.417   4.516
 2388SOL     OW 8062   1.181   1.981   5.033
 2388SOL    HW1 8063   1.176   1.898   5.087
 2388SOL    HW2 8064   1.130   1.969   4.948
 2389SOL     OW 8065   5.122   4.220   3.823
 2389SOL    HW1 8066   5.129   4.160   3.902
 2389SOL    HW2 8067   5.188   4.191   3.753
 2390SOL     OW 8068   3.292   3.671   4.580
 2390SOL    HW1 8069   3.285   3.590   4.522
 2390SOL    HW2 8070   3.353   3.738   4.537
 2391SOL     OW 8071   3.558   4.310   5.549
 2391SOL    HW1 8072   3.517   4.335   5.462
 2391SOL    HW2 8073   3.502   4.241   5.594
 2392SOL     OW 8074   3.148   6.067   5.826
 2392SOL    HW1 8075   3.107   6.019   5.904
 2392SOL    HW2 8076   3.218   6.130   5.860
 2393SOL     OW 8077   3.455   5.229   1.273
 2393SOL    HW1 8078   3.390   5.278   1.215
 2393SOL    HW2 8079   3.405   5.172   1.338
 2394SOL     OW 8080   1.582   3.671   5.015
 2394SOL    HW1 8081   1.545   3.756   5.054
 2394SOL    HW2 8082   1.680   3.666   5.035
 2395SOL     OW 8083   6.713   2.107   6.895
 2395SOL    HW1 8084   6.614   2.113   6.909
 2395SOL    HW2 8085   6.739   2.011   6.882
 2396SOL     OW 8086   5.413   5.661   0.871
 2396SOL    HW1 8087   5.453   5.572   0.851
 2396SOL    HW2 8088   5.327   5.649   0.920
 2397SOL     OW 8089   6.798   4.811   0.673
 2397SOL    HW1 8090   6.783   4.893   0.617
 2397SOL    HW2 8091   6.771   4.730   0.620
 2398SOL     OW 8092   2.622   4.734   5.921
 2398SOL    HW1 8093   2.661   4.653   5.878
 2398SOL    HW2 8094   2.611   4.806   5.852
 2399SOL     OW 8095   4.423   1.788   2.384
 2399SOL    HW1 8096   4.416   1.799   2.285
 2399SOL    HW2 8097   4.373   1.861   2.430
 2400SOL     OW 8098   3.893   4.485   0.660
 2400SOL    HW1 8099   3.936   4.464   0.572
 2400SOL    HW2 8100   3.798   4.456   0.659
 2401SOL     OW 8101   3.728   0.504   5.629
 2401SOL    HW1 8102   3.727   0.434   5.558
 2401SOL    HW2 8103   3.686   0.468   5.712
 2402SOL     OW 8104   6.934   2.148   4.606
 2402SOL    HW1 8105   6.956   2.132   4.510
 2402SOL    HW2 8106   6.870   2.078   4.638
 2403SOL     OW 8107   2.790   2.550   6.710
 2403SOL    HW1 8108   2.744   2.507   6.787
 2403SOL    HW2 8109   2.833   2.480   6.653
 2404SOL     OW 8110   5.477   1.276   2.515
 2404SOL    HW1 8111   5.493   1.280   2.613
 2404SOL    HW2 8112   5.558   1.309   2.466
 2405SOL     OW 8113   3.800   3.575   5.052
 2405SOL    HW1 8114   3.899   3.583   5.061
 2405SOL    HW2 8115   3.776   3.566   4.955
 2406SOL     OW 8116   2.064   0.597   3.567
 2406SOL    HW1 8117   2.095   0.506   3.596
 2406SOL    HW2 8118   2.062   0.600   3.467
 2407SOL     OW 8119   4.282   1.915   3.204
 2407SOL    HW1 8120   4.382   1.918   3.201
 2407SOL    HW2 8121   4.245   1.920   3.111
 2408SOL     OW 8122   3.745   5.134   2.518
 2408SOL    HW1 8123   3.736   5.199   2.593
 2408SOL    HW2 8124   3.833   5.146   2.473
 2409SOL     OW 8125   2.253   2.777   2.002
 2409SOL    HW1 8126   2.206   2.836   2.068
 2409SOL    HW2 8127   2.276   2.831   1.921
 2410SOL     OW 8128   6.740   2.536   5.584
 2410SOL    HW1 8129   6.732   2.628   5.621
 2410SOL    HW2 8130   6.724   2.469   5.657
 2411SOL     OW 8131   3.580   4.418   5.285
 2411SOL    HW1 8132   3.566   4.512   5.316
 2411SOL    HW2 8133   3.623   4.419   5.195
 2412SOL     OW 8134   2.833   4.134   6.974
 2412SOL    HW1 8135   2.932   4.123   6.982
 2412SOL    HW2 8136   2.789   4.046   6.987
 2413SOL     OW 8137   6.524   3.323   6.654
 2413SOL    HW1 8138   6.561   3.273   6.732
 2413SOL    HW2 8139   6.424   3.317   6.655
 2414SOL     OW 8140   6.101   4.025   2.822
 2414SOL    HW1 8141   6.160   3.976   2.758
 2414SOL    HW2 8142   6.012   4.041   2.780
 2415SOL     OW 8143   1.556   0.295   0.838
 2415SOL    HW1 8144   1.462   0.318   0.864
 2415SOL    HW2 8145   1.565   0.295   0.739
 2416SOL     OW 8146   3.073   1.244   4.809
 2416SOL    HW1 8147   3.007   1.241   4.884
 2416SOL    HW2 8148   3.165   1.231   4.845
 2417SOL     OW 8149   4.551   2.475   0.308
 2417SOL    HW1 8150   4.517   2.448   0.218
 2417SOL    HW2 8151   4.632   2.534   0.296
 2418SOL     OW 8152   3.281   3.464   4.420
 2418SOL    HW1 8153   3.193   3.424   4.443
 2418SOL    HW2 8154   3.307   3.437   4.327
 2419SOL     OW 8155   0.304   6.485   4.531
 2419SOL    HW1 8156   0.243   6.559   4.501
 2419SOL    HW2 8157   0.366   6.460   4.457
 2420SOL     OW 8158   4.042   6.931   2.459
 2420SOL    HW1 8159   4.137   6.962   2.452
 2420SOL    HW2 8160   4.034   6.865   2.534
 2421SOL     OW 8161   2.967   0.827   4.370
 2421SOL    HW1 8162   2.917   0.913   4.367
 2421SOL    HW2 8163   3.044   0.835   4.434
 2422SOL     OW 8164   5.406   0.467   1.419
 2422SOL    HW1 8165   5.405   0.368   1.413
 2422SOL    HW2 8166   5.397   0.507   1.328
 2423SOL     OW 8167   1.097   6.172   3.194
 2423SOL    HW1 8168   1.037   6.092   3.204
 2423SOL    HW2 8169   1.159   6.177   3.273
 2424SOL     OW 8170   5.439   5.605   6.125
 2424SOL    HW1 8171   5.455   5.686   6.069
 2424SOL    HW2 8172   5.454   5.522   6.071
 2425SOL     OW 8173   6.597   7.010   4.383
 2425SOL    HW1 8174   6.573   6.915   4.360
 2425SOL    HW2 8175   6.577   0.050   4.305
 2426SOL     OW 8176   0.833   4.486   4.406
 2426SOL    HW1 8177   0.774   4.451   4.479
 2426SOL    HW2 8178   0.928   4.484   4.435
 2427SOL     OW 8179   6.449   5.557   6.920
 2427SOL    HW1 8180   6.391   5.635   6.897
 2427SOL    HW2 8181   6.518   5.585   6.987
 2428SOL     OW 8182   1.283   7.010   3.410
 2428SOL    HW1 8183   1.289   6.915   3.439
 2428SOL    HW2 8184   1.202   0.003   3.353
 2429SOL     OW 8185   6.779   5.618   3.203
 2429SOL    HW1 8186   6.844   5.612   3.126
 2429SOL    HW2 8187   6.813   5.563   3.279
 2430SOL     OW 8188   5.770   2.363   0.879
 2430SOL    HW1 8189   5.793   2.279   0.830
 2430SOL    HW2 8190   5.808   2.359   0.972
 2431SOL     OW 8191   4.109   0.513   1.961
 2431SOL    HW1 8192   4.204   0.545   1.960
 2431SOL    HW2 8193   4.082   0.494   2.055
 2432SOL     OW 8194   4.075   6.330   3.072
 2432SOL    HW1 8195   4.080   6.352   2.975
 2432SOL    HW2 8196   3.982   6.303   3.096
 2433SOL     OW 8197   2.930   6.701   0.565
 2433SOL    HW1 8198   2.891   6.640   0.496
 2433SOL    HW2 8199   3.030   6.701   0.558
 2434SOL     OW 8200   5.055   1.530   3.556
 2434SOL    HW1 8201   5.113   1.496   3.629
 2434SOL    HW2 8202   5.098   1.608   3.511
 2435SOL     OW 8203   4.576   5.629   6.997
 2435SOL    HW1 8204   4.497   5.571   6.976
 2435SOL    HW2 8205   4.586   5.700   6.928
 2436SOL     OW 8206   2.305   0.420   0.626
 2436SOL    HW1 8207   2.335   0.436   0.720
 2436SOL    HW2 8208   2.220   0.469   0.609
 2437SOL     OW 8209   5.650   5.623   1.124
 2437SOL    HW1 8210   5.744   5.656   1.128
 2437SOL    HW2 8211   5.648   5.526   1.146
 2438SOL     OW 8212   4.328   0.845   5.598
 2438SOL    HW1 8213   4.396   0.783   5.637
 2438SOL    HW2 8214   4.247   0.847   5.658
 2439SOL     OW 8215   1.186   4.054   6.904
 2439SOL    HW1 8216   1.182   3.990   6.827
 2439SOL    HW2 8217   1.272   4.106   6.900
 2440SOL     OW 8218   3.312   6.239   5.010
 2440SOL    HW1 8219   3.304   6.141   4.992
 2440SOL    HW2 8220   3.359   6.283   4.933
 2441SOL     OW 8221   6.578   1.399   0.091
 2441SOL    HW1 8222   6.481   1.375   0.084
 2441SOL    HW2 8223   6.611   1.429   0.002
 2442SOL     OW 8224   6.096   5.883   3.604
 2442SOL    HW1 8225   6.190   5.869   3.573
 2442SOL    HW2 8226   6.045   5.797   3.595
 2443SOL     OW 8227   2.824   0.132   6.714
 2443SOL    HW1 8228   2.822   0.232   6.711
 2443SOL    HW2 8229   2.843   0.097   6.623
 2444SOL     OW 8230   3.851   4.204   6.461
 2444SOL    HW1 8231   3.879   4.230   6.369
 2444SOL    HW2 8232   3.798   4.119   6.458
 2445SOL     OW 8233   0.110   0.871   2.275
 2445SOL    HW1 8234   0.047   0.948   2.268
 2445SOL    HW2 8235   0.175   0.875   2.199
 2446SOL     OW 8236   0.442   3.205   4.191
 2446SOL    HW1 8237   0.349   3.231   4.218
 2446SOL    HW2 8238   0.481   3.147   4.262
 2447SOL     OW 8239   3.094   1.072   1.278
 2447SOL    HW1 8240   3.123   1.083   1.183
 2447SOL    HW2 8241   3.157   1.011   1.325
 2448SOL     OW 8242   6.878   0.502   4.097
 2448SOL    HW1 8243   6.921   0.551   4.021
 2448SOL    HW2 8244   6.925   0.415   4.111
 2449SOL     OW 8245   6.515   4.617   2.804
 2449SOL    HW1 8246   6.419   4.602   2.781
 2449SOL    HW2 8247   6.568   4.630   2.721
 2450SOL     OW 8248   3.352   5.313   5.416
 2450SOL    HW1 8249   3.264   5.280   5.382
 2450SOL    HW2 8250   3.396   5.240   5.468
 2451SOL     OW 8251   0.785   0.402   3.806
 2451SOL    HW1 8252   0.813   0.370   3.715
 2451SOL    HW2 8253   0.853   0.376   3.874
 2452SOL     OW 8254   2.552   2.478   3.280
 2452SOL    HW1 8255   2.578   2.407   3.214
 2452SOL    HW2 8256   2.620   2.482   3.353
 2453SOL     OW 8257   6.202   3.550   0.757
 2453SOL    HW1 8258   6.226   3.627   0.816
 2453SOL    HW2 8259   6.279   3.487   0.752
 2454SOL     OW 8260   3.341   0.844   0.234
 2454SOL    HW1 8261   3.397   0.763   0.219
 2454SOL    HW2 8262   3.247   0.817   0.252
 2455SOL     OW 8263   4.944   0.551   0.843
 2455SOL    HW1 8264   5.017   0.482   0.838
 2455SOL    HW2 8265   4.879   0.526   0.914
 2456SOL     OW 8266   5.629   1.723   0.530
 2456SOL    HW1 8267   5.592   1.806   0.488
 2456SOL    HW2 8268   5.576   1.700   0.611
 2457SOL     OW 8269   0.046   6.307   6.417
 2457SOL    HW1 8270   0.129   6.360   6.398
 2457SOL    HW2 8271   6.989   6.342   6.362
 2458SOL     OW 8272   2.122   6.017   4.193
 2458SOL    HW1 8273   2.075   5.969   4.118
 2458SOL    HW2 8274   2.105   5.968   4.279
 2459SOL     OW 8275   3.055   5.972   6.061
 2459SOL    HW1 8276   3.110   5.910   6.118
 2459SOL    HW2 8277   3.008   6.038   6.120
 2460SOL     OW 8278   2.174   1.314   1.940
 2460SOL    HW1 8279   2.177   1.392   2.003
 2460SOL    HW2 8280   2.082   1.275   1.938
 2461SOL     OW 8281   4.641   0.558   3.117
 2461SOL    HW1 8282   4.681   0.466   3.114
 2461SOL    HW2 8283   4.633   0.594   3.024
 2462SOL     OW 8284   1.975   5.704   0.690
 2462SOL    HW1 8285   2.068   5.740   0.698
 2462SOL    HW2 8286   1.953   5.650   0.771
 2463SOL     OW 8287   6.548   2.356   5.471
 2463SOL    HW1 8288   6.549   2.357   5.571
 2463SOL    HW2 8289   6.605   2.431   5.437
 2464SOL     OW 8290   1.780   4.092   2.218
 2464SOL    HW1 8291   1.838   4.089   2.137
 2464SOL    HW2 8292   1.686   4.067   2.193
 2465SOL     OW 8293   0.467   0.552   1.892
 2465SOL    HW1 8294   0.368   0.555   1.906
 2465SOL    HW2 8295   0.502   0.463   1.923
 2466SOL     OW 8296   2.475   1.999   2.538
 2466SOL    HW1 8297   2.461   1.913   2.588
 2466SOL    HW2 8298   2.564   1.997   2.493
 2467SOL     OW 8299   5.336   1.154   5.017
 2467SOL    HW1 8300   5.361   1.074   4.963
 2467SOL    HW2 8301   5.336   1.235   4.958
 2468SOL     OW 8302   4.904   6.257   2.201
 2468SOL    HW1 8303   4.988   6.293   2.243
 2468SOL    HW2 8304   4.826   6.276   2.261
 2469SOL     OW 8305   4.001   4.009   5.540
 2469SOL    HW1 8306   3.906   4.008   5.509
 2469SOL    HW2 8307   4.006   3.977   5.634
 2470SOL     OW 8308   3.623   4.708   6.405
 2470SOL    HW1 8309   3.662   4.793   6.371
 2470SOL    HW2 8310   3.602   4.717   6.502
 2471SOL     OW 8311   2.902   5.887   0.858
 2471SOL    HW1 8312   2.986   5.899   0.805
 2471SOL    HW2 8313   2.918   5.915   0.952
 2472SOL     OW 8314   5.320   2.502   4.736
 2472SOL    HW1 8315   5.395   2.510   4.801
 2472SOL    HW2 8316   5.351   2.531   4.645
 2473SOL     OW 8317   2.191   3.995   4.729
 2473SOL    HW1 8318   2.104   4.031   4.763
 2473SOL    HW2 8319   2.257   3.994   4.804
 2474SOL     OW 8320   0.402   6.310   0.987
 2474SOL    HW1 8321   0.472   6.366   0.945
 2474SOL    HW2 8322   0.438   6.218   1.004
 2475SOL     OW 8323   4.491   1.630   1.826
 2475SOL    HW1 8324   4.404   1.581   1.818
 2475SOL    HW2 8325   4.489   1.711   1.768
 2476SOL     OW 8326   0.228   1.852   3.659
 2476SOL    HW1 8327   0.205   1.923   3.727
 2476SOL    HW2 8328   0.173   1.867   3.577
 2477SOL     OW 8329   4.836   1.753   2.620
 2477SOL    HW1 8330   4.861   1.658   2.639
 2477SOL    HW2 8331   4.738   1.764   2.632
 2478SOL     OW 8332   6.224   1.278   2.203
 2478SOL    HW1 8333   6.250   1.183   2.216
 2478SOL    HW2 8334   6.140   1.297   2.254
 2479SOL     OW 8335   1.854   3.517   1.186
 2479SOL    HW1 8336   1.903   3.447   1.238
 2479SOL    HW2 8337   1.800   3.574   1.248
 2480SOL     OW 8338   6.084   4.134   0.716
 2480SOL    HW1 8339   6.054   4.038   0.712
 2480SOL    HW2 8340   6.163   4.147   0.657
 2481SOL     OW 8341   2.370   0.803   0.134
 2481SOL    HW1 8342   2.378   0.716   0.183
 2481SOL    HW2 8343   2.277   0.814   0.101
 2482SOL     OW 8344   4.566   3.021   5.793
 2482SOL    HW1 8345   4.603   3.098   5.846
 2482SOL    HW2 8346   4.482   3.050   5.747
 2483SOL     OW 8347   2.195   2.054   6.695
 2483SOL    HW1 8348   2.137   2.051   6.776
 2483SOL    HW2 8349   2.157   2.118   6.628
 2484SOL     OW 8350   2.925   0.531   0.218
 2484SOL    HW1 8351   2.955   0.490   0.132
 2484SOL    HW2 8352   2.851   0.477   0.257
 2485SOL     OW 8353   5.737   3.599   1.665
 2485SOL    HW1 8354   5.682   3.682   1.658
 2485SOL    HW2 8355   5.818   3.618   1.721
 2486SOL     OW 8356   2.069   4.490   4.752
 2486SOL    HW1 8357   2.116   4.497   4.664
 2486SOL    HW2 8358   2.027   4.578   4.775
 2487SOL     OW 8359   3.935   5.944   0.306
 2487SOL    HW1 8360   3.840   5.955   0.336
 2487SOL    HW2 8361   3.949   5.994   0.220
 2488SOL     OW 8362   2.146   4.523   2.287
 2488SOL    HW1 8363   2.082   4.516   2.364
 2488SOL    HW2 8364   2.094   4.543   2.204
 2489SOL     OW 8365   1.373   5.989   3.129
 2489SOL    HW1 8366   1.405   5.921   3.194
 2489SOL    HW2 8367   1.452   6.031   3.084
 2490SOL     OW 8368   6.514   5.056   1.633
 2490SOL    HW1 8369   6.418   5.084   1.639
 2490SOL    HW2 8370   6.565   5.125   1.581
 2491SOL     OW 8371   2.779   5.191   0.962
 2491SOL    HW1 8372   2.820   5.280   0.945
 2491SOL    HW2 8373   2.681   5.201   0.976
 2492SOL     OW 8374   4.265   2.453   0.197
 2492SOL    HW1 8375   4.267   2.372   0.257
 2492SOL    HW2 8376   4.345   2.452   0.137
 2493SOL     OW 8377   6.721   0.840   2.297
 2493SOL    HW1 8378   6.706   0.747   2.331
 2493SOL    HW2 8379   6.644   0.898   2.323
 2494SOL     OW 8380   5.954   4.188   1.888
 2494SOL    HW1 8381   6.052   4.187   1.907
 2494SOL    HW2 8382   5.925   4.282   1.867
 2495SOL     OW 8383   4.923   0.180   4.652
 2495SOL    HW1 8384   4.904   0.277   4.637
 2495SOL    HW2 8385   4.838   0.127   4.648
 2496SOL     OW 8386   0.419   3.794   5.982
 2496SOL    HW1 8387   0.355   3.720   6.005
 2496SOL    HW2 8388   0.496   3.793   6.046
 2497SOL     OW 8389   7.001   1.100   0.680
 2497SOL    HW1 8390   6.940   1.164   0.634
 2497SOL    HW2 8391   6.974   1.091   0.776
 2498SOL     OW 8392   3.529   1.885   4.274
 2498SOL    HW1 8393   3.551   1.928   4.186
 2498SOL    HW2 8394   3.603   1.900   4.339
 2499SOL     OW 8395   5.288   2.613   4.392
 2499SOL    HW1 8396   5.267   2.523   4.354
 2499SOL    HW2 8397   5.240   2.684   4.340
 2500SOL     OW 8398   4.324   2.811   6.846
 2500SOL    HW1 8399   4.410   2.761   6.859
 2500SOL    HW2 8400   4.259   2.752   6.798
 2501SOL     OW 8401   6.595   6.049   0.158
 2501SOL    HW1 8402   6.551   6.091   0.237
 2501SOL    HW2 8403   6.613   6.119   0.089
 2502SOL     OW 8404   2.072   6.020   3.310
 2502SOL    HW1 8405   2.152   6.009   3.251
 2502SOL    HW2 8406   2.032   6.110   3.296
 2503SOL     OW 8407   3.537   5.569   5.014
 2503SOL    HW1 8408   3.611   5.570   4.947
 2503SOL    HW2 8409   3.535   5.480   5.060
 2504SOL     OW 8410   2.666   5.084   4.956
 2504SOL    HW1 8411   2.603   5.019   4.915
 2504SOL    HW2 8412   2.614   5.159   4.998
 2505SOL     OW 8413   1.607   5.845   4.144
 2505SOL    HW1 8414   1.693   5.795   4.150
 2505SOL    HW2 8415   1.615   5.930   4.195
 2506SOL     OW 8416   5.812   3.574   6.463
 2506SOL    HW1 8417   5.717   3.551   6.439
 2506SOL    HW2 8418   5.872   3.546   6.388
 2507SOL     OW 8419   1.309   4.287   1.033
 2507SOL    HW1 8420   1.394   4.330   1.003
 2507SOL    HW2 8421   1.242   4.358   1.055
 2508SOL     OW 8422   2.939   1.163   2.041
 2508SOL    HW1 8423   2.867   1.218   1.999
 2508SOL    HW2 8424   2.899   1.085   2.088
 2509SOL     OW 8425   6.098   2.545   2.698
 2509SOL    HW1 8426   6.105   2.643   2.681
 2509SOL    HW2 8427   6.031   2.528   2.770
 2510SOL     OW 8428   3.278   4.225   1.390
 2510SOL    HW1 8429   3.320   4.220   1.300
 2510SOL    HW2 8430   3.289   4.138   1.438
 2511SOL     OW 8431   2.723   1.537   3.830
 2511SOL    HW1 8432   2.781   1.610   3.866
 2511SOL    HW2 8433   2.735   1.455   3.887
 2512SOL     OW 8434   4.893   5.140   4.912
 2512SOL    HW1 8435   4.977   5.087   4.901
 2512SOL    HW2 8436   4.835   5.097   4.982
 2513SOL     OW 8437   1.692   3.224   5.109
 2513SOL    HW1 8438   1.643   3.200   5.025
 2513SOL    HW2 8439   1.669   3.317   5.135
 2514SOL     OW 8440   6.606   3.277   4.058
 2514SOL    HW1 8441   6.539   3.222   4.109
 2514SOL    HW2 8442   6.690   3.285   4.112
 2515SOL     OW 8443   1.445   6.360   0.383
 2515SOL    HW1 8444   1.524   6.309   0.349
 2515SOL    HW2 8445   1.466   6.397   0.474
 2516SOL     OW 8446   5.781   0.265   3.596
 2516SOL    HW1 8447   5.706   0.275   3.661
 2516SOL    HW2 8448   5.745   0.257   3.503
 2517SOL     OW 8449   1.153   5.851   6.053
 2517SOL    HW1 8450   1.117   5.758   6.045
 2517SOL    HW2 8451   1.246   5.848   6.090
 2518SOL     OW 8452   2.447   3.513   6.517
 2518SOL    HW1 8453   2.538   3.471   6.510
 2518SOL    HW2 8454   2.382   3.445   6.554
 2519SOL     OW 8455   4.773   6.252   3.725
 2519SOL    HW1 8456   4.745   6.344   3.698
 2519SOL    HW2 8457   4.867   6.237   3.697
 2520SOL     OW 8458   1.184   3.024   0.172
 2520SOL    HW1 8459   1.099   3.076   0.164
 2520SOL    HW2 8460   1.252   3.062   0.109
 2521SOL     OW 8461   1.152   6.169   5.971
 2521SOL    HW1 8462   1.195   6.090   5.928
 2521SOL    HW2 8463   1.082   6.206   5.910
 2522SOL     OW 8464   6.975   2.854   5.768
 2522SOL    HW1 8465   6.892   2.802   5.787
 2522SOL    HW2 8466   0.036   2.798   5.787
 2523SOL     OW 8467   6.856   3.146   1.314
 2523SOL    HW1 8468   6.891   3.053   1.321
 2523SOL    HW2 8469   6.849   3.186   1.405
 2524SOL     OW 8470   0.950   5.094   4.932
 2524SOL    HW1 8471   0.917   5.119   4.841
 2524SOL    HW2 8472   1.033   5.039   4.924
 2525SOL     OW 8473   0.737   2.953   4.209
 2525SOL    HW1 8474   0.820   2.937   4.263
 2525SOL    HW2 8475   0.661   2.973   4.271
 2526SOL     OW 8476   1.812   4.467   5.410
 2526SOL    HW1 8477   1.876   4.423   5.348
 2526SOL    HW2 8478   1.762   4.397   5.461
 2527SOL     OW 8479   5.437   6.222   5.124
 2527SOL    HW1 8480   5.468   6.196   5.032
 2527SOL    HW2 8481   5.391   6.144   5.166
 2528SOL     OW 8482   5.956   4.283   0.893
 2528SOL    HW1 8483   6.009   4.351   0.945
 2528SOL    HW2 8484   6.014   4.243   0.822
 2529SOL     OW 8485   0.086   6.281   6.712
 2529SOL    HW1 8486   0.093   6.293   6.613
 2529SOL    HW2 8487   0.174   6.249   6.748
 2530SOL     OW 8488   1.300   6.326   4.589
 2530SOL    HW1 8489   1.259   6.392   4.651
 2530SOL    HW2 8490   1.259   6.336   4.498
 2531SOL     OW 8491   5.390   6.012   4.391
 2531SOL    HW1 8492   5.357   6.107   4.388
 2531SOL    HW2 8493   5.325   5.953   4.345
 2532SOL     OW 8494   0.927   5.879   1.129
 2532SOL    HW1 8495   1.016   5.836   1.122
 2532SOL    HW2 8496   0.927   5.965   1.077
 2533SOL     OW 8497   3.722   0.330   3.265
 2533SOL    HW1 8498   3.707   0.409   3.206
 2533SOL    HW2 8499   3.806   0.283   3.238
 2534SOL     OW 8500   2.512   0.889   3.058
 2534SOL    HW1 8501   2.582   0.830   3.018
 2534SOL    HW2 8502   2.451   0.921   2.986
 2535SOL     OW 8503   2.606   2.740   6.627
 2535SOL    HW1 8504   2.693   2.693   6.641
 2535SOL    HW2 8505   2.531   2.675   6.638
 2536SOL     OW 8506   6.818   2.175   3.816
 2536SOL    HW1 8507   6.909   2.202   3.784
 2536SOL    HW2 8508   6.787   2.095   3.764
 2537SOL     OW 8509   5.156   6.282   6.660
 2537SOL    HW1 8510   5.235   6.342   6.666
 2537SOL    HW2 8511   5.073   6.333   6.684
 2538SOL     OW 8512   1.166   4.160   4.499
 2538SOL    HW1 8513   1.107   4.137   4.421
 2538SOL    HW2 8514   1.262   4.152   4.472
 2539SOL     OW 8515   5.226   0.446   5.882
 2539SOL    HW1 8516   5.288   0.495   5.821
 2539SOL    HW2 8517   5.154   0.508   5.913
 2540SOL     OW 8518   4.584   1.094   2.254
 2540SOL    HW1 8519   4.493   1.107   2.215
 2540SOL    HW2 8520   4.593   1.001   2.288
 2541SOL     OW 8521   1.580   6.564   5.383
 2541SOL    HW1 8522   1.609   6.558   5.478
 2541SOL    HW2 8523   1.659   6.552   5.323
 2542SOL     OW 8524   5.031   1.667   5.597
 2542SOL    HW1 8525   4.995   1.760   5.596
 2542SOL    HW2 8526   4.955   1.602   5.598
 2543SOL     OW 8527   1.512   1.712   2.836
 2543SOL    HW1 8528   1.602   1.739   2.870
 2543SOL    HW2 8529   1.493   1.618   2.864
 2544SOL     OW 8530   0.061   5.375   1.415
 2544SOL    HW1 8531   0.106   5.456   1.453
 2544SOL    HW2 8532   0.131   5.312   1.380
 2545SOL     OW 8533   1.759   1.004   0.785
 2545SOL    HW1 8534   1.732   0.907   0.785
 2545SOL    HW2 8535   1.855   1.012   0.757
 2546SOL     OW 8536   0.091   2.813   2.572
 2546SOL    HW1 8537   0.004   2.855   2.548
 2546SOL    HW2 8538   0.075   2.729   2.623
 2547SOL     OW 8539   6.156   5.040   6.907
 2547SOL    HW1 8540   6.074   5.081   6.947
 2547SOL    HW2 8541   6.131   4.992   6.823
 2548SOL     OW 8542   3.103   6.867   5.322
 2548SOL    HW1 8543   3.133   6.773   5.335
 2548SOL    HW2 8544   3.003   6.872   5.333
 2549SOL     OW 8545   2.043   1.279   1.496
 2549SOL    HW1 8546   1.994   1.346   1.552
 2549SOL    HW2 8547   2.124   1.321   1.456
 2550SOL     OW 8548   6.848   0.619   6.335
 2550SOL    HW1 8549   6.789   0.604   6.255
 2550SOL    HW2 8550   6.942   0.634   6.304
 2551SOL     OW 8551   2.617   5.757   6.767
 2551SOL    HW1 8552   2.517   5.755   6.764
 2551SOL    HW2 8553   2.653   5.664   6.771
 2552SOL     OW 8554   1.243   5.949   5.815
 2552SOL    HW1 8555   1.340   5.928   5.822
 2552SOL    HW2 8556   1.192   5.889   5.877
 2553SOL     OW 8557   3.547   3.506   6.980
 2553SOL    HW1 8558   3.492   3.548   6.908
 2553SOL    HW2 8559   3.644   3.516   6.959
 2554SOL     OW 8560   1.407   5.874   6.698
 2554SOL    HW1 8561   1.435   5.880   6.794
 2554SOL    HW2 8562   1.388   5.965   6.663
 2555SOL     OW 8563   6.571   5.967   5.960
 2555SOL    HW1 8564   6.646   6.027   5.932
 2555SOL    HW2 8565   6.508   6.019   6.018
 2556SOL     OW 8566   4.062   5.979   0.573
 2556SOL    HW1 8567   4.043   5.968   0.476
 2556SOL    HW2 8568   4.126   6.055   0.586
 2557SOL     OW 8569   2.532   2.365   6.503
 2557SOL    HW1 8570   2.504   2.425   6.578
 2557SOL    HW2 8571   2.505   2.406   6.415
 2558SOL     OW 8572   3.998   3.302   6.195
 2558SOL    HW1 8573   4.079   3.280   6.140
 2558SOL    HW2 8574   3.969   3.396   6.175
 2559SOL     OW 8575   6.380   3.201   4.433
 2559SOL    HW1 8576   6.386   3.116   4.380
 2559SOL    HW2 8577   6.468   3.221   4.475
 2560SOL     OW 8578   5.302   3.693   4.109
 2560SOL    HW1 8579   5.327   3.702   4.206
 2560SOL    HW2 8580   5.295   3.596   4.085
 2561SOL     OW 8581   3.193   0.362   4.128
 2561SOL    HW1 8582   3.189   0.462   4.126
 2561SOL    HW2 8583   3.104   0.325   4.155
 2562SOL     OW 8584   2.000   5.837   2.544
 2562SOL    HW1 8585   1.906   5.802   2.535
 2562SOL    HW2 8586   2.046   5.830   2.455
 2563SOL     OW 8587   4.375   1.412   6.805
 2563SOL    HW1 8588   4.400   1.486   6.868
 2563SOL    HW2 8589   4.276   1.396   6.812
 2564SOL     OW 8590   0.874   6.832   6.391
 2564SOL    HW1 8591   0.964   6.864   6.362
 2564SOL    HW2 8592   0.854   6.744   6.348
 2565SOL     OW 8593   6.824   0.654   0.161
 2565SOL    HW1 8594   6.740   0.646   0.214
 2565SOL    HW2 8595   6.820   0.590   0.084
 2566SOL     OW 8596   1.961   0.147   0.913
 2566SOL    HW1 8597   1.865   0.124   0.926
 2566SOL    HW2 8598   1.972   0.200   0.829
 2567SOL     OW 8599   1.498   1.354   2.054
 2567SOL    HW1 8600   1.405   1.370   2.086
 2567SOL    HW2 8601   1.522   1.422   1.985
 2568SOL     OW 8602   3.092   0.268   6.682
 2568SOL    HW1 8603   3.097   0.218   6.595
 2568SOL    HW2 8604   3.007   0.245   6.729
 2569SOL     OW 8605   2.878   0.603   1.569
 2569SOL    HW1 8606   2.962   0.640   1.528
 2569SOL    HW2 8607   2.802   0.665   1.549
 2570SOL     OW 8608   6.049   0.797   7.018
 2570SOL    HW1 8609   6.131   0.821   6.966
 2570SOL    HW2 8610   5.969   0.801   6.958
 2571SOL     OW 8611   2.490   3.551   5.434
 2571SOL    HW1 8612   2.495   3.645   5.399
 2571SOL    HW2 8613   2.556   3.540   5.509
 2572SOL     OW 8614   2.114   6.295   0.891
 2572SOL    HW1 8615   2.049   6.273   0.964
 2572SOL    HW2 8616   2.109   6.392   0.871
 2573SOL     OW 8617   6.188   1.923   2.666
 2573SOL    HW1 8618   6.242   1.887   2.742
 2573SOL    HW2 8619   6.248   1.967   2.600
 2574SOL     OW 8620   0.177   3.076   0.436
 2574SOL    HW1 8621   0.192   3.007   0.364
 2574SOL    HW2 8622   0.083   3.109   0.430
 2575SOL     OW 8623   5.149   4.634   6.930
 2575SOL    HW1 8624   5.201   4.686   6.998
 2575SOL    HW2 8625   5.154   4.537   6.951
 2576SOL     OW 8626   4.124   6.879   4.518
 2576SOL    HW1 8627   4.031   6.895   4.549
 2576SOL    HW2 8628   4.182   6.855   4.596
 2577SOL     OW 8629   4.113   6.083   2.091
 2577SOL    HW1 8630   4.060   6.040   2.164
 2577SOL    HW2 8631   4.207   6.048   2.094
 2578SOL     OW 8632   4.934   2.669   4.888
 2578SOL    HW1 8633   4.858   2.698   4.947
 2578SOL    HW2 8634   4.949   2.739   4.818
 2579SOL     OW 8635   1.073   0.772   3.406
 2579SOL    HW1 8636   1.013   0.849   3.387
 2579SOL    HW2 8637   1.040   0.723   3.487
 2580SOL     OW 8638   2.163   2.640   6.889
 2580SOL    HW1 8639   2.194   2.551   6.922
 2580SOL    HW2 8640   2.063   2.642   6.884
 2581SOL     OW 8641   6.879   4.065   1.133
 2581SOL    HW1 8642   6.944   4.104   1.067
 2581SOL    HW2 8643   6.787   4.097   1.111
 2582SOL     OW 8644   1.201   4.446   2.348
 2582SOL    HW1 8645   1.227   4.402   2.262
 2582SOL    HW2 8646   1.126   4.397   2.390
 2583SOL     OW 8647   0.693   1.494   1.129
 2583SOL    HW1 8648   0.617   1.463   1.186
 2583SOL    HW2 8649   0.659   1.559   1.061
 2584SOL     OW 8650   4.058   5.661   0.319
 2584SOL    HW1 8651   4.021   5.754   0.328
 2584SOL    HW2 8652   4.145   5.656   0.368
 2585SOL     OW 8653   4.118   1.332   6.807
 2585SOL    HW1 8654   4.043   1.281   6.849
 2585SOL    HW2 8655   4.084   1.385   6.730
 2586SOL     OW 8656   3.749   1.552   3.548
 2586SOL    HW1 8657   3.815   1.480   3.525
 2586SOL    HW2 8658   3.656   1.518   3.535
 2587SOL     OW 8659   6.721   1.133   3.415
 2587SOL    HW1 8660   6.674   1.182   3.489
 2587SOL    HW2 8661   6.679   1.043   3.403
 2588SOL     OW 8662   4.817   6.780   6.882
 2588SOL    HW1 8663   4.805   6.878   6.899
 2588SOL    HW2 8664   4.836   6.733   6.968
 2589SOL     OW 8665   0.496   5.908   5.828
 2589SOL    HW1 8666   0.589   5.879   5.807
 2589SOL    HW2 8667   0.462   5.855   5.906
 2590SOL     OW 8668   3.027   6.161   1.898
 2590SOL    HW1 8669   3.040   6.195   1.991
 2590SOL    HW2 8670   3.098   6.095   1.876
 2591SOL     OW 8671   6.856   5.616   1.678
 2591SOL    HW1 8672   6.952   5.589   1.681
 2591SOL    HW2 8673   6.830   5.638   1.584
 2592SOL     OW 8674   3.394   6.652   1.351
 2592SOL    HW1 8675   3.368   6.691   1.439
 2592SOL    HW2 8676   3.405   6.726   1.284
 2593SOL     OW 8677   2.818   6.075   1.672
 2593SOL    HW1 8678   2.799   6.156   1.617
 2593SOL    HW2 8679   2.880   6.099   1.747
 2594SOL     OW 8680   6.848   5.759   5.958
 2594SOL    HW1 8681   6.840   5.839   6.017
 2594SOL    HW2 8682   6.938   5.717   5.972
 2595SOL     OW 8683   6.029   1.221   4.772
 2595SOL    HW1 8684   6.018   1.261   4.864
 2595SOL    HW2 8685   5.950   1.245   4.716
 2596SOL     OW 8686   3.737   2.221   1.649
 2596SOL    HW1 8687   3.719   2.280   1.729
 2596SOL    HW2 8688   3.652   2.210   1.597
 2597SOL     OW 8689   1.997   3.676   6.339
 2597SOL    HW1 8690   2.068   3.620   6.383
 2597SOL    HW2 8691   1.936   3.712   6.409
 2598SOL     OW 8692   5.992   0.621   4.469
 2598SOL    HW1 8693   6.017   0.608   4.373
 2598SOL    HW2 8694   6.075   0.625   4.525
 2599SOL     OW 8695   2.798   0.554   0.651
 2599SOL    HW1 8696   2.866   0.568   0.579
 2599SOL    HW2 8697   2.818   0.615   0.728
 2600SOL     OW 8698   5.053   3.369   4.417
 2600SOL    HW1 8699   5.036   3.467   4.425
 2600SOL    HW2 8700   4.981   3.328   4.360
 2601SOL     OW 8701   2.232   1.828   6.549
 2601SOL    HW1 8702   2.253   1.903   6.612
 2601SOL    HW2 8703   2.247   1.741   6.596
 2602SOL     OW 8704   6.630   4.713   3.801
 2602SOL    HW1 8705   6.624   4.681   3.706
 2602SOL    HW2 8706   6.721   4.692   3.837
 2603SOL     OW 8707   2.186   1.989   2.118
 2603SOL    HW1 8708   2.225   2.042   2.044
 2603SOL    HW2 8709   2.221   2.022   2.206
 2604SOL     OW 8710   4.824   1.435   3.367
 2604SOL    HW1 8711   4.765   1.366   3.407
 2604SOL    HW2 8712   4.909   1.440   3.418
 2605SOL     OW 8713   2.237   4.146   2.927
 2605SOL    HW1 8714   2.199   4.107   2.843
 2605SOL    HW2 8715   2.268   4.072   2.987
 2606SOL     OW 8716   6.841   4.800   1.194
 2606SOL    HW1 8717   6.751   4.839   1.212
 2606SOL    HW2 8718   6.903   4.822   1.270
 2607SOL     OW 8719   0.087   1.260   6.662
 2607SOL    HW1 8720   7.007   1.262   6.661
 2607SOL    HW2 8721   0.119   1.171   6.693
 2608SOL     OW 8722   4.528   4.951   1.801
 2608SOL    HW1 8723   4.553   4.991   1.889
 2608SOL    HW2 8724   4.451   5.001   1.762
 2609SOL     OW 8725   0.030   1.580   1.947
 2609SOL    HW1 8726   0.023   1.578   1.847
 2609SOL    HW2 8727   0.106   1.640   1.974
 2610SOL     OW 8728   0.208   5.148   4.317
 2610SOL    HW1 8729   0.233   5.107   4.229
 2610SOL    HW2 8730   0.286   5.198   4.354
 2611SOL     OW 8731   4.396   6.159   0.878
 2611SOL    HW1 8732   4.455   6.087   0.914
 2611SOL    HW2 8733   4.307   6.155   0.924
 2612SOL     OW 8734   6.567   0.312   5.422
 2612SOL    HW1 8735   6.519   0.365   5.351
 2612SOL    HW2 8736   6.632   0.251   5.378
 2613SOL     OW 8737   2.805   6.550   0.299
 2613SOL    HW1 8738   2.874   6.480   0.319
 2613SOL    HW2 8739   2.753   6.523   0.218
 2614SOL     OW 8740   6.584   0.453   6.120
 2614SOL    HW1 8741   6.512   0.521   6.137
 2614SOL    HW2 8742   6.646   0.487   6.049
 2615SOL     OW 8743   6.950   3.444   2.912
 2615SOL    HW1 8744   0.014   3.403   2.873
 2615SOL    HW2 8745   6.969   3.539   2.938
 2616SOL     OW 8746   3.938   3.395   4.719
 2616SOL    HW1 8747   3.852   3.349   4.740
 2616SOL    HW2 8748   3.949   3.476   4.777
 2617SOL     OW 8749   3.696   6.612   1.057
 2617SOL    HW1 8750   3.608   6.572   1.031
 2617SOL    HW2 8751   3.765   6.540   1.063
 2618SOL     OW 8752   0.233   0.068   4.512
 2618SOL    HW1 8753   0.134   0.067   4.523
 2618SOL    HW2 8754   0.265   6.995   4.489
 2619SOL     OW 8755   3.970   1.789   3.156
 2619SOL    HW1 8756   4.025   1.747   3.228
 2619SOL    HW2 8757   3.894   1.729   3.133
 2620SOL     OW 8758   6.726   6.596   2.746
 2620SOL    HW1 8759   6.717   6.671   2.812
 2620SOL    HW2 8760   6.813   6.549   2.760
 2621SOL     OW 8761   1.203   5.968   2.890
 2621SOL    HW1 8762   1.125   6.029   2.907
 2621SOL    HW2 8763   1.250   5.948   2.976
 2622SOL     OW 8764   2.475   2.716   5.684
 2622SOL    HW1 8765   2.509   2.653   5.753
 2622SOL    HW2 8766   2.457   2.666   5.599
 2623SOL     OW 8767   2.502   1.327   5.470
 2623SOL    HW1 8768   2.446   1.408   5.485
 2623SOL    HW2 8769   2.516   1.313   5.372
 2624SOL     OW 8770   6.984   2.198   5.419
 2624SOL    HW1 8771   6.890   2.166   5.435
 2624SOL    HW2 8772   6.996   2.287   5.463
 2625SOL     OW 8773   2.522   1.980   5.391
 2625SOL    HW1 8774   2.426   2.009   5.396
 2625SOL    HW2 8775   2.581   2.058   5.411
 2626SOL     OW 8776   0.698   0.041   5.363
 2626SOL    HW1 8777   0.609   0.059   5.403
 2626SOL    HW2 8778   0.747   0.128   5.351
 2627SOL     OW 8779   1.669   1.653   5.388
 2627SOL    HW1 8780   1.669   1.624   5.292
 2627SOL    HW2 8781   1.597   1.721   5.402
 2628SOL     OW 8782   2.316   4.711   6.141
 2628SOL    HW1 8783   2.292   4.664   6.226
 2628SOL    HW2 8784   2.362   4.797   6.162
 2629SOL     OW 8785   2.823   3.506   1.831
 2629SOL    HW1 8786   2.897   3.471   1.773
 2629SOL    HW2 8787   2.850   3.500   1.927
 2630SOL     OW 8788   2.770   1.907   2.696
 2630SOL    HW1 8789   2.861   1.871   2.672
 2630SOL    HW2 8790   2.718   1.923   2.612
 2631SOL     OW 8791   5.265   0.285   5.504
 2631SOL    HW1 8792   5.338   0.313   5.566
 2631SOL    HW2 8793   5.306   0.244   5.422
 2632SOL     OW 8794   3.845   2.027   6.175
 2632SOL    HW1 8795   3.832   2.111   6.122
 2632SOL    HW2 8796   3.760   2.006   6.223
 2633SOL     OW 8797   6.889   1.001   4.306
 2633SOL    HW1 8798   6.970   0.949   4.278
 2633SOL    HW2 8799   6.910   1.056   4.386
 2634SOL     OW 8800   1.005   4.283   3.107
 2634SOL    HW1 8801   1.076   4.238   3.161
 2634SOL    HW2 8802   0.928   4.221   3.094
 2635SOL     OW 8803   6.193   6.245   5.717
 2635SOL    HW1 8804   6.199   6.184   5.637
 2635SOL    HW2 8805   6.129   6.319   5.698
 2636SOL     OW 8806   4.854   0.105   5.408
 2636SOL    HW1 8807   4.931   0.083   5.468
 2636SOL    HW2 8808   4.770   0.068   5.447
 2637SOL     OW 8809   5.173   1.806   3.870
 2637SOL    HW1 8810   5.209   1.775   3.782
 2637SOL    HW2 8811   5.117   1.887   3.856
 2638SOL     OW 8812   6.636   0.545   3.401
 2638SOL    HW1 8813   6.602   0.638   3.390
 2638SOL    HW2 8814   6.559   0.484   3.422
 2639SOL     OW 8815   0.818   6.610   1.143
 2639SOL    HW1 8816   0.873   6.677   1.193
 2639SOL    HW2 8817   0.729   6.650   1.120
 2640SOL     OW 8818   0.477   5.601   4.937
 2640SOL    HW1 8819   0.470   5.692   4.979
 2640SOL    HW2 8820   0.386   5.571   4.907
 2641SOL     OW 8821   4.915   3.228   2.108
 2641SOL    HW1 8822   4.851   3.161   2.071
 2641SOL    HW2 8823   4.981   3.182   2.168
 2642SOL     OW 8824   4.066   6.613   4.198
 2642SOL    HW1 8825   4.150   6.652   4.160
 2642SOL    HW2 8826   4.088   6.562   4.281
 2643SOL     OW 8827   0.343   3.928   2.688
 2643SOL    HW1 8828   0.371   3.880   2.772
 2643SOL    HW2 8829   0.266   3.879   2.647
 2644SOL     OW 8830   6.160   5.722   6.097
 2644SOL    HW1 8831   6.162   5.633   6.142
 2644SOL    HW2 8832   6.233   5.727   6.029
 2645SOL     OW 8833   4.614   5.440   4.772
 2645SOL    HW1 8834   4.702   5.409   4.737
 2645SOL    HW2 8835   4.589   5.386   4.853
 2646SOL     OW 8836   6.009   0.667   6.602
 2646SOL    HW1 8837   6.033   0.655   6.698
 2646SOL    HW2 8838   6.085   0.635   6.544
 2647SOL     OW 8839   6.414   0.222   1.701
 2647SOL    HW1 8840   6.331   0.180   1.739
 2647SOL    HW2 8841   6.397   0.249   1.607
 2648SOL     OW 8842   0.557   0.356   3.949
 2648SOL    HW1 8843   0.628   0.364   3.879
 2648SOL    HW2 8844   0.489   0.288   3.920
 2649SOL     OW 8845   5.891   3.032   6.925
 2649SOL    HW1 8846   5.987   3.008   6.939
 2649SOL    HW2 8847   5.834   2.976   6.985
 2650SOL     OW 8848   0.694   4.321   4.607
 2650SOL    HW1 8849   0.599   4.318   4.637
 2650SOL    HW2 8850   0.736   4.231   4.621
 2651SOL     OW 8851   0.921   1.157   0.622
 2651SOL    HW1 8852   0.951   1.227   0.557
 2651SOL    HW2 8853   0.851   1.195   0.683
 2652SOL     OW 8854   3.806   3.896   4.252
 2652SOL    HW1 8855   3.768   3.986   4.233
 2652SOL    HW2 8856   3.808   3.879   4.350
 2653SOL     OW 8857   5.048   6.357   5.541
 2653SOL    HW1 8858   5.020   6.296   5.466
 2653SOL    HW2 8859   5.122   6.417   5.509
 2654SOL     OW 8860   4.967   5.561   1.355
 2654SOL    HW1 8861   5.039   5.540   1.422
 2654SOL    HW2 8862   4.946   5.480   1.302
 2655SOL     OW 8863   4.220   5.920   4.099
 2655SOL    HW1 8864   4.128   5.935   4.064
 2655SOL    HW2 8865   4.216   5.858   4.178
 2656SOL     OW 8866   3.334   5.171   4.422
 2656SOL    HW1 8867   3.308   5.082   4.460
 2656SOL    HW2 8868   3.304   5.176   4.327
 2657SOL     OW 8869   1.133   4.183   6.147
 2657SOL    HW1 8870   1.221   4.155   6.109
 2657SOL    HW2 8871   1.105   4.118   6.218
 2658SOL     OW 8872   5.076   4.266   0.192
 2658SOL    HW1 8873   5.017   4.289   0.270
 2658SOL    HW2 8874   5.041   4.183   0.148
 2659SOL     OW 8875   5.594   3.141   4.283
 2659SOL    HW1 8876   5.530   3.079   4.328
 2659SOL    HW2 8877   5.572   3.235   4.307
 2660SOL     OW 8878   1.279   0.929   1.014
 2660SOL    HW1 8879   1.295   0.855   0.948
 2660SOL    HW2 8880   1.199   0.982   0.985
 2661SOL     OW 8881   2.423   6.886   1.045
 2661SOL    HW1 8882   2.482   6.816   1.006
 2661SOL    HW2 8883   2.475   6.970   1.058
 2662SOL     OW 8884   4.707   6.337   5.385
 2662SOL    HW1 8885   4.805   6.347   5.372
 2662SOL    HW2 8886   4.660   6.421   5.360
 2663SOL     OW 8887   3.059   3.944   6.782
 2663SOL    HW1 8888   3.070   3.912   6.688
 2663SOL    HW2 8889   3.084   4.040   6.787
 2664SOL     OW 8890   4.011   4.037   5.237
 2664SOL    HW1 8891   3.923   4.021   5.280
 2664SOL    HW2 8892   4.075   3.966   5.264
 2665SOL     OW 8893   2.509   2.707   5.274
 2665SOL    HW1 8894   2.475   2.647   5.203
 2665SOL    HW2 8895   2.494   2.802   5.248
 2666SOL     OW 8896   5.657   4.288   0.935
 2666SOL    HW1 8897   5.592   4.268   0.862
 2666SOL    HW2 8898   5.749   4.258   0.907
 2667SOL     OW 8899   0.930   6.779   3.831
 2667SOL    HW1 8900   0.901   6.873   3.815
 2667SOL    HW2 8901   1.029   6.772   3.820
 2668SOL     OW 8902   0.251   3.222   4.557
 2668SOL    HW1 8903   0.277   3.309   4.514
 2668SOL    HW2 8904   0.203   3.240   4.642
 2669SOL     OW 8905   2.693   4.342   5.339
 2669SOL    HW1 8906   2.755   4.402   5.288
 2669SOL    HW2 8907   2.739   4.256   5.358
 2670SOL     OW 8908   6.171   3.224   6.380
 2670SOL    HW1 8909   6.097   3.160   6.363
 2670SOL    HW2 8910   6.162   3.303   6.320
 2671SOL     OW 8911   3.637   5.402   5.929
 2671SOL    HW1 8912   3.637   5.302   5.928
 2671SOL    HW2 8913   3.600   5.436   5.843
 2672SOL     OW 8914   1.261   4.875   0.866
 2672SOL    HW1 8915   1.251   4.973   0.853
 2672SOL    HW2 8916   1.352   4.846   0.838
 2673SOL     OW 8917   5.994   0.695   3.980
 2673SOL    HW1 8918   6.007   0.759   4.056
 2673SOL    HW2 8919   6.010   0.602   4.011
 2674SOL     OW 8920   1.467   4.557   3.832
 2674SOL    HW1 8921   1.379   4.559   3.784
 2674SOL    HW2 8922   1.501   4.650   3.845
 2675SOL     OW 8923   6.275   5.286   3.503
 2675SOL    HW1 8924   6.286   5.230   3.586
 2675SOL    HW2 8925   6.321   5.241   3.427
 2676SOL     OW 8926   4.181   2.082   0.675
 2676SOL    HW1 8927   4.118   2.088   0.598
 2676SOL    HW2 8928   4.243   2.004   0.661
 2677SOL     OW 8929   2.996   3.472   0.129
 2677SOL    HW1 8930   3.053   3.511   0.057
 2677SOL    HW2 8931   3.042   3.482   0.217
 2678SOL     OW 8932   0.331   2.742   1.243
 2678SOL    HW1 8933   0.314   2.681   1.320
 2678SOL    HW2 8934   0.429   2.761   1.237
 2679SOL     OW 8935   3.558   4.582   1.150
 2679SOL    HW1 8936   3.516   4.634   1.224
 2679SOL    HW2 8937   3.595   4.645   1.082
 2680SOL     OW 8938   1.228   1.263   0.728
 2680SOL    HW1 8939   1.227   1.355   0.766
 2680SOL    HW2 8940   1.134   1.229   0.722
 2681SOL     OW 8941   1.229   2.841   4.182
 2681SOL    HW1 8942   1.324   2.813   4.166
 2681SOL    HW2 8943   1.167   2.773   4.144
 2682SOL     OW 8944   5.191   4.291   2.458
 2682SOL    HW1 8945   5.214   4.267   2.552
 2682SOL    HW2 8946   5.092   4.304   2.450
 2683SOL     OW 8947   2.717   4.960   1.496
 2683SOL    HW1 8948   2.645   4.958   1.427
 2683SOL    HW2 8949   2.730   4.867   1.532
 2684SOL     OW 8950   3.977   5.337   1.478
 2684SOL    HW1 8951   3.900   5.386   1.519
 2684SOL    HW2 8952   3.980   5.356   1.380
 2685SOL     OW 8953   6.311   6.236   6.389
 2685SOL    HW1 8954   6.238   6.203   6.329
 2685SOL    HW2 8955   6.349   6.321   6.352
 2686SOL     OW 8956   1.621   1.584   5.769
 2686SOL    HW1 8957   1.709   1.624   5.794
 2686SOL    HW2 8958   1.620   1.561   5.672
 2687SOL     OW 8959   4.658   4.420   2.432
 2687SOL    HW1 8960   4.669   4.343   2.496
 2687SOL    HW2 8961   4.598   4.489   2.472
 2688SOL     OW 8962   3.944   4.378   7.012
 2688SOL    HW1 8963   3.903   4.393   6.922
 2688SOL    HW2 8964   3.882   4.321   0.048
 2689SOL     OW 8965   1.458   4.054   3.650
 2689SOL    HW1 8966   1.437   4.067   3.553
 2689SOL    HW2 8967   1.519   3.975   3.661
 2690SOL     OW 8968   3.551   3.479   3.727
 2690SOL    HW1 8969   3.630   3.516   3.775
 2690SOL    HW2 8970   3.545   3.380   3.741
 2691SOL     OW 8971   1.338   5.445   2.192
 2691SOL    HW1 8972   1.274   5.505   2.241
 2691SOL    HW2 8973   1.355   5.481   2.101
 2692SOL     OW 8974   3.123   5.524   2.793
 2692SOL    HW1 8975   3.168   5.573   2.718
 2692SOL    HW2 8976   3.137   5.426   2.781
 2693SOL     OW 8977   2.271   5.508   2.797
 2693SOL    HW1 8978   2.208   5.437   2.763
 2693SOL    HW2 8979   2.260   5.518   2.895
 2694SOL     OW 8980   4.144   6.548   2.868
 2694SOL    HW1 8981   4.053   6.589   2.869
 2694SOL    HW2 8982   4.197   6.584   2.944
 2695SOL     OW 8983   5.271   0.538   2.250
 2695SOL    HW1 8984   5.242   0.577   2.337
 2695SOL    HW2 8985   5.349   0.589   2.214
 2696SOL     OW 8986   3.641   3.691   5.277
 2696SOL    HW1 8987   3.679   3.638   5.202
 2696SOL    HW2 8988   3.715   3.738   5.326
 2697SOL     OW 8989   3.053   1.631   2.846
 2697SOL    HW1 8990   2.976   1.692   2.863
 2697SOL    HW2 8991   3.132   1.661   2.899
 2698SOL     OW 8992   2.359   6.439   0.200
 2698SOL    HW1 8993   2.271   6.463   0.241
 2698SOL    HW2 8994   2.371   6.340   0.204
 2699SOL     OW 8995   2.589   6.742   0.872
 2699SOL    HW1 8996   2.533   6.661   0.853
 2699SOL    HW2 8997   2.637   6.770   0.789
 2700SOL     OW 8998   2.302   3.781   0.348
 2700SOL    HW1 8999   2.386   3.759   0.297
 2700SOL    HW2 9000   2.231   3.809   0.284
 2701SOL     OW 9001   5.686   0.996   6.245
 2701SOL    HW1 9002   5.641   1.062   6.184
 2701SOL    HW2 9003   5.622   0.968   6.316
 2702SOL     OW 9004   0.691   3.239   3.485
 2702SOL    HW1 9005   0.682   3.333   3.452
 2702SOL    HW2 9006   0.626   3.224   3.560
 2703SOL     OW 9007   1.571   0.407   1.415
 2703SOL    HW1 9008   1.527   0.453   1.493
 2703SOL    HW2 9009   1.661   0.448   1.399
 2704SOL     OW 9010   6.801   6.446   1.466
 2704SOL    HW1 9011   6.800   6.456   1.565
 2704SOL    HW2 9012   6.834   6.530   1.424
 2705SOL     OW 9013   0.059   5.505   4.486
 2705SOL    HW1 9014   0.002   5.510   4.568
 2705SOL    HW2 9015   0.050   5.414   4.445
 2706SOL     OW 9016   0.494   6.590   1.954
 2706SOL    HW1 9017   0.476   6.524   1.881
 2706SOL    HW2 9018   0.550   6.665   1.918
 2707SOL     OW 9019   3.509   0.115   4.199
 2707SOL    HW1 9020   3.489   0.165   4.115
 2707SOL    HW2 9021   3.597   0.146   4.236
 2708SOL     OW 9022   0.193   2.185   6.730
 2708SOL    HW1 9023   0.130   2.257   6.760
 2708SOL    HW2 9024   0.143   2.115   6.680
 2709SOL     OW 9025   6.550   6.819   0.228
 2709SOL    HW1 9026   6.556   6.735   0.174
 2709SOL    HW2 9027   6.505   6.891   0.175
 2710SOL     OW 9028   0.795   3.578   3.557
 2710SOL    HW1 9029   0.840   3.665   3.577
 2710SOL    HW2 9030   0.745   3.547   3.638
 2711SOL     OW 9031   2.435   1.285   3.927
 2711SOL    HW1 9032   2.353   1.341   3.930
 2711SOL    HW2 9033   2.441   1.238   3.838
 2712SOL     OW 9034   2.912   4.328   0.862
 2712SOL    HW1 9035   2.901   4.416   0.816
 2712SOL    HW2 9036   2.823   4.283   0.868
 2713SOL     OW 9037   2.468   2.136   4.664
 2713SOL    HW1 9038   2.567   2.119   4.670
 2713SOL    HW2 9039   2.445   2.165   4.571
 2714SOL     OW 9040   4.025   2.354   0.514
 2714SOL    HW1 9041   3.946   2.412   0.494
 2714SOL    HW2 9042   4.087   2.402   0.576
 2715SOL     OW 9043   5.396   1.947   1.290
 2715SOL    HW1 9044   5.423   1.957   1.386
 2715SOL    HW2 9045   5.476   1.953   1.232
 2716SOL     OW 9046   5.137   4.206   2.709
 2716SOL    HW1 9047   5.109   4.302   2.709
 2716SOL    HW2 9048   5.150   4.175   2.803
 2717SOL     OW 9049   1.024   6.209   2.335
 2717SOL    HW1 9050   0.965   6.206   2.417
 2717SOL    HW2 9051   0.996   6.137   2.272
 2718SOL     OW 9052   2.175   1.778   5.338
 2718SOL    HW1 9053   2.160   1.869   5.376
 2718SOL    HW2 9054   2.102   1.717   5.369
 2719SOL     OW 9055   6.641   5.659   0.543
 2719SOL    HW1 9056   6.680   5.631   0.455
 2719SOL    HW2 9057   6.624   5.758   0.542
 2720SOL     OW 9058   1.729   6.506   2.068
 2720SOL    HW1 9059   1.676   6.544   2.144
 2720SOL    HW2 9060   1.674   6.505   1.985
 2721SOL     OW 9061   2.516   0.093   3.822
 2721SOL    HW1 9062   2.526   7.018   3.854
 2721SOL    HW2 9063   2.473   0.094   3.732
 2722SOL     OW 9064   6.752   5.432   1.329
 2722SOL    HW1 9065   6.714   5.439   1.236
 2722SOL    HW2 9066   6.838   5.382   1.326
 2723SOL     OW 9067   0.748   6.623   6.248
 2723SOL    HW1 9068   0.733   6.557   6.174
 2723SOL    HW2 9069   0.661   6.667   6.272
 2724SOL     OW 9070   2.128   6.524   0.342
 2724SOL    HW1 9071   2.136   6.622   0.360
 2724SOL    HW2 9072   2.184   6.473   0.408
 2725SOL     OW 9073   5.198   5.477   4.345
 2725SOL    HW1 9074   5.269   5.536   4.384
 2725SOL    HW2 9075   5.117   5.531   4.325
 2726SOL     OW 9076   6.918   2.702   1.238
 2726SOL    HW1 9077   6.881   2.677   1.328
 2726SOL    HW2 9078   6.874   2.786   1.206
 2727SOL     OW 9079   0.173   5.222   3.031
 2727SOL    HW1 9080   0.092   5.272   3.064
 2727SOL    HW2 9081   0.250   5.285   3.023
 2728SOL     OW 9082   4.650   6.362   5.783
 2728SOL    HW1 9083   4.743   6.325   5.777
 2728SOL    HW2 9084   4.625   6.376   5.879
 2729SOL     OW 9085   6.787   6.107   0.799
 2729SOL    HW1 9086   6.730   6.081   0.876
 2729SOL    HW2 9087   6.881   6.121   0.830
 2730SOL     OW 9088   1.588   5.536   1.611
 2730SOL    HW1 9089   1.617   5.630   1.626
 2730SOL    HW2 9090   1.489   5.532   1.600
 2731SOL     OW 9091   4.128   3.356   3.031
 2731SOL    HW1 9092   4.138   3.272   2.978
 2731SOL    HW2 9093   4.149   3.338   3.127
 2732SOL     OW 9094   5.506   2.209   1.754
 2732SOL    HW1 9095   5.559   2.280   1.801
 2732SOL    HW2 9096   5.561   2.126   1.747
 2733SOL     OW 9097   6.966   0.146   4.557
 2733SOL    HW1 9098   6.945   0.079   4.486
 2733SOL    HW2 9099   6.965   0.238   4.517
 2734SOL     OW 9100   2.388   6.575   1.807
 2734SOL    HW1 9101   2.481   6.593   1.839
 2734SOL    HW2 9102   2.383   6.482   1.771
 2735SOL     OW 9103   1.507   3.307   2.884
 2735SOL    HW1 9104   1.478   3.248   2.960
 2735SOL    HW2 9105   1.465   3.274   2.799
 2736SOL     OW 9106   4.827   6.727   5.340
 2736SOL    HW1 9107   4.910   6.732   5.395
 2736SOL    HW2 9108   4.751   6.769   5.390
 2737SOL     OW 9109   3.376   4.024   5.490
 2737SOL    HW1 9110   3.279   4.044   5.507
 2737SOL    HW2 9111   3.418   4.101   5.441
 2738SOL     OW 9112   5.181   5.865   2.858
 2738SOL    HW1 9113   5.238   5.846   2.938
 2738SOL    HW2 9114   5.084   5.864   2.885
 2739SOL     OW 9115   0.140   4.905   1.034
 2739SOL    HW1 9116   0.051   4.883   0.993
 2739SOL    HW2 9117   0.172   4.992   0.998
 2740SOL     OW 9118   6.855   3.811   2.114
 2740SOL    HW1 9119   6.770   3.841   2.157
 2740SOL    HW2 9120   6.865   3.712   2.126
 2741SOL     OW 9121   6.349   0.261   5.041
 2741SOL    HW1 9122   6.267   0.239   5.093
 2741SOL    HW2 9123   6.324   0.317   4.961
 2742SOL     OW 9124   2.267   5.379   6.711
 2742SOL    HW1 9125   2.292   5.414   6.801
 2742SOL    HW2 9126   2.167   5.381   6.702
 2743SOL     OW 9127   6.899   5.061   2.232
 2743SOL    HW1 9128   6.964   5.070   2.157
 2743SOL    HW2 9129   6.830   5.133   2.226
 2744SOL     OW 9130   5.272   1.832   6.402
 2744SOL    HW1 9131   5.190   1.872   6.361
 2744SOL    HW2 9132   5.259   1.823   6.501
 2745SOL     OW 9133   6.974   6.859   6.090
 2745SOL    HW1 9134   7.018   6.895   6.172
 2745SOL    HW2 9135   6.875   6.868   6.099
 2746SOL     OW 9136   2.305   2.234   3.925
 2746SOL    HW1 9137   2.363   2.274   3.854
 2746SOL    HW2 9138   2.216   2.212   3.887
 2747SOL     OW 9139   5.994   4.179   6.479
 2747SOL    HW1 9140   5.993   4.144   6.385
 2747SOL    HW2 9141   5.910   4.230   6.497
 2748SOL     OW 9142   5.648   1.361   1.113
 2748SOL    HW1 9143   5.698   1.448   1.107
 2748SOL    HW2 9144   5.695   1.300   1.177
 2749SOL     OW 9145   6.918   5.253   2.873
 2749SOL    HW1 9146   6.830   5.238   2.828
 2749SOL    HW2 9147   6.991   5.217   2.815
 2750SOL     OW 9148   0.792   5.194   0.964
 2750SOL    HW1 9149   0.695   5.182   0.948
 2750SOL    HW2 9150   0.807   5.217   1.061
 2751SOL     OW 9151   1.008   6.049   1.391
 2751SOL    HW1 9152   1.009   6.056   1.291
 2751SOL    HW2 9153   0.914   6.048   1.423
 2752SOL     OW 9154   3.928   5.101   5.937
 2752SOL    HW1 9155   3.980   5.087   5.852
 2752SOL    HW2 9156   3.964   5.040   6.008
 2753SOL     OW 9157   0.761   6.480   5.101
 2753SOL    HW1 9158   0.729   6.402   5.155
 2753SOL    HW2 9159   0.717   6.478   5.012
 2754SOL     OW 9160   0.439   0.958   3.112
 2754SOL    HW1 9161   0.435   0.859   3.100
 2754SOL    HW2 9162   0.501   0.997   3.045
 2755SOL     OW 9163   2.051   6.730   3.268
 2755SOL    HW1 9164   2.008   6.816   3.296
 2755SOL    HW2 9165   2.149   6.743   3.254
 2756SOL     OW 9166   5.800   4.631   6.494
 2756SOL    HW1 9167   5.732   4.653   6.564
 2756SOL    HW2 9168   5.779   4.681   6.410
 2757SOL     OW 9169   1.975   0.440   6.331
 2757SOL    HW1 9170   1.915   0.360   6.325
 2757SOL    HW2 9171   2.060   0.414   6.376
 2758SOL     OW 9172   4.856   6.744   3.328
 2758SOL    HW1 9173   4.761   6.758   3.353
 2758SOL    HW2 9174   4.904   6.697   3.402
 2759SOL     OW 9175   4.980   5.522   5.492
 2759SOL    HW1 9176   5.043   5.451   5.458
 2759SOL    HW2 9177   5.031   5.607   5.507
 2760SOL     OW 9178   0.367   6.175   2.629
 2760SOL    HW1 9179   0.328   6.247   2.686
 2760SOL    HW2 9180   0.447   6.135   2.676
 2761SOL     OW 9181   1.643   4.387   4.802
 2761SOL    HW1 9182   1.651   4.296   4.843
 2761SOL    HW2 9183   1.549   4.401   4.771
 2762SOL     OW 9184   2.183   0.300   6.430
 2762SOL    HW1 9185   2.274   0.313   6.469
 2762SOL    HW2 9186   2.146   0.212   6.458
 2763SOL     OW 9187   4.859   2.431   4.590
 2763SOL    HW1 9188   4.825   2.360   4.651
 2763SOL    HW2 9189   4.959   2.427   4.587
 2764SOL     OW 9190   6.318   1.218   1.320
 2764SOL    HW1 9191   6.366   1.170   1.394
 2764SOL    HW2 9192   6.271   1.151   1.262
 2765SOL     OW 9193   6.329   6.729   0.362
 2765SOL    HW1 9194   6.338   6.766   0.454
 2765SOL    HW2 9195   6.398   6.769   0.303
 2766SOL     OW 9196   4.783   2.652   0.291
 2766SOL    HW1 9197   4.832   2.721   0.238
 2766SOL    HW2 9198   4.841   2.620   0.366
 2767SOL     OW 9199   6.247   4.925   0.141
 2767SOL    HW1 9200   6.335   4.918   0.187
 2767SOL    HW2 9201   6.260   4.949   0.045
 2768SOL     OW 9202   4.520   0.376   1.123
 2768SOL    HW1 9203   4.553   0.290   1.083
 2768SOL    HW2 9204   4.437   0.405   1.076
 2769SOL     OW 9205   1.726   4.679   6.264
 2769SOL    HW1 9206   1.747   4.605   6.200
 2769SOL    HW2 9207   1.764   4.765   6.231
 2770SOL     OW 9208   4.399   5.496   6.115
 2770SOL    HW1 9209   4.349   5.580   6.136
 2770SOL    HW2 9210   4.435   5.456   6.200
 2771SOL     OW 9211   6.237   1.104   3.971
 2771SOL    HW1 9212   6.174   1.057   3.909
 2771SOL    HW2 9213   6.297   1.038   4.014
 2772SOL     OW 9214   4.087   1.573   0.766
 2772SOL    HW1 9215   4.053   1.534   0.852
 2772SOL    HW2 9216   4.183   1.551   0.755
 2773SOL     OW 9217   5.961   2.154   5.193
 2773SOL    HW1 9218   6.018   2.097   5.252
 2773SOL    HW2 9219   5.874   2.107   5.175
 2774SOL     OW 9220   5.297   2.632   2.923
 2774SOL    HW1 9221   5.225   2.594   2.980
 2774SOL    HW2 9222   5.259   2.662   2.835
 2775SOL     OW 9223   6.832   3.954   5.520
 2775SOL    HW1 9224   6.777   3.895   5.460
 2775SOL    HW2 9225   6.824   4.049   5.489
 2776SOL     OW 9226   4.645   4.390   6.220
 2776SOL    HW1 9227   4.596   4.384   6.133
 2776SOL    HW2 9228   4.594   4.342   6.291
 2777SOL     OW 9229   2.738   2.095   1.357
 2777SOL    HW1 9230   2.739   2.190   1.389
 2777SOL    HW2 9231   2.645   2.060   1.361
 2778SOL     OW 9232   1.930   6.802   5.477
 2778SOL    HW1 9233   1.983   6.720   5.500
 2778SOL    HW2 9234   1.833   6.780   5.481
 2779SOL     OW 9235   5.128   6.390   2.289
 2779SOL    HW1 9236   5.110   6.397   2.387
 2779SOL    HW2 9237   5.222   6.359   2.275
 2780SOL     OW 9238   0.562   6.718   6.611
 2780SOL    HW1 9239   0.600   6.807   6.583
 2780SOL    HW2 9240   0.594   6.648   6.547
 2781SOL     OW 9241   6.046   0.343   2.210
 2781SOL    HW1 9242   5.999   0.385   2.287
 2781SOL    HW2 9243   6.104   0.269   2.243
 2782SOL     OW 9244   4.603   1.234   5.069
 2782SOL    HW1 9245   4.679   1.298   5.079
 2782SOL    HW2 9246   4.563   1.215   5.159
 2783SOL     OW 9247   4.869   4.079   2.945
 2783SOL    HW1 9248   4.966   4.059   2.959
 2783SOL    HW2 9249   4.832   4.018   2.875
 2784SOL     OW 9250   3.591   1.561   2.396
 2784SOL    HW1 9251   3.622   1.532   2.305
 2784SOL    HW2 9252   3.496   1.593   2.390
 2785SOL     OW 9253   5.565   2.466   0.720
 2785SOL    HW1 9254   5.484   2.408   0.714
 2785SOL    HW2 9255   5.638   2.417   0.766
 2786SOL     OW 9256   4.657   6.986   2.372
 2786SOL    HW1 9257   4.756   6.983   2.382
 2786SOL    HW2 9258   4.615   6.910   2.422
 2787SOL     OW 9259   5.660   6.723   5.913
 2787SOL    HW1 9260   5.678   6.785   5.989
 2787SOL    HW2 9261   5.573   6.675   5.929
 2788SOL     OW 9262   2.067   5.897   6.084
 2788SOL    HW1 9263   2.073   5.843   6.168
 2788SOL    HW2 9264   2.159   5.915   6.050
 2789SOL     OW 9265   1.389   2.164   4.007
 2789SOL    HW1 9266   1.404   2.065   4.012
 2789SOL    HW2 9267   1.470   2.207   3.966
 2790SOL     OW 9268   3.458   5.903   2.085
 2790SOL    HW1 9269   3.422   5.965   2.155
 2790SOL    HW2 9270   3.427   5.810   2.104
 2791SOL     OW 9271   0.562   2.640   2.579
 2791SOL    HW1 9272   0.617   2.604   2.503
 2791SOL    HW2 9273   0.618   2.642   2.662
 2792SOL     OW 9274   1.903   0.686   3.797
 2792SOL    HW1 9275   1.938   0.747   3.867
 2792SOL    HW2 9276   1.972   0.616   3.776
 2793SOL     OW 9277   5.119   3.781   1.455
 2793SOL    HW1 9278   5.127   3.840   1.535
 2793SOL    HW2 9279   5.173   3.818   1.380
 2794SOL     OW 9280   6.523   1.564   6.321
 2794SOL    HW1 9281   6.530   1.505   6.401
 2794SOL    HW2 9282   6.475   1.649   6.347
 2795SOL     OW 9283   0.642   3.358   0.885
 2795SOL    HW1 9284   0.572   3.421   0.921
 2795SOL    HW2 9285   0.690   3.315   0.962
 2796SOL     OW 9286   0.286   6.391   2.855
 2796SOL    HW1 9287   0.262   6.487   2.842
 2796SOL    HW2 9288   0.379   6.385   2.893
 2797SOL     OW 9289   5.120   5.408   5.225
 2797SOL    HW1 9290   5.066   5.395   5.142
 2797SOL    HW2 9291   5.217   5.416   5.201
 2798SOL     OW 9292   6.782   5.539   2.636
 2798SOL    HW1 9293   6.744   5.457   2.679
 2798SOL    HW2 9294   6.871   5.560   2.677
 2799SOL     OW 9295   6.088   5.353   5.881
 2799SOL    HW1 9296   6.131   5.327   5.968
 2799SOL    HW2 9297   6.150   5.329   5.806
 2800SOL     OW 9298   4.471   6.173   6.176
 2800SOL    HW1 9299   4.430   6.085   6.153
 2800SOL    HW2 9300   4.448   6.198   6.270
 2801SOL     OW 9301   6.869   5.202   5.498
 2801SOL    HW1 9302   6.780   5.183   5.458
 2801SOL    HW2 9303   6.906   5.287   5.459
 2802SOL     OW 9304   5.774   6.112   5.185
 2802SOL    HW1 9305   5.703   6.113   5.255
 2802SOL    HW2 9306   5.818   6.202   5.180
 2803SOL     OW 9307   4.269   5.377   6.422
 2803SOL    HW1 9308   4.207   5.405   6.348
 2803SOL    HW2 9309   4.333   5.451   6.442
 2804SOL     OW 9310   0.676   4.456   5.280
 2804SOL    HW1 9311   0.645   4.548   5.259
 2804SOL    HW2 9312   0.664   4.397   5.200
 2805SOL     OW 9313   5.834   3.234   2.799
 2805SOL    HW1 9314   5.911   3.293   2.778
 2805SOL    HW2 9315   5.777   3.223   2.717
 2806SOL     OW 9316   1.141   4.198   5.710
 2806SOL    HW1 9317   1.206   4.233   5.643
 2806SOL    HW2 9318   1.188   4.135   5.772
 2807SOL     OW 9319   3.567   6.878   4.195
 2807SOL    HW1 9320   3.544   6.975   4.207
 2807SOL    HW2 9321   3.651   6.857   4.246
 2808SOL     OW 9322   6.171   5.449   2.239
 2808SOL    HW1 9323   6.231   5.526   2.260
 2808SOL    HW2 9324   6.189   5.416   2.146
 2809SOL     OW 9325   5.323   2.679   1.034
 2809SOL    HW1 9326   5.347   2.772   1.004
 2809SOL    HW2 9327   5.403   2.636   1.076
 2810SOL     OW 9328   2.451   5.697   2.727
 2810SOL    HW1 9329   2.397   5.613   2.731
 2810SOL    HW2 9330   2.494   5.714   2.815
 2811SOL     OW 9331   1.599   2.017   4.202
 2811SOL    HW1 9332   1.653   2.063   4.131
 2811SOL    HW2 9333   1.530   1.958   4.158
 2812SOL     OW 9334   5.567   3.185   0.133
 2812SOL    HW1 9335   5.628   3.233   0.069
 2812SOL    HW2 9336   5.485   3.154   0.085
 2813SOL     OW 9337   0.931   0.335   6.524
 2813SOL    HW1 9338   1.003   0.395   6.559
 2813SOL    HW2 9339   0.938   0.329   6.424
 2814SOL     OW 9340   3.575   3.993   5.211
 2814SOL    HW1 9341   3.481   4.014   5.183
 2814SOL    HW2 9342   3.596   3.897   5.189
 2815SOL     OW 9343   6.963   5.640   6.258
 2815SOL    HW1 9344   6.981   5.714   6.322
 2815SOL    HW2 9345   6.899   5.575   6.299
 2816SOL     OW 9346   6.414   5.857   3.346
 2816SOL    HW1 9347   6.477   5.840   3.271
 2816SOL    HW2 9348   6.384   5.770   3.385
 2817SOL     OW 9349   2.865   0.013   1.580
 2817SOL    HW1 9350   2.887   0.026   1.483
 2817SOL    HW2 9351   2.870   6.934   1.602
 2818SOL     OW 9352   0.235   0.883   2.607
 2818SOL    HW1 9353   0.274   0.886   2.516
 2818SOL    HW2 9354   0.135   0.879   2.601
 2819SOL     OW 9355   2.442   0.786   1.693
 2819SOL    HW1 9356   2.357   0.754   1.736
 2819SOL    HW2 9357   2.420   0.830   1.606
 2820SOL     OW 9358   1.304   2.137   3.744
 2820SOL    HW1 9359   1.392   2.111   3.705
 2820SOL    HW2 9360   1.306   2.124   3.843
 2821SOL     OW 9361   3.640   4.711   5.998
 2821SOL    HW1 9362   3.719   4.656   6.026
 2821SOL    HW2 9363   3.670   4.804   5.980
 2822SOL     OW 9364   4.015   1.628   0.220
 2822SOL    HW1 9365   3.963   1.599   0.140
 2822SOL    HW2 9366   4.100   1.673   0.190
 2823SOL     OW 9367   5.023   0.767   1.175
 2823SOL    HW1 9368   5.066   0.829   1.240
 2823SOL    HW2 9369   4.955   0.818   1.121
 2824SOL     OW 9370   1.972   1.971   4.605
 2824SOL    HW1 9371   1.892   1.920   4.577
 2824SOL    HW2 9372   2.055   1.925   4.573
 2825SOL     OW 9373   5.043   6.030   6.528
 2825SOL    HW1 9374   5.101   6.087   6.586
 2825SOL    HW2 9375   5.055   6.056   6.432
 2826SOL     OW 9376   4.720   1.920   6.834
 2826SOL    HW1 9377   4.796   1.931   6.898
 2826SOL    HW2 9378   4.684   1.827   6.842
 2827SOL     OW 9379   0.567   1.285   6.456
 2827SOL    HW1 9380   0.509   1.354   6.415
 2827SOL    HW2 9381   0.605   1.320   6.542
 2828SOL     OW 9382   2.462   2.254   0.597
 2828SOL    HW1 9383   2.458   2.158   0.623
 2828SOL    HW2 9384   2.375   2.282   0.557
 2829SOL     OW 9385   3.293   3.076   4.017
 2829SOL    HW1 9386   3.358   3.150   4.003
 2829SOL    HW2 9387   3.274   3.030   3.930
 2830SOL     OW 9388   3.125   3.979   5.042
 2830SOL    HW1 9389   3.089   4.022   4.960
 2830SOL    HW2 9390   3.141   3.881   5.025
 2831SOL     OW 9391   0.515   3.689   2.899
 2831SOL    HW1 9392   0.533   3.682   2.997
 2831SOL    HW2 9393   0.470   3.606   2.867
 2832SOL     OW 9394   0.884   3.016   2.079
 2832SOL    HW1 9395   0.970   2.966   2.068
 2832SOL    HW2 9396   0.821   2.991   2.005
 2833SOL     OW 9397   2.862   1.642   2.526
 2833SOL    HW1 9398   2.903   1.720   2.479
 2833SOL    HW2 9399   2.884   1.558   2.476
 2834SOL     OW 9400   3.930   6.264   5.705
 2834SOL    HW1 9401   3.984   6.331   5.757
 2834SOL    HW2 9402   3.991   6.195   5.667
 2835SOL     OW 9403   0.235   6.493   1.116
 2835SOL    HW1 9404   0.242   6.491   1.216
 2835SOL    HW2 9405   0.301   6.429   1.077
 2836SOL     OW 9406   0.631   6.865   1.884
 2836SOL    HW1 9407   0.631   6.899   1.790
 2836SOL    HW2 9408   0.663   6.938   1.945
 2837SOL     OW 9409   4.643   4.228   2.646
 2837SOL    HW1 9410   4.641   4.272   2.736
 2837SOL    HW2 9411   4.674   4.134   2.656
 2838SOL     OW 9412   3.998   4.035   0.780
 2838SOL    HW1 9413   3.993   3.944   0.740
 2838SOL    HW2 9414   3.907   4.063   0.811
 2839SOL     OW 9415   0.027   2.249   3.484
 2839SOL    HW1 9416   7.005   2.158   3.473
 2839SOL    HW2 9417   0.008   2.304   3.403
 2840SOL     OW 9418   2.033   0.574   2.036
 2840SOL    HW1 9419   1.985   0.597   2.120
 2840SOL    HW2 9420   2.034   0.475   2.024
 2841SOL     OW 9421   6.021   1.754   6.250
 2841SOL    HW1 9422   5.939   1.698   6.236
 2841SOL    HW2 9423   6.029   1.820   6.176
 2842SOL     OW 9424   0.151   4.771   4.210
 2842SOL    HW1 9425   0.243   4.808   4.219
 2842SOL    HW2 9426   0.156   4.676   4.179
 2843SOL     OW 9427   2.313   2.303   2.960
 2843SOL    HW1 9428   2.279   2.289   3.053
 2843SOL    HW2 9429   2.306   2.218   2.908
 2844SOL     OW 9430   6.225   5.332   7.012
 2844SOL    HW1 9431   6.230   5.421   6.967
 2844SOL    HW2 9432   6.238   5.259   6.944
 2845SOL     OW 9433   5.459   3.330   2.265
 2845SOL    HW1 9434   5.441   3.233   2.252
 2845SOL    HW2 9435   5.377   3.383   2.244
 2846SOL     OW 9436   4.304   0.514   0.483
 2846SOL    HW1 9437   4.341   0.606   0.471
 2846SOL    HW2 9438   4.204   0.517   0.476
 2847SOL     OW 9439   5.471   4.124   2.810
 2847SOL    HW1 9440   5.524   4.134   2.725
 2847SOL    HW2 9441   5.444   4.029   2.821
 2848SOL     OW 9442   2.229   2.397   4.993
 2848SOL    HW1 9443   2.161   2.359   5.057
 2848SOL    HW2 9444   2.246   2.331   4.920
 2849SOL     OW 9445   3.786   0.681   0.594
 2849SOL    HW1 9446   3.715   0.611   0.603
 2849SOL    HW2 9447   3.804   0.722   0.683
 2850SOL     OW 9448   1.651   0.556   2.945
 2850SOL    HW1 9449   1.683   0.470   2.905
 2850SOL    HW2 9450   1.692   0.567   3.036
 2851SOL     OW 9451   5.223   2.204   5.993
 2851SOL    HW1 9452   5.210   2.110   5.962
 2851SOL    HW2 9453   5.284   2.204   6.073
 2852SOL     OW 9454   6.889   4.457   6.761
 2852SOL    HW1 9455   6.899   4.447   6.860
 2852SOL    HW2 9456   6.797   4.428   6.734
 2853SOL     OW 9457   1.530   1.850   5.833
 2853SOL    HW1 9458   1.559   1.754   5.830
 2853SOL    HW2 9459   1.518   1.878   5.928
 2854SOL     OW 9460   4.638   1.028   5.790
 2854SOL    HW1 9461   4.584   0.949   5.817
 2854SOL    HW2 9462   4.735   1.007   5.797
 2855SOL     OW 9463   2.110   1.683   5.748
 2855SOL    HW1 9464   2.067   1.770   5.724
 2855SOL    HW2 9465   2.207   1.686   5.725
 2856SOL     OW 9466   0.644   3.374   5.344
 2856SOL    HW1 9467   0.586   3.398   5.267
 2856SOL    HW2 9468   0.718   3.440   5.353
 2857SOL     OW 9469   1.138   2.430   1.154
 2857SOL    HW1 9470   1.221   2.408   1.205
 2857SOL    HW2 9471   1.154   2.513   1.099
 2858SOL     OW 9472   4.282   4.893   2.066
 2858SOL    HW1 9473   4.311   4.950   2.143
 2858SOL    HW2 9474   4.204   4.837   2.094
 2859SOL     OW 9475   6.510   6.928   6.942
 2859SOL    HW1 9476   6.610   6.926   6.945
 2859SOL    HW2 9477   6.479   6.932   6.848
 2860SOL     OW 9478   1.776   1.370   2.605
 2860SOL    HW1 9479   1.854   1.401   2.552
 2860SOL    HW2 9480   1.700   1.348   2.544
 2861SOL     OW 9481   3.172   5.441   5.899
 2861SOL    HW1 9482   3.087   5.389   5.889
 2861SOL    HW2 9483   3.185   5.499   5.819
 2862SOL     OW 9484   4.699   1.714   1.314
 2862SOL    HW1 9485   4.654   1.625   1.310
 2862SOL    HW2 9486   4.718   1.737   1.410
 2863SOL     OW 9487   4.322   1.482   6.548
 2863SOL    HW1 9488   4.309   1.404   6.487
 2863SOL    HW2 9489   4.366   1.451   6.632
 2864SOL     OW 9490   4.809   2.431   1.144
 2864SOL    HW1 9491   4.845   2.466   1.230
 2864SOL    HW2 9492   4.884   2.393   1.090
 2865SOL     OW 9493   4.175   6.490   4.412
 2865SOL    HW1 9494   4.234   6.554   4.462
 2865SOL    HW2 9495   4.169   6.404   4.463
 2866SOL     OW 9496   5.598   4.848   6.477
 2866SOL    HW1 9497   5.503   4.816   6.479
 2866SOL    HW2 9498   5.600   4.946   6.456
 2867SOL     OW 9499   6.033   6.093   3.074
 2867SOL    HW1 9500   6.107   6.077   3.008
 2867SOL    HW2 9501   5.987   6.179   3.051
 2868SOL     OW 9502   2.083   0.945   5.900
 2868SOL    HW1 9503   2.133   0.913   5.820
 2868SOL    HW2 9504   2.081   1.045   5.901
 2869SOL     OW 9505   6.694   1.072   3.035
 2869SOL    HW1 9506   6.724   1.145   2.974
 2869SOL    HW2 9507   6.604   1.094   3.072
 2870SOL     OW 9508   0.534   1.482   5.607
 2870SOL    HW1 9509   0.587   1.497   5.690
 2870SOL    HW2 9510   0.466   1.410   5.622
 2871SOL     OW 9511   5.823   0.900   6.830
 2871SOL    HW1 9512   5.774   0.981   6.864
 2871SOL    HW2 9513   5.826   0.903   6.730
 2872SOL     OW 9514   2.551   2.277   1.679
 2872SOL    HW1 9515   2.580   2.184   1.657
 2872SOL    HW2 9516   2.525   2.324   1.594
 2873SOL     OW 9517   6.370   5.964   1.968
 2873SOL    HW1 9518   6.292   6.026   1.972
 2873SOL    HW2 9519   6.450   6.013   1.931
 2874SOL     OW 9520   4.202   6.604   2.453
 2874SOL    HW1 9521   4.130   6.541   2.424
 2874SOL    HW2 9522   4.179   6.641   2.543
 2875SOL     OW 9523   5.450   6.907   1.098
 2875SOL    HW1 9524   5.433   6.847   1.020
 2875SOL    HW2 9525   5.420   6.862   1.182
 2876SOL     OW 9526   2.223   0.731   2.678
 2876SOL    HW1 9527   2.316   0.711   2.647
 2876SOL    HW2 9528   2.158   0.676   2.626
 2877SOL     OW 9529   2.944   1.246   5.375
 2877SOL    HW1 9530   2.949   1.346   5.377
 2877SOL    HW2 9531   3.016   1.210   5.316
 2878SOL     OW 9532   3.745   4.247   5.136
 2878SOL    HW1 9533   3.707   4.155   5.127
 2878SOL    HW2 9534   3.805   4.251   5.216
 2879SOL     OW 9535   4.879   5.204   6.324
 2879SOL    HW1 9536   4.818   5.273   6.285
 2879SOL    HW2 9537   4.967   5.206   6.278
 2880SOL     OW 9538   0.123   2.088   2.360
 2880SOL    HW1 9539   0.041   2.052   2.405
 2880SOL    HW2 9540   0.189   2.117   2.430
 2881SOL     OW 9541   4.245   5.792   6.836
 2881SOL    HW1 9542   4.237   5.764   6.740
 2881SOL    HW2 9543   4.217   5.717   6.896
 2882SOL     OW 9544   0.215   5.553   1.576
 2882SOL    HW1 9545   0.289   5.488   1.593
 2882SOL    HW2 9546   0.183   5.590   1.663
 2883SOL     OW 9547   5.988   0.072   3.991
 2883SOL    HW1 9548   5.921   7.019   3.973
 2883SOL    HW2 9549   6.068   0.057   3.932
 2884SOL     OW 9550   0.599   6.694   3.071
 2884SOL    HW1 9551   0.609   6.602   3.107
 2884SOL    HW2 9552   0.504   6.723   3.077
 2885SOL     OW 9553   1.561   3.753   3.697
 2885SOL    HW1 9554   1.511   3.731   3.613
 2885SOL    HW2 9555   1.650   3.708   3.695
 2886SOL     OW 9556   1.339   2.925   6.289
 2886SOL    HW1 9557   1.321   3.016   6.328
 2886SOL    HW2 9558   1.356   2.934   6.191
 2887SOL     OW 9559   0.810   6.478   5.590
 2887SOL    HW1 9560   0.880   6.534   5.545
 2887SOL    HW2 9561   0.721   6.495   5.548
 2888SOL     OW 9562   6.949   4.138   6.333
 2888SOL    HW1 9563   6.989   4.121   6.423
 2888SOL    HW2 9564   0.002   4.131   6.264
 2889SOL     OW 9565   2.903   6.097   2.499
 2889SOL    HW1 9566   2.934   6.192   2.501
 2889SOL    HW2 9567   2.816   6.091   2.450
 2890SOL     OW 9568   1.514   6.019   0.668
 2890SOL    HW1 9569   1.601   6.030   0.715
 2890SOL    HW2 9570   1.471   5.933   0.697
 2891SOL     OW 9571   0.736   4.530   3.164
 2891SOL    HW1 9572   0.698   4.524   3.257
 2891SOL    HW2 9573   0.822   4.579   3.166
 2892SOL     OW 9574   6.360   2.945   0.681
 2892SOL    HW1 9575   6.329   3.010   0.750
 2892SOL    HW2 9576   6.459   2.956   0.668
 2893SOL     OW 9577   0.646   5.318   4.613
 2893SOL    HW1 9578   0.659   5.405   4.659
 2893SOL    HW2 9579   0.713   5.309   4.539
 2894SOL     OW 9580   0.161   2.984   2.097
 2894SOL    HW1 9581   0.227   2.950   2.030
 2894SOL    HW2 9582   0.145   2.915   2.167
 2895SOL     OW 9583   4.988   1.027   5.349
 2895SOL    HW1 9584   4.953   1.075   5.269
 2895SOL    HW2 9585   4.915   0.971   5.389
 2896SOL     OW 9586   4.292   6.551   5.714
 2896SOL    HW1 9587   4.350   6.622   5.753
 2896SOL    HW2 9588   4.297   6.554   5.614
 2897SOL     OW 9589   3.947   5.047   2.840
 2897SOL    HW1 9590   4.047   5.041   2.837
 2897SOL    HW2 9591   3.908   4.961   2.807
 2898SOL     OW 9592   4.505   4.497   4.601
 2898SOL    HW1 9593   4.405   4.499   4.598
 2898SOL    HW2 9594   4.540   4.591   4.602
 2899SOL     OW 9595   0.751   1.851   0.574
 2899SOL    HW1 9596   0.688   1.831   0.499
 2899SOL    HW2 9597   0.699   1.888   0.652
 2900SOL     OW 9598   2.763   4.479   6.555
 2900SOL    HW1 9599   2.774   4.448   6.650
 2900SOL    HW2 9600   2.819   4.560   6.540
 2901SOL     OW 9601   2.562   4.778   2.939
 2901SOL    HW1 9602   2.634   4.761   2.872
 2901SOL    HW2 9603   2.528   4.691   2.974
 2902SOL     OW 9604   5.970   5.511   3.199
 2902SOL    HW1 9605   5.993   5.472   3.288
 2902SOL    HW2 9606   5.991   5.444   3.127
 2903SOL     OW 9607   4.284   6.740   0.785
 2903SOL    HW1 9608   4.269   6.654   0.738
 2903SOL    HW2 9609   4.322   6.807   0.721
 2904SOL     OW 9610   2.747   5.067   4.367
 2904SOL    HW1 9611   2.712   5.093   4.457
 2904SOL    HW2 9612   2.773   4.971   4.367
 2905SOL     OW 9613   1.369   3.803   4.574
 2905SOL    HW1 9614   1.393   3.750   4.656
 2905SOL    HW2 9615   1.452   3.822   4.522
 2906SOL     OW 9616   4.634   5.097   2.425
 2906SOL    HW1 9617   4.727   5.076   2.455
 2906SOL    HW2 9618   4.636   5.170   2.357
 2907SOL     OW 9619   0.495   1.839   3.800
 2907SOL    HW1 9620   0.477   1.754   3.850
 2907SOL    HW2 9621   0.411   1.868   3.753
 2908SOL     OW 9622   5.121   6.474   3.324
 2908SOL    HW1 9623   5.079   6.413   3.256
 2908SOL    HW2 9624   5.209   6.506   3.290
 2909SOL     OW 9625   1.437   5.568   3.786
 2909SOL    HW1 9626   1.480   5.486   3.749
 2909SOL    HW2 9627   1.484   5.595   3.870
 2910SOL     OW 9628   5.908   1.038   4.417
 2910SOL    HW1 9629   5.984   1.033   4.482
 2910SOL    HW2 9630   5.925   1.110   4.350
 2911SOL     OW 9631   1.637   5.929   3.460
 2911SOL    HW1 9632   1.694   5.895   3.386
 2911SOL    HW2 9633   1.658   5.878   3.544
 2912SOL     OW 9634   5.697   6.658   0.472
 2912SOL    HW1 9635   5.621   6.601   0.441
 2912SOL    HW2 9636   5.782   6.625   0.431
 2913SOL     OW 9637   3.410   5.033   1.966
 2913SOL    HW1 9638   3.454   4.981   1.894
 2913SOL    HW2 9639   3.459   5.020   2.052
 2914SOL     OW 9640   6.874   6.125   6.562
 2914SOL    HW1 9641   6.910   6.055   6.624
 2914SOL    HW2 9642   6.950   6.165   6.511
 2915SOL     OW 9643   3.667   1.761   3.688
 2915SOL    HW1 9644   3.622   1.845   3.658
 2915SOL    HW2 9645   3.642   1.686   3.626
 2916SOL     OW 9646   1.502   5.285   0.463
 2916SOL    HW1 9647   1.468   5.191   0.460
 2916SOL    HW2 9648   1.545   5.307   0.375
 2917SOL     OW 9649   2.519   0.307   3.420
 2917SOL    HW1 9650   2.481   0.230   3.472
 2917SOL    HW2 9651   2.602   0.277   3.373
 2918SOL     OW 9652   6.192   4.641   5.109
 2918SOL    HW1 9653   6.202   4.564   5.172
 2918SOL    HW2 9654   6.190   4.727   5.160
 2919SOL     OW 9655   5.521   0.325   2.216
 2919SOL    HW1 9656   5.498   0.341   2.313
 2919SOL    HW2 9657   5.618   0.303   2.209
 2920SOL     OW 9658   3.268   1.438   1.090
 2920SOL    HW1 9659   3.331   1.370   1.127
 2920SOL    HW2 9660   3.310   1.482   1.010
 2921SOL     OW 9661   0.800   6.602   4.573
 2921SOL    HW1 9662   0.892   6.567   4.592
 2921SOL    HW2 9663   0.792   6.695   4.610
 2922SOL     OW 9664   4.542   0.258   1.467
 2922SOL    HW1 9665   4.491   0.283   1.549
 2922SOL    HW2 9666   4.555   0.339   1.410
 2923SOL     OW 9667   6.056   5.110   3.126
 2923SOL    HW1 9668   6.072   5.173   3.050
 2923SOL    HW2 9669   6.121   5.128   3.200
 2924SOL     OW 9670   6.480   2.238   5.911
 2924SOL    HW1 9671   6.446   2.146   5.892
 2924SOL    HW2 9672   6.474   2.255   6.010
 2925SOL     OW 9673   4.947   2.252   1.373
 2925SOL    HW1 9674   4.973   2.346   1.348
 2925SOL    HW2 9675   5.025   2.191   1.361
 2926SOL     OW 9676   5.941   1.586   5.990
 2926SOL    HW1 9677   5.918   1.683   5.991
 2926SOL    HW2 9678   5.860   1.532   6.014
 2927SOL     OW 9679   1.616   4.020   1.738
 2927SOL    HW1 9680   1.557   3.975   1.804
 2927SOL    HW2 9681   1.704   3.972   1.734
 2928SOL     OW 9682   0.553   0.728   0.012
 2928SOL    HW1 9683   0.601   0.798   0.065
 2928SOL    HW2 9684   0.479   0.770   6.979
 2929SOL     OW 9685   1.308   2.360   6.303
 2929SOL    HW1 9686   1.220   2.385   6.264
 2929SOL    HW2 9687   1.372   2.337   6.229
 2930SOL     OW 9688   5.428   6.452   5.269
 2930SOL    HW1 9689   5.448   6.373   5.210
 2930SOL    HW2 9690   5.500   6.461   5.338
 2931SOL     OW 9691   5.426   5.062   0.143
 2931SOL    HW1 9692   5.444   4.965   0.126
 2931SOL    HW2 9693   5.445   5.083   0.238
 2932SOL     OW 9694   0.991   5.984   2.158
 2932SOL    HW1 9695   1.049   5.913   2.119
 2932SOL    HW2 9696   0.954   6.041   2.085
 2933SOL     OW 9697   1.073   5.844   2.377
 2933SOL    HW1 9698   1.023   5.871   2.460
 2933SOL    HW2 9699   1.028   5.882   2.297
 2934SOL     OW 9700   5.002   1.283   6.718
 2934SOL    HW1 9701   5.019   1.366   6.771
 2934SOL    HW2 9702   4.904   1.265   6.713
 2935SOL     OW 9703   0.093   2.613   6.551
 2935SOL    HW1 9704   0.053   2.697   6.512
 2935SOL    HW2 9705   0.171   2.638   6.608
 2936SOL     OW 9706   4.489   6.358   0.717
 2936SOL    HW1 9707   4.453   6.301   0.791
 2936SOL    HW2 9708   4.583   6.331   0.697
 2937SOL     OW 9709   5.715   4.364   1.800
 2937SOL    HW1 9710   5.656   4.312   1.739
 2937SOL    HW2 9711   5.660   4.422   1.860
 2938SOL     OW 9712   4.608   5.033   6.649
 2938SOL    HW1 9713   4.565   5.116   6.686
 2938SOL    HW2 9714   4.552   4.997   6.575
 2939SOL     OW 9715   2.571   0.956   2.324
 2939SOL    HW1 9716   2.547   0.955   2.421
 2939SOL    HW2 9717   2.560   0.864   2.286
 2940SOL     OW 9718   5.671   4.607   5.614
 2940SOL    HW1 9719   5.633   4.516   5.627
 2940SOL    HW2 9720   5.624   4.652   5.537
 2941SOL     OW 9721   1.402   2.144   4.376
 2941SOL    HW1 9722   1.478   2.143   4.311
 2941SOL    HW2 9723   1.424   2.084   4.453
 2942SOL     OW 9724   3.881   2.164   0.669
 2942SOL    HW1 9725   3.791   2.147   0.627
 2942SOL    HW2 9726   3.930   2.231   0.613
 2943SOL     OW 9727   5.418   4.195   3.950
 2943SOL    HW1 9728   5.401   4.176   3.853
 2943SOL    HW2 9729   5.512   4.170   3.973
 2944SOL     OW 9730   2.639   6.205   4.232
 2944SOL    HW1 9731   2.556   6.213   4.177
 2944SOL    HW2 9732   2.719   6.214   4.174
 2945SOL     OW 9733   3.320   3.650   2.942
 2945SOL    HW1 9734   3.364   3.565   2.910
 2945SOL    HW2 9735   3.389   3.709   2.984
 2946SOL     OW 9736   1.746   5.004   5.864
 2946SOL    HW1 9737   1.749   4.967   5.771
 2946SOL    HW2 9738   1.799   5.089   5.867
 2947SOL     OW 9739   0.083   4.919   1.286
 2947SOL    HW1 9740   0.114   4.919   1.190
 2947SOL    HW2 9741   0.157   4.889   1.345
 2948SOL     OW 9742   0.438   3.850   4.558
 2948SOL    HW1 9743   0.458   3.754   4.575
 2948SOL    HW2 9744   0.456   3.871   4.462
 2949SOL     OW 9745   1.896   5.339   0.724
 2949SOL    HW1 9746   1.804   5.350   0.762
 2949SOL    HW2 9747   1.911   5.408   0.654
 2950SOL     OW 9748   5.236   5.225   4.239
 2950SOL    HW1 9749   5.188   5.207   4.153
 2950SOL    HW2 9750   5.214   5.317   4.270
 2951SOL     OW 9751   5.205   1.207   2.469
 2951SOL    HW1 9752   5.294   1.247   2.489
 2951SOL    HW2 9753   5.150   1.272   2.418
 2952SOL     OW 9754   6.817   5.270   4.731
 2952SOL    HW1 9755   6.795   5.177   4.762
 2952SOL    HW2 9756   6.821   5.271   4.631
 2953SOL     OW 9757   5.936   4.076   2.611
 2953SOL    HW1 9758   5.996   4.012   2.565
 2953SOL    HW2 9759   5.970   4.169   2.598
 2954SOL     OW 9760   1.055   5.259   2.080
 2954SOL    HW1 9761   1.079   5.305   2.166
 2954SOL    HW2 9762   1.116   5.182   2.065
 2955SOL     OW 9763   0.624   4.150   1.858
 2955SOL    HW1 9764   0.580   4.096   1.786
 2955SOL    HW2 9765   0.706   4.193   1.821
 2956SOL     OW 9766   5.664   5.918   2.969
 2956SOL    HW1 9767   5.608   5.962   3.039
 2956SOL    HW2 9768   5.700   5.831   3.004
 2957SOL     OW 9769   5.425   4.179   1.250
 2957SOL    HW1 9770   5.476   4.150   1.169
 2957SOL    HW2 9771   5.488   4.221   1.315
 2958SOL     OW 9772   2.167   4.086   3.337
 2958SOL    HW1 9773   2.222   4.169   3.322
 2958SOL    HW2 9774   2.183   4.022   3.262
 2959SOL     OW 9775   4.945   3.627   1.055
 2959SOL    HW1 9776   4.924   3.616   1.152
 2959SOL    HW2 9777   4.862   3.652   1.005
 2960SOL     OW 9778   3.059   0.806   0.539
 2960SOL    HW1 9779   3.070   0.903   0.517
 2960SOL    HW2 9780   2.995   0.764   0.474
 2961SOL     OW 9781   5.869   4.742   2.962
 2961SOL    HW1 9782   5.836   4.770   3.052
 2961SOL    HW2 9783   5.905   4.648   2.968
 2962SOL     OW 9784   4.373   6.933   3.025
 2962SOL    HW1 9785   4.386   6.919   2.927
 2962SOL    HW2 9786   4.447   6.889   3.076
 2963SOL     OW 9787   1.953   0.836   6.167
 2963SOL    HW1 9788   2.000   0.869   6.086
 2963SOL    HW2 9789   1.951   0.907   6.237
 2964SOL     OW 9790   0.183   1.188   4.663
 2964SOL    HW1 9791   0.175   1.229   4.572
 2964SOL    HW2 9792   0.273   1.209   4.700
 2965SOL     OW 9793   0.503   0.811   4.533
 2965SOL    HW1 9794   0.542   0.723   4.506
 2965SOL    HW2 9795   0.479   0.808   4.630
 2966SOL     OW 9796   4.280   5.030   3.478
 2966SOL    HW1 9797   4.263   5.015   3.576
 2966SOL    HW2 9798   4.210   4.984   3.425
 2967SOL     OW 9799   6.593   0.812   4.626
 2967SOL    HW1 9800   6.500   0.844   4.603
 2967SOL    HW2 9801   6.593   0.771   4.717
 2968SOL     OW 9802   1.060   2.721   0.768
 2968SOL    HW1 9803   1.043   2.685   0.676
 2968SOL    HW2 9804   1.019   2.811   0.777
 2969SOL     OW 9805   5.268   2.798   4.622
 2969SOL    HW1 9806   5.280   2.722   4.558
 2969SOL    HW2 9807   5.346   2.804   4.683
 2970SOL     OW 9808   2.770   2.590   5.262
 2970SOL    HW1 9809   2.742   2.514   5.203
 2970SOL    HW2 9810   2.692   2.651   5.278
 2971SOL     OW 9811   5.369   4.180   0.053
 2971SOL    HW1 9812   5.343   4.139   0.141
 2971SOL    HW2 9813   5.324   4.130   6.998
 2972SOL     OW 9814   0.003   4.907   6.190
 2972SOL    HW1 9815   6.984   4.968   6.259
 2972SOL    HW2 9816   0.062   4.839   6.233
 2973SOL     OW 9817   5.141   5.950   2.404
 2973SOL    HW1 9818   5.190   5.868   2.433
 2973SOL    HW2 9819   5.042   5.935   2.412
 2974SOL     OW 9820   0.870   4.287   3.602
 2974SOL    HW1 9821   0.954   4.323   3.563
 2974SOL    HW2 9822   0.887   4.258   3.697
 2975SOL     OW 9823   5.259   3.868   3.877
 2975SOL    HW1 9824   5.325   3.846   3.804
 2975SOL    HW2 9825   5.247   3.787   3.935
 2976SOL     OW 9826   3.786   2.157   2.953
 2976SOL    HW1 9827   3.733   2.241   2.945
 2976SOL    HW2 9828   3.731   2.086   2.996
 2977SOL     OW 9829   1.792   0.280   2.873
 2977SOL    HW1 9830   1.761   0.255   2.965
 2977SOL    HW2 9831   1.750   0.219   2.806
 2978SOL     OW 9832   4.102   5.095   6.974
 2978SOL    HW1 9833   4.044   5.019   6.945
 2978SOL    HW2 9834   4.045   5.167   7.014
 2979SOL     OW 9835   3.710   1.260   3.753
 2979SOL    HW1 9836   3.771   1.181   3.748
 2979SOL    HW2 9837   3.764   1.344   3.738
 2980SOL     OW 9838   1.419   5.102   4.911
 2980SOL    HW1 9839   1.494   5.036   4.919
 2980SOL    HW2 9840   1.398   5.139   5.001
 2981SOL     OW 9841   2.725   1.211   6.053
 2981SOL    HW1 9842   2.751   1.128   6.003
 2981SOL    HW2 9843   2.759   1.291   6.004
 2982SOL     OW 9844   2.867   5.625   1.915
 2982SOL    HW1 9845   2.927   5.706   1.914
 2982SOL    HW2 9846   2.923   5.542   1.921
 2983SOL     OW 9847   6.288   2.216   2.918
 2983SOL    HW1 9848   6.256   2.240   3.010
 2983SOL    HW2 9849   6.386   2.233   2.911
 2984SOL     OW 9850   5.926   4.528   0.198
 2984SOL    HW1 9851   5.868   4.489   0.127
 2984SOL    HW2 9852   6.014   4.554   0.159
 2985SOL     OW 9853   1.934   2.810   4.937
 2985SOL    HW1 9854   2.001   2.737   4.925
 2985SOL    HW2 9855   1.885   2.796   5.023
 2986SOL     OW 9856   3.666   4.144   3.273
 2986SOL    HW1 9857   3.587   4.085   3.288
 2986SOL    HW2 9858   3.732   4.130   3.347
 2987SOL     OW 9859   0.849   1.560   4.041
 2987SOL    HW1 9860   0.802   1.569   4.128
 2987SOL    HW2 9861   0.793   1.506   3.978
 2988SOL     OW 9862   1.858   6.142   2.586
 2988SOL    HW1 9863   1.921   6.109   2.516
 2988SOL    HW2 9864   1.856   6.077   2.663
 2989SOL     OW 9865   5.289   5.447   5.682
 2989SOL    HW1 9866   5.349   5.526   5.669
 2989SOL    HW2 9867   5.329   5.367   5.637
 2990SOL     OW 9868   3.664   2.095   4.874
 2990SOL    HW1 9869   3.647   2.004   4.911
 2990SOL    HW2 9870   3.578   2.144   4.865
 2991SOL     OW 9871   6.712   3.695   5.331
 2991SOL    HW1 9872   6.661   3.696   5.246
 2991SOL    HW2 9873   6.649   3.703   5.409
 2992SOL     OW 9874   1.426   5.543   4.610
 2992SOL    HW1 9875   1.484   5.570   4.533
 2992SOL    HW2 9876   1.418   5.443   4.611
 2993SOL     OW 9877   0.852   4.826   1.136
 2993SOL    HW1 9878   0.897   4.864   1.054
 2993SOL    HW2 9879   0.796   4.747   1.110
 2994SOL     OW 9880   3.821   6.508   6.912
 2994SOL    HW1 9881   3.840   6.589   6.968
 2994SOL    HW2 9882   3.744   6.527   6.852
 2995SOL     OW 9883   2.907   1.202   6.627
 2995SOL    HW1 9884   2.863   1.147   6.556
 2995SOL    HW2 9885   2.980   1.257   6.587
 2996SOL     OW 9886   1.099   1.327   5.003
 2996SOL    HW1 9887   1.046   1.409   5.024
 2996SOL    HW2 9888   1.196   1.352   4.995
 2997SOL     OW 9889   5.485   0.251   2.950
 2997SOL    HW1 9890   5.534   0.165   2.944
 2997SOL    HW2 9891   5.471   0.275   3.046
 2998SOL     OW 9892   4.899   6.791   3.697
 2998SOL    HW1 9893   4.852   6.842   3.626
 2998SOL    HW2 9894   4.906   6.694   3.671
 2999SOL     OW 9895   2.226   5.176   5.183
 2999SOL    HW1 9896   2.170   5.101   5.147
 2999SOL    HW2 9897   2.193   5.263   5.147
 3000SOL     OW 9898   3.138   4.165   6.143
 3000SOL    HW1 9899   3.049   4.142   6.181
 3000SOL    HW2 9900   3.138   4.261   6.113
 3001SOL     OW 9901   6.963   0.407   6.067
 3001SOL    HW1 9902   6.956   0.396   6.166
 3001SOL    HW2 9903   6.964   0.317   6.024
 3002SOL     OW 9904   3.207   1.746   6.966
 3002SOL    HW1 9905   3.299   1.744   7.006
 3002SOL    HW2 9906   3.200   1.822   6.903
 3003SOL     OW 9907   1.665   0.055   0.946
 3003SOL    HW1 9908   1.682   0.067   1.043
 3003SOL    HW2 9909   1.625   0.138   0.908
 3004SOL     OW 9910   0.729   3.781   2.740
 3004SOL    HW1 9911   0.666   3.799   2.665
 3004SOL    HW2 9912   0.681   3.733   2.813
 3005SOL     OW 9913   1.761   2.405   6.804
 3005SOL    HW1 9914   1.716   2.344   6.870
 3005SOL    HW2 9915   1.743   2.373   6.711
 3006SOL     OW 9916   5.260   1.458   4.532
 3006SOL    HW1 9917   5.188   1.391   4.514
 3006SOL    HW2 9918   5.349   1.418   4.511
 3007SOL     OW 9919   5.515   4.141   0.769
 3007SOL    HW1 9920   5.417   4.157   0.763
 3007SOL    HW2 9921   5.557   4.151   0.679
 3008SOL     OW 9922   3.614   2.009   6.349
 3008SOL    HW1 9923   3.541   2.077   6.354
 3008SOL    HW2 9924   3.598   1.938   6.417
 3009SOL     OW 9925   6.796   2.333   2.958
 3009SOL    HW1 9926   6.773   2.425   2.989
 3009SOL    HW2 9927   6.874   2.298   3.010
 3010SOL     OW 9928   3.179   5.780   3.474
 3010SOL    HW1 9929   3.111   5.853   3.466
 3010SOL    HW2 9930   3.210   5.774   3.569
 3011SOL     OW 9931   6.008   1.687   2.670
 3011SOL    HW1 9932   6.011   1.730   2.579
 3011SOL    HW2 9933   6.096   1.698   2.716
 3012SOL     OW 9934   1.770   3.443   6.237
 3012SOL    HW1 9935   1.762   3.385   6.156
 3012SOL    HW2 9936   1.862   3.483   6.239
 3013SOL     OW 9937   5.275   5.933   3.898
 3013SOL    HW1 9938   5.367   5.898   3.883
 3013SOL    HW2 9939   5.212   5.857   3.914
 3014SOL     OW 9940   4.876   2.418   4.966
 3014SOL    HW1 9941   4.933   2.404   5.047
 3014SOL    HW2 9942   4.902   2.503   4.921
 3015SOL     OW 9943   2.818   1.976   0.172
 3015SOL    HW1 9944   2.833   2.050   0.238
 3015SOL    HW2 9945   2.728   1.988   0.129
 3016SOL     OW 9946   2.712   6.476   4.012
 3016SOL    HW1 9947   2.723   6.399   4.074
 3016SOL    HW2 9948   2.790   6.478   3.948
 3017SOL     OW 9949   5.821   5.667   2.127
 3017SOL    HW1 9950   5.791   5.760   2.146
 3017SOL    HW2 9951   5.766   5.628   2.053
 3018SOL     OW 9952   2.696   6.983   5.649
 3018SOL    HW1 9953   2.684   6.887   5.671
 3018SOL    HW2 9954   2.606   0.006   5.635
 3019SOL     OW 9955   0.454   6.777   0.065
 3019SOL    HW1 9956   0.475   6.827   7.000
 3019SOL    HW2 9957   0.510   6.694   0.069
 3020SOL     OW 9958   4.025   2.427   1.250
 3020SOL    HW1 9959   3.988   2.418   1.343
 3020SOL    HW2 9960   3.985   2.357   1.191
 3021SOL     OW 9961   3.015   0.187   5.888
 3021SOL    HW1 9962   3.062   0.269   5.922
 3021SOL    HW2 9963   3.074   0.108   5.899
 3022SOL     OW 9964   4.086   5.423   5.104
 3022SOL    HW1 9965   4.129   5.362   5.170
 3022SOL    HW2 9966   4.155   5.458   5.040
 3023SOL     OW 9967   3.984   6.737   3.279
 3023SOL    HW1 9968   4.017   6.794   3.203
 3023SOL    HW2 9969   3.931   6.794   3.342
 3024SOL     OW 9970   4.915   6.470   5.239
 3024SOL    HW1 9971   4.900   6.559   5.281
 3024SOL    HW2 9972   4.951   6.481   5.147
 3025SOL     OW 9973   4.451   6.447   1.009
 3025SOL    HW1 9974   4.508   6.493   1.078
 3025SOL    HW2 9975   4.456   6.497   0.923
 3026SOL     OW 9976   1.446   0.817   6.100
 3026SOL    HW1 9977   1.399   0.815   6.011
 3026SOL    HW2 9978   1.380   0.841   6.172
 3027SOL     OW 9979   4.483   1.248   3.052
 3027SOL    HW1 9980   4.424   1.329   3.046
 3027SOL    HW2 9981   4.437   1.171   3.008
 3028SOL     OW 9982   1.732   3.635   5.924
 3028SOL    HW1 9983   1.702   3.728   5.946
 3028SOL    HW2 9984   1.653   3.576   5.911
 3029SOL     OW 9985   0.439   2.805   5.009
 3029SOL    HW1 9986   0.510   2.813   5.079
 3029SOL    HW2 9987   0.465   2.734   4.943
 3030SOL     OW 9988   0.553   3.405   0.263
 3030SOL    HW1 9989   0.593   3.314   0.246
 3030SOL    HW2 9990   0.623   3.475   0.252
 3031SOL     OW 9991   0.286   4.866   1.456
 3031SOL    HW1 9992   0.353   4.819   1.399
 3031SOL    HW2 9993   0.334   4.925   1.521
 3032SOL     OW 9994   2.745   6.681   1.403
 3032SOL    HW1 9995   2.797   6.602   1.370
 3032SOL    HW2 9996   2.672   6.703   1.339
 3033SOL     OW 9997   5.526   1.463   1.468
 3033SOL    HW1 9998   5.596   1.394   1.449
 3033SOL    HW2 9999   5.501   1.459   1.565
 3034SOL     OW10000   1.150   6.848   2.630
 3034SOL    HW110001   1.104   6.805   2.552
 3034SOL    HW210002   1.190   6.935   2.602
 3035SOL     OW10003   0.336   2.740   6.040
 3035SOL    HW110004   0.423   2.715   5.998
 3035SOL    HW210005   0.321   2.685   6.122
 3036SOL     OW10006   2.215   1.381   6.084
 3036SOL    HW110007   2.174   1.354   6.171
 3036SOL    HW210008   2.295   1.439   6.101
 3037SOL     OW10009   6.224   5.488   6.273
 3037SOL    HW110010   6.233   5.389   6.262
 3037SOL    HW210011   6.251   5.515   6.365
 3038SOL     OW10012   5.118   5.684   5.878
 3038SOL    HW110013   5.019   5.670   5.880
 3038SOL    HW210014   5.158   5.625   5.808
 3039SOL     OW10015   0.329   3.714   0.677
 3039SOL    HW110016   0.348   3.616   0.684
 3039SOL    HW210017   0.244   3.728   0.626
 3040SOL     OW10018   3.416   4.112   5.756
 3040SOL    HW110019   3.445   4.053   5.680
 3040SOL    HW210020   3.322   4.089   5.783
 3041SOL     OW10021   2.129   3.172   5.261
 3041SOL    HW110022   2.134   3.246   5.194
 3041SOL    HW210023   2.185   3.196   5.341
 3042SOL     OW10024   5.513   5.609   3.063
 3042SOL    HW110025   5.598   5.630   3.111
 3042SOL    HW210026   5.530   5.611   2.964
 3043SOL     OW10027   2.847   4.067   1.737
 3043SOL    HW110028   2.881   3.996   1.676
 3043SOL    HW210029   2.912   4.080   1.812
 3044SOL     OW10030   3.450   4.751   5.784
 3044SOL    HW110031   3.487   4.718   5.870
 3044SOL    HW210032   3.359   4.791   5.800
 3045SOL     OW10033   4.634   6.807   2.935
 3045SOL    HW110034   4.647   6.822   3.033
 3045SOL    HW210035   4.666   6.715   2.911
 3046SOL     OW10036   2.595   0.896   5.534
 3046SOL    HW110037   2.561   0.835   5.605
 3046SOL    HW210038   2.638   0.842   5.462
 3047SOL     OW10039   5.837   0.679   1.616
 3047SOL    HW110040   5.764   0.612   1.601
 3047SOL    HW210041   5.839   0.706   1.712
 3048SOL     OW10042   3.925   2.326   1.467
 3048SOL    HW110043   3.863   2.289   1.536
 3048SOL    HW210044   3.977   2.251   1.426
 3049SOL     OW10045   1.208   0.307   2.899
 3049SOL    HW110046   1.150   0.388   2.911
 3049SOL    HW210047   1.151   0.225   2.894
 3050SOL     OW10048   3.251   1.634   2.088
 3050SOL    HW110049   3.274   1.727   2.058
 3050SOL    HW210050   3.229   1.578   2.008
 3051SOL     OW10051   2.109   5.514   6.364
 3051SOL    HW110052   2.080   5.606   6.340
 3051SOL    HW210053   2.035   5.466   6.412
 3052SOL     OW10054   4.899   5.602   1.989
 3052SOL    HW110055   4.961   5.642   2.056
 3052SOL    HW210056   4.866   5.514   2.024
 3053SOL     OW10057   6.950   2.459   0.851
 3053SOL    HW110058   6.865   2.415   0.879
 3053SOL    HW210059   7.007   2.475   0.931
 3054SOL     OW10060   6.491   2.384   1.007
 3054SOL    HW110061   6.460   2.455   0.944
 3054SOL    HW210062   6.557   2.422   1.071
 3055SOL     OW10063   4.993   0.051   5.181
 3055SOL    HW110064   4.950   0.075   5.268
 3055SOL    HW210065   5.086   0.020   5.196
 3056SOL     OW10066   6.192   0.811   5.627
 3056SOL    HW110067   6.134   0.814   5.547
 3056SOL    HW210068   6.269   0.749   5.611
 3057SOL     OW10069   4.384   5.630   3.281
 3057SOL    HW110070   4.287   5.603   3.280
 3057SOL    HW210071   4.391   5.724   3.316
 3058SOL     OW10072   0.207   4.348   1.182
 3058SOL    HW110073   0.290   4.347   1.125
 3058SOL    HW210074   0.209   4.270   1.244
 3059SOL     OW10075   2.920   2.223   4.003
 3059SOL    HW110076   2.901   2.274   3.919
 3059SOL    HW210077   2.840   2.222   4.062
 3060SOL     OW10078   1.451   4.998   0.523
 3060SOL    HW110079   1.360   5.005   0.484
 3060SOL    HW210080   1.502   4.925   0.478
 3061SOL     OW10081   6.832   5.718   5.676
 3061SOL    HW110082   6.909   5.757   5.626
 3061SOL    HW210083   6.828   5.758   5.767
 3062SOL     OW10084   2.777   0.748   0.867
 3062SOL    HW110085   2.777   0.805   0.784
 3062SOL    HW210086   2.684   0.746   0.905
 3063SOL     OW10087   1.684   5.362   2.512
 3063SOL    HW110088   1.771   5.397   2.477
 3063SOL    HW210089   1.701   5.289   2.578
 3064SOL     OW10090   4.892   3.707   1.313
 3064SOL    HW110091   4.802   3.717   1.354
 3064SOL    HW210092   4.961   3.703   1.386
 3065SOL     OW10093   1.800   1.924   6.134
 3065SOL    HW110094   1.827   1.981   6.212
 3065SOL    HW210095   1.882   1.889   6.089
 3066SOL     OW10096   4.999   4.641   0.259
 3066SOL    HW110097   4.918   4.652   0.202
 3066SOL    HW210098   4.974   4.655   0.355
 3067SOL     OW10099   4.055   0.496   5.983
 3067SOL    HW110100   4.090   0.524   6.072
 3067SOL    HW210101   3.965   0.453   5.995
 3068SOL     OW10102   6.890   6.543   0.808
 3068SOL    HW110103   6.913   6.545   0.905
 3068SOL    HW210104   6.974   6.537   0.754
 3069SOL     OW10105   6.781   6.454   1.738
 3069SOL    HW110106   6.689   6.493   1.750
 3069SOL    HW210107   6.787   6.368   1.789
 3070SOL     OW10108   3.050   1.322   0.096
 3070SOL    HW110109   3.142   1.284   0.103
 3070SOL    HW210110   3.001   1.280   0.020
 3071SOL     OW10111   6.989   6.510   3.607
 3071SOL    HW110112   0.065   6.520   3.578
 3071SOL    HW210113   6.944   6.440   3.551
 3072SOL     OW10114   2.596   5.802   6.048
 3072SOL    HW110115   2.594   5.865   6.125
 3072SOL    HW210116   2.629   5.713   6.078
 3073SOL     OW10117   6.523   3.605   4.487
 3073SOL    HW110118   6.503   3.577   4.581
 3073SOL    HW210119   6.447   3.579   4.427
 3074SOL     OW10120   6.267   3.612   1.317
 3074SOL    HW110121   6.315   3.671   1.253
 3074SOL    HW210122   6.314   3.613   1.405
 3075SOL     OW10123   2.540   5.487   1.557
 3075SOL    HW110124   2.530   5.418   1.486
 3075SOL    HW210125   2.615   5.463   1.618
 3076SOL     OW10126   5.984   0.780   3.172
 3076SOL    HW110127   5.977   0.742   3.080
 3076SOL    HW210128   6.044   0.722   3.227
 3077SOL     OW10129   6.153   4.439   1.485
 3077SOL    HW110130   6.155   4.519   1.544
 3077SOL    HW210131   6.061   4.428   1.446
 3078SOL     OW10132   0.177   3.085   2.694
 3078SOL    HW110133   0.142   3.120   2.781
 3078SOL    HW210134   0.113   3.018   2.657
 3079SOL     OW10135   2.780   2.314   2.750
 3079SOL    HW110136   2.768   2.410   2.775
 3079SOL    HW210137   2.693   2.277   2.717
 3080SOL     OW10138   5.504   5.159   2.281
 3080SOL    HW110139   5.556   5.177   2.197
 3080SOL    HW210140   5.524   5.230   2.349
 3081SOL     OW10141   1.094   2.697   5.761
 3081SOL    HW110142   1.101   2.794   5.785
 3081SOL    HW210143   1.085   2.689   5.662
 3082SOL     OW10144   1.808   5.666   4.100
 3082SOL    HW110145   1.834   5.739   4.036
 3082SOL    HW210146   1.756   5.596   4.050
 3083SOL     OW10147   2.967   6.437   3.861
 3083SOL    HW110148   3.013   6.355   3.896
 3083SOL    HW210149   2.989   6.448   3.764
 3084SOL     OW10150   6.793   3.962   4.581
 3084SOL    HW110151   6.793   4.002   4.489
 3084SOL    HW210152   6.845   3.877   4.581
 3085SOL     OW10153   5.584   4.093   0.233
 3085SOL    HW110154   5.613   4.039   0.312
 3085SOL    HW210155   5.664   4.122   0.180
 3086SOL     OW10156   5.390   1.425   1.180
 3086SOL    HW110157   5.490   1.427   1.179
 3086SOL    HW210158   5.356   1.506   1.227
 3087SOL     OW10159   1.568   5.895   3.868
 3087SOL    HW110160   1.588   5.879   3.965
 3087SOL    HW210161   1.649   5.872   3.814
 3088SOL     OW10162   2.113   4.980   4.979
 3088SOL    HW110163   2.143   4.886   4.966
 3088SOL    HW210164   2.086   5.020   4.892
 3089SOL     OW10165   3.053   2.072   5.541
 3089SOL    HW110166   3.074   1.987   5.492
 3089SOL    HW210167   3.038   2.146   5.476
 3090SOL     OW10168   2.435   1.687   1.618
 3090SOL    HW110169   2.531   1.714   1.611
 3090SOL    HW210170   2.429   1.593   1.652
 3091SOL     OW10171   1.676   0.869   1.458
 3091SOL    HW110172   1.577   0.874   1.452
 3091SOL    HW210173   1.706   0.887   1.551
 3092SOL     OW10174   5.404   1.471   0.530
 3092SOL    HW110175   5.501   1.462   0.552
 3092SOL    HW210176   5.349   1.450   0.611
 3093SOL     OW10177   5.757   6.130   6.304
 3093SOL    HW110178   5.683   6.159   6.364
 3093SOL    HW210179   5.785   6.037   6.328
 3094SOL     OW10180   2.451   0.466   4.377
 3094SOL    HW110181   2.534   0.449   4.431
 3094SOL    HW210182   2.380   0.501   4.438
 3095SOL     OW10183   2.276   4.633   5.649
 3095SOL    HW110184   2.356   4.607   5.703
 3095SOL    HW210185   2.303   4.696   5.577
 3096SOL     OW10186   0.967   5.142   5.432
 3096SOL    HW110187   1.053   5.129   5.384
 3096SOL    HW210188   0.954   5.239   5.451
 3097SOL     OW10189   5.783   2.832   6.738
 3097SOL    HW110190   5.800   2.857   6.643
 3097SOL    HW210191   5.802   2.910   6.797
 3098SOL     OW10192   2.068   2.378   1.101
 3098SOL    HW110193   2.052   2.297   1.045
 3098SOL    HW210194   1.980   2.412   1.135
 3099SOL     OW10195   0.675   0.024   3.882
 3099SOL    HW110196   0.750   0.030   3.815
 3099SOL    HW210197   0.690   0.090   3.955
 3100SOL     OW10198   0.171   0.118   3.604
 3100SOL    HW110199   0.250   0.058   3.607
 3100SOL    HW210200   0.158   0.150   3.510
 3101SOL     OW10201   6.170   5.971   0.023
 3101SOL    HW110202   6.106   6.002   6.972
 3101SOL    HW210203   6.238   6.042   0.040
 3102SOL     OW10204   6.268   5.712   1.958
 3102SOL    HW110205   6.179   5.724   2.002
 3102SOL    HW210206   6.326   5.790   1.980
 3103SOL     OW10207   4.276   0.870   2.001
 3103SOL    HW110208   4.282   0.832   1.908
 3103SOL    HW210209   4.328   0.955   2.005
 3104SOL     OW10210   5.149   0.681   5.491
 3104SOL    HW110211   5.115   0.600   5.442
 3104SOL    HW210212   5.164   0.755   5.426
 3105SOL     OW10213   5.902   4.138   1.356
 3105SOL    HW110214   5.911   4.238   1.363
 3105SOL    HW210215   5.838   4.116   1.283
 3106SOL     OW10216   5.203   0.257   3.866
 3106SOL    HW110217   5.264   0.315   3.813
 3106SOL    HW210218   5.183   0.300   3.954
 3107SOL     OW10219   4.315   1.093   5.182
 3107SOL    HW110220   4.275   1.033   5.252
 3107SOL    HW210221   4.389   1.146   5.222
 3108SOL     OW10222   1.563   5.627   4.308
 3108SOL    HW110223   1.561   5.707   4.248
 3108SOL    HW210224   1.657   5.607   4.335
 3109SOL     OW10225   5.367   6.136   4.094
 3109SOL    HW110226   5.318   6.091   4.020
 3109SOL    HW210227   5.308   6.205   4.136
 3110SOL     OW10228   1.091   3.294   2.998
 3110SOL    HW110229   1.096   3.261   2.903
 3110SOL    HW210230   1.181   3.326   3.026
 3111SOL     OW10231   0.076   4.738   3.378
 3111SOL    HW110232   0.005   4.763   3.443
 3111SOL    HW210233   0.080   4.638   3.370
 3112SOL     OW10234   3.938   2.967   6.955
 3112SOL    HW110235   4.032   2.935   6.966
 3112SOL    HW210236   3.884   2.895   6.912
 3113SOL     OW10237   2.710   4.646   3.845
 3113SOL    HW110238   2.688   4.566   3.900
 3113SOL    HW210239   2.627   4.679   3.799
 3114SOL     OW10240   4.051   1.950   0.900
 3114SOL    HW110241   3.973   1.895   0.870
 3114SOL    HW210242   4.102   1.983   0.820
 3115SOL     OW10243   4.229   4.561   6.312
 3115SOL    HW110244   4.139   4.598   6.336
 3115SOL    HW210245   4.300   4.612   6.360
 3116SOL     OW10246   6.507   2.782   0.331
 3116SOL    HW110247   6.542   2.746   0.417
 3116SOL    HW210248   6.452   2.864   0.348
 3117SOL     OW10249   4.823   3.638   5.392
 3117SOL    HW110250   4.769   3.605   5.314
 3117SOL    HW210251   4.884   3.712   5.362
 3118SOL     OW10252   0.388   5.793   2.447
 3118SOL    HW110253   0.316   5.858   2.473
 3118SOL    HW210254   0.362   5.747   2.362
 3119SOL     OW10255   2.187   2.906   6.841
 3119SOL    HW110256   2.271   2.940   6.883
 3119SOL    HW210257   2.163   2.817   6.881
 3120SOL     OW10258   2.995   0.361   6.198
 3120SOL    HW110259   3.054   0.388   6.122
 3120SOL    HW210260   2.906   0.405   6.190
 3121SOL     OW10261   6.934   1.156   4.001
 3121SOL    HW110262   6.909   1.228   4.064
 3121SOL    HW210263   6.902   1.068   4.036
 3122SOL     OW10264   3.866   5.359   6.626
 3122SOL    HW110265   3.959   5.324   6.636
 3122SOL    HW210266   3.803   5.306   6.683
 3123SOL     OW10267   1.895   1.999   3.238
 3123SOL    HW110268   1.969   2.021   3.175
 3123SOL    HW210269   1.811   1.983   3.186
 3124SOL     OW10270   4.754   6.280   4.670
 3124SOL    HW110271   4.784   6.187   4.692
 3124SOL    HW210272   4.690   6.312   4.740
 3125SOL     OW10273   1.038   3.004   5.003
 3125SOL    HW110274   0.986   3.043   4.927
 3125SOL    HW210275   1.029   2.904   5.002
 3126SOL     OW10276   6.087   4.209   5.617
 3126SOL    HW110277   6.042   4.151   5.685
 3126SOL    HW210278   6.027   4.285   5.593
 3127SOL     OW10279   1.476   2.566   5.783
 3127SOL    HW110280   1.396   2.515   5.814
 3127SOL    HW210281   1.551   2.502   5.765
 3128SOL     OW10282   2.852   0.393   6.644
 3128SOL    HW110283   2.939   0.420   6.603
 3128SOL    HW210284   2.777   0.440   6.597
 3129SOL     OW10285   6.503   3.565   7.009
 3129SOL    HW110286   6.526   3.569   6.912
 3129SOL    HW210287   6.578   3.522   0.040
 3130SOL     OW10288   2.093   4.488   2.004
 3130SOL    HW110289   2.082   4.543   1.921
 3130SOL    HW210290   2.004   4.450   2.031
 3131SOL     OW10291   0.240   2.960   1.818
 3131SOL    HW110292   0.198   3.042   1.856
 3131SOL    HW210293   0.271   2.979   1.725
 3132SOL     OW10294   4.119   5.648   6.624
 3132SOL    HW110295   4.058   5.590   6.677
 3132SOL    HW210296   4.076   5.672   6.537
 3133SOL     OW10297   3.087   1.375   3.129
 3133SOL    HW110298   3.019   1.415   3.068
 3133SOL    HW210299   3.114   1.443   3.198
 3134SOL     OW10300   4.633   3.725   1.690
 3134SOL    HW110301   4.643   3.721   1.590
 3134SOL    HW210302   4.570   3.799   1.714
 3135SOL     OW10303   4.613   0.381   5.503
 3135SOL    HW110304   4.589   0.470   5.541
 3135SOL    HW210305   4.648   0.394   5.410
 3136SOL     OW10306   5.396   0.770   2.201
 3136SOL    HW110307   5.377   0.844   2.137
 3136SOL    HW210308   5.339   0.781   2.283
 3137SOL     OW10309   6.401   0.626   2.205
 3137SOL    HW110310   6.483   0.583   2.241
 3137SOL    HW210311   6.426   0.709   2.154
 3138SOL     OW10312   6.541   4.850   3.194
 3138SOL    HW110313   6.455   4.839   3.243
 3138SOL    HW210314   6.567   4.947   3.193
 3139SOL     OW10315   4.594   5.661   0.717
 3139SOL    HW110316   4.523   5.721   0.681
 3139SOL    HW210317   4.628   5.602   0.644
 3140SOL     OW10318   6.722   0.051   0.301
 3140SOL    HW110319   6.636   0.022   0.259
 3140SOL    HW210320   6.796   7.011   0.271
 3141SOL     OW10321   0.727   6.923   6.821
 3141SOL    HW110322   0.760   7.003   6.772
 3141SOL    HW210323   0.758   6.840   6.775
 3142SOL     OW10324   3.268   0.079   2.304
 3142SOL    HW110325   3.310   7.009   2.286
 3142SOL    HW210326   3.280   0.103   2.400
 3143SOL     OW10327   6.533   1.910   0.465
 3143SOL    HW110328   6.517   1.998   0.507
 3143SOL    HW210329   6.561   1.923   0.369
 3144SOL     OW10330   3.910   3.771   1.210
 3144SOL    HW110331   3.818   3.808   1.197
 3144SOL    HW210332   3.904   3.672   1.220
 3145SOL     OW10333   2.469   5.977   2.006
 3145SOL    HW110334   2.554   5.941   1.968
 3145SOL    HW210335   2.398   5.975   1.936
 3146SOL     OW10336   1.444   1.359   4.577
 3146SOL    HW110337   1.419   1.292   4.508
 3146SOL    HW210338   1.413   1.450   4.548
 3147SOL     OW10339   3.042   5.608   1.034
 3147SOL    HW110340   2.955   5.635   1.076
 3147SOL    HW210341   3.036   5.621   0.935
 3148SOL     OW10342   6.058   6.773   3.474
 3148SOL    HW110343   6.013   6.801   3.559
 3148SOL    HW210344   6.104   6.852   3.434
 3149SOL     OW10345   3.390   0.337   5.508
 3149SOL    HW110346   3.393   0.427   5.464
 3149SOL    HW210347   3.425   0.267   5.445
 3150SOL     OW10348   5.957   5.372   4.642
 3150SOL    HW110349   6.019   5.383   4.564
 3150SOL    HW210350   6.010   5.344   4.723
 3151SOL     OW10351   6.818   0.727   5.108
 3151SOL    HW110352   6.802   0.826   5.104
 3151SOL    HW210353   6.872   0.699   5.029
 3152SOL     OW10354   1.037   5.339   0.950
 3152SOL    HW110355   1.077   5.373   1.035
 3152SOL    HW210356   0.973   5.266   0.970
 3153SOL     OW10357   6.251   5.358   0.752
 3153SOL    HW110358   6.201   5.297   0.813
 3153SOL    HW210359   6.304   5.305   0.687
 3154SOL     OW10360   0.387   1.855   6.690
 3154SOL    HW110361   0.475   1.877   6.733
 3154SOL    HW210362   0.362   1.928   6.626
 3155SOL     OW10363   6.543   4.069   0.170
 3155SOL    HW110364   6.605   4.143   0.144
 3155SOL    HW210365   6.577   3.982   0.134
 3156SOL     OW10366   3.587   3.068   3.083
 3156SOL    HW110367   3.584   3.052   3.181
 3156SOL    HW210368   3.517   3.135   3.058
 3157SOL     OW10369   2.788   2.035   5.131
 3157SOL    HW110370   2.770   1.946   5.172
 3157SOL    HW210371   2.704   2.089   5.130
 3158SOL     OW10372   3.316   1.735   3.580
 3158SOL    HW110373   3.350   1.790   3.503
 3158SOL    HW210374   3.236   1.683   3.551
 3159SOL     OW10375   6.340   0.690   0.186
 3159SOL    HW110376   6.263   0.628   0.169
 3159SOL    HW210377   6.307   0.773   0.230
 3160SOL     OW10378   0.605   6.081   5.550
 3160SOL    HW110379   0.646   6.099   5.639
 3160SOL    HW210380   0.662   6.016   5.499
 3161SOL     OW10381   2.428   2.497   2.803
 3161SOL    HW110382   2.387   2.443   2.876
 3161SOL    HW210383   2.476   2.575   2.843
 3162SOL     OW10384   1.441   6.230   1.435
 3162SOL    HW110385   1.434   6.291   1.515
 3162SOL    HW210386   1.440   6.135   1.466
 3163SOL     OW10387   4.872   2.767   6.282
 3163SOL    HW110388   4.967   2.743   6.300
 3163SOL    HW210389   4.862   2.795   6.186
 3164SOL     OW10390   4.186   5.487   1.658
 3164SOL    HW110391   4.232   5.557   1.604
 3164SOL    HW210392   4.114   5.444   1.604
 3165SOL     OW10393   1.117   6.757   0.930
 3165SOL    HW110394   1.019   6.776   0.921
 3165SOL    HW210395   1.161   6.831   0.980
 3166SOL     OW10396   4.052   2.225   4.305
 3166SOL    HW110397   3.985   2.272   4.362
 3166SOL    HW210398   4.144   2.252   4.332
 3167SOL     OW10399   6.764   4.320   0.483
 3167SOL    HW110400   6.717   4.269   0.555
 3167SOL    HW210401   6.837   4.263   0.445
 3168SOL     OW10402   5.099   2.807   7.012
 3168SOL    HW110403   5.136   2.844   6.927
 3168SOL    HW210404   5.169   2.813   0.064
 3169SOL     OW10405   2.030   4.219   3.952
 3169SOL    HW110406   2.117   4.191   3.991
 3169SOL    HW210407   1.994   4.146   3.894
 3170SOL     OW10408   4.593   6.087   1.362
 3170SOL    HW110409   4.575   6.134   1.276
 3170SOL    HW210410   4.658   6.140   1.416
 3171SOL     OW10411   0.166   0.601   2.270
 3171SOL    HW110412   0.152   0.700   2.258
 3171SOL    HW210413   0.083   0.553   2.241
 3172SOL     OW10414   0.003   5.531   0.410
 3172SOL    HW110415   6.931   5.520   0.368
 3172SOL    HW210416   0.072   5.489   0.352
 3173SOL     OW10417   2.808   2.133   0.636
 3173SOL    HW110418   2.800   2.040   0.671
 3173SOL    HW210419   2.891   2.175   0.672
 3174SOL     OW10420   3.293   2.450   0.631
 3174SOL    HW110421   3.224   2.451   0.558
 3174SOL    HW210422   3.278   2.371   0.691
 3175SOL     OW10423   6.060   1.109   1.622
 3175SOL    HW110424   6.089   1.013   1.631
 3175SOL    HW210425   5.961   1.115   1.630
 3176SOL     OW10426   1.539   4.122   5.766
 3176SOL    HW110427   1.632   4.157   5.778
 3176SOL    HW210428   1.538   4.056   5.691
 3177SOL     OW10429   5.125   4.060   4.035
 3177SOL    HW110430   5.174   3.980   3.998
 3177SOL    HW210431   5.151   4.074   4.130
 3178SOL     OW10432   6.430   2.164   0.579
 3178SOL    HW110433   6.427   2.263   0.561
 3178SOL    HW210434   6.403   2.147   0.674
 3179SOL     OW10435   0.800   3.258   1.814
 3179SOL    HW110436   0.791   3.319   1.735
 3179SOL    HW210437   0.793   3.311   1.898
 3180SOL     OW10438   4.831   1.016   6.453
 3180SOL    HW110439   4.743   1.060   6.440
 3180SOL    HW210440   4.817   0.919   6.471
 3181SOL     OW10441   0.082   2.236   3.734
 3181SOL    HW110442   0.173   2.196   3.748
 3181SOL    HW210443   0.059   2.231   3.637
 3182SOL     OW10444   3.070   0.192   6.405
 3182SOL    HW110445   3.148   0.147   6.362
 3182SOL    HW210446   3.041   0.269   6.348
 3183SOL     OW10447   4.506   3.988   1.681
 3183SOL    HW110448   4.436   3.940   1.627
 3183SOL    HW210449   4.463   4.061   1.734
 3184SOL     OW10450   0.962   3.945   2.801
 3184SOL    HW110451   0.876   3.906   2.769
 3184SOL    HW210452   1.031   3.937   2.730
 3185SOL     OW10453   5.422   5.983   6.898
 3185SOL    HW110454   5.513   5.951   6.926
 3185SOL    HW210455   5.403   5.950   6.805
 3186SOL     OW10456   3.330   1.850   1.562
 3186SOL    HW110457   3.317   1.948   1.578
 3186SOL    HW210458   3.428   1.830   1.557
 3187SOL     OW10459   4.602   4.416   0.846
 3187SOL    HW110460   4.540   4.490   0.819
 3187SOL    HW210461   4.639   4.372   0.765
 3188SOL     OW10462   2.086   0.479   4.307
 3188SOL    HW110463   2.106   0.500   4.402
 3188SOL    HW210464   2.148   0.407   4.275
 3189SOL     OW10465   1.512   1.293   1.573
 3189SOL    HW110466   1.588   1.311   1.511
 3189SOL    HW210467   1.547   1.279   1.666
 3190SOL     OW10468   0.265   5.731   0.342
 3190SOL    HW110469   0.208   5.702   0.266
 3190SOL    HW210470   0.226   5.813   0.383
 3191SOL     OW10471   5.174   5.563   1.032
 3191SOL    HW110472   5.123   5.622   0.970
 3191SOL    HW210473   5.124   5.477   1.044
 3192SOL     OW10474   0.304   2.371   1.491
 3192SOL    HW110475   0.356   2.357   1.575
 3192SOL    HW210476   0.209   2.344   1.506
 3193SOL     OW10477   3.797   1.245   6.822
 3193SOL    HW110478   3.742   1.249   6.906
 3193SOL    HW210479   3.766   1.316   6.759
 3194SOL     OW10480   2.051   2.271   6.347
 3194SOL    HW110481   1.979   2.339   6.329
 3194SOL    HW210482   2.069   2.219   6.264
 3195SOL     OW10483   2.882   1.412   2.946
 3195SOL    HW110484   2.819   1.473   2.899
 3195SOL    HW210485   2.974   1.421   2.908
 3196SOL     OW10486   0.567   0.837   6.550
 3196SOL    HW110487   0.641   0.832   6.618
 3196SOL    HW210488   0.561   0.749   6.503
 3197SOL     OW10489   2.492   6.648   3.510
 3197SOL    HW110490   2.528   6.583   3.577
 3197SOL    HW210491   2.567   6.682   3.453
 3198SOL     OW10492   6.167   3.093   4.773
 3198SOL    HW110493   6.109   3.149   4.832
 3198SOL    HW210494   6.184   3.005   4.817
 3199SOL     OW10495   4.853   3.931   2.267
 3199SOL    HW110496   4.838   4.016   2.216
 3199SOL    HW210497   4.949   3.923   2.291
 3200SOL     OW10498   6.023   3.035   1.696
 3200SOL    HW110499   6.071   3.052   1.782
 3200SOL    HW210500   6.062   2.956   1.650
 3201SOL     OW10501   5.669   4.847   4.318
 3201SOL    HW110502   5.735   4.858   4.392
 3201SOL    HW210503   5.577   4.837   4.356
 3202SOL     OW10504   0.555   4.713   2.031
 3202SOL    HW110505   0.536   4.789   2.094
 3202SOL    HW210506   0.644   4.727   1.988
 3203SOL     OW10507   6.488   2.533   0.249
 3203SOL    HW110508   6.445   2.520   0.160
 3203SOL    HW210509   6.487   2.630   0.273
 3204SOL     OW10510   4.416   6.393   2.321
 3204SOL    HW110511   4.406   6.419   2.417
 3204SOL    HW210512   4.393   6.471   2.262
 3205SOL     OW10513   6.411   3.014   6.283
 3205SOL    HW110514   6.500   3.021   6.239
 3205SOL    HW210515   6.380   3.104   6.312
 3206SOL     OW10516   1.319   6.173   6.281
 3206SOL    HW110517   1.324   6.244   6.351
 3206SOL    HW210518   1.245   6.109   6.303
 3207SOL     OW10519   0.829   0.212   5.898
 3207SOL    HW110520   0.822   0.135   5.835
 3207SOL    HW210521   0.847   0.296   5.847
 3208SOL     OW10522   4.866   5.613   5.881
 3208SOL    HW110523   4.776   5.573   5.897
 3208SOL    HW210524   4.884   5.615   5.782
 3209SOL     OW10525   4.473   6.283   3.278
 3209SOL    HW110526   4.400   6.233   3.324
 3209SOL    HW210527   4.450   6.380   3.273
 3210SOL     OW10528   0.872   4.754   1.554
 3210SOL    HW110529   0.885   4.821   1.480
 3210SOL    HW210530   0.929   4.780   1.632
 3211SOL     OW10531   1.807   3.697   0.973
 3211SOL    HW110532   1.861   3.780   0.969
 3211SOL    HW210533   1.843   3.636   1.044
 3212SOL     OW10534   3.325   0.872   1.259
 3212SOL    HW110535   3.344   0.940   1.188
 3212SOL    HW210536   3.304   0.784   1.215
 3213SOL     OW10537   1.144   5.797   1.281
 3213SOL    HW110538   1.194   5.849   1.211
 3213SOL    HW210539   1.092   5.861   1.338
 3214SOL     OW10540   4.636   5.191   0.622
 3214SOL    HW110541   4.729   5.220   0.600
 3214SOL    HW210542   4.619   5.101   0.582
 3215SOL     OW10543   6.924   2.838   0.498
 3215SOL    HW110544   6.899   2.755   0.548
 3215SOL    HW210545   6.841   2.889   0.473
 3216SOL     OW10546   6.116   5.009   0.626
 3216SOL    HW110547   6.165   5.074   0.684
 3216SOL    HW210548   6.038   4.972   0.677
 3217SOL     OW10549   0.106   5.642   2.381
 3217SOL    HW110550   0.167   5.647   2.301
 3217SOL    HW210551   0.041   5.717   2.378
 3218SOL     OW10552   4.552   2.265   3.611
 3218SOL    HW110553   4.511   2.212   3.685
 3218SOL    HW210554   4.629   2.214   3.571
 3219SOL     OW10555   0.363   2.222   3.739
 3219SOL    HW110556   0.370   2.264   3.648
 3219SOL    HW210557   0.435   2.258   3.798
 3220SOL     OW10558   6.531   5.425   6.444
 3220SOL    HW110559   6.547   5.501   6.508
 3220SOL    HW210560   6.453   5.371   6.476
 3221SOL     OW10561   3.726   0.609   1.744
 3221SOL    HW110562   3.714   0.510   1.759
 3221SOL    HW210563   3.824   0.629   1.738
 3222SOL     OW10564   3.846   1.800   2.109
 3222SOL    HW110565   3.909   1.878   2.115
 3222SOL    HW210566   3.773   1.811   2.177
 3223SOL     OW10567   2.187   6.500   6.161
 3223SOL    HW110568   2.196   6.572   6.230
 3223SOL    HW210569   2.176   6.411   6.207
 3224SOL     OW10570   4.499   3.810   6.327
 3224SOL    HW110571   4.500   3.737   6.396
 3224SOL    HW210572   4.427   3.876   6.349
 3225SOL     OW10573   4.948   2.675   6.557
 3225SOL    HW110574   4.902   2.588   6.542
 3225SOL    HW210575   4.998   2.702   6.474
 3226SOL     OW10576   2.130   1.390   3.375
 3226SOL    HW110577   2.216   1.441   3.367
 3226SOL    HW210578   2.053   1.454   3.378
 3227SOL     OW10579   3.582   2.811   0.206
 3227SOL    HW110580   3.680   2.791   0.213
 3227SOL    HW210581   3.530   2.726   0.204
 3228SOL     OW10582   6.836   4.242   2.641
 3228SOL    HW110583   6.920   4.237   2.588
 3228SOL    HW210584   6.851   4.197   2.730
 3229SOL     OW10585   4.008   6.878   5.189
 3229SOL    HW110586   3.996   6.780   5.172
 3229SOL    HW210587   4.099   6.907   5.160
 3230SOL     OW10588   2.121   3.373   5.069
 3230SOL    HW110589   2.217   3.397   5.083
 3230SOL    HW210590   2.114   3.300   5.001
 3231SOL     OW10591   2.244   1.083   1.342
 3231SOL    HW110592   2.256   0.997   1.390
 3231SOL    HW210593   2.251   1.159   1.407
 3232SOL     OW10594   5.010   5.388   4.974
 3232SOL    HW110595   4.961   5.311   4.935
 3232SOL    HW210596   5.008   5.465   4.910
 3233SOL     OW10597   0.780   2.992   1.372
 3233SOL    HW110598   0.726   2.982   1.288
 3233SOL    HW210599   0.812   3.087   1.380
 3234SOL     OW10600   6.846   1.697   6.953
 3234SOL    HW110601   6.867   1.774   7.014
 3234SOL    HW210602   6.928   1.642   6.939
 3235SOL     OW10603   5.705   0.915   2.018
 3235SOL    HW110604   5.619   0.960   1.991
 3235SOL    HW210605   5.720   0.834   1.961
 3236SOL     OW10606   1.899   3.096   0.729
 3236SOL    HW110607   1.970   3.081   0.797
 3236SOL    HW210608   1.810   3.104   0.776
 3237SOL     OW10609   5.113   1.613   4.203
 3237SOL    HW110610   5.091   1.592   4.108
 3237SOL    HW210611   5.213   1.615   4.214
 3238SOL     OW10612   6.752   5.206   0.485
 3238SOL    HW110613   6.741   5.252   0.397
 3238SOL    HW210614   6.778   5.272   0.554
 3239SOL     OW10615   6.585   1.654   1.827
 3239SOL    HW110616   6.670   1.660   1.880
 3239SOL    HW210617   6.593   1.710   1.745
 3240SOL     OW10618   0.388   0.302   6.626
 3240SOL    HW110619   0.412   0.385   6.676
 3240SOL    HW210620   0.455   0.286   6.554
 3241SOL     OW10621   4.418   2.026   5.352
 3241SOL    HW110622   4.465   2.096   5.406
 3241SOL    HW210623   4.404   2.060   5.259
 3242SOL     OW10624   3.357   4.561   0.188
 3242SOL    HW110625   3.381   4.603   0.101
 3242SOL    HW210626   3.261   4.582   0.210
 3243SOL     OW10627   4.408   4.668   0.392
 3243SOL    HW110628   4.319   4.714   0.397
 3243SOL    HW210629   4.402   4.591   0.329
 3244SOL     OW10630   4.906   5.243   0.556
 3244SOL    HW110631   4.989   5.298   0.563
 3244SOL    HW210632   4.861   5.260   0.468
 3245SOL     OW10633   5.019   3.194   5.126
 3245SOL    HW110634   5.004   3.292   5.143
 3245SOL    HW210635   4.974   3.168   5.041
 3246SOL     OW10636   5.761   0.255   2.493
 3246SOL    HW110637   5.763   0.155   2.489
 3246SOL    HW210638   5.668   0.287   2.475
 3247SOL     OW10639   5.921   4.886   2.414
 3247SOL    HW110640   5.890   4.958   2.476
 3247SOL    HW210641   5.906   4.915   2.320
 3248SOL     OW10642   6.605   3.482   1.020
 3248SOL    HW110643   6.666   3.404   1.011
 3248SOL    HW210644   6.511   3.454   0.999
 3249SOL     OW10645   4.088   3.226   4.374
 3249SOL    HW110646   4.187   3.225   4.385
 3249SOL    HW210647   4.065   3.207   4.278
 3250SOL     OW10648   5.862   6.721   2.069
 3250SOL    HW110649   5.765   6.698   2.077
 3250SOL    HW210650   5.905   6.718   2.160
 3251SOL     OW10651   3.212   1.192   3.319
 3251SOL    HW110652   3.250   1.205   3.411
 3251SOL    HW210653   3.182   1.280   3.283
 3252SOL     OW10654   2.328   1.810   2.960
 3252SOL    HW110655   2.389   1.732   2.969
 3252SOL    HW210656   2.322   1.837   2.863
 3253SOL     OW10657   5.199   4.050   2.135
 3253SOL    HW110658   5.147   4.135   2.132
 3253SOL    HW210659   5.274   4.059   2.200
 3254SOL     OW10660   5.399   5.366   5.048
 3254SOL    HW110661   5.488   5.323   5.030
 3254SOL    HW210662   5.413   5.463   5.066
 3255SOL     OW10663   5.743   5.595   0.517
 3255SOL    HW110664   5.708   5.502   0.526
 3255SOL    HW210665   5.679   5.659   0.559
 3256SOL     OW10666   2.860   1.077   0.021
 3256SOL    HW110667   2.883   1.021   6.961
 3256SOL    HW210668   2.799   1.151   7.011
 3257SOL     OW10669   1.851   1.220   1.952
 3257SOL    HW110670   1.845   1.283   1.874
 3257SOL    HW210671   1.821   1.266   2.035
 3258SOL     OW10672   4.227   4.568   1.825
 3258SOL    HW110673   4.293   4.565   1.900
 3258SOL    HW210674   4.220   4.478   1.783
 3259SOL     OW10675   4.549   5.607   3.835
 3259SOL    HW110676   4.525   5.529   3.778
 3259SOL    HW210677   4.648   5.613   3.844
 3260SOL     OW10678   2.159   1.763   0.856
 3260SOL    HW110679   2.090   1.690   0.863
 3260SOL    HW210680   2.120   1.841   0.807
 3261SOL     OW10681   5.347   6.709   0.940
 3261SOL    HW110682   5.331   6.648   0.862
 3261SOL    HW210683   5.280   6.784   0.938
 3262SOL     OW10684   3.419   2.113   2.773
 3262SOL    HW110685   3.357   2.093   2.697
 3262SOL    HW210686   3.512   2.128   2.738
 3263SOL     OW10687   2.541   0.825   3.812
 3263SOL    HW110688   2.454   0.809   3.764
 3263SOL    HW210689   2.531   0.904   3.872
 3264SOL     OW10690   1.852   4.268   1.111
 3264SOL    HW110691   1.922   4.295   1.177
 3264SOL    HW210692   1.895   4.236   1.027
 3265SOL     OW10693   5.348   0.504   6.307
 3265SOL    HW110694   5.280   0.548   6.366
 3265SOL    HW210695   5.434   0.554   6.314
 3266SOL     OW10696   1.931   3.609   0.600
 3266SOL    HW110697   1.889   3.666   0.529
 3266SOL    HW210698   1.999   3.663   0.650
 3267SOL     OW10699   3.516   0.225   0.743
 3267SOL    HW110700   3.461   0.143   0.728
 3267SOL    HW210701   3.606   0.198   0.780
 3268SOL     OW10702   0.922   3.553   0.877
 3268SOL    HW110703   0.881   3.468   0.910
 3268SOL    HW210704   0.977   3.534   0.795
 3269SOL     OW10705   4.283   5.758   2.176
 3269SOL    HW110706   4.226   5.676   2.178
 3269SOL    HW210707   4.342   5.759   2.257
 3270SOL     OW10708   0.643   4.338   5.914
 3270SOL    HW110709   0.599   4.252   5.888
 3270SOL    HW210710   0.689   4.377   5.834
 3271SOL     OW10711   5.955   3.584   2.951
 3271SOL    HW110712   6.017   3.653   2.987
 3271SOL    HW210713   5.945   3.597   2.852
 3272SOL     OW10714   3.563   4.340   6.100
 3272SOL    HW110715   3.502   4.354   6.178
 3272SOL    HW210716   3.628   4.416   6.094
 3273SOL     OW10717   0.554   6.494   0.902
 3273SOL    HW110718   0.590   6.514   0.993
 3273SOL    HW210719   0.524   6.578   0.858
 3274SOL     OW10720   4.590   0.672   1.181
 3274SOL    HW110721   4.544   0.751   1.219
 3274SOL    HW210722   4.564   0.590   1.232
 3275SOL     OW10723   6.645   1.529   6.893
 3275SOL    HW110724   6.559   1.580   6.891
 3275SOL    HW210725   6.721   1.593   6.899
 3276SOL     OW10726   2.258   5.879   0.440
 3276SOL    HW110727   2.185   5.850   0.378
 3276SOL    HW210728   2.271   5.809   0.510
 3277SOL     OW10729   4.068   6.718   0.231
 3277SOL    HW110730   4.147   6.762   0.275
 3277SOL    HW210731   4.100   6.637   0.181
 3278SOL     OW10732   1.088   1.005   5.799
 3278SOL    HW110733   1.117   0.910   5.808
 3278SOL    HW210734   1.070   1.044   5.889
 3279SOL     OW10735   5.459   0.627   6.718
 3279SOL    HW110736   5.406   0.546   6.745
 3279SOL    HW210737   5.402   0.708   6.728
 3280SOL     OW10738   3.989   5.420   4.620
 3280SOL    HW110739   3.985   5.408   4.521
 3280SOL    HW210740   3.921   5.361   4.663
 3281SOL     OW10741   2.035   5.959   1.548
 3281SOL    HW110742   2.075   6.034   1.600
 3281SOL    HW210743   2.029   5.878   1.607
 3282SOL     OW10744   0.365   4.526   5.678
 3282SOL    HW110745   0.463   4.511   5.680
 3282SOL    HW210746   0.317   4.438   5.686
 3283SOL     OW10747   4.075   1.165   0.853
 3283SOL    HW110748   4.033   1.240   0.801
 3283SOL    HW210749   4.175   1.172   0.845
 3284SOL     OW10750   6.980   5.264   7.008
 3284SOL    HW110751   6.973   5.364   7.018
 3284SOL    HW210752   7.014   5.224   0.074
 3285SOL     OW10753   5.096   3.061   3.538
 3285SOL    HW110754   5.166   3.111   3.487
 3285SOL    HW210755   5.011   3.113   3.537
 3286SOL     OW10756   4.150   3.317   2.647
 3286SOL    HW110757   4.168   3.234   2.699
 3286SOL    HW210758   4.194   3.310   2.557
 3287SOL     OW10759   1.105   0.280   6.938
 3287SOL    HW110760   1.122   0.378   6.927
 3287SOL    HW210761   1.045   0.265   7.017
 3288SOL     OW10762   0.550   5.334   6.477
 3288SOL    HW110763   0.544   5.386   6.563
 3288SOL    HW210764   0.473   5.358   6.418
 3289SOL     OW10765   2.686   6.729   5.743
 3289SOL    HW110766   2.614   6.742   5.812
 3289SOL    HW210767   2.770   6.697   5.787
 3290SOL     OW10768   0.668   0.125   2.364
 3290SOL    HW110769   0.655   0.170   2.453
 3290SOL    HW210770   0.605   0.048   2.356
 3291SOL     OW10771   2.267   0.013   1.280
 3291SOL    HW110772   2.336   6.974   1.235
 3291SOL    HW210773   2.219   0.066   1.210
 3292SOL     OW10774   0.575   0.823   1.251
 3292SOL    HW110775   0.593   0.799   1.156
 3292SOL    HW210776   0.577   0.740   1.307
 3293SOL     OW10777   0.426   3.566   2.474
 3293SOL    HW110778   0.432   3.604   2.381
 3293SOL    HW210779   0.487   3.488   2.482
 3294SOL     OW10780   6.251   1.691   6.401
 3294SOL    HW110781   6.322   1.755   6.373
 3294SOL    HW210782   6.192   1.671   6.323
 3295SOL     OW10783   1.339   2.759   2.055
 3295SOL    HW110784   1.404   2.835   2.060
 3295SOL    HW210785   1.386   2.677   2.023
 3296SOL     OW10786   1.532   6.834   2.190
 3296SOL    HW110787   1.459   6.894   2.159
 3296SOL    HW210788   1.614   6.888   2.209
 3297SOL     OW10789   3.223   0.832   4.510
 3297SOL    HW110790   3.221   0.732   4.519
 3297SOL    HW210791   3.230   0.873   4.601
 3298SOL     OW10792   5.778   1.645   5.063
 3298SOL    HW110793   5.790   1.652   5.162
 3298SOL    HW210794   5.868   1.651   5.018
 3299SOL     OW10795   2.821   5.304   3.411
 3299SOL    HW110796   2.771   5.301   3.497
 3299SOL    HW210797   2.805   5.392   3.366
 3300SOL     OW10798   0.027   0.635   5.419
 3300SOL    HW110799   6.964   0.684   5.392
 3300SOL    HW210800   0.008   0.536   5.420
 3301SOL     OW10801   1.854   3.276   3.609
 3301SOL    HW110802   1.953   3.264   3.602
 3301SOL    HW210803   1.834   3.355   3.667
 3302SOL     OW10804   7.003   4.305   5.238
 3302SOL    HW110805   0.002   4.336   5.331
 3302SOL    HW210806   6.908   4.325   5.215
 3303SOL     OW10807   3.435   3.812   1.379
 3303SOL    HW110808   3.422   3.876   1.455
 3303SOL    HW210809   3.355   3.752   1.371
 3304SOL     OW10810   0.795   6.100   4.210
 3304SOL    HW110811   0.789   6.083   4.308
 3304SOL    HW210812   0.724   6.047   4.163
 3305SOL     OW10813   1.925   1.812   2.821
 3305SOL    HW110814   1.861   1.861   2.880
 3305SOL    HW210815   1.877   1.781   2.739
 3306SOL     OW10816   2.006   5.338   5.089
 3306SOL    HW110817   1.944   5.309   5.161
 3306SOL    HW210818   2.056   5.420   5.118
 3307SOL     OW10819   0.113   6.026   0.082
 3307SOL    HW110820   0.169   5.973   0.019
 3307SOL    HW210821   0.044   6.077   0.030
 3308SOL     OW10822   2.978   6.325   0.340
 3308SOL    HW110823   3.028   6.362   0.418
 3308SOL    HW210824   2.973   6.225   0.348
 3309SOL     OW10825   6.894   6.094   2.456
 3309SOL    HW110826   6.907   6.072   2.553
 3309SOL    HW210827   6.979   6.132   2.419
 3310SOL     OW10828   6.899   3.116   5.779
 3310SOL    HW110829   6.935   3.027   5.753
 3310SOL    HW210830   6.854   3.159   5.700
 3311SOL     OW10831   2.262   4.174   1.853
 3311SOL    HW110832   2.297   4.105   1.790
 3311SOL    HW210833   2.303   4.263   1.832
 3312SOL     OW10834   3.803   4.486   5.909
 3312SOL    HW110835   3.903   4.475   5.909
 3312SOL    HW210836   3.766   4.458   5.821
 3313SOL     OW10837   0.277   5.164   3.370
 3313SOL    HW110838   0.230   5.132   3.288
 3313SOL    HW210839   0.364   5.205   3.345
 3314SOL     OW10840   2.811   1.544   3.273
 3314SOL    HW110841   2.757   1.461   3.285
 3314SOL    HW210842   2.784   1.589   3.188
 3315SOL     OW10843   0.039   2.975   5.058
 3315SOL    HW110844   0.104   2.982   5.134
 3315SOL    HW210845   6.965   2.970   5.094
 3316SOL     OW10846   5.038   1.646   6.128
 3316SOL    HW110847   5.046   1.741   6.158
 3316SOL    HW210848   5.018   1.588   6.207
 3317SOL     OW10849   4.354   3.086   1.763
 3317SOL    HW110850   4.358   3.183   1.737
 3317SOL    HW210851   4.438   3.061   1.810
 3318SOL     OW10852   2.751   0.957   0.590
 3318SOL    HW110853   2.695   0.932   0.511
 3318SOL    HW210854   2.780   1.053   0.582
 3319SOL     OW10855   6.424   0.881   3.976
 3319SOL    HW110856   6.341   0.841   3.939
 3319SOL    HW210857   6.497   0.813   3.977
 3320SOL     OW10858   5.571   0.137   4.700
 3320SOL    HW110859   5.495   0.124   4.764
 3320SOL    HW210860   5.563   0.071   4.625
 3321SOL     OW10861   4.533   1.800   0.451
 3321SOL    HW110862   4.534   1.826   0.354
 3321SOL    HW210863   4.578   1.712   0.463
 3322SOL     OW10864   5.790   3.538   0.580
 3322SOL    HW110865   5.714   3.527   0.516
 3322SOL    HW210866   5.843   3.619   0.555
 3323SOL     OW10867   2.919   2.861   0.078
 3323SOL    HW110868   2.956   2.948   0.046
 3323SOL    HW210869   2.880   2.811   0.001
 3324SOL     OW10870   3.048   5.241   0.075
 3324SOL    HW110871   3.120   5.174   0.059
 3324SOL    HW210872   3.090   5.330   0.097
 3325SOL     OW10873   1.887   3.161   6.862
 3325SOL    HW110874   1.824   3.085   6.881
 3325SOL    HW210875   1.943   3.138   6.783
 3326SOL     OW10876   4.702   2.282   2.262
 3326SOL    HW110877   4.660   2.372   2.273
 3326SOL    HW210878   4.763   2.284   2.183
 3327SOL     OW10879   2.674   5.912   1.853
 3327SOL    HW110880   2.687   5.973   1.774
 3327SOL    HW210881   2.689   5.817   1.824
 3328SOL     OW10882   4.168   1.256   1.113
 3328SOL    HW110883   4.146   1.220   1.022
 3328SOL    HW210884   4.249   1.209   1.148
 3329SOL     OW10885   4.814   6.851   4.490
 3329SOL    HW110886   4.778   6.907   4.415
 3329SOL    HW210887   4.906   6.883   4.514
 3330SOL     OW10888   6.259   4.764   1.400
 3330SOL    HW110889   6.355   4.756   1.374
 3330SOL    HW210890   6.249   4.743   1.498
 3331SOL     OW10891   1.497   3.255   1.107
 3331SOL    HW110892   1.481   3.270   1.205
 3331SOL    HW210893   1.462   3.334   1.056
 3332SOL     OW10894   6.751   4.960   0.310
 3332SOL    HW110895   6.816   4.971   0.235
 3332SOL    HW210896   6.752   5.042   0.368
 3333SOL     OW10897   3.569   3.885   6.708
 3333SOL    HW110898   3.557   3.926   6.798
 3333SOL    HW210899   3.657   3.838   6.704
 3334SOL     OW10900   2.432   3.876   1.230
 3334SOL    HW110901   2.370   3.931   1.285
 3334SOL    HW210902   2.386   3.844   1.147
 3335SOL     OW10903   5.238   6.535   5.451
 3335SOL    HW110904   5.287   6.526   5.364
 3335SOL    HW210905   5.181   6.617   5.450
 3336SOL     OW10906   1.979   6.550   4.271
 3336SOL    HW110907   1.998   6.452   4.277
 3336SOL    HW210908   2.066   6.600   4.271
 3337SOL     OW10909   2.949   3.687   2.021
 3337SOL    HW110910   2.923   3.723   1.932
 3337SOL    HW210911   3.021   3.744   2.061
 3338SOL     OW10912   5.756   3.115   2.509
 3338SOL    HW110913   5.694   3.066   2.447
 3338SOL    HW210914   5.831   3.054   2.536
 3339SOL     OW10915   0.592   0.275   6.444
 3339SOL    HW110916   0.623   0.331   6.368
 3339SOL    HW210917   0.637   0.186   6.441
 3340SOL     OW10918   3.706   1.649   3.149
 3340SOL    HW110919   3.719   1.551   3.159
 3340SOL    HW210920   3.643   1.682   3.219
 3341SOL     OW10921   0.660   4.894   3.182
 3341SOL    HW110922   0.754   4.899   3.149
 3341SOL    HW210923   0.624   4.802   3.169
 3342SOL     OW10924   1.686   6.170   3.666
 3342SOL    HW110925   1.661   6.082   3.627
 3342SOL    HW210926   1.609   6.233   3.661
 3343SOL     OW10927   5.113   3.296   0.140
 3343SOL    HW110928   5.076   3.320   0.230
 3343SOL    HW210929   5.057   3.338   0.069
 3344SOL     OW10930   5.683   3.404   3.703
 3344SOL    HW110931   5.671   3.307   3.721
 3344SOL    HW210932   5.741   3.445   3.774
 3345SOL     OW10933   1.781   2.926   5.783
 3345SOL    HW110934   1.873   2.932   5.823
 3345SOL    HW210935   1.788   2.928   5.684
 3346SOL     OW10936   1.264   1.515   6.983
 3346SOL    HW110937   1.303   1.581   6.919
 3346SOL    HW210938   1.208   1.564   0.031
 3347SOL     OW10939   0.913   3.168   5.377
 3347SOL    HW110940   0.827   3.217   5.395
 3347SOL    HW210941   0.988   3.214   5.424
 3348SOL     OW10942   3.466   3.828   4.424
 3348SOL    HW110943   3.466   3.927   4.436
 3348SOL    HW210944   3.476   3.806   4.327
 3349SOL     OW10945   1.574   5.147   3.255
 3349SOL    HW110946   1.631   5.100   3.322
 3349SOL    HW210947   1.588   5.107   3.164
 3350SOL     OW10948   0.521   2.444   5.933
 3350SOL    HW110949   0.518   2.532   5.886
 3350SOL    HW210950   0.535   2.371   5.866
 3351SOL     OW10951   4.594   0.674   2.865
 3351SOL    HW110952   4.637   0.763   2.853
 3351SOL    HW210953   4.616   0.615   2.787
 3352SOL     OW10954   6.609   2.771   0.034
 3352SOL    HW110955   6.703   2.745   0.055
 3352SOL    HW210956   6.606   2.815   6.964
 3353SOL     OW10957   2.752   5.671   1.449
 3353SOL    HW110958   2.694   5.598   1.485
 3353SOL    HW210959   2.838   5.675   1.501
 3354SOL     OW10960   4.915   2.835   5.464
 3354SOL    HW110961   4.911   2.923   5.417
 3354SOL    HW210962   4.981   2.776   5.417
 3355SOL     OW10963   2.542   1.878   5.820
 3355SOL    HW110964   2.582   1.855   5.731
 3355SOL    HW210965   2.603   1.848   5.893
 3356SOL     OW10966   0.319   5.189   5.724
 3356SOL    HW110967   0.291   5.155   5.634
 3356SOL    HW210968   0.419   5.183   5.732
 3357SOL     OW10969   2.131   3.765   2.021
 3357SOL    HW110970   2.193   3.800   2.091
 3357SOL    HW210971   2.139   3.666   2.016
 3358SOL     OW10972   5.023   1.762   1.197
 3358SOL    HW110973   4.999   1.665   1.205
 3358SOL    HW210974   5.041   1.800   1.288
 3359SOL     OW10975   0.085   6.894   2.762
 3359SOL    HW110976   0.081   6.952   2.843
 3359SOL    HW210977   0.145   6.935   2.694
 3360SOL     OW10978   1.721   1.505   0.245
 3360SOL    HW110979   1.631   1.462   0.243
 3360SOL    HW210980   1.738   1.543   0.336
 3361SOL     OW10981   0.568   4.991   4.398
 3361SOL    HW110982   0.665   5.013   4.407
 3361SOL    HW210983   0.514   5.075   4.399
 3362SOL     OW10984   3.658   1.487   2.861
 3362SOL    HW110985   3.730   1.554   2.879
 3362SOL    HW210986   3.590   1.490   2.935
 3363SOL     OW10987   6.599   0.205   2.215
 3363SOL    HW110988   6.625   0.187   2.121
 3363SOL    HW210989   6.519   0.264   2.218
 3364SOL     OW10990   1.365   4.805   3.939
 3364SOL    HW110991   1.305   4.886   3.938
 3364SOL    HW210992   1.454   4.831   3.976
 3365SOL     OW10993   6.859   2.072   4.963
 3365SOL    HW110994   6.819   2.041   4.877
 3365SOL    HW210995   6.795   2.054   5.038
 3366SOL     OW10996   5.855   5.444   5.150
 3366SOL    HW110997   5.950   5.429   5.177
 3366SOL    HW210998   5.846   5.536   5.112
 3367SOL     OW10999   3.905   2.970   2.671
 3367SOL    HW111000   3.935   2.895   2.612
 3367SOL    HW211001   3.842   2.934   2.740
 3368SOL     OW11002   0.904   5.826   6.347
 3368SOL    HW111003   0.935   5.746   6.295
 3368SOL    HW211004   0.893   5.801   6.443
 3369SOL     OW11005   3.657   1.930   0.425
 3369SOL    HW111006   3.633   1.836   0.451
 3369SOL    HW211007   3.579   1.973   0.380
 3370SOL     OW11008   0.127   5.943   0.498
 3370SOL    HW111009   0.052   5.877   0.498
 3370SOL    HW211010   0.110   6.012   0.427
 3371SOL     OW11011   2.464   2.586   1.854
 3371SOL    HW111012   2.413   2.660   1.895
 3371SOL    HW211013   2.516   2.537   1.924
 3372SOL     OW11014   0.048   2.226   1.371
 3372SOL    HW111015   0.082   2.132   1.375
 3372SOL    HW211016   6.987   2.234   1.431
 3373SOL     OW11017   0.399   1.610   3.976
 3373SOL    HW111018   0.309   1.578   3.944
 3373SOL    HW211019   0.460   1.532   3.987
 3374SOL     OW11020   1.499   6.086   4.436
 3374SOL    HW111021   1.416   6.055   4.389
 3374SOL    HW211022   1.475   6.151   4.508
 3375SOL     OW11023   0.550   4.569   6.693
 3375SOL    HW111024   0.466   4.583   6.744
 3375SOL    HW211025   0.530   4.566   6.595
 3376SOL     OW11026   4.120   3.713   4.336
 3376SOL    HW111027   4.115   3.781   4.409
 3376SOL    HW211028   4.065   3.633   4.360
 3377SOL     OW11029   6.950   5.856   6.445
 3377SOL    HW111030   6.961   5.865   6.544
 3377SOL    HW211031   6.987   5.937   6.399
 3378SOL     OW11032   0.583   1.154   1.103
 3378SOL    HW111033   0.603   1.093   1.179
 3378SOL    HW211034   0.533   1.234   1.137
 3379SOL     OW11035   0.258   0.539   6.097
 3379SOL    HW111036   0.183   0.580   6.149
 3379SOL    HW211037   0.258   0.440   6.111
 3380SOL     OW11038   5.861   6.399   4.866
 3380SOL    HW111039   5.873   6.301   4.850
 3380SOL    HW211040   5.897   6.450   4.789
 3381SOL     OW11041   0.687   2.774   1.494
 3381SOL    HW111042   0.625   2.758   1.417
 3381SOL    HW211043   0.738   2.859   1.479
 3382SOL     OW11044   0.754   2.494   0.382
 3382SOL    HW111045   0.828   2.427   0.377
 3382SOL    HW211046   0.666   2.449   0.366
 3383SOL     OW11047   4.573   5.849   1.462
 3383SOL    HW111048   4.597   5.944   1.447
 3383SOL    HW211049   4.656   5.795   1.475
 3384SOL     OW11050   2.647   3.158   6.183
 3384SOL    HW111051   2.596   3.242   6.200
 3384SOL    HW211052   2.603   3.082   6.232
 3385SOL     OW11053   6.825   3.481   4.616
 3385SOL    HW111054   6.845   3.558   4.556
 3385SOL    HW211055   6.908   3.457   4.668
 3386SOL     OW11056   5.482   4.483   6.855
 3386SOL    HW111057   5.489   4.466   6.953
 3386SOL    HW211058   5.564   4.532   6.824
 3387SOL     OW11059   2.668   0.500   2.775
 3387SOL    HW111060   2.677   0.512   2.676
 3387SOL    HW211061   2.663   0.589   2.819
 3388SOL     OW11062   5.299   2.775   1.719
 3388SOL    HW111063   5.290   2.875   1.723
 3388SOL    HW211064   5.244   2.734   1.792
 3389SOL     OW11065   5.733   5.150   6.705
 3389SOL    HW111066   5.821   5.109   6.728
 3389SOL    HW211067   5.738   5.249   6.715
 3390SOL     OW11068   6.130   6.596   6.399
 3390SOL    HW111069   6.069   6.589   6.477
 3390SOL    HW211070   6.076   6.608   6.315
 3391SOL     OW11071   4.751   2.687   4.557
 3391SOL    HW111072   4.738   2.736   4.471
 3391SOL    HW211073   4.800   2.601   4.540
 3392SOL     OW11074   2.734   0.620   3.931
 3392SOL    HW111075   2.697   0.699   3.881
 3392SOL    HW211076   2.819   0.590   3.888
 3393SOL     OW11077   0.391   6.046   0.573
 3393SOL    HW111078   0.296   6.013   0.570
 3393SOL    HW211079   0.412   6.093   0.487
 3394SOL     OW11080   5.641   3.248   1.487
 3394SOL    HW111081   5.647   3.212   1.394
 3394SOL    HW211082   5.730   3.284   1.515
 3395SOL     OW11083   5.175   3.336   2.851
 3395SOL    HW111084   5.212   3.376   2.767
 3395SOL    HW211085   5.161   3.408   2.919
 3396SOL     OW11086   5.133   1.677   3.276
 3396SOL    HW111087   5.049   1.663   3.223
 3396SOL    HW211088   5.208   1.702   3.214
 3397SOL     OW11089   3.016   6.339   5.912
 3397SOL    HW111090   2.929   6.312   5.870
 3397SOL    HW211091   3.091   6.287   5.870
 3398SOL     OW11092   1.239   6.494   4.803
 3398SOL    HW111093   1.232   6.483   4.902
 3398SOL    HW211094   1.253   6.590   4.781
 3399SOL     OW11095   5.333   4.139   3.689
 3399SOL    HW111096   5.370   4.048   3.670
 3399SOL    HW211097   5.395   4.208   3.652
 3400SOL     OW11098   4.247   3.307   6.091
 3400SOL    HW111099   4.253   3.267   6.000
 3400SOL    HW211100   4.269   3.404   6.087
 3401SOL     OW11101   0.593   2.723   1.246
 3401SOL    HW111102   0.607   2.629   1.215
 3401SOL    HW211103   0.630   2.786   1.178
 3402SOL     OW11104   4.366   5.483   6.929
 3402SOL    HW111105   4.297   5.526   6.986
 3402SOL    HW211106   4.343   5.497   6.832
 3403SOL     OW11107   3.203   5.609   5.655
 3403SOL    HW111108   3.117   5.614   5.604
 3403SOL    HW211109   3.215   5.692   5.709
 3404SOL     OW11110   5.083   1.326   0.108
 3404SOL    HW111111   5.138   1.355   0.030
 3404SOL    HW211112   5.136   1.338   0.192
 3405SOL     OW11113   6.653   4.133   6.147
 3405SOL    HW111114   6.711   4.052   6.152
 3405SOL    HW211115   6.710   4.214   6.133
 3406SOL     OW11116   0.758   3.659   1.614
 3406SOL    HW111117   0.804   3.674   1.702
 3406SOL    HW211118   0.803   3.714   1.544
 3407SOL     OW11119   1.473   4.738   6.395
 3407SOL    HW111120   1.560   4.709   6.355
 3407SOL    HW211121   1.399   4.720   6.330
 3408SOL     OW11122   5.000   3.616   4.517
 3408SOL    HW111123   4.932   3.678   4.478
 3408SOL    HW211124   5.050   3.664   4.589
 3409SOL     OW11125   3.492   6.235   6.700
 3409SOL    HW111126   3.500   6.329   6.667
 3409SOL    HW211127   3.545   6.174   6.640
 3410SOL     OW11128   6.894   6.903   1.049
 3410SOL    HW111129   6.929   6.945   0.966
 3410SOL    HW211130   6.969   6.891   1.114
 3411SOL     OW11131   0.452   3.447   1.758
 3411SOL    HW111132   0.476   3.350   1.765
 3411SOL    HW211133   0.510   3.490   1.688
 3412SOL     OW11134   4.436   2.591   0.763
 3412SOL    HW111135   4.532   2.561   0.763
 3412SOL    HW211136   4.419   2.644   0.846
 3413SOL     OW11137   5.978   1.384   0.752
 3413SOL    HW111138   5.900   1.438   0.723
 3413SOL    HW211139   6.034   1.360   0.673
 3414SOL     OW11140   3.537   1.513   6.456
 3414SOL    HW111141   3.445   1.543   6.483
 3414SOL    HW211142   3.586   1.589   6.414
 3415SOL     OW11143   1.842   3.854   4.136
 3415SOL    HW111144   1.811   3.911   4.212
 3415SOL    HW211145   1.942   3.852   4.134
 3416SOL     OW11146   6.568   5.918   0.639
 3416SOL    HW111147   6.502   5.986   0.609
 3416SOL    HW211148   6.652   5.964   0.670
 3417SOL     OW11149   0.309   6.725   3.089
 3417SOL    HW111150   0.235   6.781   3.125
 3417SOL    HW211151   0.277   6.675   3.009
 3418SOL     OW11152   3.185   6.200   3.719
 3418SOL    HW111153   3.206   6.255   3.638
 3418SOL    HW211154   3.126   6.123   3.693
 3419SOL     OW11155   2.776   6.156   5.765
 3419SOL    HW111156   2.724   6.166   5.850
 3419SOL    HW211157   2.718   6.112   5.696
 3420SOL     OW11158   5.873   3.500   3.883
 3420SOL    HW111159   5.918   3.537   3.803
 3420SOL    HW211160   5.843   3.575   3.942
 3421SOL     OW11161   4.670   1.663   5.217
 3421SOL    HW111162   4.604   1.680   5.144
 3421SOL    HW211163   4.728   1.744   5.229
 3422SOL     OW11164   2.539   0.408   0.515
 3422SOL    HW111165   2.450   0.410   0.559
 3422SOL    HW211166   2.586   0.495   0.532
 3423SOL     OW11167   0.555   4.600   6.340
 3423SOL    HW111168   0.524   4.588   6.246
 3423SOL    HW211169   0.645   4.643   6.340
 3424SOL     OW11170   2.742   6.475   0.894
 3424SOL    HW111171   2.672   6.537   0.928
 3424SOL    HW211172   2.699   6.400   0.844
 3425SOL     OW11173   5.139   5.155   2.380
 3425SOL    HW111174   5.114   5.240   2.334
 3425SOL    HW211175   5.192   5.176   2.462
 3426SOL     OW11176   4.287   2.961   0.455
 3426SOL    HW111177   4.385   2.950   0.436
 3426SOL    HW211178   4.263   2.912   0.539
 3427SOL     OW11179   0.155   1.300   0.518
 3427SOL    HW111180   0.161   1.209   0.478
 3427SOL    HW211181   0.082   1.301   0.587
 3428SOL     OW11182   2.255   5.707   0.058
 3428SOL    HW111183   2.261   5.700   0.157
 3428SOL    HW211184   2.268   5.803   0.030
 3429SOL     OW11185   0.866   1.669   0.752
 3429SOL    HW111186   0.811   1.588   0.729
 3429SOL    HW211187   0.842   1.744   0.691
 3430SOL     OW11188   1.545   6.277   5.354
 3430SOL    HW111189   1.544   6.376   5.373
 3430SOL    HW211190   1.477   6.232   5.411
 3431SOL     OW11191   1.816   0.261   1.831
 3431SOL    HW111192   1.906   0.295   1.860
 3431SOL    HW211193   1.825   0.212   1.744
 3432SOL     OW11194   1.771   3.080   6.277
 3432SOL    HW111195   1.862   3.121   6.280
 3432SOL    HW211196   1.737   3.079   6.183
 3433SOL     OW11197   1.433   6.797   5.044
 3433SOL    HW111198   1.378   6.878   5.026
 3433SOL    HW211199   1.482   6.809   5.130
 3434SOL     OW11200   4.713   1.176   1.972
 3434SOL    HW111201   4.676   1.213   2.057
 3434SOL    HW211202   4.639   1.136   1.918
 3435SOL     OW11203   1.655   1.427   0.849
 3435SOL    HW111204   1.589   1.448   0.777
 3435SOL    HW211205   1.745   1.415   0.808
 3436SOL     OW11206   3.863   6.725   0.044
 3436SOL    HW111207   3.786   6.782   0.074
 3436SOL    HW211208   3.937   6.731   0.111
 3437SOL     OW11209   2.449   0.106   5.636
 3437SOL    HW111210   2.371   0.145   5.686
 3437SOL    HW211211   2.438   0.123   5.538
 3438SOL     OW11212   1.490   3.199   0.103
 3438SOL    HW111213   1.451   3.136   0.035
 3438SOL    HW211214   1.493   3.154   0.192
 3439SOL     OW11215   1.962   6.107   4.726
 3439SOL    HW111216   1.991   6.024   4.680
 3439SOL    HW211217   2.012   6.116   4.813
 3440SOL     OW11218   3.111   3.282   0.993
 3440SOL    HW111219   3.116   3.183   0.980
 3440SOL    HW211220   3.095   3.303   1.089
 3441SOL     OW11221   5.960   5.164   5.490
 3441SOL    HW111222   5.924   5.109   5.415
 3441SOL    HW211223   6.056   5.186   5.473
 3442SOL     OW11224   1.949   4.754   2.071
 3442SOL    HW111225   1.928   4.845   2.107
 3442SOL    HW211226   2.024   4.761   2.005
 3443SOL     OW11227   3.739   6.272   1.446
 3443SOL    HW111228   3.734   6.180   1.408
 3443SOL    HW211229   3.792   6.271   1.531
 3444SOL     OW11230   5.441   5.383   6.442
 3444SOL    HW111231   5.410   5.400   6.535
 3444SOL    HW211232   5.364   5.395   6.379
 3445SOL     OW11233   6.024   5.369   2.972
 3445SOL    HW111234   5.947   5.409   2.923
 3445SOL    HW211235   6.107   5.422   2.953
 3446SOL     OW11236   6.473   1.422   1.681
 3446SOL    HW111237   6.399   1.355   1.677
 3446SOL    HW211238   6.481   1.458   1.774
 3447SOL     OW11239   5.209   5.295   0.883
 3447SOL    HW111240   5.235   5.251   0.797
 3447SOL    HW211241   5.291   5.332   0.928
 3448SOL     OW11242   3.817   0.677   6.885
 3448SOL    HW111243   3.767   0.718   6.962
 3448SOL    HW211244   3.912   0.664   6.910
 3449SOL     OW11245   5.535   5.796   4.914
 3449SOL    HW111246   5.589   5.879   4.929
 3449SOL    HW211247   5.469   5.812   4.840
 3450SOL     OW11248   7.018   2.674   6.824
 3450SOL    HW111249   0.074   2.729   6.786
 3450SOL    HW211250   6.939   2.682   6.764
 3451SOL     OW11251   2.470   6.085   0.662
 3451SOL    HW111252   2.451   6.081   0.564
 3451SOL    HW211253   2.558   6.041   0.680
 3452SOL     OW11254   5.953   0.902   6.209
 3452SOL    HW111255   5.859   0.931   6.228
 3452SOL    HW211256   6.017   0.959   6.259
 3453SOL     OW11257   6.607   5.839   6.848
 3453SOL    HW111258   6.526   5.825   6.904
 3453SOL    HW211259   6.612   5.935   6.820
 3454SOL     OW11260   0.993   2.733   5.001
 3454SOL    HW111261   0.935   2.684   4.936
 3454SOL    HW211262   1.057   2.668   5.043
 3455SOL     OW11263   2.522   2.117   4.094
 3455SOL    HW111264   2.593   2.162   4.149
 3455SOL    HW211265   2.462   2.185   4.055
 3456SOL     OW11266   5.391   5.343   2.021
 3456SOL    HW111267   5.382   5.273   1.950
 3456SOL    HW211268   5.325   5.325   2.094
 3457SOL     OW11269   2.748   5.547   3.229
 3457SOL    HW111270   2.677   5.572   3.163
 3457SOL    HW211271   2.838   5.551   3.184
 3458SOL     OW11272   4.601   0.785   2.290
 3458SOL    HW111273   4.688   0.737   2.283
 3458SOL    HW211274   4.590   0.820   2.383
 3459SOL     OW11275   5.631   3.630   2.731
 3459SOL    HW111276   5.663   3.539   2.704
 3459SOL    HW211277   5.589   3.675   2.653
 3460SOL     OW11278   2.757   2.557   0.377
 3460SOL    HW111279   2.783   2.653   0.365
 3460SOL    HW211280   2.676   2.551   0.436
 3461SOL     OW11281   5.000   4.313   5.182
 3461SOL    HW111282   5.023   4.238   5.244
 3461SOL    HW211283   4.992   4.398   5.234
 3462SOL     OW11284   0.059   4.591   3.699
 3462SOL    HW111285   0.148   4.637   3.692
 3462SOL    HW211286   0.065   4.500   3.659
 3463SOL     OW11287   1.228   4.384   2.061
 3463SOL    HW111288   1.275   4.342   1.983
 3463SOL    HW211289   1.130   4.364   2.056
 3464SOL     OW11290   6.712   4.497   5.633
 3464SOL    HW111291   6.796   4.471   5.682
 3464SOL    HW211292   6.641   4.518   5.699
 3465SOL     OW11293   1.561   1.852   2.090
 3465SOL    HW111294   1.625   1.917   2.131
 3465SOL    HW211295   1.488   1.831   2.155
 3466SOL     OW11296   6.980   4.730   6.710
 3466SOL    HW111297   6.959   4.634   6.693
 3466SOL    HW211298   0.046   4.754   6.664
 3467SOL     OW11299   2.266   2.620   0.272
 3467SOL    HW111300   2.254   2.625   0.371
 3467SOL    HW211301   2.290   2.710   0.236
 3468SOL     OW11302   4.420   6.652   2.773
 3468SOL    HW111303   4.371   6.577   2.729
 3468SOL    HW211304   4.480   6.616   2.845
 3469SOL     OW11305   5.201   0.567   3.013
 3469SOL    HW111306   5.180   0.617   2.929
 3469SOL    HW211307   5.282   0.510   2.999
 3470SOL     OW11308   6.341   4.110   1.075
 3470SOL    HW111309   6.271   4.039   1.068
 3470SOL    HW211310   6.297   4.198   1.093
 3471SOL     OW11311   3.902   5.220   4.082
 3471SOL    HW111312   3.811   5.195   4.114
 3471SOL    HW211313   3.963   5.232   4.161
 3472SOL     OW11314   2.789   0.963   2.155
 3472SOL    HW111315   2.866   0.903   2.177
 3472SOL    HW211316   2.722   0.958   2.229
 3473SOL     OW11317   0.445   1.971   0.901
 3473SOL    HW111318   0.411   2.056   0.940
 3473SOL    HW211319   0.544   1.975   0.890
 3474SOL     OW11320   1.464   5.418   2.666
 3474SOL    HW111321   1.515   5.400   2.582
 3474SOL    HW211322   1.366   5.412   2.648
 3475SOL     OW11323   0.582   5.382   4.019
 3475SOL    HW111324   0.636   5.299   4.033
 3475SOL    HW211325   0.501   5.360   3.964
 3476SOL     OW11326   2.979   1.945   3.313
 3476SOL    HW111327   2.991   2.040   3.343
 3476SOL    HW211328   3.016   1.934   3.221
 3477SOL     OW11329   2.847   4.933   1.040
 3477SOL    HW111330   2.800   5.018   1.015
 3477SOL    HW211331   2.794   4.855   1.007
 3478SOL     OW11332   2.308   6.029   4.955
 3478SOL    HW111333   2.330   5.970   4.877
 3478SOL    HW211334   2.236   6.093   4.930
 3479SOL     OW11335   1.700   0.946   2.963
 3479SOL    HW111336   1.648   0.894   2.896
 3479SOL    HW211337   1.653   0.944   3.052
 3480SOL     OW11338   0.341   6.686   5.294
 3480SOL    HW111339   0.374   6.635   5.374
 3480SOL    HW211340   0.326   6.781   5.319
 3481SOL     OW11341   4.471   0.066   0.304
 3481SOL    HW111342   4.473   0.109   0.214
 3481SOL    HW211343   4.378   0.072   0.342
 3482SOL     OW11344   5.889   1.734   1.588
 3482SOL    HW111345   5.872   1.668   1.661
 3482SOL    HW211346   5.982   1.770   1.596
 3483SOL     OW11347   4.881   1.498   1.695
 3483SOL    HW111348   4.928   1.458   1.616
 3483SOL    HW211349   4.825   1.575   1.665
 3484SOL     OW11350   2.192   3.577   1.049
 3484SOL    HW111351   2.204   3.570   1.148
 3484SOL    HW211352   2.101   3.615   1.029
 3485SOL     OW11353   1.809   1.030   4.088
 3485SOL    HW111354   1.740   1.048   4.017
 3485SOL    HW211355   1.886   0.981   4.047
 3486SOL     OW11356   3.323   1.290   2.948
 3486SOL    HW111357   3.274   1.292   3.035
 3486SOL    HW211358   3.256   1.286   2.873
 3487SOL     OW11359   5.631   2.577   5.876
 3487SOL    HW111360   5.586   2.495   5.912
 3487SOL    HW211361   5.730   2.568   5.886
 3488SOL     OW11362   6.208   1.633   4.734
 3488SOL    HW111363   6.130   1.606   4.678
 3488SOL    HW211364   6.196   1.727   4.766
 3489SOL     OW11365   3.010   6.935   0.452
 3489SOL    HW111366   2.960   6.849   0.457
 3489SOL    HW211367   3.066   6.946   0.534
 3490SOL     OW11368   4.000   4.658   0.124
 3490SOL    HW111369   3.921   4.598   0.142
 3490SOL    HW211370   4.054   4.667   0.207
 3491SOL     OW11371   5.706   3.010   5.244
 3491SOL    HW111372   5.620   3.007   5.193
 3491SOL    HW211373   5.724   3.103   5.273
 3492SOL     OW11374   0.677   5.953   1.204
 3492SOL    HW111375   0.625   5.881   1.249
 3492SOL    HW211376   0.764   5.916   1.172
 3493SOL     OW11377   5.157   4.293   6.382
 3493SOL    HW111378   5.064   4.324   6.362
 3493SOL    HW211379   5.215   4.371   6.405
 3494SOL     OW11380   3.844   0.902   1.809
 3494SOL    HW111381   3.886   0.811   1.811
 3494SOL    HW211382   3.745   0.893   1.820
 3495SOL     OW11383   4.671   5.311   2.279
 3495SOL    HW111384   4.614   5.389   2.308
 3495SOL    HW211385   4.669   5.304   2.179
 3496SOL     OW11386   6.923   4.121   0.340
 3496SOL    HW111387   6.938   4.060   0.418
 3496SOL    HW211388   6.893   4.068   0.261
 3497SOL     OW11389   3.139   0.659   3.227
 3497SOL    HW111390   3.133   0.750   3.185
 3497SOL    HW211391   3.235   0.634   3.238
 3498SOL     OW11392   2.291   2.305   0.924
 3498SOL    HW111393   2.289   2.343   0.832
 3498SOL    HW211394   2.203   2.323   0.970
 3499SOL     OW11395   4.806   3.021   4.085
 3499SOL    HW111396   4.898   3.022   4.045
 3499SOL    HW211397   4.764   2.932   4.069
 3500SOL     OW11398   1.492   3.474   5.158
 3500SOL    HW111399   1.515   3.551   5.098
 3500SOL    HW211400   1.562   3.465   5.230
 3501SOL     OW11401   1.837   5.290   4.274
 3501SOL    HW111402   1.804   5.316   4.183
 3501SOL    HW211403   1.772   5.226   4.315
 3502SOL     OW11404   6.313   2.693   2.283
 3502SOL    HW111405   6.293   2.642   2.199
 3502SOL    HW211406   6.266   2.782   2.279
 3503SOL     OW11407   6.643   6.654   4.840
 3503SOL    HW111408   6.641   6.642   4.939
 3503SOL    HW211409   6.675   6.570   4.797
 3504SOL     OW11410   2.077   2.057   1.285
 3504SOL    HW111411   2.062   2.064   1.186
 3504SOL    HW211412   2.083   1.961   1.311
 3505SOL     OW11413   5.208   4.833   4.669
 3505SOL    HW111414   5.260   4.905   4.624
 3505SOL    HW211415   5.233   4.744   4.631
 3506SOL     OW11416   4.960   5.640   6.442
 3506SOL    HW111417   5.000   5.721   6.485
 3506SOL    HW211418   5.000   5.627   6.351
 3507SOL     OW11419   2.294   0.700   0.481
 3507SOL    HW111420   2.360   0.650   0.538
 3507SOL    HW211421   2.281   0.651   0.395
 3508SOL     OW11422   3.037   2.293   6.198
 3508SOL    HW111423   3.109   2.332   6.141
 3508SOL    HW211424   2.952   2.290   6.147
 3509SOL     OW11425   5.646   6.886   5.676
 3509SOL    HW111426   5.733   6.929   5.652
 3509SOL    HW211427   5.654   6.841   5.765
 3510SOL     OW11428   1.787   2.350   1.505
 3510SOL    HW111429   1.703   2.402   1.518
 3510SOL    HW211430   1.840   2.349   1.590
 3511SOL     OW11431   2.040   4.713   0.759
 3511SOL    HW111432   2.129   4.671   0.740
 3511SOL    HW211433   1.983   4.649   0.810
 3512SOL     OW11434   0.298   4.746   0.518
 3512SOL    HW111435   0.201   4.759   0.538
 3512SOL    HW211436   0.316   4.771   0.423
 3513SOL     OW11437   6.262   3.418   0.492
 3513SOL    HW111438   6.187   3.399   0.430
 3513SOL    HW211439   6.232   3.404   0.586
 3514SOL     OW11440   0.219   1.724   2.134
 3514SOL    HW111441   0.281   1.647   2.126
 3514SOL    HW211442   0.187   1.733   2.228
 3515SOL     OW11443   4.165   6.585   3.154
 3515SOL    HW111444   4.100   6.647   3.199
 3515SOL    HW211445   4.116   6.505   3.119
 3516SOL     OW11446   4.609   6.807   0.698
 3516SOL    HW111447   4.691   6.758   0.727
 3516SOL    HW211448   4.539   6.801   0.770
 3517SOL     OW11449   0.707   1.968   0.856
 3517SOL    HW111450   0.755   1.981   0.943
 3517SOL    HW211451   0.730   2.042   0.794
 3518SOL     OW11452   5.750   4.043   5.040
 3518SOL    HW111453   5.665   4.095   5.053
 3518SOL    HW211454   5.768   4.032   4.942
 3519SOL     OW11455   1.062   0.707   6.244
 3519SOL    HW111456   1.026   0.705   6.337
 3519SOL    HW211457   1.009   0.644   6.186
 3520SOL     OW11458   3.262   5.438   0.000
 3520SOL    HW111459   3.333   5.367   0.001
 3520SOL    HW211460   3.282   5.503   6.946
 3521SOL     OW11461   5.545   3.422   0.270
 3521SOL    HW111462   5.456   3.459   0.244
 3521SOL    HW211463   5.548   3.324   0.246
 3522SOL     OW11464   5.820   5.156   1.800
 3522SOL    HW111465   5.903   5.102   1.786
 3522SOL    HW211466   5.837   5.226   1.870
 3523SOL     OW11467   2.819   5.149   5.691
 3523SOL    HW111468   2.734   5.167   5.642
 3523SOL    HW211469   2.839   5.051   5.688
 3524SOL     OW11470   3.394   1.034   1.053
 3524SOL    HW111471   3.474   1.014   0.997
 3524SOL    HW211472   3.316   1.053   0.994
 3525SOL     OW11473   0.944   4.333   2.041
 3525SOL    HW111474   0.851   4.365   2.056
 3525SOL    HW211475   0.954   4.303   1.946
 3526SOL     OW11476   2.609   6.491   3.711
 3526SOL    HW111477   2.613   6.402   3.758
 3526SOL    HW211478   2.699   6.513   3.674
 3527SOL     OW11479   6.066   3.823   6.169
 3527SOL    HW111480   5.982   3.775   6.143
 3527SOL    HW211481   6.136   3.756   6.195
 3528SOL     OW11482   0.922   5.285   3.839
 3528SOL    HW111483   0.894   5.248   3.750
 3528SOL    HW211484   0.943   5.209   3.901
 3529SOL     OW11485   5.143   6.574   6.493
 3529SOL    HW111486   5.094   6.631   6.559
 3529SOL    HW211487   5.209   6.517   6.542
 3530SOL     OW11488   1.327   5.202   3.327
 3530SOL    HW111489   1.328   5.257   3.411
 3530SOL    HW211490   1.421   5.178   3.303
 3531SOL     OW11491   4.716   3.841   1.049
 3531SOL    HW111492   4.689   3.769   0.985
 3531SOL    HW211493   4.642   3.855   1.116
 3532SOL     OW11494   2.523   0.962   0.732
 3532SOL    HW111495   2.456   0.981   0.660
 3532SOL    HW211496   2.615   0.968   0.693
 3533SOL     OW11497   1.578   1.884   2.478
 3533SOL    HW111498   1.644   1.830   2.529
 3533SOL    HW211499   1.572   1.850   2.384
 3534SOL     OW11500   5.573   0.886   5.077
 3534SOL    HW111501   5.625   0.957   5.030
 3534SOL    HW211502   5.481   0.880   5.037
 3535SOL     OW11503   0.745   6.249   0.573
 3535SOL    HW111504   0.750   6.174   0.640
 3535SOL    HW211505   0.684   6.320   0.608
 3536SOL     OW11506   2.019   2.118   4.268
 3536SOL    HW111507   2.069   2.033   4.286
 3536SOL    HW211508   1.955   2.103   4.193
 3537SOL     OW11509   2.537   5.467   0.507
 3537SOL    HW111510   2.487   5.444   0.424
 3537SOL    HW211511   2.538   5.567   0.519
 3538SOL     OW11512   1.623   0.239   5.065
 3538SOL    HW111513   1.615   0.337   5.082
 3538SOL    HW211514   1.573   0.215   4.981
 3539SOL     OW11515   5.573   3.494   6.357
 3539SOL    HW111516   5.576   3.422   6.288
 3539SOL    HW211517   5.555   3.582   6.312
 3540SOL     OW11518   1.953   2.129   5.456
 3540SOL    HW111519   1.944   2.067   5.534
 3540SOL    HW211520   1.873   2.188   5.451
 3541SOL     OW11521   2.290   2.296   6.099
 3541SOL    HW111522   2.193   2.276   6.086
 3541SOL    HW211523   2.301   2.363   6.172
 3542SOL     OW11524   0.496   3.991   1.704
 3542SOL    HW111525   0.431   3.948   1.767
 3542SOL    HW211526   0.498   3.940   1.618
 3543SOL     OW11527   0.857   3.324   5.893
 3543SOL    HW111528   0.890   3.365   5.979
 3543SOL    HW211529   0.912   3.358   5.817
 3544SOL     OW11530   2.167   5.119   6.381
 3544SOL    HW111531   2.183   5.024   6.409
 3544SOL    HW211532   2.236   5.145   6.314
 3545SOL     OW11533   3.747   5.228   0.782
 3545SOL    HW111534   3.675   5.191   0.841
 3545SOL    HW211535   3.834   5.225   0.831
 3546SOL     OW11536   6.886   4.651   2.889
 3546SOL    HW111537   6.914   4.741   2.923
 3546SOL    HW211538   6.940   4.628   2.808
 3547SOL     OW11539   5.912   4.473   4.512
 3547SOL    HW111540   5.835   4.422   4.473
 3547SOL    HW211541   5.942   4.543   4.447
 3548SOL     OW11542   5.351   0.573   5.683
 3548SOL    HW111543   5.433   0.629   5.674
 3548SOL    HW211544   5.295   0.582   5.601
 3549SOL     OW11545   0.384   4.388   6.342
 3549SOL    HW111546   0.358   4.445   6.265
 3549SOL    HW211547   0.460   4.431   6.392
 3550SOL     OW11548   5.744   2.876   4.471
 3550SOL    HW111549   5.652   2.891   4.435
 3550SOL    HW211550   5.757   2.778   4.489
 3551SOL     OW11551   3.861   1.668   3.869
 3551SOL    HW111552   3.927   1.611   3.820
 3551SOL    HW211553   3.794   1.703   3.804
 3552SOL     OW11554   5.908   0.160   1.762
 3552SOL    HW111555   5.872   0.068   1.777
 3552SOL    HW211556   5.839   0.227   1.789
 3553SOL     OW11557   3.827   5.595   0.520
 3553SOL    HW111558   3.870   5.525   0.463
 3553SOL    HW211559   3.898   5.645   0.571
 3554SOL     OW11560   4.652   2.409   0.836
 3554SOL    HW111561   4.727   2.447   0.889
 3554SOL    HW211562   4.628   2.318   0.870
 3555SOL     OW11563   0.765   3.708   5.062
 3555SOL    HW111564   0.855   3.669   5.043
 3555SOL    HW211565   0.697   3.635   5.068
 3556SOL     OW11566   4.171   0.293   4.027
 3556SOL    HW111567   4.140   0.378   3.986
 3556SOL    HW211568   4.097   0.226   4.023
 3557SOL     OW11569   1.348   0.609   3.735
 3557SOL    HW111570   1.417   0.543   3.765
 3557SOL    HW211571   1.378   0.701   3.760
 3558SOL     OW11572   1.349   5.956   2.520
 3558SOL    HW111573   1.332   5.914   2.431
 3558SOL    HW211574   1.299   5.904   2.590
 3559SOL     OW11575   0.776   6.153   5.167
 3559SOL    HW111576   0.692   6.160   5.221
 3559SOL    HW211577   0.752   6.136   5.071
 3560SOL     OW11578   2.638   5.151   2.608
 3560SOL    HW111579   2.620   5.226   2.544
 3560SOL    HW211580   2.604   5.176   2.699
 3561SOL     OW11581   4.658   4.066   5.331
 3561SOL    HW111582   4.741   4.067   5.276
 3561SOL    HW211583   4.653   3.980   5.382
 3562SOL     OW11584   3.600   1.029   2.722
 3562SOL    HW111585   3.649   1.067   2.643
 3562SOL    HW211586   3.597   1.098   2.795
 3563SOL     OW11587   6.276   2.130   0.363
 3563SOL    HW111588   6.332   2.166   0.437
 3563SOL    HW211589   6.204   2.071   0.401
 3564SOL     OW11590   1.077   4.498   2.746
 3564SOL    HW111591   1.000   4.508   2.682
 3564SOL    HW211592   1.112   4.589   2.770
 3565SOL     OW11593   2.775   6.424   4.389
 3565SOL    HW111594   2.784   6.506   4.333
 3565SOL    HW211595   2.722   6.356   4.340
 3566SOL     OW11596   6.482   3.054   6.602
 3566SOL    HW111597   6.480   3.154   6.606
 3566SOL    HW211598   6.392   3.020   6.575
 3567SOL     OW11599   0.666   1.931   6.751
 3567SOL    HW111600   0.621   2.011   6.712
 3567SOL    HW211601   0.750   1.960   6.797
 3568SOL     OW11602   4.817   4.225   4.322
 3568SOL    HW111603   4.875   4.145   4.336
 3568SOL    HW211604   4.765   4.243   4.406
 3569SOL     OW11605   2.369   1.876   6.027
 3569SOL    HW111606   2.416   1.865   6.115
 3569SOL    HW211607   2.427   1.839   5.954
 3570SOL     OW11608   5.117   0.206   5.956
 3570SOL    HW111609   5.183   0.151   5.904
 3570SOL    HW211610   5.144   0.302   5.953
 3571SOL     OW11611   0.982   5.055   5.830
 3571SOL    HW111612   1.069   5.018   5.797
 3571SOL    HW211613   0.947   5.122   5.764
 3572SOL     OW11614   6.105   4.350   2.776
 3572SOL    HW111615   6.109   4.258   2.815
 3572SOL    HW211616   6.046   4.351   2.696
 3573SOL     OW11617   0.385   4.887   3.458
 3573SOL    HW111618   0.360   4.920   3.367
 3573SOL    HW211619   0.368   4.959   3.525
 3574SOL     OW11620   0.336   3.796   1.065
 3574SOL    HW111621   0.413   3.741   1.033
 3574SOL    HW211622   0.314   3.771   1.159
 3575SOL     OW11623   4.830   4.930   2.801
 3575SOL    HW111624   4.805   4.969   2.889
 3575SOL    HW211625   4.810   4.832   2.801
 3576SOL     OW11626   6.969   1.810   5.772
 3576SOL    HW111627   7.013   1.792   5.684
 3576SOL    HW211628   0.010   1.778   5.845
 3577SOL     OW11629   1.942   2.087   5.903
 3577SOL    HW111630   2.028   2.081   5.954
 3577SOL    HW211631   1.954   2.146   5.824
 3578SOL     OW11632   3.276   2.216   0.792
 3578SOL    HW111633   3.217   2.196   0.870
 3578SOL    HW211634   3.371   2.195   0.816
 3579SOL     OW11635   6.728   2.747   4.415
 3579SOL    HW111636   6.747   2.844   4.432
 3579SOL    HW211637   6.667   2.738   4.337
 3580SOL     OW11638   5.614   3.305   1.782
 3580SOL    HW111639   5.577   3.281   1.692
 3580SOL    HW211640   5.674   3.385   1.773
 3581SOL     OW11641   0.690   6.417   3.502
 3581SOL    HW111642   0.763   6.476   3.536
 3581SOL    HW211643   0.715   6.381   3.412
 3582SOL     OW11644   1.031   2.289   5.499
 3582SOL    HW111645   1.054   2.227   5.575
 3582SOL    HW211646   0.940   2.327   5.513
 3583SOL     OW11647   1.223   3.884   6.137
 3583SOL    HW111648   1.252   3.947   6.065
 3583SOL    HW211649   1.129   3.854   6.120
 3584SOL     OW11650   6.071   5.348   6.506
 3584SOL    HW111651   6.051   5.345   6.603
 3584SOL    HW211652   6.011   5.414   6.461
 3585SOL     OW11653   3.845   0.078   4.795
 3585SOL    HW111654   3.808   0.091   4.887
 3585SOL    HW211655   3.812   0.151   4.735
 3586SOL     OW11656   6.937   1.561   4.589
 3586SOL    HW111657   6.948   1.661   4.582
 3586SOL    HW211658   6.978   1.518   4.509
 3587SOL     OW11659   2.953   5.784   6.733
 3587SOL    HW111660   3.023   5.836   6.783
 3587SOL    HW211661   2.923   5.706   6.788
 3588SOL     OW11662   1.675   2.162   5.935
 3588SOL    HW111663   1.767   2.123   5.946
 3588SOL    HW211664   1.664   2.194   5.841
 3589SOL     OW11665   3.893   1.481   4.810
 3589SOL    HW111666   3.987   1.465   4.780
 3589SOL    HW211667   3.856   1.561   4.763
 3590SOL     OW11668   0.974   2.826   6.698
 3590SOL    HW111669   0.993   2.727   6.698
 3590SOL    HW211670   1.000   2.865   6.610
 3591SOL     OW11671   5.167   3.470   6.331
 3591SOL    HW111672   5.097   3.411   6.371
 3591SOL    HW211673   5.237   3.491   6.401
 3592SOL     OW11674   0.145   4.721   1.644
 3592SOL    HW111675   0.203   4.722   1.725
 3592SOL    HW211676   0.179   4.790   1.578
 3593SOL     OW11677   0.743   5.831   4.790
 3593SOL    HW111678   0.840   5.855   4.787
 3593SOL    HW211679   0.733   5.733   4.777
 3594SOL     OW11680   4.305   0.187   3.177
 3594SOL    HW111681   4.315   0.092   3.209
 3594SOL    HW211682   4.347   0.249   3.243
 3595SOL     OW11683   3.615   5.992   0.158
 3595SOL    HW111684   3.631   6.006   0.256
 3595SOL    HW211685   3.544   5.923   0.145
 3596SOL     OW11686   6.360   2.982   3.270
 3596SOL    HW111687   6.439   3.042   3.261
 3596SOL    HW211688   6.276   3.035   3.251
 3597SOL     OW11689   1.890   2.127   4.803
 3597SOL    HW111690   1.833   2.067   4.861
 3597SOL    HW211691   1.932   2.072   4.731
 3598SOL     OW11692   0.807   5.349   5.682
 3598SOL    HW111693   0.894   5.380   5.644
 3598SOL    HW211694   0.751   5.428   5.706
 3599SOL     OW11695   6.781   1.890   6.075
 3599SOL    HW111696   6.854   1.829   6.044
 3599SOL    HW211697   6.810   1.937   6.159
 3600SOL     OW11698   0.854   3.446   1.197
 3600SOL    HW111699   0.833   3.351   1.174
 3600SOL    HW211700   0.953   3.460   1.196
 3601SOL     OW11701   5.324   4.530   6.415
 3601SOL    HW111702   5.328   4.545   6.514
 3601SOL    HW211703   5.410   4.558   6.373
 3602SOL     OW11704   1.713   2.519   0.838
 3602SOL    HW111705   1.721   2.429   0.880
 3602SOL    HW211706   1.617   2.544   0.828
 3603SOL     OW11707   3.330   0.253   3.493
 3603SOL    HW111708   3.361   0.176   3.439
 3603SOL    HW211709   3.271   0.312   3.438
 3604SOL     OW11710   6.680   5.283   3.258
 3604SOL    HW111711   6.751   5.231   3.304
 3604SOL    HW211712   6.720   5.364   3.216
 3605SOL     OW11713   6.648   3.738   4.882
 3605SOL    HW111714   6.741   3.740   4.846
 3605SOL    HW211715   6.602   3.653   4.854
 3606SOL     OW11716   7.006   0.136   4.848
 3606SOL    HW111717   0.074   0.184   4.861
 3606SOL    HW211718   6.972   0.154   4.755
 3607SOL     OW11719   5.640   5.600   1.934
 3607SOL    HW111720   5.549   5.641   1.929
 3607SOL    HW211721   5.682   5.599   1.843
 3608SOL     OW11722   5.832   2.280   3.833
 3608SOL    HW111723   5.921   2.274   3.878
 3608SOL    HW211724   5.788   2.367   3.857
 3609SOL     OW11725   1.241   6.884   4.106
 3609SOL    HW111726   1.231   6.813   4.036
 3609SOL    HW211727   1.185   6.860   4.186
 3610SOL     OW11728   1.560   6.841   5.287
 3610SOL    HW111729   1.649   6.811   5.252
 3610SOL    HW211730   1.519   6.767   5.340
 3611SOL     OW11731   4.492   5.580   5.637
 3611SOL    HW111732   4.535   5.645   5.574
 3611SOL    HW211733   4.447   5.631   5.711
 3612SOL     OW11734   6.471   0.075   0.122
 3612SOL    HW111735   6.464   0.012   0.046
 3612SOL    HW211736   6.443   0.167   0.093
 3613SOL     OW11737   4.776   5.232   1.832
 3613SOL    HW111738   4.710   5.189   1.894
 3613SOL    HW211739   4.860   5.253   1.882
 3614SOL     OW11740   4.097   3.339   1.421
 3614SOL    HW111741   4.139   3.421   1.460
 3614SOL    HW211742   4.097   3.266   1.489
 3615SOL     OW11743   5.009   5.503   6.951
 3615SOL    HW111744   5.101   5.515   6.987
 3615SOL    HW211745   5.013   5.470   6.857
 3616SOL     OW11746   0.840   2.266   6.954
 3616SOL    HW111747   0.778   2.324   6.902
 3616SOL    HW211748   0.886   2.320   0.005
 3617SOL     OW11749   3.911   1.552   6.825
 3617SOL    HW111750   3.866   1.513   6.745
 3617SOL    HW211751   3.860   1.528   6.907
 3618SOL     OW11752   2.075   2.460   5.216
 3618SOL    HW111753   2.098   2.464   5.314
 3618SOL    HW211754   2.133   2.523   5.166
 3619SOL     OW11755   5.825   3.098   4.701
 3619SOL    HW111756   5.874   3.156   4.766
 3619SOL    HW211757   5.887   3.070   4.628
 3620SOL     OW11758   6.301   6.165   5.981
 3620SOL    HW111759   6.231   6.154   6.051
 3620SOL    HW211760   6.260   6.199   5.896
 3621SOL     OW11761   3.542   2.909   4.828
 3621SOL    HW111762   3.517   2.902   4.925
 3621SOL    HW211763   3.637   2.940   4.821
 3622SOL     OW11764   1.868   1.884   5.274
 3622SOL    HW111765   1.813   1.811   5.233
 3622SOL    HW211766   1.927   1.845   5.345
 3623SOL     OW11767   6.338   5.881   4.222
 3623SOL    HW111768   6.307   5.950   4.156
 3623SOL    HW211769   6.368   5.799   4.173
 3624SOL     OW11770   1.835   6.788   1.523
 3624SOL    HW111771   1.763   6.719   1.521
 3624SOL    HW211772   1.870   6.797   1.616
 3625SOL     OW11773   6.159   2.680   6.743
 3625SOL    HW111774   6.064   2.649   6.738
 3625SOL    HW211775   6.179   2.741   6.666
 3626SOL     OW11776   1.080   1.718   5.876
 3626SOL    HW111777   1.171   1.695   5.911
 3626SOL    HW211778   1.089   1.768   5.790
 3627SOL     OW11779   3.384   2.930   2.894
 3627SOL    HW111780   3.350   3.018   2.928
 3627SOL    HW211781   3.456   2.896   2.954
 3628SOL     OW11782   1.747   0.982   1.700
 3628SOL    HW111783   1.843   1.006   1.708
 3628SOL    HW211784   1.694   1.034   1.767
 3629SOL     OW11785   0.283   0.873   5.403
 3629SOL    HW111786   0.240   0.791   5.441
 3629SOL    HW211787   0.297   0.860   5.304
 3630SOL     OW11788   5.271   2.705   3.747
 3630SOL    HW111789   5.344   2.667   3.690
 3630SOL    HW211790   5.188   2.650   3.735
 3631SOL     OW11791   2.097   0.937   3.542
 3631SOL    HW111792   2.093   0.851   3.594
 3631SOL    HW211793   2.133   0.920   3.451
 3632SOL     OW11794   5.567   5.834   1.566
 3632SOL    HW111795   5.541   5.890   1.645
 3632SOL    HW211796   5.484   5.795   1.525
 3633SOL     OW11797   4.170   1.618   5.625
 3633SOL    HW111798   4.151   1.651   5.532
 3633SOL    HW211799   4.243   1.673   5.665
 3634SOL     OW11800   1.474   4.200   4.561
 3634SOL    HW111801   1.556   4.157   4.598
 3634SOL    HW211802   1.435   4.262   4.629
 3635SOL     OW11803   3.633   0.442   7.006
 3635SOL    HW111804   3.576   0.518   0.017
 3635SOL    HW211805   3.691   0.411   0.062
 3636SOL     OW11806   0.521   5.647   0.768
 3636SOL    HW111807   0.433   5.632   0.814
 3636SOL    HW211808   0.537   5.745   0.756
 3637SOL     OW11809   6.919   1.851   2.255
 3637SOL    HW111810   6.988   1.795   2.302
 3637SOL    HW211811   6.951   1.872   2.162
 3638SOL     OW11812   0.720   4.509   3.496
 3638SOL    HW111813   0.808   4.506   3.544
 3638SOL    HW211814   0.669   4.590   3.527
 3639SOL     OW11815   3.296   4.867   0.692
 3639SOL    HW111816   3.251   4.784   0.724
 3639SOL    HW211817   3.230   4.942   0.693
 3640SOL     OW11818   4.493   0.558   0.704
 3640SOL    HW111819   4.584   0.561   0.664
 3640SOL    HW211820   4.430   0.515   0.640
 3641SOL     OW11821   5.226   4.011   2.468
 3641SOL    HW111822   5.190   4.101   2.444
 3641SOL    HW211823   5.326   4.012   2.459
 3642SOL     OW11824   5.549   0.995   6.838
 3642SOL    HW111825   5.485   0.980   6.913
 3642SOL    HW211826   5.539   0.922   6.770
 3643SOL     OW11827   3.141   5.804   4.386
 3643SOL    HW111828   3.068   5.735   4.381
 3643SOL    HW211829   3.101   5.895   4.395
 3644SOL     OW11830   6.856   1.053   1.510
 3644SOL    HW111831   6.877   1.141   1.553
 3644SOL    HW211832   6.941   1.002   1.497
 3645SOL     OW11833   0.409   2.559   3.777
 3645SOL    HW111834   0.354   2.539   3.858
 3645SOL    HW211835   0.506   2.558   3.801
 3646SOL     OW11836   0.957   3.831   6.084
 3646SOL    HW111837   0.872   3.862   6.127
 3646SOL    HW211838   0.950   3.842   5.985
 3647SOL     OW11839   2.285   5.202   5.904
 3647SOL    HW111840   2.365   5.145   5.923
 3647SOL    HW211841   2.220   5.193   5.979
 3648SOL     OW11842   3.928   4.826   1.847
 3648SOL    HW111843   3.836   4.790   1.862
 3648SOL    HW211844   3.967   4.855   1.935
 3649SOL     OW11845   5.111   3.075   1.881
 3649SOL    HW111846   5.148   3.128   1.958
 3649SOL    HW211847   5.171   3.084   1.802
 3650SOL     OW11848   6.764   5.674   1.427
 3650SOL    HW111849   6.679   5.728   1.428
 3650SOL    HW211850   6.746   5.586   1.384
 3651SOL     OW11851   1.067   6.785   4.795
 3651SOL    HW111852   0.969   6.796   4.781
 3651SOL    HW211853   1.116   6.860   4.750
 3652SOL     OW11854   5.347   6.533   3.197
 3652SOL    HW111855   5.378   6.502   3.107
 3652SOL    HW211856   5.393   6.619   3.221
 3653SOL     OW11857   1.075   1.473   3.664
 3653SOL    HW111858   1.100   1.528   3.584
 3653SOL    HW211859   1.037   1.532   3.735
 3654SOL     OW11860   3.110   4.147   0.678
 3654SOL    HW111861   3.018   4.108   0.677
 3654SOL    HW211862   3.133   4.175   0.771
 3655SOL     OW11863   2.081   5.839   4.407
 3655SOL    HW111864   2.070   5.751   4.361
 3655SOL    HW211865   2.074   5.826   4.506
 3656SOL     OW11866   0.502   4.260   1.415
 3656SOL    HW111867   0.428   4.202   1.379
 3656SOL    HW211868   0.477   4.294   1.505
 3657SOL     OW11869   5.482   5.861   5.575
 3657SOL    HW111870   5.566   5.912   5.591
 3657SOL    HW211871   5.478   5.782   5.637
 3658SOL     OW11872   2.059   5.137   6.081
 3658SOL    HW111873   2.031   5.120   6.176
 3658SOL    HW211874   2.115   5.060   6.049
 3659SOL     OW11875   2.072   3.871   6.141
 3659SOL    HW111876   2.171   3.882   6.145
 3659SOL    HW211877   2.042   3.817   6.220
 3660SOL     OW11878   5.537   6.273   3.659
 3660SOL    HW111879   5.477   6.320   3.594
 3660SOL    HW211880   5.545   6.177   3.634
 3661SOL     OW11881   5.877   0.354   5.188
 3661SOL    HW111882   5.968   0.376   5.152
 3661SOL    HW211883   5.813   0.345   5.111
 3662SOL     OW11884   3.281   0.643   3.939
 3662SOL    HW111885   3.199   0.650   3.881
 3662SOL    HW211886   3.254   0.631   4.034
 3663SOL     OW11887   1.971   1.684   6.943
 3663SOL    HW111888   2.050   1.684   7.004
 3663SOL    HW211889   1.977   1.764   6.882
 3664SOL     OW11890   4.838   2.650   1.477
 3664SOL    HW111891   4.773   2.579   1.505
 3664SOL    HW211892   4.796   2.740   1.488
 3665SOL     OW11893   1.603   6.474   4.755
 3665SOL    HW111894   1.651   6.404   4.702
 3665SOL    HW211895   1.517   6.436   4.789
 3666SOL     OW11896   0.919   3.512   3.107
 3666SOL    HW111897   0.973   3.452   3.048
 3666SOL    HW211898   0.938   3.491   3.203
 3667SOL     OW11899   1.083   1.546   3.342
 3667SOL    HW111900   0.992   1.529   3.381
 3667SOL    HW211901   1.083   1.634   3.294
 3668SOL     OW11902   1.533   0.905   1.110
 3668SOL    HW111903   1.583   0.986   1.080
 3668SOL    HW211904   1.437   0.928   1.125
 3669SOL     OW11905   5.255   1.411   3.853
 3669SOL    HW111906   5.184   1.469   3.894
 3669SOL    HW211907   5.310   1.371   3.926
 3670SOL     OW11908   1.812   5.223   6.911
 3670SOL    HW111909   1.838   5.310   6.953
 3670SOL    HW211910   1.715   5.206   6.927
 3671SOL     OW11911   6.985   2.113   4.325
 3671SOL    HW111912   6.906   2.169   4.301
 3671SOL    HW211913   7.006   2.050   4.249
 3672SOL     OW11914   5.113   1.635   1.479
 3672SOL    HW111915   5.065   1.721   1.498
 3672SOL    HW211916   5.173   1.613   1.555
 3673SOL     OW11917   3.808   6.224   6.893
 3673SOL    HW111918   3.719   6.234   6.936
 3673SOL    HW211919   3.860   6.309   6.902
 3674SOL     OW11920   1.470   5.476   6.208
 3674SOL    HW111921   1.422   5.394   6.178
 3674SOL    HW211922   1.568   5.457   6.212
 3675SOL     OW11923   2.159   3.137   4.108
 3675SOL    HW111924   2.115   3.087   4.183
 3675SOL    HW211925   2.117   3.111   4.021
 3676SOL     OW11926   5.488   4.592   3.022
 3676SOL    HW111927   5.533   4.596   3.112
 3676SOL    HW211928   5.541   4.644   2.956
 3677SOL     OW11929   2.300   6.339   3.720
 3677SOL    HW111930   2.323   6.436   3.715
 3677SOL    HW211931   2.215   6.327   3.771
 3678SOL     OW11932   0.003   1.627   4.238
 3678SOL    HW111933   0.033   1.718   4.210
 3678SOL    HW211934   0.083   1.568   4.250
 3679SOL     OW11935   0.687   0.676   3.975
 3679SOL    HW111936   0.737   0.590   3.966
 3679SOL    HW211937   0.591   0.662   3.952
 3680SOL     OW11938   5.229   3.188   3.934
 3680SOL    HW111939   5.265   3.253   4.001
 3680SOL    HW211940   5.304   3.149   3.881
 3681SOL     OW11941   0.186   0.921   6.380
 3681SOL    HW111942   0.180   0.869   6.465
 3681SOL    HW211943   0.273   0.970   6.377
 3682SOL     OW11944   5.429   2.409   6.853
 3682SOL    HW111945   5.487   2.447   6.924
 3682SOL    HW211946   5.335   2.402   6.887
 3683SOL     OW11947   6.971   1.404   3.710
 3683SOL    HW111948   0.032   1.364   3.755
 3683SOL    HW211949   6.944   1.346   3.632
 3684SOL     OW11950   1.421   4.638   0.166
 3684SOL    HW111951   1.492   4.570   0.148
 3684SOL    HW211952   1.387   4.675   0.079
 3685SOL     OW11953   1.389   6.157   6.602
 3685SOL    HW111954   1.478   6.195   6.627
 3685SOL    HW211955   1.317   6.217   6.637
 3686SOL     OW11956   5.157   5.886   4.250
 3686SOL    HW111957   5.111   5.967   4.214
 3686SOL    HW211958   5.112   5.804   4.214
 3687SOL     OW11959   3.279   6.104   4.654
 3687SOL    HW111960   3.265   6.014   4.696
 3687SOL    HW211961   3.326   6.164   4.718
 3688SOL     OW11962   0.517   3.647   6.524
 3688SOL    HW111963   0.599   3.646   6.467
 3688SOL    HW211964   0.448   3.705   6.481
 3689SOL     OW11965   2.119   6.936   5.656
 3689SOL    HW111966   2.176   6.863   5.618
 3689SOL    HW211967   2.042   6.954   5.595
 3690SOL     OW11968   4.467   6.163   0.450
 3690SOL    HW111969   4.564   6.169   0.426
 3690SOL    HW211970   4.423   6.093   0.394
 3691SOL     OW11971   2.465   1.546   6.106
 3691SOL    HW111972   2.547   1.603   6.114
 3691SOL    HW211973   2.430   1.552   6.013
 3692SOL     OW11974   6.768   5.599   5.321
 3692SOL    HW111975   6.815   5.672   5.272
 3692SOL    HW211976   6.671   5.623   5.334
 3693SOL     OW11977   2.137   3.707   3.252
 3693SOL    HW111978   2.144   3.642   3.176
 3693SOL    HW211979   2.149   3.659   3.339
 3694SOL     OW11980   1.299   6.548   2.619
 3694SOL    HW111981   1.311   6.554   2.519
 3694SOL    HW211982   1.234   6.618   2.649
 3695SOL     OW11983   6.213   3.198   1.865
 3695SOL    HW111984   6.265   3.238   1.940
 3695SOL    HW211985   6.226   3.253   1.783
 3696SOL     OW11986   3.839   6.486   4.441
 3696SOL    HW111987   3.757   6.501   4.497
 3696SOL    HW211988   3.918   6.526   4.487
 3697SOL     OW11989   0.131   6.412   2.568
 3697SOL    HW111990   0.138   6.512   2.578
 3697SOL    HW211991   0.065   6.377   2.633
 3698SOL     OW11992   3.309   1.015   4.345
 3698SOL    HW111993   3.274   0.938   4.398
 3698SOL    HW211994   3.245   1.091   4.351
 3699SOL     OW11995   1.480   2.729   4.171
 3699SOL    HW111996   1.483   2.720   4.270
 3699SOL    HW211997   1.478   2.638   4.129
 3700SOL     OW11998   0.866   5.080   4.661
 3700SOL    HW111999   0.870   5.051   4.566
 3700SOL    HW212000   0.771   5.082   4.692
 3701SOL     OW12001   1.381   1.161   4.409
 3701SOL    HW112002   1.438   1.191   4.332
 3701SOL    HW212003   1.314   1.094   4.377
 3702SOL     OW12004   5.626   6.844   3.070
 3702SOL    HW112005   5.635   6.937   3.035
 3702SOL    HW212006   5.713   6.795   3.056
 3703SOL     OW12007   5.515   0.328   5.334
 3703SOL    HW112008   5.517   0.367   5.426
 3703SOL    HW212009   5.525   0.400   5.266
 3704SOL     OW12010   3.629   1.409   0.816
 3704SOL    HW112011   3.638   1.310   0.800
 3704SOL    HW212012   3.694   1.458   0.758
 3705SOL     OW12013   4.575   4.617   4.258
 3705SOL    HW112014   4.502   4.673   4.297
 3705SOL    HW212015   4.654   4.618   4.319
 3706SOL     OW12016   1.558   3.844   0.399
 3706SOL    HW112017   1.466   3.810   0.417
 3706SOL    HW212018   1.560   3.943   0.417
 3707SOL     OW12019   5.277   4.632   3.533
 3707SOL    HW112020   5.272   4.592   3.625
 3707SOL    HW212021   5.372   4.636   3.504
 3708SOL     OW12022   6.739   0.857   6.738
 3708SOL    HW112023   6.803   0.781   6.743
 3708SOL    HW212024   6.648   0.826   6.766
 3709SOL     OW12025   3.590   0.669   1.333
 3709SOL    HW112026   3.604   0.763   1.365
 3709SOL    HW212027   3.499   0.638   1.360
 3710SOL     OW12028   6.121   5.396   5.188
 3710SOL    HW112029   6.215   5.401   5.154
 3710SOL    HW212030   6.118   5.337   5.269
 3711SOL     OW12031   0.795   6.707   4.304
 3711SOL    HW112032   0.844   6.680   4.221
 3711SOL    HW212033   0.776   6.626   4.360
 3712SOL     OW12034   0.325   4.993   5.946
 3712SOL    HW112035   0.254   4.922   5.944
 3712SOL    HW212036   0.307   5.060   5.874
 3713SOL     OW12037   0.764   6.440   6.039
 3713SOL    HW112038   0.834   6.377   6.072
 3713SOL    HW212039   0.708   6.394   5.970
 3714SOL     OW12040   5.524   5.787   5.926
 3714SOL    HW112041   5.467   5.868   5.941
 3714SOL    HW212042   5.616   5.805   5.960
 3715SOL     OW12043   0.841   3.969   1.924
 3715SOL    HW112044   0.888   3.952   1.837
 3715SOL    HW212045   0.759   4.024   1.907
 3716SOL     OW12046   6.312   6.877   4.124
 3716SOL    HW112047   6.277   6.921   4.207
 3716SOL    HW212048   6.395   6.827   4.146
 3717SOL     OW12049   6.889   6.790   6.958
 3717SOL    HW112050   6.897   6.707   6.902
 3717SOL    HW212051   6.859   6.866   6.901
 3718SOL     OW12052   0.899   0.785   6.995
 3718SOL    HW112053   0.919   0.818   0.069
 3718SOL    HW212054   0.944   0.844   6.929
 3719SOL     OW12055   5.142   3.947   1.669
 3719SOL    HW112056   5.178   4.040   1.659
 3719SOL    HW212057   5.208   3.891   1.720
 3720SOL     OW12058   6.059   2.761   6.500
 3720SOL    HW112059   6.119   2.760   6.419
 3720SOL    HW212060   5.997   2.839   6.495
 3721SOL     OW12061   6.274   4.349   1.240
 3721SOL    HW112062   6.229   4.385   1.321
 3721SOL    HW212063   6.346   4.412   1.210
 3722SOL     OW12064   6.192   6.071   0.452
 3722SOL    HW112065   6.276   6.102   0.497
 3722SOL    HW212066   6.116   6.131   0.477
 3723SOL     OW12067   5.837   5.390   1.173
 3723SOL    HW112068   5.893   5.472   1.177
 3723SOL    HW212069   5.882   5.321   1.116
 3724SOL     OW12070   1.940   4.240   4.781
 3724SOL    HW112071   1.865   4.205   4.724
 3724SOL    HW212072   1.985   4.316   4.734
 3725SOL     OW12073   6.745   5.550   0.307
 3725SOL    HW112074   6.740   5.462   0.259
 3725SOL    HW212075   6.704   5.621   0.249
 3726SOL     OW12076   5.898   3.269   0.540
 3726SOL    HW112077   5.843   3.213   0.478
 3726SOL    HW212078   5.870   3.365   0.532
 3727SOL     OW12079   6.648   1.346   4.979
 3727SOL    HW112080   6.589   1.270   4.950
 3727SOL    HW212081   6.643   1.357   5.078
 3728SOL     OW12082   1.236   3.630   6.390
 3728SOL    HW112083   1.286   3.618   6.304
 3728SOL    HW212084   1.233   3.727   6.414
 3729SOL     OW12085   1.374   2.486   4.057
 3729SOL    HW112086   1.349   2.516   3.965
 3729SOL    HW212087   1.371   2.386   4.061
 3730SOL     OW12088   2.620   5.462   5.703
 3730SOL    HW112089   2.638   5.380   5.649
 3730SOL    HW212090   2.568   5.436   5.785
 3731SOL     OW12091   0.492   1.624   0.549
 3731SOL    HW112092   0.539   1.637   0.461
 3731SOL    HW212093   0.453   1.711   0.579
 3732SOL     OW12094   2.803   1.719   0.173
 3732SOL    HW112095   2.888   1.691   0.129
 3732SOL    HW212096   2.807   1.817   0.193
 3733SOL     OW12097   1.637   3.513   3.008
 3733SOL    HW112098   1.588   3.598   3.026
 3733SOL    HW212099   1.572   3.441   2.983
 3734SOL     OW12100   5.085   0.325   1.304
 3734SOL    HW112101   5.019   0.399   1.311
 3734SOL    HW212102   5.038   0.237   1.315
 3735SOL     OW12103   2.456   1.546   2.852
 3735SOL    HW112104   2.499   1.464   2.814
 3735SOL    HW212105   2.356   1.536   2.847
 3736SOL     OW12106   6.831   2.056   1.016
 3736SOL    HW112107   6.922   2.058   1.057
 3736SOL    HW212108   6.830   1.993   0.938
 3737SOL     OW12109   5.655   1.211   4.146
 3737SOL    HW112110   5.706   1.177   4.068
 3737SOL    HW212111   5.652   1.141   4.217
 3738SOL     OW12112   0.225   0.377   2.423
 3738SOL    HW112113   0.292   0.367   2.496
 3738SOL    HW212114   0.230   0.470   2.386
 3739SOL     OW12115   2.261   5.164   0.595
 3739SOL    HW112116   2.332   5.150   0.526
 3739SOL    HW212117   2.209   5.079   0.606
 3740SOL     OW12118   6.239   0.976   0.708
 3740SOL    HW112119   6.326   0.935   0.734
 3740SOL    HW212120   6.167   0.907   0.711
 3741SOL     OW12121   5.610   3.097   6.667
 3741SOL    HW112122   5.587   3.089   6.764
 3741SOL    HW212123   5.639   3.190   6.648
 3742SOL     OW12124   2.416   2.099   6.482
 3742SOL    HW112125   2.420   2.104   6.582
 3742SOL    HW212126   2.424   2.191   6.444
 3743SOL     OW12127   5.426   3.589   0.677
 3743SOL    HW112128   5.485   3.508   0.676
 3743SOL    HW212129   5.445   3.645   0.597
 3744SOL     OW12130   1.620   6.243   2.193
 3744SOL    HW112131   1.521   6.252   2.184
 3744SOL    HW212132   1.658   6.329   2.228
 3745SOL     OW12133   4.210   4.897   1.796
 3745SOL    HW112134   4.234   4.986   1.758
 3745SOL    HW212135   4.244   4.891   1.890
 3746SOL     OW12136   5.544   0.614   3.938
 3746SOL    HW112137   5.593   0.699   3.958
 3746SOL    HW212138   5.589   0.568   3.861
 3747SOL     OW12139   2.380   6.228   5.154
 3747SOL    HW112140   2.399   6.159   5.085
 3747SOL    HW212141   2.307   6.196   5.215
 3748SOL     OW12142   5.768   1.164   1.683
 3748SOL    HW112143   5.679   1.128   1.709
 3748SOL    HW212144   5.804   1.222   1.756
 3749SOL     OW12145   2.016   5.329   3.760
 3749SOL    HW112146   2.087   5.374   3.706
 3749SOL    HW212147   2.050   5.308   3.851
 3750SOL     OW12148   0.132   4.615   1.192
 3750SOL    HW112149   0.207   4.681   1.190
 3750SOL    HW212150   0.170   4.522   1.194
 3751SOL     OW12151   6.318   3.409   1.108
 3751SOL    HW112152   6.232   3.409   1.056
 3751SOL    HW212153   6.306   3.463   1.192
 3752SOL     OW12154   6.029   6.860   0.602
 3752SOL    HW112155   5.933   6.885   0.601
 3752SOL    HW212156   6.040   6.771   0.645
 3753SOL     OW12157   6.678   0.665   3.801
 3753SOL    HW112158   6.715   0.574   3.783
 3753SOL    HW212159   6.584   0.670   3.767
 3754SOL     OW12160   3.497   0.617   0.991
 3754SOL    HW112161   3.532   0.596   0.899
 3754SOL    HW212162   3.573   0.646   1.049
 3755SOL     OW12163   4.698   5.403   4.447
 3755SOL    HW112164   4.753   5.383   4.528
 3755SOL    HW212165   4.722   5.493   4.410
 3756SOL     OW12166   2.857   5.569   6.892
 3756SOL    HW112167   2.929   5.547   6.958
 3756SOL    HW212168   2.773   5.521   6.917
 3757SOL     OW12169   4.761   6.099   6.752
 3757SOL    HW112170   4.819   6.113   6.832
 3757SOL    HW212171   4.743   6.186   6.708
 3758SOL     OW12172   2.385   1.156   4.891
 3758SOL    HW112173   2.474   1.201   4.892
 3758SOL    HW212174   2.314   1.222   4.866
 3759SOL     OW12175   4.722   6.301   6.291
 3759SOL    HW112176   4.687   6.210   6.312
 3759SOL    HW212177   4.805   6.318   6.345
 3760SOL     OW12178   2.081   0.912   4.448
 3760SOL    HW112179   2.157   0.850   4.429
 3760SOL    HW212180   2.074   0.928   4.546
 3761SOL     OW12181   1.524   0.929   4.739
 3761SOL    HW112182   1.536   1.027   4.750
 3761SOL    HW212183   1.514   0.907   4.642
 3762SOL     OW12184   1.219   4.067   0.884
 3762SOL    HW112185   1.243   4.160   0.911
 3762SOL    HW212186   1.178   4.069   0.793
 3763SOL     OW12187   6.786   3.865   0.787
 3763SOL    HW112188   6.752   3.802   0.718
 3763SOL    HW212189   6.874   3.834   0.821
 3764SOL     OW12190   1.768   0.052   2.702
 3764SOL    HW112191   1.845   0.020   2.758
 3764SOL    HW212192   1.761   7.014   2.620
 3765SOL     OW12193   5.016   1.215   1.005
 3765SOL    HW112194   5.003   1.152   1.081
 3765SOL    HW212195   4.950   1.196   0.933
 3766SOL     OW12196   1.848   1.413   4.257
 3766SOL    HW112197   1.917   1.427   4.186
 3766SOL    HW212198   1.885   1.441   4.345
 3767SOL     OW12199   2.007   4.542   0.018
 3767SOL    HW112200   1.930   4.554   6.975
 3767SOL    HW212201   1.974   4.513   0.107
 3768SOL     OW12202   1.459   6.942   4.318
 3768SOL    HW112203   1.388   6.951   4.248
 3768SOL    HW212204   1.541   6.993   4.290
 3769SOL     OW12205   6.497   6.297   4.957
 3769SOL    HW112206   6.505   6.330   4.863
 3769SOL    HW212207   6.567   6.227   4.974
 3770SOL     OW12208   1.564   1.235   6.070
 3770SOL    HW112209   1.628   1.311   6.085
 3770SOL    HW212210   1.609   1.149   6.094
 3771SOL     OW12211   5.317   3.135   0.038
 3771SOL    HW112212   5.311   3.139   6.958
 3771SOL    HW212213   5.251   3.199   0.078
 3772SOL     OW12214   0.405   1.476   6.368
 3772SOL    HW112215   0.310   1.454   6.385
 3772SOL    HW212216   0.412   1.531   6.284
 3773SOL     OW12217   6.106   3.100   5.934
 3773SOL    HW112218   6.195   3.146   5.928
 3773SOL    HW212219   6.120   3.001   5.925
 3774SOL     OW12220   6.874   5.790   0.826
 3774SOL    HW112221   6.807   5.790   0.900
 3774SOL    HW212222   6.926   5.875   0.828
 3775SOL     OW12223   4.370   5.169   2.134
 3775SOL    HW112224   4.334   5.133   2.048
 3775SOL    HW212225   4.312   5.243   2.167
 3776SOL     OW12226   4.347   1.581   0.223
 3776SOL    HW112227   4.344   1.590   0.322
 3776SOL    HW212228   4.308   1.493   0.196
 3777SOL     OW12229   3.476   5.863   3.921
 3777SOL    HW112230   3.561   5.862   3.867
 3777SOL    HW212231   3.485   5.798   3.997
 3778SOL     OW12232   3.300   4.838   2.360
 3778SOL    HW112233   3.247   4.815   2.278
 3778SOL    HW212234   3.239   4.838   2.439
 3779SOL     OW12235   1.520   4.161   0.440
 3779SOL    HW112236   1.434   4.191   0.399
 3779SOL    HW212237   1.517   4.174   0.539
 3780SOL     OW12238   5.931   4.807   4.922
 3780SOL    HW112239   6.028   4.825   4.910
 3780SOL    HW212240   5.904   4.730   4.864
 3781SOL     OW12241   0.833   5.931   4.453
 3781SOL    HW112242   0.880   5.877   4.383
 3781SOL    HW212243   0.798   5.871   4.524
 3782SOL     OW12244   2.485   0.328   3.948
 3782SOL    HW112245   2.502   0.239   3.905
 3782SOL    HW212246   2.398   0.365   3.914
 3783SOL     OW12247   5.768   5.665   3.150
 3783SOL    HW112248   5.851   5.609   3.154
 3783SOL    HW212249   5.762   5.721   3.233
 3784SOL     OW12250   4.736   2.817   3.055
 3784SOL    HW112251   4.728   2.741   2.990
 3784SOL    HW212252   4.792   2.789   3.133
 3785SOL     OW12253   1.989   2.784   6.049
 3785SOL    HW112254   1.979   2.710   5.982
 3785SOL    HW212255   1.935   2.762   6.131
 3786SOL     OW12256   2.119   5.430   3.407
 3786SOL    HW112257   2.020   5.440   3.396
 3786SOL    HW212258   2.166   5.502   3.356
 3787SOL     OW12259   5.748   1.370   2.777
 3787SOL    HW112260   5.697   1.439   2.726
 3787SOL    HW212261   5.826   1.413   2.823
 3788SOL     OW12262   0.492   4.723   4.463
 3788SOL    HW112263   0.515   4.816   4.434
 3788SOL    HW212264   0.516   4.659   4.390
 3789SOL     OW12265   6.895   2.722   4.739
 3789SOL    HW112266   6.927   2.633   4.707
 3789SOL    HW212267   6.920   2.733   4.836
 3790SOL     OW12268   1.209   4.507   5.388
 3790SOL    HW112269   1.135   4.569   5.415
 3790SOL    HW212270   1.219   4.507   5.289
 3791SOL     OW12271   5.103   0.997   6.549
 3791SOL    HW112272   5.148   0.936   6.483
 3791SOL    HW212273   5.009   1.013   6.521
 3792SOL     OW12274   1.019   2.434   4.942
 3792SOL    HW112275   1.084   2.453   4.868
 3792SOL    HW212276   0.927   2.422   4.904
 3793SOL     OW12277   5.087   6.670   2.158
 3793SOL    HW112278   5.066   6.576   2.186
 3793SOL    HW212279   5.002   6.717   2.134
 3794SOL     OW12280   2.464   3.310   0.915
 3794SOL    HW112281   2.474   3.390   0.855
 3794SOL    HW212282   2.537   3.310   0.983
 3795SOL     OW12283   3.939   6.351   0.183
 3795SOL    HW112284   3.973   6.411   0.111
 3795SOL    HW212285   4.012   6.333   0.249
 3796SOL     OW12286   3.307   2.096   2.489
 3796SOL    HW112287   3.309   2.087   2.389
 3796SOL    HW212288   3.217   2.131   2.517
 3797SOL     OW12289   6.882   3.589   1.487
 3797SOL    HW112290   6.854   3.685   1.494
 3797SOL    HW212291   6.875   3.559   1.392
 3798SOL     OW12292   2.734   5.538   2.814
 3798SOL    HW112293   2.807   5.472   2.834
 3798SOL    HW212294   2.766   5.605   2.748
 3799SOL     OW12295   6.813   2.659   4.100
 3799SOL    HW112296   6.846   2.571   4.065
 3799SOL    HW212297   6.736   2.690   4.045
 3800SOL     OW12298   5.995   3.688   3.710
 3800SOL    HW112299   6.023   3.680   3.614
 3800SOL    HW212300   6.074   3.712   3.766
 3801SOL     OW12301   5.956   0.014   2.395
 3801SOL    HW112302   6.038   0.069   2.380
 3801SOL    HW212303   5.896   0.020   2.315
 3802SOL     OW12304   1.382   2.005   2.246
 3802SOL    HW112305   1.472   2.046   2.263
 3802SOL    HW212306   1.333   2.059   2.178
 3803SOL     OW12307   3.370   2.671   1.726
 3803SOL    HW112308   3.347   2.696   1.632
 3803SOL    HW212309   3.447   2.727   1.758
 3804SOL     OW12310   4.604   1.528   4.101
 3804SOL    HW112311   4.589   1.592   4.026
 3804SOL    HW212312   4.701   1.528   4.126
 3805SOL     OW12313   2.717   2.796   1.648
 3805SOL    HW112314   2.742   2.709   1.689
 3805SOL    HW212315   2.651   2.781   1.574
 3806SOL     OW12316   3.262   3.732   6.298
 3806SOL    HW112317   3.211   3.775   6.224
 3806SOL    HW212318   3.256   3.632   6.290
 3807SOL     OW12319   1.293   6.299   2.998
 3807SOL    HW112320   1.388   6.269   2.986
 3807SOL    HW212321   1.246   6.235   3.059
 3808SOL     OW12322   4.760   0.885   1.077
 3808SOL    HW112323   4.798   0.948   1.009
 3808SOL    HW212324   4.662   0.873   1.060
 3809SOL     OW12325   5.090   2.991   1.308
 3809SOL    HW112326   5.060   3.078   1.348
 3809SOL    HW212327   5.130   2.933   1.378
 3810SOL     OW12328   4.494   2.535   3.607
 3810SOL    HW112329   4.516   2.437   3.606
 3810SOL    HW212330   4.534   2.580   3.528
 3811SOL     OW12331   1.102   4.510   4.509
 3811SOL    HW112332   1.102   4.410   4.511
 3811SOL    HW212333   1.165   4.545   4.578
 3812SOL     OW12334   5.132   5.966   4.959
 3812SOL    HW112335   5.147   5.881   5.008
 3812SOL    HW212336   5.057   6.017   5.002
 3813SOL     OW12337   4.701   3.650   0.864
 3813SOL    HW112338   4.763   3.662   0.787
 3813SOL    HW212339   4.621   3.598   0.835
 3814SOL     OW12340   0.187   0.195   6.761
 3814SOL    HW112341   0.257   0.224   6.697
 3814SOL    HW212342   0.230   0.154   6.842
 3815SOL     OW12343   4.485   2.165   0.587
 3815SOL    HW112344   4.540   2.084   0.569
 3815SOL    HW212345   4.400   2.139   0.632
 3816SOL     OW12346   1.271   5.805   0.287
 3816SOL    HW112347   1.267   5.840   0.380
 3816SOL    HW212348   1.316   5.872   0.228
 3817SOL     OW12349   4.912   4.073   2.613
 3817SOL    HW112350   4.998   4.107   2.652
 3817SOL    HW212351   4.888   4.127   2.533
 3818SOL     OW12352   6.437   0.914   6.622
 3818SOL    HW112353   6.348   0.937   6.584
 3818SOL    HW212354   6.504   0.982   6.592
 3819SOL     OW12355   5.170   5.120   2.107
 3819SOL    HW112356   5.215   5.031   2.094
 3819SOL    HW212357   5.129   5.123   2.198
 3820SOL     OW12358   5.071   6.727   3.895
 3820SOL    HW112359   5.016   6.755   3.817
 3820SOL    HW212360   5.085   6.805   3.956
 3821SOL     OW12361   2.278   1.475   1.084
 3821SOL    HW112362   2.310   1.417   1.009
 3821SOL    HW212363   2.189   1.513   1.061
 3822SOL     OW12364   2.201   0.483   1.060
 3822SOL    HW112365   2.106   0.501   1.033
 3822SOL    HW212366   2.217   0.519   1.152
 3823SOL     OW12367   3.550   3.378   5.984
 3823SOL    HW112368   3.633   3.341   5.944
 3823SOL    HW212369   3.477   3.378   5.915
 3824SOL     OW12370   6.771   2.267   0.606
 3824SOL    HW112371   6.678   2.278   0.569
 3824SOL    HW212372   6.774   2.300   0.700
 3825SOL     OW12373   0.823   6.005   0.710
 3825SOL    HW112374   0.888   5.936   0.742
 3825SOL    HW212375   0.733   5.962   0.698
 3826SOL     OW12376   0.996   2.866   6.416
 3826SOL    HW112377   0.971   2.789   6.357
 3826SOL    HW212378   1.080   2.909   6.381
 3827SOL     OW12379   1.935   1.891   2.028
 3827SOL    HW112380   1.932   1.924   1.933
 3827SOL    HW212381   2.014   1.930   2.075
 3828SOL     OW12382   3.815   2.989   2.149
 3828SOL    HW112383   3.890   3.045   2.183
 3828SOL    HW212384   3.780   2.931   2.222
 3829SOL     OW12385   1.681   4.673   3.524
 3829SOL    HW112386   1.771   4.671   3.567
 3829SOL    HW212387   1.682   4.614   3.443
 3830SOL     OW12388   0.618   1.660   4.512
 3830SOL    HW112389   0.669   1.589   4.561
 3830SOL    HW212390   0.524   1.630   4.500
 3831SOL     OW12391   4.646   2.453   1.569
 3831SOL    HW112392   4.614   2.493   1.483
 3831SOL    HW212393   4.601   2.365   1.584
 3832SOL     OW12394   5.613   0.961   2.558
 3832SOL    HW112395   5.690   1.010   2.600
 3832SOL    HW212396   5.538   0.955   2.624
 3833SOL     OW12397   0.549   6.234   5.972
 3833SOL    HW112398   0.579   6.154   5.921
 3833SOL    HW212399   0.468   6.274   5.928
 3834SOL     OW12400   4.860   4.150   2.102
 3834SOL    HW112401   4.910   4.136   2.016
 3834SOL    HW212402   4.797   4.227   2.091
 3835SOL     OW12403   3.609   5.663   4.430
 3835SOL    HW112404   3.585   5.566   4.429
 3835SOL    HW212405   3.691   5.676   4.486
 3836SOL     OW12406   1.835   4.214   6.063
 3836SOL    HW112407   1.884   4.301   6.058
 3836SOL    HW212408   1.737   4.231   6.069
 3837SOL     OW12409   4.833   4.935   6.294
 3837SOL    HW112410   4.831   5.033   6.312
 3837SOL    HW212411   4.745   4.906   6.257
 3838SOL     OW12412   0.144   4.121   4.599
 3838SOL    HW112413   0.068   4.136   4.662
 3838SOL    HW212414   0.132   4.033   4.552
 3839SOL     OW12415   4.559   0.720   3.358
 3839SOL    HW112416   4.570   0.650   3.288
 3839SOL    HW212417   4.561   0.811   3.314
 3840SOL     OW12418   2.237   0.605   5.789
 3840SOL    HW112419   2.226   0.690   5.737
 3840SOL    HW212420   2.155   0.591   5.846
 3841SOL     OW12421   0.307   3.077   5.167
 3841SOL    HW112422   0.304   3.137   5.247
 3841SOL    HW212423   0.352   2.991   5.192
 3842SOL     OW12424   1.825   3.426   6.909
 3842SOL    HW112425   1.904   3.370   6.933
 3842SOL    HW212426   1.748   3.367   6.884
 3843SOL     OW12427   6.416   4.329   2.511
 3843SOL    HW112428   6.396   4.298   2.604
 3843SOL    HW212429   6.440   4.426   2.512
 3844SOL     OW12430   0.679   2.428   6.140
 3844SOL    HW112431   0.771   2.406   6.110
 3844SOL    HW212432   0.616   2.418   6.063
 3845SOL     OW12433   3.701   3.465   4.406
 3845SOL    HW112434   3.789   3.423   4.427
 3845SOL    HW212435   3.682   3.537   4.473
 3846SOL     OW12436   0.805   5.516   3.804
 3846SOL    HW112437   0.856   5.435   3.833
 3846SOL    HW212438   0.721   5.488   3.757
 3847SOL     OW12439   6.217   0.693   4.274
 3847SOL    HW112440   6.308   0.733   4.283
 3847SOL    HW212441   6.225   0.594   4.268
 3848SOL     OW12442   3.344   5.578   3.076
 3848SOL    HW112443   3.346   5.486   3.036
 3848SOL    HW212444   3.420   5.632   3.040
 3849SOL     OW12445   1.162   1.374   5.393
 3849SOL    HW112446   1.150   1.373   5.493
 3849SOL    HW212447   1.209   1.291   5.364
 3850SOL     OW12448   2.993   3.221   0.724
 3850SOL    HW112449   2.970   3.284   0.799
 3850SOL    HW212450   2.978   3.127   0.754
 3851SOL     OW12451   1.724   4.540   2.663
 3851SOL    HW112452   1.694   4.475   2.733
 3851SOL    HW212453   1.694   4.632   2.688
 3852SOL     OW12454   4.161   6.872   3.833
 3852SOL    HW112455   4.249   6.870   3.880
 3852SOL    HW212456   4.100   6.803   3.872
 3853SOL     OW12457   0.905   3.771   3.165
 3853SOL    HW112458   0.844   3.789   3.242
 3853SOL    HW212459   0.896   3.676   3.136
 3854SOL     OW12460   1.336   3.347   2.077
 3854SOL    HW112461   1.314   3.418   2.010
 3854SOL    HW212462   1.406   3.381   2.140
 3855SOL     OW12463   5.579   6.187   6.508
 3855SOL    HW112464   5.509   6.173   6.438
 3855SOL    HW212465   5.543   6.163   6.598
 3856SOL     OW12466   6.900   6.501   5.384
 3856SOL    HW112467   6.865   6.473   5.473
 3856SOL    HW212468   6.836   6.566   5.342
 3857SOL     OW12469   0.663   5.734   6.246
 3857SOL    HW112470   0.695   5.703   6.157
 3857SOL    HW212471   0.736   5.787   6.291
 3858SOL     OW12472   1.486   6.822   5.750
 3858SOL    HW112473   1.561   6.887   5.762
 3858SOL    HW212474   1.484   6.759   5.828
 3859SOL     OW12475   6.562   2.161   3.269
 3859SOL    HW112476   6.539   2.104   3.348
 3859SOL    HW212477   6.599   2.249   3.301
 3860SOL     OW12478   2.313   0.341   5.796
 3860SOL    HW112479   2.272   0.432   5.793
 3860SOL    HW212480   2.412   0.349   5.806
 3861SOL     OW12481   4.514   4.491   3.456
 3861SOL    HW112482   4.568   4.430   3.398
 3861SOL    HW212483   4.533   4.471   3.552
 3862SOL     OW12484   1.341   0.360   4.690
 3862SOL    HW112485   1.248   0.394   4.679
 3862SOL    HW212486   1.403   0.436   4.712
 3863SOL     OW12487   4.151   3.007   5.998
 3863SOL    HW112488   4.202   3.075   5.945
 3863SOL    HW212489   4.211   2.969   6.069
 3864SOL     OW12490   2.484   0.746   5.755
 3864SOL    HW112491   2.496   0.811   5.830
 3864SOL    HW212492   2.447   0.661   5.790
 3865SOL     OW12493   3.411   6.818   0.047
 3865SOL    HW112494   3.438   6.738   7.013
 3865SOL    HW212495   3.321   6.802   0.088
 3866SOL     OW12496   4.015   1.113   1.735
 3866SOL    HW112497   3.950   1.042   1.763
 3866SOL    HW212498   3.969   1.201   1.732
 3867SOL     OW12499   1.354   4.348   4.117
 3867SOL    HW112500   1.409   4.426   4.086
 3867SOL    HW212501   1.414   4.279   4.158
 3868SOL     OW12502   3.376   0.084   0.478
 3868SOL    HW112503   3.338   0.162   0.427
 3868SOL    HW212504   3.474   0.097   0.489
 3869SOL     OW12505   6.587   3.139   5.263
 3869SOL    HW112506   6.489   3.115   5.267
 3869SOL    HW212507   6.597   3.239   5.262
 3870SOL     OW12508   4.368   5.458   0.302
 3870SOL    HW112509   4.398   5.394   0.373
 3870SOL    HW212510   4.312   5.409   0.235
 3871SOL     OW12511   3.888   0.286   2.655
 3871SOL    HW112512   3.932   0.371   2.684
 3871SOL    HW212513   3.954   0.211   2.656
 3872SOL     OW12514   3.740   3.154   2.572
 3872SOL    HW112515   3.675   3.120   2.504
 3872SOL    HW212516   3.804   3.081   2.597
 3873SOL     OW12517   6.658   3.966   1.387
 3873SOL    HW112518   6.747   4.009   1.405
 3873SOL    HW212519   6.624   3.996   1.298
 3874SOL     OW12520   3.846   5.973   6.259
 3874SOL    HW112521   3.850   6.058   6.312
 3874SOL    HW212522   3.797   5.904   6.311
 3875SOL     OW12523   1.662   2.916   1.549
 3875SOL    HW112524   1.590   2.853   1.521
 3875SOL    HW212525   1.745   2.865   1.571
 3876SOL     OW12526   5.910   4.748   0.378
 3876SOL    HW112527   5.907   4.666   0.320
 3876SOL    HW212528   5.963   4.819   0.332
 3877SOL     OW12529   6.890   2.677   0.072
 3877SOL    HW112530   6.942   2.740   0.129
 3877SOL    HW212531   6.922   2.682   6.997
 3878SOL     OW12532   2.461   6.473   5.047
 3878SOL    HW112533   2.387   6.522   5.093
 3878SOL    HW212534   2.449   6.375   5.060
 3879SOL     OW12535   5.372   6.738   1.292
 3879SOL    HW112536   5.394   6.648   1.254
 3879SOL    HW212537   5.439   6.760   1.364
 3880SOL     OW12538   6.325   4.809   3.375
 3880SOL    HW112539   6.256   4.743   3.345
 3880SOL    HW212540   6.321   4.818   3.475
 3881SOL     OW12541   1.196   4.655   1.031
 3881SOL    HW112542   1.173   4.687   1.123
 3881SOL    HW212543   1.160   4.719   0.964
 3882SOL     OW12544   6.614   1.803   4.907
 3882SOL    HW112545   6.674   1.863   4.854
 3882SOL    HW212546   6.556   1.750   4.845
 3883SOL     OW12547   4.498   1.820   3.636
 3883SOL    HW112548   4.499   1.745   3.571
 3883SOL    HW212549   4.453   1.900   3.596
 3884SOL     OW12550   0.998   5.692   3.715
 3884SOL    HW112551   0.951   5.608   3.744
 3884SOL    HW212552   0.992   5.760   3.788
 3885SOL     OW12553   6.419   0.500   3.576
 3885SOL    HW112554   6.434   0.589   3.618
 3885SOL    HW212555   6.442   0.428   3.642
 3886SOL     OW12556   6.358   5.416   5.092
 3886SOL    HW112557   6.413   5.360   5.029
 3886SOL    HW212558   6.348   5.508   5.053
 3887SOL     OW12559   5.875   1.031   5.307
 3887SOL    HW112560   5.878   1.011   5.209
 3887SOL    HW212561   5.929   1.113   5.326
 3888SOL     OW12562   0.786   0.778   6.708
 3888SOL    HW112563   0.745   0.689   6.689
 3888SOL    HW212564   0.813   0.782   6.804
 3889SOL     OW12565   6.802   2.734   6.677
 3889SOL    HW112566   6.858   2.757   6.598
 3889SOL    HW212567   6.725   2.677   6.649
 3890SOL     OW12568   5.747   5.734   2.650
 3890SOL    HW112569   5.772   5.701   2.559
 3890SOL    HW212570   5.799   5.816   2.672
 3891SOL     OW12571   5.391   5.055   4.005
 3891SOL    HW112572   5.346   5.108   4.076
 3891SOL    HW212573   5.323   4.998   3.958
 3892SOL     OW12574   0.393   2.314   2.010
 3892SOL    HW112575   0.469   2.257   2.042
 3892SOL    HW212576   0.325   2.322   2.083
 3893SOL     OW12577   2.759   5.443   1.703
 3893SOL    HW112578   2.777   5.527   1.752
 3893SOL    HW212579   2.731   5.372   1.767
 3894SOL     OW12580   2.603   2.258   1.057
 3894SOL    HW112581   2.679   2.197   1.033
 3894SOL    HW212582   2.634   2.324   1.125
 3895SOL     OW12583   1.609   0.092   5.287
 3895SOL    HW112584   1.587   7.015   5.272
 3895SOL    HW212585   1.617   0.139   5.199
 3896SOL     OW12586   0.220   1.992   6.422
 3896SOL    HW112587   0.202   1.929   6.347
 3896SOL    HW212588   0.150   1.981   6.492
 3897SOL     OW12589   3.557   0.013   2.050
 3897SOL    HW112590   3.534   6.956   2.110
 3897SOL    HW212591   3.603   0.085   2.102
 3898SOL     OW12592   3.385   3.714   3.780
 3898SOL    HW112593   3.407   3.806   3.812
 3898SOL    HW212594   3.469   3.668   3.750
 3899SOL     OW12595   4.915   0.386   4.285
 3899SOL    HW112596   4.988   0.371   4.219
 3899SOL    HW212597   4.828   0.399   4.237
 3900SOL     OW12598   5.013   2.847   2.980
 3900SOL    HW112599   5.083   2.859   3.050
 3900SOL    HW212600   4.926   2.826   3.024
 3901SOL     OW12601   2.983   6.623   5.827
 3901SOL    HW112602   3.045   6.546   5.838
 3901SOL    HW212603   2.919   6.625   5.904
 3902SOL     OW12604   6.030   3.703   1.788
 3902SOL    HW112605   6.097   3.644   1.832
 3902SOL    HW212606   6.072   3.746   1.707
 3903SOL     OW12607   4.782   4.072   6.549
 3903SOL    HW112608   4.875   4.080   6.583
 3903SOL    HW212609   4.754   3.976   6.547
 3904SOL     OW12610   2.349   6.971   6.072
 3904SOL    HW112611   2.313   0.021   6.010
 3904SOL    HW212612   2.276   6.906   6.095
 3905SOL     OW12613   5.492   6.544   6.216
 3905SOL    HW112614   5.511   6.519   6.311
 3905SOL    HW212615   5.536   6.631   6.195
 3906SOL     OW12616   1.693   4.851   5.596
 3906SOL    HW112617   1.716   4.815   5.506
 3906SOL    HW212618   1.633   4.787   5.643
 3907SOL     OW12619   6.289   0.564   4.013
 3907SOL    HW112620   6.383   0.572   4.044
 3907SOL    HW212621   6.234   0.518   4.082
 3908SOL     OW12622   1.633   1.038   6.872
 3908SOL    HW112623   1.599   1.102   6.803
 3908SOL    HW212624   1.688   1.088   6.939
 3909SOL     OW12625   0.124   4.706   6.373
 3909SOL    HW112626   0.107   4.647   6.452
 3909SOL    HW212627   0.198   4.770   6.395
 3910SOL     OW12628   3.504   3.932   1.914
 3910SOL    HW112629   3.427   3.869   1.920
 3910SOL    HW212630   3.588   3.884   1.939
 3911SOL     OW12631   5.221   1.388   0.346
 3911SOL    HW112632   5.169   1.343   0.419
 3911SOL    HW212633   5.314   1.405   0.378
 3912SOL     OW12634   3.697   0.997   6.136
 3912SOL    HW112635   3.675   0.985   6.233
 3912SOL    HW212636   3.612   1.003   6.083
 3913SOL     OW12637   2.649   6.623   6.915
 3913SOL    HW112638   2.737   6.607   6.869
 3913SOL    HW212639   2.606   6.705   6.879
 3914SOL     OW12640   4.933   1.040   1.572
 3914SOL    HW112641   4.894   1.094   1.647
 3914SOL    HW212642   4.860   0.992   1.524
 3915SOL     OW12643   4.441   6.527   0.328
 3915SOL    HW112644   4.465   6.441   0.283
 3915SOL    HW212645   4.524   6.582   0.339
 3916SOL     OW12646   2.415   6.819   2.735
 3916SOL    HW112647   2.420   6.836   2.636
 3916SOL    HW212648   2.334   6.864   2.772
 3917SOL     OW12649   1.194   4.072   1.625
 3917SOL    HW112650   1.280   4.079   1.676
 3917SOL    HW212651   1.209   4.102   1.530
 3918SOL     OW12652   3.628   6.505   1.439
 3918SOL    HW112653   3.564   6.526   1.365
 3918SOL    HW212654   3.674   6.419   1.420
 3919SOL     OW12655   3.374   0.331   6.628
 3919SOL    HW112656   3.432   0.309   6.706
 3919SOL    HW212657   3.280   0.306   6.648
 3920SOL     OW12658   3.127   0.936   6.554
 3920SOL    HW112659   3.044   0.886   6.580
 3920SOL    HW212660   3.150   1.001   6.627
 3921SOL     OW12661   0.185   2.153   0.055
 3921SOL    HW112662   0.209   2.168   6.979
 3921SOL    HW212663   0.253   2.196   0.114
 3922SOL     OW12664   4.458   5.192   1.547
 3922SOL    HW112665   4.554   5.215   1.533
 3922SOL    HW212666   4.401   5.245   1.483
 3923SOL     OW12667   5.858   2.040   0.491
 3923SOL    HW112668   5.786   2.087   0.441
 3923SOL    HW212669   5.909   1.981   0.428
 3924SOL     OW12670   0.549   5.131   2.848
 3924SOL    HW112671   0.532   5.196   2.923
 3924SOL    HW212672   0.489   5.052   2.859
 3925SOL     OW12673   4.241   4.566   0.976
 3925SOL    HW112674   4.324   4.529   1.019
 3925SOL    HW212675   4.162   4.511   1.004
 3926SOL     OW12676   0.274   0.193   4.858
 3926SOL    HW112677   0.318   0.214   4.771
 3926SOL    HW212678   0.311   0.254   4.929
 3927SOL     OW12679   6.980   2.452   4.722
 3927SOL    HW112680   6.908   2.409   4.667
 3927SOL    HW212681   0.035   2.386   4.736
 3928SOL     OW12682   3.272   5.737   3.762
 3928SOL    HW112683   3.334   5.791   3.819
 3928SOL    HW212684   3.201   5.696   3.820
 3929SOL     OW12685   0.182   1.698   6.493
 3929SOL    HW112686   0.157   1.721   6.587
 3929SOL    HW212687   0.176   1.599   6.480
 3930SOL     OW12688   1.009   2.008   3.851
 3930SOL    HW112689   1.028   2.024   3.754
 3930SOL    HW212690   1.009   1.910   3.870
 3931SOL     OW12691   1.849   1.517   2.126
 3931SOL    HW112692   1.810   1.592   2.178
 3931SOL    HW212693   1.934   1.486   2.169
 3932SOL     OW12694   1.992   4.801   3.922
 3932SOL    HW112695   1.951   4.845   4.002
 3932SOL    HW212696   1.957   4.708   3.913
 3933SOL     OW12697   1.725   6.632   0.308
 3933SOL    HW112698   1.742   6.590   0.397
 3933SOL    HW212699   1.736   6.732   0.316
 3934SOL     OW12700   6.741   1.271   2.872
 3934SOL    HW112701   6.650   1.313   2.864
 3934SOL    HW212702   6.803   1.335   2.917
 3935SOL     OW12703   1.164   1.394   5.667
 3935SOL    HW112704   1.223   1.443   5.731
 3935SOL    HW212705   1.071   1.429   5.673
 3936SOL     OW12706   0.118   5.906   5.198
 3936SOL    HW112707   0.154   5.814   5.213
 3936SOL    HW212708   0.127   5.960   5.282
 3937SOL     OW12709   6.497   6.248   2.038
 3937SOL    HW112710   6.418   6.264   2.097
 3937SOL    HW212711   6.572   6.210   2.091
 3938SOL     OW12712   6.218   4.096   4.144
 3938SOL    HW112713   6.199   4.142   4.230
 3938SOL    HW212714   6.314   4.111   4.120
 3939SOL     OW12715   2.686   1.712   3.063
 3939SOL    HW112716   2.733   1.800   3.053
 3939SOL    HW212717   2.659   1.678   2.973
 3940SOL     OW12718   2.840   4.728   1.715
 3940SOL    HW112719   2.922   4.717   1.659
 3940SOL    HW212720   2.829   4.650   1.775
 3941SOL     OW12721   5.967   0.222   4.570
 3941SOL    HW112722   5.965   0.123   4.578
 3941SOL    HW212723   6.062   0.254   4.565
 3942SOL     OW12724   0.573   6.270   5.356
 3942SOL    HW112725   0.589   6.366   5.375
 3942SOL    HW212726   0.579   6.217   5.441
 3943SOL     OW12727   0.846   3.330   2.660
 3943SOL    HW112728   0.926   3.274   2.681
 3943SOL    HW212729   0.863   3.424   2.691
 3944SOL     OW12730   5.989   4.094   6.212
 3944SOL    HW112731   6.012   4.134   6.123
 3944SOL    HW212732   6.007   3.996   6.210
 3945SOL     OW12733   1.193   2.420   3.098
 3945SOL    HW112734   1.292   2.420   3.087
 3945SOL    HW212735   1.153   2.487   3.034
 3946SOL     OW12736   0.219   3.842   6.632
 3946SOL    HW112737   0.206   3.746   6.656
 3946SOL    HW212738   0.215   3.897   6.716
 3947SOL     OW12739   5.800   5.135   0.650
 3947SOL    HW112740   5.839   5.164   0.563
 3947SOL    HW212741   5.815   5.205   0.720
 3948SOL     OW12742   1.573   3.780   6.902
 3948SOL    HW112743   1.483   3.751   6.933
 3948SOL    HW212744   1.583   3.761   6.805
 3949SOL     OW12745   6.832   6.990   3.557
 3949SOL    HW112746   6.827   0.069   3.537
 3949SOL    HW212747   6.739   6.953   3.564
 3950SOL     OW12748   3.903   4.026   1.862
 3950SOL    HW112749   3.844   3.956   1.822
 3950SOL    HW212750   3.998   4.007   1.839
 3951SOL     OW12751   0.578   1.197   6.967
 3951SOL    HW112752   0.517   1.271   6.994
 3951SOL    HW212753   0.540   1.149   6.888
 3952SOL     OW12754   6.138   3.350   4.202
 3952SOL    HW112755   6.076   3.404   4.145
 3952SOL    HW212756   6.108   3.254   4.202
 3953SOL     OW12757   3.648   4.024   6.466
 3953SOL    HW112758   3.560   4.042   6.422
 3953SOL    HW212759   3.650   3.931   6.502
 3954SOL     OW12760   5.610   4.849   5.465
 3954SOL    HW112761   5.556   4.869   5.383
 3954SOL    HW212762   5.633   4.935   5.511
 3955SOL     OW12763   5.107   6.643   7.018
 3955SOL    HW112764   5.029   6.684   0.046
 3955SOL    HW212765   5.112   6.546   0.023
 3956SOL     OW12766   0.741   2.373   4.841
 3956SOL    HW112767   0.717   2.426   4.759
 3956SOL    HW212768   0.669   2.306   4.859
 3957SOL     OW12769   3.856   6.478   3.225
 3957SOL    HW112770   3.880   6.405   3.288
 3957SOL    HW212771   3.883   6.566   3.264
 3958SOL     OW12772   6.348   6.210   6.675
 3958SOL    HW112773   6.320   6.288   6.730
 3958SOL    HW212774   6.350   6.237   6.578
 3959SOL     OW12775   3.233   6.262   1.391
 3959SOL    HW112776   3.260   6.294   1.482
 3959SOL    HW212777   3.252   6.333   1.324
 3960SOL     OW12778   5.880   2.662   5.936
 3960SOL    HW112779   5.951   2.635   6.002
 3960SOL    HW212780   5.869   2.761   5.938
 3961SOL     OW12781   5.391   1.914   1.875
 3961SOL    HW112782   5.404   1.945   1.969
 3961SOL    HW212783   5.318   1.846   1.872
 3962SOL     OW12784   0.831   6.021   0.062
 3962SOL    HW112785   0.860   5.925   0.065
 3962SOL    HW212786   0.897   6.078   0.111
 3963SOL     OW12787   5.372   5.113   3.458
 3963SOL    HW112788   5.274   5.101   3.440
 3963SOL    HW212789   5.408   5.185   3.397
 3964SOL     OW12790   3.977   4.879   4.835
 3964SOL    HW112791   4.055   4.847   4.889
 3964SOL    HW212792   3.912   4.804   4.823
 3965SOL     OW12793   3.743   4.498   6.237
 3965SOL    HW112794   3.705   4.545   6.317
 3965SOL    HW212795   3.801   4.561   6.185
 3966SOL     OW12796   6.734   4.701   0.213
 3966SOL    HW112797   6.745   4.796   0.243
 3966SOL    HW212798   6.704   4.700   0.118
 3967SOL     OW12799   1.065   5.085   2.678
 3967SOL    HW112800   0.965   5.079   2.680
 3967SOL    HW212801   1.097   5.140   2.756
 3968SOL     OW12802   5.955   0.900   1.278
 3968SOL    HW112803   5.936   0.944   1.190
 3968SOL    HW212804   5.880   0.919   1.341
 3969SOL     OW12805   0.398   4.170   2.816
 3969SOL    HW112806   0.498   4.174   2.826
 3969SOL    HW212807   0.371   4.077   2.790
 3970SOL     OW12808   4.926   5.324   3.613
 3970SOL    HW112809   4.901   5.325   3.710
 3970SOL    HW212810   4.851   5.362   3.559
 3971SOL     OW12811   2.537   5.188   2.134
 3971SOL    HW112812   2.601   5.213   2.206
 3971SOL    HW212813   2.524   5.088   2.134
 3972SOL     OW12814   0.947   5.522   1.234
 3972SOL    HW112815   1.025   5.462   1.250
 3972SOL    HW212816   0.974   5.617   1.249
 3973SOL     OW12817   2.942   3.215   4.847
 3973SOL    HW112818   3.003   3.141   4.873
 3973SOL    HW212819   2.866   3.221   4.913
 3974SOL     OW12820   1.103   0.405   5.571
 3974SOL    HW112821   1.010   0.383   5.542
 3974SOL    HW212822   1.158   0.321   5.574
 3975SOL     OW12823   5.896   0.280   5.911
 3975SOL    HW112824   5.980   0.314   5.869
 3975SOL    HW212825   5.908   0.185   5.938
 3976SOL     OW12826   1.524   5.084   1.071
 3976SOL    HW112827   1.621   5.067   1.054
 3976SOL    HW212828   1.507   5.183   1.076
 3977SOL     OW12829   3.168   4.639   5.890
 3977SOL    HW112830   3.216   4.554   5.913
 3977SOL    HW212831   3.160   4.647   5.791
 3978SOL     OW12832   5.414   0.109   4.444
 3978SOL    HW112833   5.437   0.204   4.423
 3978SOL    HW212834   5.314   0.098   4.445
 3979SOL     OW12835   2.241   6.346   1.573
 3979SOL    HW112836   2.268   6.272   1.511
 3979SOL    HW212837   2.210   6.424   1.519
 3980SOL     OW12838   7.004   4.504   5.742
 3980SOL    HW112839   6.964   4.549   5.822
 3980SOL    HW212840   0.009   4.573   5.673
 3981SOL     OW12841   1.135   1.934   6.119
 3981SOL    HW112842   1.172   1.842   6.132
 3981SOL    HW212843   1.204   1.992   6.075
 3982SOL     OW12844   2.769   0.518   4.196
 3982SOL    HW112845   2.747   0.559   4.107
 3982SOL    HW212846   2.746   0.583   4.268
 3983SOL     OW12847   3.272   5.995   4.157
 3983SOL    HW112848   3.317   6.041   4.080
 3983SOL    HW212849   3.331   6.001   4.238
 3984SOL     OW12850   2.232   0.933   1.957
 3984SOL    HW112851   2.330   0.913   1.955
 3984SOL    HW212852   2.213   0.999   2.030
 3985SOL     OW12853   2.446   4.018   0.102
 3985SOL    HW112854   2.467   4.107   0.063
 3985SOL    HW212855   2.520   3.954   0.082
 3986SOL     OW12856   0.516   2.019   3.416
 3986SOL    HW112857   0.433   2.062   3.379
 3986SOL    HW212858   0.493   1.927   3.448
 3987SOL     OW12859   1.366   5.172   4.647
 3987SOL    HW112860   1.394   5.177   4.743
 3987SOL    HW212861   1.427   5.230   4.591
 3988SOL     OW12862   3.734   2.036   5.740
 3988SOL    HW112863   3.760   1.991   5.826
 3988SOL    HW212864   3.668   1.979   5.691
 3989SOL     OW12865   5.941   0.930   6.530
 3989SOL    HW112866   5.953   0.836   6.561
 3989SOL    HW212867   5.843   0.953   6.530
 3990SOL     OW12868   6.044   1.743   3.932
 3990SOL    HW112869   6.026   1.664   3.874
 3990SOL    HW212870   6.111   1.718   4.002
 3991SOL     OW12871   6.563   2.375   3.642
 3991SOL    HW112872   6.539   2.393   3.546
 3991SOL    HW212873   6.585   2.279   3.653
 3992SOL     OW12874   4.727   1.681   6.104
 3992SOL    HW112875   4.823   1.656   6.093
 3992SOL    HW212876   4.720   1.776   6.136
 3993SOL     OW12877   1.951   1.697   3.841
 3993SOL    HW112878   1.877   1.644   3.882
 3993SOL    HW212879   1.965   1.668   3.747
 3994SOL     OW12880   1.432   2.646   4.799
 3994SOL    HW112881   1.359   2.578   4.804
 3994SOL    HW212882   1.393   2.738   4.808
 3995SOL     OW12883   2.308   4.233   3.949
 3995SOL    HW112884   2.314   4.133   3.950
 3995SOL    HW212885   2.272   4.264   3.861
 3996SOL     OW12886   1.415   0.708   4.917
 3996SOL    HW112887   1.338   0.738   4.974
 3996SOL    HW212888   1.428   0.774   4.842
 3997SOL     OW12889   4.927   3.724   3.809
 3997SOL    HW112890   4.979   3.800   3.771
 3997SOL    HW212891   4.936   3.725   3.909
 3998SOL     OW12892   5.382   1.514   2.290
 3998SOL    HW112893   5.296   1.464   2.302
 3998SOL    HW212894   5.458   1.456   2.318
 3999SOL     OW12895   5.756   3.972   3.103
 3999SOL    HW112896   5.757   3.995   3.006
 3999SOL    HW212897   5.694   3.894   3.118
 4000SOL     OW12898   3.225   5.663   2.585
 4000SOL    HW112899   3.159   5.708   2.525
 4000SOL    HW212900   3.318   5.690   2.558
 4001SOL     OW12901   2.426   2.683   4.655
 4001SOL    HW112902   2.500   2.741   4.687
 4001SOL    HW212903   2.340   2.712   4.697
 4002SOL     OW12904   3.552   3.739   6.277
 4002SOL    HW112905   3.454   3.757   6.282
 4002SOL    HW212906   3.569   3.642   6.291
 4003SOL     OW12907   2.482   0.529   6.082
 4003SOL    HW112908   2.398   0.504   6.130
 4003SOL    HW212909   2.497   0.628   6.090
 4004SOL     OW12910   6.046   3.067   4.155
 4004SOL    HW112911   5.951   3.073   4.125
 4004SOL    HW212912   6.055   2.994   4.224
 4005SOL     OW12913   5.046   4.898   1.271
 4005SOL    HW112914   5.091   4.810   1.257
 4005SOL    HW212915   5.105   4.971   1.237
 4006SOL     OW12916   4.473   4.893   2.307
 4006SOL    HW112917   4.385   4.937   2.328
 4006SOL    HW212918   4.545   4.935   2.362
 4007SOL     OW12919   0.679   2.594   2.136
 4007SOL    HW112920   0.765   2.628   2.098
 4007SOL    HW212921   0.616   2.571   2.062
 4008SOL     OW12922   3.815   1.358   5.610
 4008SOL    HW112923   3.891   1.342   5.548
 4008SOL    HW212924   3.850   1.379   5.701
 4009SOL     OW12925   4.443   2.637   0.498
 4009SOL    HW112926   4.467   2.552   0.451
 4009SOL    HW212927   4.451   2.624   0.597
 4010SOL     OW12928   2.308   3.296   1.513
 4010SOL    HW112929   2.392   3.350   1.504
 4010SOL    HW212930   2.281   3.263   1.422
 4011SOL     OW12931   1.153   6.808   2.279
 4011SOL    HW112932   1.123   6.768   2.192
 4011SOL    HW212933   1.073   6.834   2.333
 4012SOL     OW12934   4.615   5.084   2.004
 4012SOL    HW112935   4.537   5.093   2.064
 4012SOL    HW212936   4.690   5.039   2.053
 4013SOL     OW12937   3.161   0.632   0.717
 4013SOL    HW112938   3.123   0.705   0.659
 4013SOL    HW212939   3.100   0.553   0.715
 4014SOL     OW12940   3.887   5.642   4.143
 4014SOL    HW112941   3.788   5.635   4.138
 4014SOL    HW212942   3.916   5.735   4.118
 4015SOL     OW12943   4.007   4.678   6.353
 4015SOL    HW112944   3.941   4.651   6.283
 4015SOL    HW212945   3.979   4.765   6.393
 4016SOL     OW12946   1.492   5.060   6.889
 4016SOL    HW112947   1.506   5.158   6.903
 4016SOL    HW212948   1.395   5.039   6.894
 4017SOL     OW12949   0.547   6.251   6.850
 4017SOL    HW112950   0.580   6.175   6.793
 4017SOL    HW212951   0.621   6.318   6.862
 4018SOL     OW12952   5.641   6.449   1.407
 4018SOL    HW112953   5.662   6.357   1.440
 4018SOL    HW212954   5.654   6.454   1.308
 4019SOL     OW12955   6.382   3.808   2.607
 4019SOL    HW112956   6.409   3.902   2.586
 4019SOL    HW212957   6.397   3.790   2.704
 4020SOL     OW12958   0.146   2.649   5.699
 4020SOL    HW112959   0.118   2.684   5.610
 4020SOL    HW212960   0.180   2.556   5.690
 4021SOL     OW12961   2.937   3.738   5.078
 4021SOL    HW112962   2.914   3.828   5.041
 4021SOL    HW212963   2.940   3.671   5.004
 4022SOL     OW12964   4.638   6.741   6.672
 4022SOL    HW112965   4.657   6.650   6.635
 4022SOL    HW212966   4.693   6.756   6.754
 4023SOL     OW12967   6.857   0.844   3.916
 4023SOL    HW112968   6.797   0.775   3.874
 4023SOL    HW212969   6.909   0.890   3.844
 4024SOL     OW12970   2.343   5.365   4.513
 4024SOL    HW112971   2.375   5.382   4.607
 4024SOL    HW212972   2.254   5.320   4.516
 4025SOL     OW12973   0.449   6.435   4.291
 4025SOL    HW112974   0.421   6.345   4.258
 4025SOL    HW212975   0.532   6.427   4.346
 4026SOL     OW12976   6.289   0.130   3.006
 4026SOL    HW112977   6.272   0.144   2.908
 4026SOL    HW212978   6.329   0.039   3.020
 4027SOL     OW12979   3.098   2.625   0.851
 4027SOL    HW112980   3.163   2.677   0.795
 4027SOL    HW212981   3.015   2.608   0.798
 4028SOL     OW12982   2.644   2.285   3.069
 4028SOL    HW112983   2.642   2.294   2.969
 4028SOL    HW212984   2.607   2.196   3.095
 4029SOL     OW12985   3.211   5.058   5.830
 4029SOL    HW112986   3.140   5.114   5.787
 4029SOL    HW212987   3.177   4.965   5.841
 4030SOL     OW12988   1.477   1.722   1.606
 4030SOL    HW112989   1.448   1.815   1.581
 4030SOL    HW212990   1.412   1.656   1.569
 4031SOL     OW12991   4.899   6.192   3.441
 4031SOL    HW112992   4.962   6.208   3.518
 4031SOL    HW212993   4.945   6.138   3.371
 4032SOL     OW12994   6.120   0.405   2.686
 4032SOL    HW112995   6.040   0.403   2.626
 4032SOL    HW212996   6.157   0.312   2.695
 4033SOL     OW12997   2.360   3.587   1.298
 4033SOL    HW112998   2.409   3.526   1.360
 4033SOL    HW212999   2.424   3.654   1.259
 4034SOL     OW13000   6.675   1.402   4.449
 4034SOL    HW113001   6.586   1.434   4.419
 4034SOL    HW213002   6.672   1.303   4.466
 4035SOL     OW13003   6.158   2.681   0.429
 4035SOL    HW113004   6.256   2.666   0.416
 4035SOL    HW213005   6.107   2.604   0.392
 4036SOL     OW13006   4.498   5.793   2.385
 4036SOL    HW113007   4.484   5.851   2.465
 4036SOL    HW213008   4.592   5.803   2.352
 4037SOL     OW13009   2.503   1.595   0.360
 4037SOL    HW113010   2.563   1.675   0.367
 4037SOL    HW213011   2.512   1.553   0.270
 4038SOL     OW13012   4.514   3.471   1.699
 4038SOL    HW113013   4.566   3.555   1.683
 4038SOL    HW213014   4.575   3.393   1.690
 4039SOL     OW13015   4.771   4.061   1.624
 4039SOL    HW113016   4.763   4.151   1.580
 4039SOL    HW213017   4.680   4.026   1.645
 4040SOL     OW13018   3.426   6.865   6.178
 4040SOL    HW113019   3.370   6.942   6.208
 4040SOL    HW213020   3.466   6.820   6.257
 4041SOL     OW13021   1.535   4.706   1.530
 4041SOL    HW113022   1.616   4.764   1.528
 4041SOL    HW213023   1.464   4.745   1.470
 4042SOL     OW13024   6.258   5.551   3.221
 4042SOL    HW113025   6.160   5.557   3.208
 4042SOL    HW213026   6.299   5.500   3.145
 4043SOL     OW13027   5.492   1.337   4.426
 4043SOL    HW113028   5.591   1.344   4.436
 4043SOL    HW213029   5.462   1.391   4.347
 4044SOL     OW13030   4.794   0.309   3.090
 4044SOL    HW113031   4.709   0.282   3.046
 4044SOL    HW213032   4.786   0.298   3.189
 4045SOL     OW13033   2.637   5.734   5.387
 4045SOL    HW113034   2.564   5.669   5.409
 4045SOL    HW213035   2.690   5.699   5.310
 4046SOL     OW13036   1.238   1.740   3.871
 4046SOL    HW113037   1.262   1.739   3.774
 4046SOL    HW213038   1.138   1.749   3.881
 4047SOL     OW13039   1.653   1.876   0.779
 4047SOL    HW113040   1.708   1.862   0.862
 4047SOL    HW213041   1.558   1.852   0.798
 4048SOL     OW13042   5.177   1.917   2.125
 4048SOL    HW113043   5.155   1.910   2.222
 4048SOL    HW213044   5.114   1.981   2.081
 4049SOL     OW13045   5.936   5.040   6.142
 4049SOL    HW113046   6.020   4.986   6.133
 4049SOL    HW213047   5.893   5.050   6.053
 4050SOL     OW13048   1.516   6.783   1.224
 4050SOL    HW113049   1.489   6.688   1.236
 4050SOL    HW213050   1.504   6.833   1.310
 4051SOL     OW13051   3.969   2.125   6.601
 4051SOL    HW113052   4.050   2.085   6.561
 4051SOL    HW213053   3.986   2.222   6.622
 4052SOL     OW13054   6.883   1.103   2.639
 4052SOL    HW113055   6.838   1.149   2.715
 4052SOL    HW213056   6.881   1.162   2.559
 4053SOL     OW13057   3.235   5.149   4.174
 4053SOL    HW113058   3.194   5.058   4.163
 4053SOL    HW213059   3.286   5.173   4.092
 4054SOL     OW13060   6.409   3.692   1.892
 4054SOL    HW113061   6.452   3.776   1.860
 4054SOL    HW213062   6.480   3.629   1.925
 4055SOL     OW13063   3.280   3.210   6.314
 4055SOL    HW113064   3.335   3.170   6.241
 4055SOL    HW213065   3.183   3.208   6.289
 4056SOL     OW13066   3.407   4.122   0.958
 4056SOL    HW113067   3.424   4.024   0.969
 4056SOL    HW213068   3.309   4.137   0.948
 4057SOL     OW13069   5.831   2.706   1.738
 4057SOL    HW113070   5.826   2.666   1.829
 4057SOL    HW213071   5.763   2.779   1.730
 4058SOL     OW13072   1.885   0.370   3.924
 4058SOL    HW113073   1.845   0.335   3.838
 4058SOL    HW213074   1.815   0.420   3.975
 4059SOL     OW13075   1.149   2.343   3.662
 4059SOL    HW113076   1.215   2.415   3.642
 4059SOL    HW213077   1.198   2.260   3.690
 4060SOL     OW13078   5.105   5.834   4.520
 4060SOL    HW113079   5.148   5.745   4.538
 4060SOL    HW213080   5.141   5.871   4.434
 4061SOL     OW13081   3.023   4.880   1.829
 4061SOL    HW113082   2.970   4.810   1.779
 4061SOL    HW213083   3.119   4.854   1.830
 4062SOL     OW13084   2.233   2.363   2.209
 4062SOL    HW113085   2.225   2.365   2.309
 4062SOL    HW213086   2.251   2.455   2.175
 4063SOL     OW13087   6.361   6.022   5.375
 4063SOL    HW113088   6.450   6.061   5.399
 4063SOL    HW213089   6.372   5.951   5.306
 4064SOL     OW13090   1.975   6.445   3.802
 4064SOL    HW113091   1.929   6.519   3.851
 4064SOL    HW213092   1.943   6.357   3.837
 4065SOL     OW13093   0.343   0.214   0.984
 4065SOL    HW113094   0.253   0.238   0.947
 4065SOL    HW213095   0.391   0.155   0.919
 4066SOL     OW13096   5.155   6.062   3.249
 4066SOL    HW113097   5.157   6.107   3.160
 4066SOL    HW213098   5.081   5.995   3.251
 4067SOL     OW13099   6.611   3.056   2.920
 4067SOL    HW113100   6.522   3.023   2.889
 4067SOL    HW213101   6.681   2.988   2.900
 4068SOL     OW13102   3.353   0.911   4.809
 4068SOL    HW113103   3.416   0.855   4.863
 4068SOL    HW213104   3.401   0.991   4.774
 4069SOL     OW13105   3.423   5.121   5.978
 4069SOL    HW113106   3.345   5.095   5.921
 4069SOL    HW213107   3.409   5.213   6.014
 4070SOL     OW13108   0.632   3.129   2.246
 4070SOL    HW113109   0.576   3.192   2.192
 4070SOL    HW213110   0.704   3.091   2.188
 4071SOL     OW13111   1.453   0.489   5.204
 4071SOL    HW113112   1.374   0.547   5.228
 4071SOL    HW213113   1.513   0.540   5.142
 4072SOL     OW13114   0.370   5.954   4.390
 4072SOL    HW113115   0.308   5.882   4.361
 4072SOL    HW213116   0.412   5.929   4.477
 4073SOL     OW13117   2.120   6.223   6.280
 4073SOL    HW113118   2.039   6.164   6.279
 4073SOL    HW213119   2.148   6.239   6.375
 4074SOL     OW13120   6.948   2.876   1.797
 4074SOL    HW113121   6.933   2.957   1.741
 4074SOL    HW213122   0.027   2.854   1.799
 4075SOL     OW13123   4.095   1.839   2.676
 4075SOL    HW113124   4.138   1.926   2.652
 4075SOL    HW213125   4.059   1.795   2.594
 4076SOL     OW13126   3.086   3.132   5.750
 4076SOL    HW113127   3.117   3.058   5.691
 4076SOL    HW213128   3.084   3.218   5.699
 4077SOL     OW13129   4.028   0.708   0.429
 4077SOL    HW113130   4.043   0.805   0.410
 4077SOL    HW213131   3.955   0.697   0.496
 4078SOL     OW13132   6.813   5.604   1.953
 4078SOL    HW113133   6.771   5.516   1.928
 4078SOL    HW213134   6.849   5.648   1.871
 4079SOL     OW13135   1.116   2.229   4.129
 4079SOL    HW113136   1.096   2.139   4.168
 4079SOL    HW213137   1.172   2.218   4.047
 4080SOL     OW13138   2.936   3.914   6.464
 4080SOL    HW113139   3.035   3.900   6.463
 4080SOL    HW213140   2.898   3.889   6.375
 4081SOL     OW13141   2.260   1.938   4.235
 4081SOL    HW113142   2.291   2.012   4.174
 4081SOL    HW213143   2.339   1.882   4.261
 4082SOL     OW13144   1.621   2.867   0.165
 4082SOL    HW113145   1.618   2.777   0.209
 4082SOL    HW213146   1.661   2.934   0.229
 4083SOL     OW13147   6.871   4.432   1.884
 4083SOL    HW113148   6.905   4.340   1.867
 4083SOL    HW213149   6.919   4.497   1.825
 4084SOL     OW13150   4.235   2.257   3.264
 4084SOL    HW113151   4.137   2.239   3.259
 4084SOL    HW213152   4.285   2.174   3.240
 4085SOL     OW13153   2.641   5.858   0.777
 4085SOL    HW113154   2.621   5.901   0.865
 4085SOL    HW213155   2.740   5.844   0.768
 4086SOL     OW13156   0.646   5.172   1.467
 4086SOL    HW113157   0.560   5.147   1.422
 4086SOL    HW213158   0.705   5.220   1.402
 4087SOL     OW13159   1.696   1.715   3.348
 4087SOL    HW113160   1.727   1.621   3.335
 4087SOL    HW213161   1.774   1.772   3.374
 4088SOL     OW13162   6.281   0.822   6.859
 4088SOL    HW113163   6.317   0.850   6.770
 4088SOL    HW213164   6.339   0.860   6.932
 4089SOL     OW13165   5.571   4.744   3.742
 4089SOL    HW113166   5.648   4.686   3.771
 4089SOL    HW213167   5.598   4.840   3.744
 4090SOL     OW13168   1.169   4.968   4.866
 4090SOL    HW113169   1.159   4.874   4.898
 4090SOL    HW213170   1.265   4.994   4.872
 4091SOL     OW13171   0.778   6.391   6.857
 4091SOL    HW113172   0.824   6.476   6.830
 4091SOL    HW213173   0.832   6.313   6.828
 4092SOL     OW13174   5.493   2.855   4.361
 4092SOL    HW113175   5.522   2.777   4.306
 4092SOL    HW213176   5.401   2.882   4.333
 4093SOL     OW13177   4.874   6.006   2.126
 4093SOL    HW113178   4.888   6.101   2.154
 4093SOL    HW213179   4.954   5.974   2.075
 4094SOL     OW13180   1.893   5.247   5.866
 4094SOL    HW113181   1.928   5.298   5.788
 4094SOL    HW213182   1.969   5.221   5.925
 4095SOL     OW13183   0.592   4.338   0.671
 4095SOL    HW113184   0.661   4.401   0.706
 4095SOL    HW213185   0.524   4.388   0.618
 4096SOL     OW13186   4.926   0.736   6.225
 4096SOL    HW113187   4.873   0.656   6.253
 4096SOL    HW213188   4.884   0.819   6.261
 4097SOL     OW13189   3.915   5.022   4.610
 4097SOL    HW113190   3.986   5.041   4.542
 4097SOL    HW213191   3.957   4.978   4.690
 4098SOL     OW13192   0.697   2.229   2.051
 4098SOL    HW113193   0.769   2.192   2.110
 4098SOL    HW213194   0.707   2.191   1.959
 4099SOL     OW13195   3.649   5.166   1.478
 4099SOL    HW113196   3.681   5.096   1.414
 4099SOL    HW213197   3.555   5.192   1.454
 4100SOL     OW13198   6.803   6.477   4.347
 4100SOL    HW113199   6.892   6.433   4.332
 4100SOL    HW213200   6.803   6.567   4.305
 4101SOL     OW13201   6.682   1.106   0.082
 4101SOL    HW113202   6.626   1.179   0.121
 4101SOL    HW213203   6.772   1.107   0.124
 4102SOL     OW13204   0.514   1.124   0.662
 4102SOL    HW113205   0.601   1.160   0.696
 4102SOL    HW213206   0.480   1.182   0.588
 4103SOL     OW13207   0.427   6.839   0.324
 4103SOL    HW113208   0.446   6.828   0.227
 4103SOL    HW213209   0.514   6.841   0.375
 4104SOL     OW13210   6.946   5.376   3.097
 4104SOL    HW113211   6.979   5.470   3.088
 4104SOL    HW213212   6.918   5.341   3.007
 4105SOL     OW13213   5.231   0.001   1.976
 4105SOL    HW113214   5.139   6.998   1.944
 4105SOL    HW213215   5.231   0.092   2.017
 4106SOL     OW13216   6.927   3.108   2.730
 4106SOL    HW113217   6.900   3.113   2.826
 4106SOL    HW213218   6.855   3.061   2.678
 4107SOL     OW13219   1.375   4.869   1.113
 4107SOL    HW113220   1.429   4.952   1.096
 4107SOL    HW213221   1.306   4.859   1.041
 4108SOL     OW13222   6.552   5.516   4.723
 4108SOL    HW113223   6.466   5.567   4.717
 4108SOL    HW213224   6.543   5.443   4.791
 4109SOL     OW13225   6.599   6.708   4.439
 4109SOL    HW113226   6.636   6.716   4.532
 4109SOL    HW213227   6.500   6.697   4.444
 4110SOL     OW13228   4.358   3.942   5.449
 4110SOL    HW113229   4.324   3.980   5.535
 4110SOL    HW213230   4.441   3.992   5.422
 4111SOL     OW13231   5.281   4.266   6.747
 4111SOL    HW113232   5.221   4.323   6.691
 4111SOL    HW213233   5.340   4.324   6.803
 4112SOL     OW13234   4.960   6.132   5.107
 4112SOL    HW113235   5.012   6.167   5.185
 4112SOL    HW213236   4.871   6.176   5.104
 4113SOL     OW13237   5.447   5.623   5.091
 4113SOL    HW113238   5.492   5.635   5.180
 4113SOL    HW213239   5.478   5.695   5.028
 4114SOL     OW13240   4.488   2.476   4.087
 4114SOL    HW113241   4.406   2.424   4.108
 4114SOL    HW213242   4.558   2.458   4.157
 4115SOL     OW13243   2.957   5.369   1.974
 4115SOL    HW113244   2.963   5.332   2.066
 4115SOL    HW213245   3.031   5.331   1.918
 4116SOL     OW13246   3.722   1.781   2.507
 4116SOL    HW113247   3.714   1.793   2.606
 4116SOL    HW213248   3.671   1.699   2.480
 4117SOL     OW13249   1.439   3.468   2.607
 4117SOL    HW113250   1.488   3.382   2.611
 4117SOL    HW213251   1.496   3.537   2.562
 4118SOL     OW13252   5.073   5.948   0.757
 4118SOL    HW113253   4.982   5.931   0.796
 4118SOL    HW213254   5.143   5.914   0.820
 4119SOL     OW13255   3.645   1.656   4.064
 4119SOL    HW113256   3.686   1.657   4.155
 4119SOL    HW213257   3.715   1.635   3.995
 4120SOL     OW13258   4.399   0.445   6.229
 4120SOL    HW113259   4.361   0.364   6.183
 4120SOL    HW213260   4.487   0.421   6.271
 4121SOL     OW13261   6.477   0.348   3.835
 4121SOL    HW113262   6.391   0.392   3.807
 4121SOL    HW213263   6.467   0.249   3.827
 4122SOL     OW13264   1.072   6.238   4.350
 4122SOL    HW113265   1.061   6.200   4.442
 4122SOL    HW213266   0.993   6.295   4.328
 4123SOL     OW13267   4.227   4.697   5.368
 4123SOL    HW113268   4.214   4.791   5.400
 4123SOL    HW213269   4.159   4.637   5.411
 4124SOL     OW13270   6.682   6.565   0.645
 4124SOL    HW113271   6.684   6.636   0.576
 4124SOL    HW213272   6.762   6.572   0.704
 4125SOL     OW13273   4.577   1.674   2.573
 4125SOL    HW113274   4.515   1.702   2.500
 4125SOL    HW213275   4.549   1.585   2.608
 4126SOL     OW13276   1.894   3.796   3.735
 4126SOL    HW113277   1.901   3.738   3.654
 4126SOL    HW213278   1.839   3.876   3.714
 4127SOL     OW13279   5.599   4.301   5.393
 4127SOL    HW113280   5.671   4.311   5.462
 4127SOL    HW213281   5.571   4.206   5.387
 4128SOL     OW13282   0.929   3.005   1.003
 4128SOL    HW113283   0.971   3.073   0.943
 4128SOL    HW213284   0.994   2.979   1.075
 4129SOL     OW13285   3.988   1.036   6.898
 4129SOL    HW113286   4.048   1.023   6.819
 4129SOL    HW213287   3.919   1.105   6.876
 4130SOL     OW13288   6.176   2.769   0.792
 4130SOL    HW113289   6.089   2.775   0.743
 4130SOL    HW213290   6.246   2.818   0.742
 4131SOL     OW13291   0.122   1.481   3.917
 4131SOL    HW113292   0.158   1.388   3.920
 4131SOL    HW213293   0.023   1.479   3.934
 4132SOL     OW13294   4.748   4.068   3.543
 4132SOL    HW113295   4.656   4.101   3.526
 4132SOL    HW213296   4.774   4.001   3.473
 4133SOL     OW13297   3.243   5.972   1.518
 4133SOL    HW113298   3.319   5.931   1.467
 4133SOL    HW213299   3.226   6.064   1.483
 4134SOL     OW13300   2.621   4.014   1.418
 4134SOL    HW113301   2.586   3.967   1.336
 4134SOL    HW213302   2.604   3.957   1.498
 4135SOL     OW13303   0.351   2.143   2.517
 4135SOL    HW113304   0.402   2.199   2.452
 4135SOL    HW213305   0.414   2.096   2.579
 4136SOL     OW13306   1.664   3.205   3.170
 4136SOL    HW113307   1.673   3.222   3.268
 4136SOL    HW213308   1.569   3.182   3.149
 4137SOL     OW13309   1.059   3.500   1.794
 4137SOL    HW113310   1.005   3.566   1.846
 4137SOL    HW213311   1.051   3.410   1.837
 4138SOL     OW13312   4.255   6.138   2.845
 4138SOL    HW113313   4.230   6.093   2.759
 4138SOL    HW213314   4.178   6.134   2.908
 4139SOL     OW13315   2.357   2.029   5.689
 4139SOL    HW113316   2.315   1.963   5.627
 4139SOL    HW213317   2.436   1.988   5.734
 4140SOL     OW13318   3.243   0.621   5.606
 4140SOL    HW113319   3.146   0.614   5.627
 4140SOL    HW213320   3.262   0.709   5.563
 4141SOL     OW13321   5.103   0.025   1.123
 4141SOL    HW113322   5.094   6.964   1.181
 4141SOL    HW213323   5.167   0.090   1.164
 4142SOL     OW13324   6.913   4.815   0.946
 4142SOL    HW113325   6.853   4.861   0.880
 4142SOL    HW213326   6.873   4.821   1.037
 4143SOL     OW13327   5.227   1.677   1.028
 4143SOL    HW113328   5.276   1.628   1.099
 4143SOL    HW213329   5.143   1.716   1.066
 4144SOL     OW13330   5.312   1.676   0.365
 4144SOL    HW113331   5.366   1.689   0.282
 4144SOL    HW213332   5.351   1.601   0.418
 4145SOL     OW13333   0.246   6.386   1.848
 4145SOL    HW113334   0.289   6.465   1.892
 4145SOL    HW213335   0.158   6.412   1.810
 4146SOL     OW13336   6.730   0.522   2.692
 4146SOL    HW113337   6.819   0.517   2.646
 4146SOL    HW213338   6.699   0.617   2.694
 4147SOL     OW13339   5.000   4.812   6.086
 4147SOL    HW113340   5.020   4.736   6.148
 4147SOL    HW213341   4.979   4.894   6.139
 4148SOL     OW13342   1.728   0.507   5.079
 4148SOL    HW113343   1.705   0.590   5.029
 4148SOL    HW213344   1.825   0.509   5.103
 4149SOL     OW13345   0.060   4.136   0.978
 4149SOL    HW113346   0.149   4.093   0.963
 4149SOL    HW213347   0.056   4.222   0.927
 4150SOL     OW13348   0.855   6.834   6.094
 4150SOL    HW113349   0.918   6.892   6.147
 4150SOL    HW213350   0.828   6.755   6.150
 4151SOL     OW13351   3.297   6.550   5.875
 4151SOL    HW113352   3.324   6.636   5.830
 4151SOL    HW213353   3.320   6.473   5.815
 4152SOL     OW13354   4.495   5.899   0.911
 4152SOL    HW113355   4.557   5.825   0.888
 4152SOL    HW213356   4.468   5.892   1.007
 4153SOL     OW13357   5.257   5.262   0.616
 4153SOL    HW113358   5.287   5.210   0.536
 4153SOL    HW213359   5.220   5.350   0.586
 4154SOL     OW13360   6.930   5.164   3.307
 4154SOL    HW113361   6.942   5.240   3.243
 4154SOL    HW213362   6.947   5.077   3.259
 4155SOL     OW13363   6.982   1.500   2.582
 4155SOL    HW113364   6.959   1.586   2.628
 4155SOL    HW213365   6.898   1.448   2.567
 4156SOL     OW13366   6.064   5.875   4.774
 4156SOL    HW113367   6.118   5.911   4.698
 4156SOL    HW213368   6.108   5.899   4.860
 4157SOL     OW13369   4.809   5.333   3.896
 4157SOL    HW113370   4.746   5.257   3.881
 4157SOL    HW213371   4.815   5.352   3.994
 4158SOL     OW13372   6.887   3.325   1.077
 4158SOL    HW113373   6.903   3.418   1.110
 4158SOL    HW213374   6.899   3.260   1.152
 4159SOL     OW13375   2.136   3.251   3.163
 4159SOL    HW113376   2.193   3.181   3.207
 4159SOL    HW213377   2.137   3.334   3.219
 4160SOL     OW13378   5.905   0.639   0.420
 4160SOL    HW113379   5.947   0.548   0.423
 4160SOL    HW213380   5.855   0.649   0.334
 4161SOL     OW13381   0.990   1.704   1.005
 4161SOL    HW113382   0.993   1.804   1.008
 4161SOL    HW213383   0.935   1.675   0.926
 4162SOL     OW13384   6.702   5.821   0.163
 4162SOL    HW113385   6.657   5.907   0.138
 4162SOL    HW213386   6.782   5.807   0.105
 4163SOL     OW13387   4.568   0.191   3.026
 4163SOL    HW113388   4.486   0.151   3.068
 4163SOL    HW213389   4.585   0.145   2.939
 4164SOL     OW13390   1.698   6.660   5.620
 4164SOL    HW113391   1.758   6.656   5.699
 4164SOL    HW213392   1.608   6.693   5.648
 4165SOL     OW13393   4.334   0.209   6.051
 4165SOL    HW113394   4.294   0.200   5.959
 4165SOL    HW213395   4.422   0.162   6.054
 4166SOL     OW13396   5.163   2.459   0.672
 4166SOL    HW113397   5.144   2.508   0.757
 4166SOL    HW213398   5.250   2.410   0.680
 4167SOL     OW13399   1.640   4.096   0.869
 4167SOL    HW113400   1.604   4.064   0.956
 4167SOL    HW213401   1.733   4.130   0.881
 4168SOL     OW13402   6.951   4.347   1.182
 4168SOL    HW113403   0.030   4.364   1.167
 4168SOL    HW213404   6.930   4.251   1.163
 4169SOL     OW13405   5.860   4.572   4.786
 4169SOL    HW113406   5.882   4.540   4.694
 4169SOL    HW213407   5.905   4.514   4.853
 4170SOL     OW13408   4.368   3.878   5.843
 4170SOL    HW113409   4.306   3.810   5.804
 4170SOL    HW213410   4.375   3.956   5.781
 4171SOL     OW13411   6.111   6.101   0.896
 4171SOL    HW113412   6.201   6.124   0.933
 4171SOL    HW213413   6.098   6.148   0.809
 4172SOL     OW13414   1.366   1.516   5.854
 4172SOL    HW113415   1.442   1.564   5.809
 4172SOL    HW213416   1.335   1.569   5.932
 4173SOL     OW13417   5.218   4.422   4.978
 4173SOL    HW113418   5.232   4.482   5.057
 4173SOL    HW213419   5.157   4.466   4.913
 4174SOL     OW13420   4.891   1.643   3.169
 4174SOL    HW113421   4.869   1.575   3.240
 4174SOL    HW213422   4.811   1.655   3.109
 4175SOL     OW13423   2.545   5.722   4.831
 4175SOL    HW113424   2.607   5.659   4.785
 4175SOL    HW213425   2.584   5.749   4.919
 4176SOL     OW13426   3.032   5.810   2.010
 4176SOL    HW113427   3.128   5.837   2.000
 4176SOL    HW213428   2.980   5.886   2.049
 4177SOL     OW13429   6.156   4.828   5.298
 4177SOL    HW113430   6.128   4.923   5.288
 4177SOL    HW213431   6.076   4.773   5.323
 4178SOL     OW13432   4.807   7.012   4.257
 4178SOL    HW113433   4.894   0.030   4.225
 4178SOL    HW213434   4.751   6.988   4.178
 4179SOL     OW13435   5.235   3.256   3.333
 4179SOL    HW113436   5.187   3.339   3.362
 4179SOL    HW213437   5.331   3.277   3.319
 4180SOL     OW13438   5.190   4.651   1.169
 4180SOL    HW113439   5.268   4.593   1.147
 4180SOL    HW213440   5.123   4.599   1.222
 4181SOL     OW13441   2.752   1.475   0.524
 4181SOL    HW113442   2.693   1.487   0.444
 4181SOL    HW213443   2.763   1.377   0.542
 4182SOL     OW13444   0.917   6.898   3.466
 4182SOL    HW113445   0.872   6.848   3.393
 4182SOL    HW213446   1.009   6.862   3.480
 4183SOL     OW13447   3.037   1.589   0.099
 4183SOL    HW113448   3.099   1.623   0.029
 4183SOL    HW213449   3.054   1.492   0.115
 4184SOL     OW13450   4.815   5.712   1.554
 4184SOL    HW113451   4.876   5.674   1.484
 4184SOL    HW213452   4.770   5.637   1.603
 4185SOL     OW13453   0.557   4.899   2.217
 4185SOL    HW113454   0.479   4.877   2.276
 4185SOL    HW213455   0.620   4.960   2.265
 4186SOL     OW13456   2.174   5.170   0.006
 4186SOL    HW113457   2.204   5.077   0.027
 4186SOL    HW213458   2.142   5.174   6.930
 4187SOL     OW13459   3.099   2.852   5.598
 4187SOL    HW113460   3.106   2.753   5.584
 4187SOL    HW213461   3.185   2.895   5.570
 4188SOL     OW13462   4.818   6.691   5.061
 4188SOL    HW113463   4.816   6.686   5.161
 4188SOL    HW213464   4.725   6.688   5.026
 4189SOL     OW13465   2.503   5.049   5.360
 4189SOL    HW113466   2.521   5.125   5.297
 4189SOL    HW213467   2.539   5.072   5.451
 4190SOL     OW13468   0.937   0.754   0.381
 4190SOL    HW113469   0.869   0.827   0.375
 4190SOL    HW213470   0.922   0.688   0.308
 4191SOL     OW13471   4.670   4.329   3.308
 4191SOL    HW113472   4.703   4.401   3.247
 4191SOL    HW213473   4.684   4.240   3.264
 4192SOL     OW13474   1.100   0.550   4.154
 4192SOL    HW113475   1.022   0.496   4.183
 4192SOL    HW213476   1.108   0.547   4.054
 4193SOL     OW13477   0.746   1.345   1.867
 4193SOL    HW113478   0.679   1.366   1.796
 4193SOL    HW213479   0.833   1.391   1.846
 4194SOL     OW13480   5.394   0.695   4.523
 4194SOL    HW113481   5.457   0.618   4.509
 4194SOL    HW213482   5.447   0.777   4.545
 4195SOL     OW13483   3.685   6.753   2.200
 4195SOL    HW113484   3.778   6.717   2.198
 4195SOL    HW213485   3.682   6.835   2.257
 4196SOL     OW13486   5.440   2.047   3.499
 4196SOL    HW113487   5.487   2.059   3.586
 4196SOL    HW213488   5.476   2.111   3.432
 4197SOL     OW13489   5.097   5.740   6.197
 4197SOL    HW113490   5.176   5.730   6.258
 4197SOL    HW213491   5.064   5.649   6.170
 4198SOL     OW13492   5.573   2.128   0.067
 4198SOL    HW113493   5.559   2.145   0.164
 4198SOL    HW213494   5.604   2.212   0.022
 4199SOL     OW13495   2.184   2.746   5.800
 4199SOL    HW113496   2.265   2.732   5.744
 4199SOL    HW213497   2.166   2.844   5.809
 4200SOL     OW13498   3.810   6.459   6.120
 4200SOL    HW113499   3.791   6.514   6.202
 4200SOL    HW213500   3.747   6.487   6.047
 4201SOL     OW13501   5.878   6.425   3.490
 4201SOL    HW113502   5.912   6.337   3.455
 4201SOL    HW213503   5.908   6.436   3.585
 4202SOL     OW13504   3.922   5.352   6.027
 4202SOL    HW113505   3.846   5.389   5.973
 4202SOL    HW213506   3.942   5.259   5.996
 4203SOL     OW13507   4.533   5.177   0.232
 4203SOL    HW113508   4.467   5.234   0.182
 4203SOL    HW213509   4.556   5.097   0.177
 4204SOL     OW13510   3.949   3.799   2.913
 4204SOL    HW113511   3.897   3.884   2.919
 4204SOL    HW213512   3.998   3.795   2.826
 4205SOL     OW13513   3.709   5.805   3.662
 4205SOL    HW113514   3.780   5.737   3.679
 4205SOL    HW213515   3.685   5.805   3.565
 4206SOL     OW13516   7.012   0.118   5.980
 4206SOL    HW113517   6.919   0.082   5.971
 4206SOL    HW213518   0.057   0.043   5.998
 4207SOL     OW13519   1.711   1.906   0.534
 4207SOL    HW113520   1.770   1.985   0.519
 4207SOL    HW213521   1.702   1.889   0.633
 4208SOL     OW13522   0.577   3.235   5.962
 4208SOL    HW113523   0.651   3.261   5.899
 4208SOL    HW213524   0.550   3.314   6.016
 4209SOL     OW13525   0.566   0.639   4.856
 4209SOL    HW113526   0.499   0.591   4.799
 4209SOL    HW213527   0.549   0.618   4.952
 4210SOL     OW13528   2.924   3.254   2.384
 4210SOL    HW113529   2.959   3.181   2.324
 4210SOL    HW213530   2.913   3.338   2.331
 4211SOL     OW13531   4.398   5.701   5.860
 4211SOL    HW113532   4.346   5.627   5.901
 4211SOL    HW213533   4.336   5.777   5.837
 4212SOL     OW13534   5.682   1.822   2.760
 4212SOL    HW113535   5.635   1.898   2.805
 4212SOL    HW213536   5.775   1.852   2.735
 4213SOL     OW13537   2.032   1.047   1.625
 4213SOL    HW113538   2.035   1.138   1.583
 4213SOL    HW213539   2.062   1.054   1.720
 4214SOL     OW13540   1.468   4.589   5.038
 4214SOL    HW113541   1.428   4.498   5.047
 4214SOL    HW213542   1.446   4.627   4.948
 4215SOL     OW13543   6.392   5.824   5.165
 4215SOL    HW113544   6.484   5.829   5.127
 4215SOL    HW213545   6.333   5.771   5.105
 4216SOL     OW13546   0.959   1.513   2.971
 4216SOL    HW113547   0.977   1.495   2.875
 4216SOL    HW213548   0.977   1.609   2.992
 4217SOL     OW13549   0.917   0.678   2.209
 4217SOL    HW113550   0.884   0.669   2.303
 4217SOL    HW213551   0.895   0.594   2.159
 4218SOL     OW13552   4.558   0.961   1.796
 4218SOL    HW113553   4.478   0.904   1.775
 4218SOL    HW213554   4.609   0.919   1.871
 4219SOL     OW13555   3.390   5.379   3.897
 4219SOL    HW113556   3.417   5.427   3.813
 4219SOL    HW213557   3.398   5.280   3.884
 4220SOL     OW13558   5.421   3.065   3.794
 4220SOL    HW113559   5.378   3.001   3.730
 4220SOL    HW213560   5.520   3.065   3.781
 4221SOL     OW13561   6.333   5.255   6.489
 4221SOL    HW113562   6.240   5.284   6.509
 4221SOL    HW213563   6.335   5.203   6.404
 4222SOL     OW13564   5.963   1.720   3.346
 4222SOL    HW113565   5.914   1.772   3.416
 4222SOL    HW213566   5.905   1.707   3.266
 4223SOL     OW13567   3.657   3.360   6.259
 4223SOL    HW113568   3.615   3.351   6.169
 4223SOL    HW213569   3.586   3.381   6.327
 4224SOL     OW13570   5.184   3.367   3.695
 4224SOL    HW113571   5.102   3.342   3.643
 4224SOL    HW213572   5.194   3.306   3.773
 4225SOL     OW13573   4.251   0.749   5.894
 4225SOL    HW113574   4.250   0.849   5.905
 4225SOL    HW213575   4.166   0.719   5.851
 4226SOL     OW13576   0.835   0.381   2.509
 4226SOL    HW113577   0.886   0.408   2.590
 4226SOL    HW213578   0.751   0.335   2.536
 4227SOL     OW13579   3.363   4.482   0.585
 4227SOL    HW113580   3.391   4.566   0.539
 4227SOL    HW213581   3.341   4.503   0.681
 4228SOL     OW13582   1.058   3.958   5.310
 4228SOL    HW113583   0.962   3.964   5.282
 4228SOL    HW213584   1.101   3.879   5.268
 4229SOL     OW13585   5.171   5.347   5.943
 4229SOL    HW113586   5.090   5.307   5.899
 4229SOL    HW213587   5.208   5.419   5.884
 4230SOL     OW13588   1.203   6.977   3.099
 4230SOL    HW113589   1.163   6.998   3.010
 4230SOL    HW213590   1.210   0.042   3.153
 4231SOL     OW13591   6.320   6.205   5.152
 4231SOL    HW113592   6.397   6.230   5.093
 4231SOL    HW213593   6.350   6.138   5.220
 4232SOL     OW13594   6.581   4.934   2.463
 4232SOL    HW113595   6.647   4.897   2.397
 4232SOL    HW213596   6.620   4.931   2.555
 4233SOL     OW13597   6.807   0.153   6.575
 4233SOL    HW113598   6.875   0.101   6.627
 4233SOL    HW213599   6.733   0.183   6.636
 4234SOL     OW13600   2.345   6.765   5.645
 4234SOL    HW113601   2.402   6.746   5.566
 4234SOL    HW213602   2.385   6.839   5.699
 4235SOL     OW13603   5.883   3.670   6.064
 4235SOL    HW113604   5.789   3.680   6.032
 4235SOL    HW213605   5.924   3.590   6.021
 4236SOL     OW13606   0.117   3.750   2.659
 4236SOL    HW113607   0.046   3.798   2.608
 4236SOL    HW213608   0.111   3.773   2.756
 4237SOL     OW13609   5.818   5.525   2.863
 4237SOL    HW113610   5.807   5.624   2.857
 4237SOL    HW213611   5.739   5.480   2.820
 4238SOL     OW13612   3.160   5.254   2.766
 4238SOL    HW113613   3.113   5.270   2.679
 4238SOL    HW213614   3.110   5.186   2.819
 4239SOL     OW13615   5.355   1.786   3.137
 4239SOL    HW113616   5.393   1.742   3.054
 4239SOL    HW213617   5.351   1.885   3.123
 4240SOL     OW13618   2.418   0.060   0.295
 4240SOL    HW113619   2.378   0.049   0.386
 4240SOL    HW213620   2.391   7.001   0.238
 4241SOL     OW13621   6.101   0.563   0.176
 4241SOL    HW113622   6.039   0.634   0.141
 4241SOL    HW213623   6.101   0.565   0.276
 4242SOL     OW13624   2.334   0.688   3.220
 4242SOL    HW113625   2.258   0.752   3.228
 4242SOL    HW213626   2.411   0.732   3.173
 4243SOL     OW13627   6.578   3.140   3.188
 4243SOL    HW113628   6.677   3.131   3.199
 4243SOL    HW213629   6.557   3.152   3.091
 4244SOL     OW13630   5.048   4.345   1.702
 4244SOL    HW113631   5.001   4.272   1.751
 4244SOL    HW213632   5.101   4.400   1.766
 4245SOL     OW13633   6.481   0.770   5.838
 4245SOL    HW113634   6.447   0.676   5.833
 4245SOL    HW213635   6.515   0.798   5.749
 4246SOL     OW13636   6.498   3.373   2.676
 4246SOL    HW113637   6.541   3.403   2.591
 4246SOL    HW213638   6.568   3.357   2.746
 4247SOL     OW13639   2.345   4.587   3.471
 4247SOL    HW113640   2.340   4.659   3.401
 4247SOL    HW213641   2.440   4.561   3.485
 4248SOL     OW13642   2.269   1.490   3.730
 4248SOL    HW113643   2.257   1.501   3.631
 4248SOL    HW213644   2.189   1.445   3.769
 4249SOL     OW13645   5.477   1.689   4.472
 4249SOL    HW113646   5.386   1.655   4.448
 4249SOL    HW213647   5.541   1.668   4.398
 4250SOL     OW13648   0.041   5.830   3.941
 4250SOL    HW113649   0.055   5.921   3.902
 4250SOL    HW213650   7.006   5.775   3.877
 4251SOL     OW13651   5.773   3.610   1.365
 4251SOL    HW113652   5.803   3.699   1.332
 4251SOL    HW213653   5.797   3.601   1.462
 4252SOL     OW13654   6.560   6.682   6.287
 4252SOL    HW113655   6.587   6.776   6.309
 4252SOL    HW213656   6.640   6.622   6.298
 4253SOL     OW13657   2.990   6.357   0.645
 4253SOL    HW113658   2.977   6.362   0.744
 4253SOL    HW213659   2.922   6.296   0.605
 4254SOL     OW13660   1.195   3.379   2.557
 4254SOL    HW113661   1.286   3.403   2.592
 4254SOL    HW213662   1.174   3.435   2.477
 4255SOL     OW13663   6.871   4.623   3.886
 4255SOL    HW113664   6.936   4.610   3.812
 4255SOL    HW213665   6.907   4.689   3.952
 4256SOL     OW13666   1.647   6.197   1.200
 4256SOL    HW113667   1.667   6.213   1.297
 4256SOL    HW213668   1.550   6.215   1.183
 4257SOL     OW13669   3.142   0.627   4.184
 4257SOL    HW113670   3.082   0.707   4.184
 4257SOL    HW213671   3.172   0.607   4.277
 4258SOL     OW13672   3.380   5.825   1.307
 4258SOL    HW113673   3.403   5.733   1.273
 4258SOL    HW213674   3.291   5.853   1.272
 4259SOL     OW13675   1.922   0.584   0.973
 4259SOL    HW113676   1.854   0.646   0.933
 4259SOL    HW213677   1.878   0.527   1.043
 4260SOL     OW13678   5.947   0.443   2.460
 4260SOL    HW113679   5.890   0.363   2.479
 4260SOL    HW213680   5.890   0.526   2.460
 4261SOL     OW13681   1.902   0.830   2.567
 4261SOL    HW113682   1.911   0.904   2.633
 4261SOL    HW213683   1.963   0.846   2.489
 4262SOL     OW13684   0.949   3.834   6.479
 4262SOL    HW113685   0.969   3.777   6.558
 4262SOL    HW213686   0.856   3.868   6.484
 4263SOL     OW13687   2.732   0.723   2.971
 4263SOL    HW113688   2.815   0.759   2.928
 4263SOL    HW213689   2.757   0.670   3.052
 4264SOL     OW13690   6.194   1.965   4.207
 4264SOL    HW113691   6.213   1.885   4.149
 4264SOL    HW213692   6.250   2.042   4.177
 4265SOL     OW13693   4.414   0.782   0.447
 4265SOL    HW113694   4.472   0.824   0.516
 4265SOL    HW213695   4.359   0.853   0.403
 4266SOL     OW13696   1.594   6.328   6.678
 4266SOL    HW113697   1.543   6.378   6.608
 4266SOL    HW213698   1.653   6.392   6.728
 4267SOL     OW13699   2.176   3.622   3.572
 4267SOL    HW113700   2.145   3.655   3.661
 4267SOL    HW213701   2.273   3.644   3.561
 4268SOL     OW13702   1.184   5.861   6.914
 4268SOL    HW113703   1.252   5.788   6.907
 4268SOL    HW213704   1.202   5.917   6.995
 4269SOL     OW13705   2.854   0.453   2.084
 4269SOL    HW113706   2.852   0.354   2.092
 4269SOL    HW213707   2.911   0.492   2.156
 4270SOL     OW13708   4.126   3.629   3.136
 4270SOL    HW113709   4.079   3.699   3.083
 4270SOL    HW213710   4.154   3.554   3.076
 4271SOL     OW13711   6.420   1.231   6.968
 4271SOL    HW113712   6.443   1.137   6.994
 4271SOL    HW213713   6.322   1.236   6.946
 4272SOL     OW13714   6.404   1.858   4.556
 4272SOL    HW113715   6.444   1.821   4.472
 4272SOL    HW213716   6.306   1.841   4.556
 4273SOL     OW13717   3.775   7.002   5.364
 4273SOL    HW113718   3.843   0.045   5.404
 4273SOL    HW213719   3.823   6.927   5.318
 4274SOL     OW13720   1.171   0.534   1.624
 4274SOL    HW113721   1.173   0.537   1.524
 4274SOL    HW213722   1.077   0.546   1.655
 4275SOL     OW13723   6.201   2.058   4.651
 4275SOL    HW113724   6.294   2.095   4.655
 4275SOL    HW213725   6.136   2.126   4.684
 4276SOL     OW13726   2.397   5.423   3.893
 4276SOL    HW113727   2.313   5.372   3.875
 4276SOL    HW213728   2.414   5.487   3.818
 4277SOL     OW13729   6.127   4.638   3.219
 4277SOL    HW113730   6.082   4.598   3.139
 4277SOL    HW213731   6.108   4.581   3.300
 4278SOL     OW13732   0.178   6.896   5.080
 4278SOL    HW113733   0.172   6.797   5.068
 4278SOL    HW213734   0.212   6.938   4.996
 4279SOL     OW13735   3.504   1.098   3.458
 4279SOL    HW113736   3.546   1.011   3.487
 4279SOL    HW213737   3.435   1.125   3.525
 4280SOL     OW13738   5.551   6.811   6.229
 4280SOL    HW113739   5.494   6.854   6.158
 4280SOL    HW213740   5.647   6.819   6.203
 4281SOL     OW13741   6.690   4.480   3.018
 4281SOL    HW113742   6.606   4.506   2.970
 4281SOL    HW213743   6.762   4.546   2.998
 4282SOL     OW13744   3.429   4.739   0.473
 4282SOL    HW113745   3.386   4.806   0.534
 4282SOL    HW213746   3.403   4.758   0.379
 4283SOL     OW13747   1.802   0.473   3.439
 4283SOL    HW113748   1.777   0.558   3.486
 4283SOL    HW213749   1.866   0.492   3.366
 4284SOL     OW13750   3.674   3.942   1.253
 4284SOL    HW113751   3.599   3.892   1.295
 4284SOL    HW213752   3.691   4.027   1.304
 4285SOL     OW13753   1.659   0.359   5.844
 4285SOL    HW113754   1.635   0.370   5.941
 4285SOL    HW213755   1.753   0.391   5.829
 4286SOL     OW13756   5.338   6.172   5.646
 4286SOL    HW113757   5.319   6.252   5.590
 4286SOL    HW213758   5.267   6.104   5.633
 4287SOL     OW13759   5.639   0.665   5.983
 4287SOL    HW113760   5.542   0.687   5.979
 4287SOL    HW213761   5.654   0.573   5.948
 4288SOL     OW13762   0.657   5.707   3.063
 4288SOL    HW113763   0.718   5.702   2.984
 4288SOL    HW213764   0.565   5.731   3.032
 4289SOL     OW13765   6.436   3.292   6.272
 4289SOL    HW113766   6.406   3.317   6.364
 4289SOL    HW213767   6.372   3.329   6.204
 4290SOL     OW13768   1.620   6.560   3.651
 4290SOL    HW113769   1.712   6.552   3.613
 4290SOL    HW213770   1.565   6.481   3.622
 4291SOL     OW13771   4.871   3.832   0.214
 4291SOL    HW113772   4.820   3.766   0.160
 4291SOL    HW213773   4.823   3.850   0.300
 4292SOL     OW13774   5.755   3.136   0.348
 4292SOL    HW113775   5.733   3.053   0.399
 4292SOL    HW213776   5.697   3.143   0.267
 4293SOL     OW13777   2.987   3.145   7.008
 4293SOL    HW113778   2.949   3.146   6.916
 4293SOL    HW213779   2.988   3.238   0.026
 4294SOL     OW13780   2.399   1.610   6.379
 4294SOL    HW113781   2.410   1.710   6.379
 4294SOL    HW213782   2.386   1.578   6.285
 4295SOL     OW13783   3.229   5.981   4.932
 4295SOL    HW113784   3.221   5.911   4.860
 4295SOL    HW213785   3.221   5.938   5.022
 4296SOL     OW13786   3.332   6.843   0.579
 4296SOL    HW113787   3.361   6.872   0.670
 4296SOL    HW213788   3.323   6.924   0.520
 4297SOL     OW13789   5.291   0.263   1.140
 4297SOL    HW113790   5.347   0.235   1.218
 4297SOL    HW213791   5.210   0.311   1.173
 4298SOL     OW13792   4.290   5.353   0.853
 4298SOL    HW113793   4.368   5.291   0.842
 4298SOL    HW213794   4.210   5.316   0.807
 4299SOL     OW13795   1.535   3.076   6.410
 4299SOL    HW113796   1.512   2.979   6.407
 4299SOL    HW213797   1.629   3.090   6.379
 4300SOL     OW13798   3.158   6.695   0.190
 4300SOL    HW113799   3.156   6.650   0.280
 4300SOL    HW213800   3.126   6.789   0.200
 4301SOL     OW13801   4.168   0.511   1.430
 4301SOL    HW113802   4.184   0.476   1.522
 4301SOL    HW213803   4.151   0.435   1.368
 4302SOL     OW13804   0.773   0.154   6.166
 4302SOL    HW113805   0.803   0.160   6.071
 4302SOL    HW213806   0.741   0.061   6.185
 4303SOL     OW13807   0.066   5.298   3.990
 4303SOL    HW113808   0.130   5.340   4.054
 4303SOL    HW213809   0.073   5.342   3.901
 4304SOL     OW13810   3.123   3.031   2.715
 4304SOL    HW113811   3.161   3.112   2.670
 4304SOL    HW213812   3.188   2.955   2.706
 4305SOL     OW13813   0.423   6.766   5.863
 4305SOL    HW113814   0.324   6.752   5.865
 4305SOL    HW213815   0.469   6.679   5.844
 4306SOL     OW13816   4.500   5.078   4.677
 4306SOL    HW113817   4.417   5.105   4.725
 4306SOL    HW213818   4.498   5.115   4.584
 4307SOL     OW13819   5.831   3.854   5.779
 4307SOL    HW113820   5.847   3.805   5.693
 4307SOL    HW213821   5.777   3.796   5.840
 4308SOL     OW13822   6.113   4.611   1.226
 4308SOL    HW113823   6.172   4.621   1.306
 4308SOL    HW213824   6.123   4.690   1.166
 4309SOL     OW13825   1.009   1.285   0.115
 4309SOL    HW113826   1.106   1.263   0.124
 4309SOL    HW213827   0.961   1.208   0.074
 4310SOL     OW13828   1.705   2.731   1.913
 4310SOL    HW113829   1.638   2.793   1.953
 4310SOL    HW213830   1.773   2.706   1.982
 4311SOL     OW13831   1.677   6.327   2.505
 4311SOL    HW113832   1.725   6.361   2.424
 4311SOL    HW213833   1.721   6.242   2.536
 4312SOL     OW13834   1.426   6.140   1.883
 4312SOL    HW113835   1.511   6.100   1.917
 4312SOL    HW213836   1.360   6.066   1.865
 4313SOL     OW13837   4.919   1.894   0.850
 4313SOL    HW113838   4.854   1.830   0.892
 4313SOL    HW213839   4.944   1.860   0.759
 4314SOL     OW13840   6.019   1.270   4.330
 4314SOL    HW113841   6.040   1.264   4.233
 4314SOL    HW213842   6.097   1.236   4.383
 4315SOL     OW13843   2.538   6.886   3.173
 4315SOL    HW113844   2.617   6.826   3.182
 4315SOL    HW213845   2.556   6.955   3.102
 4316SOL     OW13846   5.130   1.056   1.770
 4316SOL    HW113847   5.081   0.974   1.742
 4316SOL    HW213848   5.070   1.135   1.762
 4317SOL     OW13849   5.397   2.272   5.196
 4317SOL    HW113850   5.365   2.362   5.226
 4317SOL    HW213851   5.497   2.268   5.203
 4318SOL     OW13852   0.103   2.237   4.953
 4318SOL    HW113853   0.131   2.229   4.857
 4318SOL    HW213854   0.043   2.160   4.976
 4319SOL     OW13855   2.034   1.254   0.593
 4319SOL    HW113856   2.050   1.236   0.690
 4319SOL    HW213857   1.938   1.281   0.579
 4320SOL     OW13858   4.409   4.919   0.913
 4320SOL    HW113859   4.326   4.882   0.871
 4320SOL    HW213860   4.415   4.890   1.008
 4321SOL     OW13861   0.463   5.210   5.453
 4321SOL    HW113862   0.505   5.188   5.541
 4321SOL    HW213863   0.380   5.157   5.441
 4322SOL     OW13864   6.179   2.929   6.916
 4322SOL    HW113865   6.230   2.973   6.841
 4322SOL    HW213866   6.199   2.831   6.916
 4323SOL     OW13867   4.553   3.968   0.252
 4323SOL    HW113868   4.454   3.962   0.270
 4323SOL    HW213869   4.570   4.040   0.185
 4324SOL     OW13870   6.087   4.493   6.567
 4324SOL    HW113871   6.033   4.423   6.612
 4324SOL    HW213872   6.027   4.568   6.537
 4325SOL     OW13873   2.622   1.604   1.362
 4325SOL    HW113874   2.672   1.656   1.431
 4325SOL    HW213875   2.665   1.618   1.273
 4326SOL     OW13876   4.434   4.641   3.239
 4326SOL    HW113877   4.421   4.616   3.335
 4326SOL    HW213878   4.531   4.635   3.216
 4327SOL     OW13879   5.749   5.933   2.224
 4327SOL    HW113880   5.724   5.954   2.319
 4327SOL    HW213881   5.795   6.012   2.184
 4328SOL     OW13882   4.231   4.239   5.902
 4328SOL    HW113883   4.136   4.258   5.879
 4328SOL    HW213884   4.259   4.296   5.979
 4329SOL     OW13885   4.753   2.446   5.404
 4329SOL    HW113886   4.765   2.402   5.492
 4329SOL    HW213887   4.745   2.545   5.417
 4330SOL     OW13888   1.670   5.949   4.599
 4330SOL    HW113889   1.642   5.926   4.692
 4330SOL    HW213890   1.597   5.999   4.553
 4331SOL     OW13891   6.256   1.256   1.757
 4331SOL    HW113892   6.209   1.277   1.843
 4331SOL    HW213893   6.193   1.213   1.693
 4332SOL     OW13894   4.919   2.898   2.478
 4332SOL    HW113895   4.881   2.965   2.541
 4332SOL    HW213896   4.879   2.912   2.387
 4333SOL     OW13897   4.503   1.012   5.512
 4333SOL    HW113898   4.422   0.955   5.504
 4333SOL    HW213899   4.541   1.004   5.604
 4334SOL     OW13900   1.615   2.118   2.802
 4334SOL    HW113901   1.672   2.127   2.720
 4334SOL    HW213902   1.522   2.150   2.782
 4335SOL     OW13903   3.098   3.994   2.488
 4335SOL    HW113904   3.142   4.069   2.439
 4335SOL    HW213905   3.143   3.979   2.575
 4336SOL     OW13906   3.331   6.612   6.132
 4336SOL    HW113907   3.311   6.578   6.040
 4336SOL    HW213908   3.343   6.711   6.130
 4337SOL     OW13909   1.057   4.490   0.432
 4337SOL    HW113910   1.153   4.479   0.404
 4337SOL    HW213911   1.052   4.504   0.530
 4338SOL     OW13912   6.188   6.855   6.052
 4338SOL    HW113913   6.249   6.907   6.112
 4338SOL    HW213914   6.224   6.855   5.959
 4339SOL     OW13915   4.248   3.197   5.836
 4339SOL    HW113916   4.155   3.204   5.801
 4339SOL    HW213917   4.310   3.174   5.761
 4340SOL     OW13918   6.288   3.132   0.865
 4340SOL    HW113919   6.284   3.098   0.959
 4340SOL    HW213920   6.208   3.189   0.846
 4341SOL     OW13921   0.930   5.404   1.589
 4341SOL    HW113922   0.986   5.399   1.672
 4341SOL    HW213923   0.856   5.470   1.602
 4342SOL     OW13924   4.934   3.890   3.422
 4342SOL    HW113925   4.950   3.892   3.323
 4342SOL    HW213926   4.919   3.796   3.452
 4343SOL     OW13927   2.887   6.410   5.089
 4343SOL    HW113928   2.848   6.327   5.128
 4343SOL    HW213929   2.929   6.389   5.001
 4344SOL     OW13930   0.455   4.070   2.060
 4344SOL    HW113931   0.509   4.113   1.987
 4344SOL    HW213932   0.371   4.123   2.075
 4345SOL     OW13933   3.382   4.537   5.625
 4345SOL    HW113934   3.438   4.454   5.626
 4345SOL    HW213935   3.427   4.608   5.679
 4346SOL     OW13936   1.923   3.804   2.877
 4346SOL    HW113937   1.896   3.709   2.866
 4346SOL    HW213938   1.989   3.829   2.807
 4347SOL     OW13939   5.803   0.075   2.149
 4347SOL    HW113940   5.813   0.014   2.070
 4347SOL    HW213941   5.836   0.166   2.125
 4348SOL     OW13942   0.307   5.614   3.716
 4348SOL    HW113943   0.337   5.705   3.685
 4348SOL    HW213944   0.356   5.544   3.664
 4349SOL     OW13945   5.555   2.128   3.044
 4349SOL    HW113946   5.558   2.101   2.948
 4349SOL    HW213947   5.609   2.064   3.099
 4350SOL     OW13948   3.387   1.750   4.009
 4350SOL    HW113949   3.425   1.816   3.944
 4350SOL    HW213950   3.459   1.687   4.038
 4351SOL     OW13951   1.384   6.182   1.087
 4351SOL    HW113952   1.395   6.221   0.996
 4351SOL    HW213953   1.300   6.216   1.128
 4352SOL     OW13954   6.136   3.911   2.501
 4352SOL    HW113955   6.216   3.853   2.513
 4352SOL    HW213956   6.089   3.886   2.416
 4353SOL     OW13957   4.270   2.643   6.415
 4353SOL    HW113958   4.203   2.714   6.396
 4353SOL    HW213959   4.330   2.631   6.335
 4354SOL     OW13960   2.040   0.613   6.020
 4354SOL    HW113961   1.984   0.678   6.072
 4354SOL    HW213962   2.130   0.605   6.063
 4355SOL     OW13963   2.464   0.705   2.559
 4355SOL    HW113964   2.484   0.652   2.476
 4355SOL    HW213965   2.534   0.776   2.570
 4356SOL     OW13966   5.307   3.531   0.195
 4356SOL    HW113967   5.261   3.442   0.194
 4356SOL    HW213968   5.241   3.603   0.217
 4357SOL     OW13969   6.652   0.976   1.256
 4357SOL    HW113970   6.642   0.877   1.246
 4357SOL    HW213971   6.711   0.997   1.334
 4358SOL     OW13972   6.854   0.787   0.975
 4358SOL    HW113973   6.879   0.739   0.891
 4358SOL    HW213974   6.884   0.882   0.970
 4359SOL     OW13975   1.288   1.292   6.022
 4359SOL    HW113976   1.276   1.369   5.959
 4359SOL    HW213977   1.385   1.280   6.041
 4360SOL     OW13978   0.535   3.571   3.690
 4360SOL    HW113979   0.516   3.661   3.650
 4360SOL    HW213980   0.450   3.518   3.692
 4361SOL     OW13981   2.065   3.335   1.593
 4361SOL    HW113982   2.160   3.316   1.567
 4361SOL    HW213983   2.064   3.372   1.686
 4362SOL     OW13984   6.474   5.065   3.588
 4362SOL    HW113985   6.425   5.058   3.501
 4362SOL    HW213986   6.571   5.080   3.569
 4363SOL     OW13987   5.012   2.324   1.004
 4363SOL    HW113988   5.015   2.261   0.926
 4363SOL    HW213989   5.075   2.291   1.075
 4364SOL     OW13990   3.096   4.052   3.652
 4364SOL    HW113991   3.110   4.071   3.555
 4364SOL    HW213992   3.018   3.991   3.663
 4365SOL     OW13993   3.070   0.928   1.623
 4365SOL    HW113994   3.124   0.844   1.619
 4365SOL    HW213995   3.020   0.939   1.537
 4366SOL     OW13996   6.776   0.047   6.877
 4366SOL    HW113997   6.813   0.085   6.961
 4366SOL    HW213998   6.696   0.100   6.849
 4367SOL     OW13999   2.491   4.686   4.217
 4367SOL    HW114000   2.510   4.611   4.154
 4367SOL    HW214001   2.418   4.659   4.280
 4368SOL     OW14002   3.942   6.053   1.404
 4368SOL    HW114003   3.951   6.008   1.493
 4368SOL    HW214004   3.968   6.149   1.412
 4369SOL     OW14005   4.440   5.097   2.972
 4369SOL    HW114006   4.488   5.175   2.931
 4369SOL    HW214007   4.395   5.126   3.056
 4370SOL     OW14008   3.691   4.628   1.580
 4370SOL    HW114009   3.621   4.654   1.513
 4370SOL    HW214010   3.655   4.641   1.672
 4371SOL     OW14011   1.642   2.104   2.238
 4371SOL    HW114012   1.699   2.087   2.319
 4371SOL    HW214013   1.686   2.172   2.180
 4372SOL     OW14014   2.213   2.289   4.161
 4372SOL    HW114015   2.133   2.231   4.175
 4372SOL    HW214016   2.250   2.274   4.069
 4373SOL     OW14017   5.162   1.493   6.872
 4373SOL    HW114018   5.250   1.501   6.825
 4373SOL    HW214019   5.120   1.584   6.880
 4374SOL     OW14020   1.253   1.558   1.446
 4374SOL    HW114021   1.277   1.488   1.379
 4374SOL    HW214022   1.163   1.538   1.484
 4375SOL     OW14023   4.098   6.591   3.529
 4375SOL    HW114024   3.999   6.583   3.547
 4375SOL    HW214025   4.112   6.620   3.435
 4376SOL     OW14026   6.213   0.151   2.719
 4376SOL    HW114027   6.281   0.119   2.653
 4376SOL    HW214028   6.138   0.085   2.724
 4377SOL     OW14029   5.913   5.600   0.119
 4377SOL    HW114030   5.816   5.602   0.142
 4377SOL    HW214031   5.958   5.527   0.170
 4378SOL     OW14032   2.103   2.713   2.736
 4378SOL    HW114033   2.130   2.809   2.734
 4378SOL    HW214034   2.007   2.705   2.764
 4379SOL     OW14035   2.319   2.108   2.322
 4379SOL    HW114036   2.290   2.192   2.366
 4379SOL    HW214037   2.358   2.046   2.390
 4380SOL     OW14038   1.203   6.739   3.224
 4380SOL    HW114039   1.106   6.717   3.222
 4380SOL    HW214040   1.220   6.823   3.172
 4381SOL     OW14041   2.212   3.793   5.421
 4381SOL    HW114042   2.178   3.702   5.446
 4381SOL    HW214043   2.304   3.785   5.383
 4382SOL     OW14044   5.791   3.855   6.445
 4382SOL    HW114045   5.828   3.763   6.459
 4382SOL    HW214046   5.802   3.881   6.349
 4383SOL     OW14047   0.640   2.303   5.722
 4383SOL    HW114048   0.709   2.373   5.701
 4383SOL    HW214049   0.640   2.234   5.650
 4384SOL     OW14050   5.626   1.599   6.149
 4384SOL    HW114051   5.611   1.594   6.248
 4384SOL    HW214052   5.648   1.508   6.114
 4385SOL     OW14053   6.138   2.852   5.190
 4385SOL    HW114054   6.116   2.875   5.285
 4385SOL    HW214055   6.076   2.901   5.129
 4386SOL     OW14056   2.303   3.251   6.820
 4386SOL    HW114057   2.297   3.213   6.728
 4386SOL    HW214058   2.218   3.231   6.870
 4387SOL     OW14059   6.740   1.198   1.814
 4387SOL    HW114060   6.647   1.174   1.840
 4387SOL    HW214061   6.784   1.247   1.889
 4388SOL     OW14062   5.453   1.328   6.640
 4388SOL    HW114063   5.518   1.274   6.694
 4388SOL    HW214064   5.451   1.422   6.674
 4389SOL     OW14065   0.159   4.019   0.697
 4389SOL    HW114066   0.237   4.027   0.759
 4389SOL    HW214067   0.144   4.106   0.650
 4390SOL     OW14068   3.612   1.123   1.656
 4390SOL    HW114069   3.632   1.129   1.754
 4390SOL    HW214070   3.642   1.034   1.622
 4391SOL     OW14071   1.323   5.633   6.629
 4391SOL    HW114072   1.322   5.633   6.529
 4391SOL    HW214073   1.358   5.721   6.661
 4392SOL     OW14074   6.808   3.194   6.254
 4392SOL    HW114075   6.785   3.120   6.317
 4392SOL    HW214076   6.736   3.203   6.185
 4393SOL     OW14077   6.114   0.772   2.346
 4393SOL    HW114078   6.045   0.712   2.385
 4393SOL    HW214079   6.118   0.760   2.247
 4394SOL     OW14080   5.555   5.589   2.772
 4394SOL    HW114081   5.519   5.534   2.696
 4394SOL    HW214082   5.611   5.663   2.735
 4395SOL     OW14083   3.482   0.026   1.671
 4395SOL    HW114084   3.565   0.059   1.715
 4395SOL    HW214085   3.496   0.020   1.572
 4396SOL     OW14086   1.883   2.528   4.310
 4396SOL    HW114087   1.789   2.513   4.279
 4396SOL    HW214088   1.917   2.444   4.354
 4397SOL     OW14089   0.680   1.019   4.624
 4397SOL    HW114090   0.613   0.946   4.612
 4397SOL    HW214091   0.759   1.001   4.566
 4398SOL     OW14092   0.605   4.705   5.256
 4398SOL    HW114093   0.521   4.752   5.229
 4398SOL    HW214094   0.675   4.772   5.278
 4399SOL     OW14095   1.898   0.965   1.329
 4399SOL    HW114096   1.819   0.913   1.364
 4399SOL    HW214097   1.898   1.056   1.370
 4400SOL     OW14098   3.647   6.425   5.896
 4400SOL    HW114099   3.668   6.393   5.804
 4400SOL    HW214100   3.629   6.347   5.956
 4401SOL     OW14101   4.913   6.427   6.694
 4401SOL    HW114102   4.943   6.521   6.678
 4401SOL    HW214103   4.827   6.411   6.646
 4402SOL     OW14104   2.593   0.106   1.022
 4402SOL    HW114105   2.658   0.080   1.094
 4402SOL    HW214106   2.572   0.203   1.030
 4403SOL     OW14107   0.887   0.395   3.554
 4403SOL    HW114108   0.853   0.359   3.467
 4403SOL    HW214109   0.980   0.431   3.541
 4404SOL     OW14110   0.291   4.293   5.943
 4404SOL    HW114111   0.348   4.211   5.939
 4404SOL    HW214112   0.233   4.297   5.862
 4405SOL     OW14113   1.610   4.393   1.828
 4405SOL    HW114114   1.698   4.364   1.789
 4405SOL    HW214115   1.602   4.492   1.822
 4406SOL     OW14116   0.166   3.823   0.473
 4406SOL    HW114117   0.255   3.813   0.430
 4406SOL    HW214118   0.170   3.895   0.542
 4407SOL     OW14119   6.644   5.221   0.871
 4407SOL    HW114120   6.738   5.190   0.884
 4407SOL    HW214121   6.643   5.302   0.813
 4408SOL     OW14122   3.052   1.442   1.604
 4408SOL    HW114123   3.138   1.493   1.607
 4408SOL    HW214124   3.005   1.450   1.692
 4409SOL     OW14125   4.795   0.196   2.686
 4409SOL    HW114126   4.751   0.119   2.732
 4409SOL    HW214127   4.895   0.186   2.692
 4410SOL     OW14128   1.150   5.506   6.782
 4410SOL    HW114129   1.068   5.517   6.725
 4410SOL    HW214130   1.227   5.553   6.738
 4411SOL     OW14131   3.640   4.188   3.834
 4411SOL    HW114132   3.606   4.283   3.836
 4411SOL    HW214133   3.700   4.177   3.755
 4412SOL     OW14134   4.089   6.511   5.056
 4412SOL    HW114135   4.087   6.424   5.107
 4412SOL    HW214136   4.000   6.555   5.065
 4413SOL     OW14137   6.362   5.700   4.703
 4413SOL    HW114138   6.361   5.799   4.717
 4413SOL    HW214139   6.307   5.677   4.623
 4414SOL     OW14140   3.670   4.216   1.313
 4414SOL    HW114141   3.582   4.231   1.268
 4414SOL    HW214142   3.671   4.262   1.402
 4415SOL     OW14143   4.136   3.307   0.084
 4415SOL    HW114144   4.080   3.288   0.004
 4415SOL    HW214145   4.215   3.246   0.084
 4416SOL     OW14146   2.470   0.583   4.095
 4416SOL    HW114147   2.461   0.529   4.179
 4416SOL    HW214148   2.543   0.544   4.039
 4417SOL     OW14149   5.906   4.282   3.197
 4417SOL    HW114150   5.855   4.274   3.282
 4417SOL    HW214151   5.998   4.244   3.210
 4418SOL     OW14152   5.811   1.763   2.422
 4418SOL    HW114153   5.712   1.761   2.437
 4418SOL    HW214154   5.837   1.850   2.380
 4419SOL     OW14155   5.989   6.047   6.859
 4419SOL    HW114156   5.990   5.957   6.816
 4419SOL    HW214157   6.012   6.116   6.791
 4420SOL     OW14158   5.500   1.386   1.742
 4420SOL    HW114159   5.488   1.396   1.841
 4420SOL    HW214160   5.431   1.323   1.706
 4421SOL     OW14161   1.697   0.618   5.351
 4421SOL    HW114162   1.698   0.532   5.299
 4421SOL    HW214163   1.617   0.671   5.325
 4422SOL     OW14164   3.400   4.157   6.275
 4422SOL    HW114165   3.460   4.110   6.210
 4422SOL    HW214166   3.305   4.138   6.253
 4423SOL     OW14167   1.447   3.084   5.744
 4423SOL    HW114168   1.455   2.984   5.742
 4423SOL    HW214169   1.494   3.123   5.665
 4424SOL     OW14170   5.320   0.846   4.268
 4424SOL    HW114171   5.354   0.865   4.176
 4424SOL    HW214172   5.381   0.779   4.312
 4425SOL     OW14173   3.482   5.063   0.311
 4425SOL    HW114174   3.579   5.079   0.295
 4425SOL    HW214175   3.451   5.120   0.388
 4426SOL     OW14176   0.202   0.901   4.638
 4426SOL    HW114177   0.166   0.989   4.608
 4426SOL    HW214178   0.147   0.827   4.599
 4427SOL     OW14179   0.524   6.309   2.430
 4427SOL    HW114180   0.484   6.251   2.501
 4427SOL    HW214181   0.543   6.254   2.349
 4428SOL     OW14182   2.993   0.050   2.331
 4428SOL    HW114183   3.090   0.058   2.308
 4428SOL    HW214184   2.939   0.105   2.268
 4429SOL     OW14185   2.938   0.077   2.617
 4429SOL    HW114186   2.954   0.051   2.522
 4429SOL    HW214187   2.841   0.066   2.639
 4430SOL     OW14188   5.127   3.749   4.711
 4430SOL    HW114189   5.197   3.818   4.695
 4430SOL    HW214190   5.055   3.786   4.769
 4431SOL     OW14191   2.276   0.961   2.445
 4431SOL    HW114192   2.234   0.911   2.370
 4431SOL    HW214193   2.316   0.896   2.510
 4432SOL     OW14194   3.354   3.477   5.106
 4432SOL    HW114195   3.302   3.478   5.020
 4432SOL    HW214196   3.450   3.456   5.087
 4433SOL     OW14197   4.407   0.928   4.899
 4433SOL    HW114198   4.495   0.946   4.857
 4433SOL    HW214199   4.334   0.969   4.844
 4434SOL     OW14200   4.966   2.016   4.208
 4434SOL    HW114201   4.945   2.100   4.258
 4434SOL    HW214202   4.919   2.017   4.119
 4435SOL     OW14203   4.498   3.423   1.362
 4435SOL    HW114204   4.455   3.394   1.448
 4435SOL    HW214205   4.430   3.425   1.289
 4436SOL     OW14206   4.666   1.192   1.334
 4436SOL    HW114207   4.695   1.287   1.330
 4436SOL    HW214208   4.666   1.160   1.429
 4437SOL     OW14209   5.775   1.684   3.135
 4437SOL    HW114210   5.688   1.646   3.167
 4437SOL    HW214211   5.761   1.777   3.103
 4438SOL     OW14212   5.520   6.957   0.222
 4438SOL    HW114213   5.565   6.998   0.301
 4438SOL    HW214214   5.499   0.010   0.156
 4439SOL     OW14215   0.416   5.556   1.936
 4439SOL    HW114216   0.376   5.475   1.981
 4439SOL    HW214217   0.511   5.536   1.910
 4440SOL     OW14218   2.150   5.391   0.496
 4440SOL    HW114219   2.157   5.298   0.532
 4440SOL    HW214220   2.064   5.401   0.447
 4441SOL     OW14221   6.698   1.824   2.884
 4441SOL    HW114222   6.763   1.874   2.941
 4441SOL    HW214223   6.619   1.882   2.865
 4442SOL     OW14224   2.738   5.638   4.445
 4442SOL    HW114225   2.651   5.672   4.409
 4442SOL    HW214226   2.786   5.712   4.492
 4443SOL     OW14227   0.172   2.784   0.606
 4443SOL    HW114228   0.075   2.784   0.582
 4443SOL    HW214229   0.210   2.875   0.590
 4444SOL     OW14230   3.193   4.717   6.143
 4444SOL    HW114231   3.283   4.722   6.186
 4444SOL    HW214232   3.203   4.723   6.044
 4445SOL     OW14233   0.491   0.232   1.406
 4445SOL    HW114234   0.400   0.208   1.437
 4445SOL    HW214235   0.508   0.329   1.425
 4446SOL     OW14236   5.866   1.114   2.395
 4446SOL    HW114237   5.847   1.038   2.332
 4446SOL    HW214238   5.834   1.091   2.486
 4447SOL     OW14239   5.134   3.714   6.207
 4447SOL    HW114240   5.163   3.644   6.272
 4447SOL    HW214241   5.185   3.799   6.223
 4448SOL     OW14242   2.924   3.930   1.536
 4448SOL    HW114243   3.010   3.979   1.519
 4448SOL    HW214244   2.858   3.954   1.465
 4449SOL     OW14245   5.399   0.333   6.063
 4449SOL    HW114246   5.331   0.368   5.999
 4449SOL    HW214247   5.392   0.383   6.149
 4450SOL     OW14248   3.568   3.045   4.375
 4450SOL    HW114249   3.545   3.131   4.421
 4450SOL    HW214250   3.663   3.021   4.395
 4451SOL     OW14251   5.853   4.614   3.583
 4451SOL    HW114252   5.805   4.626   3.670
 4451SOL    HW214253   5.829   4.689   3.521
 4452SOL     OW14254   5.431   6.576   4.580
 4452SOL    HW114255   5.417   6.585   4.679
 4452SOL    HW214256   5.468   6.485   4.559
 4453SOL     OW14257   0.378   2.405   1.751
 4453SOL    HW114258   0.284   2.419   1.782
 4453SOL    HW214259   0.429   2.354   1.821
 4454SOL     OW14260   1.362   2.185   6.930
 4454SOL    HW114261   1.299   2.248   6.884
 4454SOL    HW214262   1.315   2.142   7.007
 4455SOL     OW14263   4.114   6.174   6.319
 4455SOL    HW114264   4.107   6.120   6.235
 4455SOL    HW214265   4.209   6.172   6.351
 4456SOL     OW14266   3.622   6.186   2.165
 4456SOL    HW114267   3.533   6.186   2.120
 4456SOL    HW214268   3.654   6.280   2.177
 4457SOL     OW14269   4.842   1.860   1.829
 4457SOL    HW114270   4.895   1.944   1.840
 4457SOL    HW214271   4.852   1.803   1.910
 4458SOL     OW14272   1.422   2.572   6.466
 4458SOL    HW114273   1.363   2.591   6.544
 4458SOL    HW214274   1.378   2.503   6.407
 4459SOL     OW14275   4.004   0.514   5.077
 4459SOL    HW114276   4.073   0.558   5.134
 4459SOL    HW214277   3.979   0.426   5.116
 4460SOL     OW14278   3.339   2.414   5.773
 4460SOL    HW114279   3.319   2.322   5.740
 4460SOL    HW214280   3.429   2.415   5.817
 4461SOL     OW14281   1.398   0.965   1.769
 4461SOL    HW114282   1.419   0.897   1.839
 4461SOL    HW214283   1.315   1.014   1.793
 4462SOL     OW14284   5.932   4.464   2.126
 4462SOL    HW114285   5.997   4.537   2.146
 4462SOL    HW214286   5.951   4.385   2.185
 4463SOL     OW14287   5.552   1.817   6.499
 4463SOL    HW114288   5.466   1.810   6.450
 4463SOL    HW214289   5.612   1.742   6.473
 4464SOL     OW14290   6.438   5.025   0.794
 4464SOL    HW114291   6.459   4.953   0.860
 4464SOL    HW214292   6.507   5.098   0.802
 4465SOL     OW14293   2.664   5.412   1.207
 4465SOL    HW114294   2.598   5.367   1.266
 4465SOL    HW214295   2.622   5.433   1.119
 4466SOL     OW14296   1.815   2.175   3.445
 4466SOL    HW114297   1.873   2.113   3.393
 4466SOL    HW214298   1.787   2.252   3.388
 4467SOL     OW14299   2.036   0.070   2.528
 4467SOL    HW114300   1.950   0.028   2.502
 4467SOL    HW214301   2.052   0.055   2.626
 4468SOL     OW14302   2.013   2.616   0.704
 4468SOL    HW114303   2.050   2.616   0.797
 4468SOL    HW214304   1.919   2.583   0.706
 4469SOL     OW14305   4.150   0.743   1.547
 4469SOL    HW114306   4.106   0.814   1.491
 4469SOL    HW214307   4.148   0.656   1.497
 4470SOL     OW14308   6.155   2.402   2.241
 4470SOL    HW114309   6.100   2.464   2.297
 4470SOL    HW214310   6.189   2.452   2.161
 4471SOL     OW14311   0.642   1.736   6.967
 4471SOL    HW114312   0.633   1.832   6.940
 4471SOL    HW214313   0.552   1.697   6.983
 4472SOL     OW14314   1.324   3.095   3.717
 4472SOL    HW114315   1.268   3.165   3.761
 4472SOL    HW214316   1.418   3.127   3.709
 4473SOL     OW14317   6.644   2.788   4.698
 4473SOL    HW114318   6.718   2.737   4.742
 4473SOL    HW214319   6.653   2.781   4.599
 4474SOL     OW14320   2.947   1.339   1.374
 4474SOL    HW114321   2.967   1.384   1.461
 4474SOL    HW214322   3.029   1.291   1.341
 4475SOL     OW14323   1.514   4.076   2.862
 4475SOL    HW114324   1.455   4.034   2.931
 4475SOL    HW214325   1.527   4.012   2.786
 4476SOL     OW14326   3.667   0.032   3.706
 4476SOL    HW114327   3.708   0.103   3.650
 4476SOL    HW214328   3.574   0.013   3.674
 4477SOL     OW14329   1.794   6.577   5.198
 4477SOL    HW114330   1.816   6.615   5.108
 4477SOL    HW214331   1.871   6.521   5.230
 4478SOL     OW14332   3.677   0.279   2.812
 4478SOL    HW114333   3.627   0.365   2.812
 4478SOL    HW214334   3.746   0.279   2.740
 4479SOL     OW14335   0.886   1.031   1.815
 4479SOL    HW114336   0.872   0.952   1.874
 4479SOL    HW214337   0.837   1.110   1.852
 4480SOL     OW14338   2.036   3.847   5.677
 4480SOL    HW114339   2.061   3.901   5.596
 4480SOL    HW214340   1.984   3.766   5.648
 4481SOL     OW14341   2.603   6.626   5.243
 4481SOL    HW114342   2.702   6.618   5.251
 4481SOL    HW214343   2.572   6.580   5.160
 4482SOL     OW14344   1.170   3.964   4.689
 4482SOL    HW114345   1.158   4.050   4.640
 4482SOL    HW214346   1.249   3.915   4.651
 4483SOL     OW14347   5.430   2.971   2.004
 4483SOL    HW114348   5.399   3.022   2.084
 4483SOL    HW214349   5.520   3.004   1.976
 4484SOL     OW14350   3.133   3.077   6.024
 4484SOL    HW114351   3.129   3.095   5.925
 4484SOL    HW214352   3.228   3.065   6.052
 4485SOL     OW14353   5.154   1.668   5.274
 4485SOL    HW114354   5.174   1.592   5.336
 4485SOL    HW214355   5.058   1.695   5.284
 4486SOL     OW14356   5.392   4.723   4.913
 4486SOL    HW114357   5.415   4.627   4.906
 4486SOL    HW214358   5.334   4.749   4.835
 4487SOL     OW14359   2.142   3.003   6.076
 4487SOL    HW114360   2.101   2.915   6.099
 4487SOL    HW214361   2.235   2.988   6.041
 4488SOL     OW14362   6.713   2.986   6.478
 4488SOL    HW114363   6.676   2.900   6.445
 4488SOL    HW214364   6.647   3.031   6.538
 4489SOL     OW14365   5.935   6.025   3.787
 4489SOL    HW114366   5.913   5.972   3.869
 4489SOL    HW214367   5.986   5.968   3.723
 4490SOL     OW14368   6.410   2.549   3.149
 4490SOL    HW114369   6.404   2.582   3.055
 4490SOL    HW214370   6.344   2.596   3.206
 4491SOL     OW14371   6.506   2.109   4.676
 4491SOL    HW114372   6.471   2.053   4.601
 4491SOL    HW214373   6.587   2.066   4.715
 4492SOL     OW14374   5.688   4.036   1.199
 4492SOL    HW114375   5.642   3.958   1.242
 4492SOL    HW214376   5.684   4.026   1.099
 4493SOL     OW14377   4.475   5.683   5.234
 4493SOL    HW114378   4.489   5.598   5.286
 4493SOL    HW214379   4.428   5.750   5.292
 4494SOL     OW14380   6.575   0.987   6.006
 4494SOL    HW114381   6.672   0.968   5.992
 4494SOL    HW214382   6.520   0.920   5.956
 4495SOL     OW14383   3.903   6.390   4.181
 4495SOL    HW114384   3.850   6.416   4.262
 4495SOL    HW214385   3.973   6.460   4.163
 4496SOL     OW14386   5.784   5.810   1.382
 4496SOL    HW114387   5.718   5.823   1.456
 4496SOL    HW214388   5.875   5.838   1.414
 4497SOL     OW14389   4.662   1.184   6.790
 4497SOL    HW114390   4.609   1.227   6.863
 4497SOL    HW214391   4.612   1.104   6.755
 4498SOL     OW14392   6.997   3.542   0.244
 4498SOL    HW114393   0.058   3.547   0.186
 4498SOL    HW214394   6.981   3.631   0.287
 4499SOL     OW14395   6.561   3.521   4.759
 4499SOL    HW114396   6.503   3.455   4.806
 4499SOL    HW214397   6.642   3.475   4.723
 4500SOL     OW14398   3.299   3.344   3.847
 4500SOL    HW114399   3.376   3.287   3.818
 4500SOL    HW214400   3.330   3.437   3.864
 4501SOL     OW14401   0.363   3.583   4.145
 4501SOL    HW114402   0.423   3.566   4.067
 4501SOL    HW214403   0.378   3.675   4.180
 4502SOL     OW14404   0.919   3.075   6.813
 4502SOL    HW114405   0.926   2.977   6.830
 4502SOL    HW214406   0.835   3.095   6.763
 4503SOL     OW14407   3.396   6.795   1.854
 4503SOL    HW114408   3.461   6.863   1.819
 4503SOL    HW214409   3.384   6.722   1.786
 4504SOL     OW14410   6.699   0.394   4.731
 4504SOL    HW114411   6.691   0.373   4.828
 4504SOL    HW214412   6.713   0.310   4.679
 4505SOL     OW14413   5.644   4.939   1.788
 4505SOL    HW114414   5.605   4.908   1.874
 4505SOL    HW214415   5.715   5.008   1.806
 4506SOL     OW14416   4.263   2.286   3.549
 4506SOL    HW114417   4.353   2.325   3.567
 4506SOL    HW214418   4.232   2.312   3.458
 4507SOL     OW14419   5.244   4.624   2.106
 4507SOL    HW114420   5.289   4.580   2.184
 4507SOL    HW214421   5.146   4.632   2.125
 4508SOL     OW14422   0.860   4.489   6.557
 4508SOL    HW114423   0.927   4.527   6.621
 4508SOL    HW214424   0.864   4.540   6.471
 4509SOL     OW14425   4.396   2.036   2.843
 4509SOL    HW114426   4.300   2.046   2.866
 4509SOL    HW214427   4.425   1.942   2.858
 4510SOL     OW14428   4.125   0.893   4.067
 4510SOL    HW114429   4.205   0.954   4.066
 4510SOL    HW214430   4.135   0.825   3.995
 4511SOL     OW14431   6.654   3.069   0.106
 4511SOL    HW114432   6.633   2.977   0.139
 4511SOL    HW214433   6.703   3.119   0.178
 4512SOL     OW14434   3.246   0.879   5.533
 4512SOL    HW114435   3.298   0.955   5.571
 4512SOL    HW214436   3.148   0.896   5.545
 4513SOL     OW14437   5.840   5.187   0.292
 4513SOL    HW114438   5.864   5.094   0.320
 4513SOL    HW214439   5.923   5.238   0.273
 4514SOL     OW14440   4.361   1.114   6.797
 4514SOL    HW114441   4.345   1.208   6.827
 4514SOL    HW214442   4.279   1.079   6.753
 4515SOL     OW14443   6.765   1.675   5.894
 4515SOL    HW114444   6.822   1.742   5.846
 4515SOL    HW214445   6.682   1.719   5.926
 4516SOL     OW14446   2.187   0.141   0.121
 4516SOL    HW114447   2.263   0.137   0.186
 4516SOL    HW214448   2.212   0.202   0.045
 4517SOL     OW14449   4.252   0.619   6.697
 4517SOL    HW114450   4.195   0.631   6.778
 4517SOL    HW214451   4.276   0.709   6.660
 4518SOL     OW14452   7.000   0.544   2.573
 4518SOL    HW114453   6.990   0.641   2.553
 4518SOL    HW214454   0.071   0.526   2.611
 4519SOL     OW14455   6.421   0.965   1.472
 4519SOL    HW114456   6.444   0.882   1.421
 4519SOL    HW214457   6.494   0.986   1.536
 4520SOL     OW14458   4.359   6.344   4.716
 4520SOL    HW114459   4.282   6.404   4.737
 4520SOL    HW214460   4.437   6.368   4.775
 4521SOL     OW14461   5.800   1.838   4.029
 4521SOL    HW114462   5.810   1.846   4.128
 4521SOL    HW214463   5.881   1.794   3.990
 4522SOL     OW14464   6.285   6.507   3.298
 4522SOL    HW114465   6.277   6.588   3.239
 4522SOL    HW214466   6.245   6.527   3.387
 4523SOL     OW14467   0.575   4.128   0.376
 4523SOL    HW114468   0.603   4.106   0.469
 4523SOL    HW214469   0.538   4.046   0.332
 4524SOL     OW14470   6.121   2.442   3.500
 4524SOL    HW114471   6.158   2.349   3.495
 4524SOL    HW214472   6.061   2.457   3.421
 4525SOL     OW14473   5.051   1.038   4.965
 4525SOL    HW114474   5.132   1.049   5.022
 4525SOL    HW214475   4.969   1.049   5.021
 4526SOL     OW14476   6.301   0.791   1.104
 4526SOL    HW114477   6.346   0.799   1.015
 4526SOL    HW214478   6.310   0.698   1.138
 4527SOL     OW14479   4.977   1.056   3.543
 4527SOL    HW114480   5.046   1.117   3.582
 4527SOL    HW214481   5.015   0.963   3.535
 4528SOL     OW14482   4.773   0.217   0.210
 4528SOL    HW114483   4.842   0.202   0.280
 4528SOL    HW214484   4.685   0.183   0.243
 4529SOL     OW14485   3.368   0.788   5.310
 4529SOL    HW114486   3.402   0.697   5.334
 4529SOL    HW214487   3.315   0.825   5.387
 4530SOL     OW14488   2.183   4.450   6.085
 4530SOL    HW114489   2.144   4.376   6.029
 4530SOL    HW214490   2.251   4.499   6.031
 4531SOL     OW14491   0.271   3.487   4.820
 4531SOL    HW114492   0.315   3.574   4.841
 4531SOL    HW214493   0.291   3.421   4.892
 4532SOL     OW14494   5.939   2.070   3.337
 4532SOL    HW114495   6.028   2.075   3.293
 4532SOL    HW214496   5.943   2.006   3.414
 4533SOL     OW14497   1.155   1.105   1.804
 4533SOL    HW114498   1.063   1.068   1.815
 4533SOL    HW214499   1.152   1.188   1.749
 4534SOL     OW14500   4.896   3.996   4.477
 4534SOL    HW114501   4.859   4.048   4.554
 4534SOL    HW214502   4.991   3.973   4.496
 4535SOL     OW14503   4.271   0.883   2.300
 4535SOL    HW114504   4.201   0.814   2.321
 4535SOL    HW214505   4.306   0.867   2.208
 4536SOL     OW14506   4.019   1.489   3.739
 4536SOL    HW114507   3.977   1.422   3.678
 4536SOL    HW214508   4.118   1.475   3.742
 4537SOL     OW14509   4.407   3.153   6.545
 4537SOL    HW114510   4.350   3.115   6.617
 4537SOL    HW214511   4.422   3.083   6.474
 4538SOL     OW14512   2.166   0.274   3.927
 4538SOL    HW114513   2.194   0.281   4.023
 4538SOL    HW214514   2.069   0.295   3.919
 4539SOL     OW14515   2.774   0.526   5.070
 4539SOL    HW114516   2.800   0.574   4.985
 4539SOL    HW214517   2.691   0.568   5.107
 4540SOL     OW14518   3.327   2.285   5.508
 4540SOL    HW114519   3.370   2.241   5.429
 4540SOL    HW214520   3.228   2.278   5.501
 4541SOL     OW14521   5.952   2.287   0.666
 4541SOL    HW114522   5.939   2.190   0.647
 4541SOL    HW214523   5.958   2.337   0.580
 4542SOL     OW14524   6.680   1.464   2.559
 4542SOL    HW114525   6.667   1.476   2.657
 4542SOL    HW214526   6.699   1.553   2.517
 4543SOL     OW14527   4.979   1.918   1.473
 4543SOL    HW114528   4.940   1.970   1.398
 4543SOL    HW214529   5.056   1.969   1.513
 4544SOL     OW14530   3.032   6.393   6.202
 4544SOL    HW114531   3.093   6.442   6.264
 4544SOL    HW214532   3.064   6.405   6.108
 4545SOL     OW14533   5.120   4.289   4.691
 4545SOL    HW114534   5.134   4.233   4.772
 4545SOL    HW214535   5.086   4.379   4.717
 4546SOL     OW14536   1.495   0.990   5.817
 4546SOL    HW114537   1.437   1.065   5.783
 4546SOL    HW214538   1.560   1.026   5.883
 4547SOL     OW14539   5.770   2.379   3.083
 4547SOL    HW114540   5.676   2.413   3.075
 4547SOL    HW214541   5.801   2.345   2.995
 4548SOL     OW14542   0.876   3.921   4.105
 4548SOL    HW114543   0.825   3.992   4.058
 4548SOL    HW214544   0.818   3.840   4.118
 4549SOL     OW14545   6.914   4.335   1.525
 4549SOL    HW114546   6.917   4.424   1.481
 4549SOL    HW214547   6.842   4.334   1.595
 4550SOL     OW14548   0.763   5.377   3.032
 4550SOL    HW114549   0.677   5.328   3.045
 4550SOL    HW214550   0.768   5.454   3.096
 4551SOL     OW14551   0.107   1.804   5.511
 4551SOL    HW114552   0.155   1.879   5.467
 4551SOL    HW214553   0.016   1.794   5.470
 4552SOL     OW14554   6.412   3.379   0.774
 4552SOL    HW114555   6.480   3.362   0.702
 4552SOL    HW214556   6.382   3.292   0.813
 4553SOL     OW14557   3.374   4.736   6.995
 4553SOL    HW114558   3.367   4.816   0.036
 4553SOL    HW214559   3.351   4.763   6.901
 4554SOL     OW14560   5.454   0.520   1.152
 4554SOL    HW114561   5.554   0.514   1.148
 4554SOL    HW214562   5.415   0.440   1.106
 4555SOL     OW14563   2.940   1.914   5.960
 4555SOL    HW114564   2.864   1.924   6.025
 4555SOL    HW214565   2.929   1.980   5.886
 4556SOL     OW14566   4.837   3.166   3.849
 4556SOL    HW114567   4.886   3.251   3.869
 4556SOL    HW214568   4.812   3.121   3.934
 4557SOL     OW14569   4.601   5.864   5.900
 4557SOL    HW114570   4.533   5.794   5.879
 4557SOL    HW214571   4.554   5.952   5.915
 4558SOL     OW14572   0.894   4.720   5.085
 4558SOL    HW114573   0.880   4.787   5.158
 4558SOL    HW214574   0.837   4.744   5.007
 4559SOL     OW14575   0.140   4.213   1.621
 4559SOL    HW114576   0.079   4.257   1.556
 4559SOL    HW214577   0.208   4.279   1.654
 4560SOL     OW14578   5.104   4.302   2.011
 4560SOL    HW114579   5.167   4.354   1.954
 4560SOL    HW214580   5.014   4.345   2.009
 4561SOL     OW14581   1.792   1.778   2.261
 4561SOL    HW114582   1.840   1.816   2.182
 4561SOL    HW214583   1.821   1.824   2.344
 4562SOL     OW14584   2.867   6.133   5.147
 4562SOL    HW114585   2.843   6.129   5.050
 4562SOL    HW214586   2.940   6.068   5.166
 4563SOL     OW14587   0.138   2.934   1.223
 4563SOL    HW114588   0.047   2.903   1.195
 4563SOL    HW214589   0.199   2.855   1.230
 4564SOL     OW14590   6.902   6.340   1.204
 4564SOL    HW114591   6.939   6.406   1.139
 4564SOL    HW214592   6.810   6.368   1.231
 4565SOL     OW14593   0.927   1.240   5.358
 4565SOL    HW114594   0.989   1.318   5.350
 4565SOL    HW214595   0.979   1.158   5.381
 4566SOL     OW14596   6.515   2.670   0.604
 4566SOL    HW114597   6.580   2.722   0.660
 4566SOL    HW214598   6.450   2.622   0.663
 4567SOL     OW14599   6.137   0.573   6.876
 4567SOL    HW114600   6.069   0.609   6.940
 4567SOL    HW214601   6.208   0.641   6.861
 4568SOL     OW14602   2.333   4.105   5.805
 4568SOL    HW114603   2.356   4.098   5.708
 4568SOL    HW214604   2.239   4.073   5.819
 4569SOL     OW14605   1.693   1.900   2.940
 4569SOL    HW114606   1.654   1.981   2.895
 4569SOL    HW214607   1.634   1.872   3.016
 4570SOL     OW14608   0.564   6.816   3.832
 4570SOL    HW114609   0.569   6.784   3.737
 4570SOL    HW214610   0.618   6.899   3.842
 4571SOL     OW14611   4.199   4.244   6.242
 4571SOL    HW114612   4.233   4.327   6.288
 4571SOL    HW214613   4.109   4.263   6.203
 4572SOL     OW14614   1.485   6.443   6.998
 4572SOL    HW114615   1.563   6.447   6.937
 4572SOL    HW214616   1.504   6.495   0.062
 4573SOL     OW14617   6.368   6.863   0.579
 4573SOL    HW114618   6.289   6.817   0.621
 4573SOL    HW214619   6.390   6.945   0.630
 4574SOL     OW14620   6.040   3.829   0.695
 4574SOL    HW114621   6.017   3.856   0.788
 4574SOL    HW214622   6.112   3.760   0.697
 4575SOL     OW14623   6.225   1.177   5.854
 4575SOL    HW114624   6.149   1.237   5.879
 4575SOL    HW214625   6.252   1.122   5.933
 4576SOL     OW14626   2.358   6.544   5.925
 4576SOL    HW114627   2.309   6.534   6.012
 4576SOL    HW214628   2.367   6.454   5.882
 4577SOL     OW14629   1.177   2.019   4.306
 4577SOL    HW114630   1.111   2.059   4.369
 4577SOL    HW214631   1.250   2.084   4.288
 4578SOL     OW14632   0.593   3.226   5.003
 4578SOL    HW114633   0.538   3.295   5.049
 4578SOL    HW214634   0.672   3.203   5.060
 4579SOL     OW14635   4.258   0.892   2.844
 4579SOL    HW114636   4.170   0.938   2.832
 4579SOL    HW214637   4.251   0.797   2.814
 4580SOL     OW14638   5.154   4.842   0.427
 4580SOL    HW114639   5.083   4.869   0.492
 4580SOL    HW214640   5.112   4.827   0.337
 4581SOL     OW14641   2.486   4.546   2.473
 4581SOL    HW114642   2.538   4.631   2.477
 4581SOL    HW214643   2.495   4.497   2.560
 4582SOL     OW14644   5.498   6.794   4.860
 4582SOL    HW114645   5.435   6.729   4.902
 4582SOL    HW214646   5.468   6.887   4.879
 4583SOL     OW14647   2.758   2.317   6.129
 4583SOL    HW114648   2.766   2.319   6.029
 4583SOL    HW214649   2.687   2.251   6.155
 4584SOL     OW14650   0.021   4.943   5.886
 4584SOL    HW114651   0.072   4.863   5.854
 4584SOL    HW214652   0.006   4.935   5.984
 4585SOL     OW14653   2.799   6.539   2.778
 4585SOL    HW114654   2.728   6.594   2.821
 4585SOL    HW214655   2.762   6.493   2.697
 4586SOL     OW14656   3.367   5.389   1.044
 4586SOL    HW114657   3.285   5.346   1.007
 4586SOL    HW214658   3.409   5.446   0.974
 4587SOL     OW14659   3.560   3.923   2.659
 4587SOL    HW114660   3.529   3.837   2.618
 4587SOL    HW214661   3.505   3.998   2.622
 4588SOL     OW14662   3.344   3.681   5.305
 4588SOL    HW114663   3.443   3.681   5.320
 4588SOL    HW214664   3.320   3.608   5.241
 4589SOL     OW14665   6.142   1.138   2.515
 4589SOL    HW114666   6.063   1.119   2.456
 4589SOL    HW214667   6.124   1.221   2.568
 4590SOL     OW14668   5.383   6.027   1.199
 4590SOL    HW114669   5.341   5.957   1.140
 4590SOL    HW214670   5.482   6.026   1.185
 4591SOL     OW14671   0.658   6.147   4.547
 4591SOL    HW114672   0.581   6.146   4.611
 4591SOL    HW214673   0.697   6.055   4.541
 4592SOL     OW14674   2.891   1.716   1.745
 4592SOL    HW114675   2.953   1.641   1.767
 4592SOL    HW214676   2.935   1.804   1.766
 4593SOL     OW14677   4.554   5.411   3.250
 4593SOL    HW114678   4.531   5.363   3.334
 4593SOL    HW214679   4.503   5.497   3.246
 4594SOL     OW14680   3.112   1.376   2.725
 4594SOL    HW114681   3.100   1.472   2.750
 4594SOL    HW214682   3.185   1.368   2.657
 4595SOL     OW14683   4.090   2.846   6.410
 4595SOL    HW114684   4.060   2.883   6.322
 4595SOL    HW214685   4.053   2.902   6.484
 4596SOL     OW14686   5.980   6.692   2.305
 4596SOL    HW114687   6.049   6.745   2.354
 4596SOL    HW214688   5.979   6.598   2.341
 4597SOL     OW14689   4.090   5.169   6.226
 4597SOL    HW114690   4.004   5.217   6.242
 4597SOL    HW214691   4.137   5.156   6.314
 4598SOL     OW14692   2.579   6.017   6.225
 4598SOL    HW114693   2.549   6.108   6.255
 4598SOL    HW214694   2.604   5.962   6.304
 4599SOL     OW14695   0.735   5.334   1.240
 4599SOL    HW114696   0.811   5.399   1.241
 4599SOL    HW214697   0.651   5.380   1.212
 4600SOL     OW14698   1.197   5.096   5.299
 4600SOL    HW114699   1.238   5.049   5.221
 4600SOL    HW214700   1.261   5.093   5.376
 4601SOL     OW14701   2.354   0.570   5.488
 4601SOL    HW114702   2.291   0.493   5.479
 4601SOL    HW214703   2.388   0.575   5.581
 4602SOL     OW14704   1.827   6.104   1.411
 4602SOL    HW114705   1.917   6.077   1.446
 4602SOL    HW214706   1.775   6.022   1.386
 4603SOL     OW14707   3.067   6.389   0.930
 4603SOL    HW114708   3.129   6.453   0.886
 4603SOL    HW214709   3.020   6.435   1.005
 4604SOL     OW14710   4.348   0.442   0.897
 4604SOL    HW114711   4.315   0.353   0.866
 4604SOL    HW214712   4.413   0.478   0.832
 4605SOL     OW14713   2.908   0.370   3.118
 4605SOL    HW114714   2.896   0.343   3.022
 4605SOL    HW214715   2.863   0.457   3.134
 4606SOL     OW14716   1.136   6.524   1.825
 4606SOL    HW114717   1.146   6.623   1.840
 4606SOL    HW214718   1.045   6.505   1.789
 4607SOL     OW14719   2.043   2.591   1.473
 4607SOL    HW114720   2.105   2.560   1.546
 4607SOL    HW214721   1.958   2.624   1.514
 4608SOL     OW14722   0.596   6.245   3.999
 4608SOL    HW114723   0.657   6.324   4.012
 4608SOL    HW214724   0.501   6.276   3.997
 4609SOL     OW14725   4.453   5.242   6.767
 4609SOL    HW114726   4.500   5.283   6.845
 4609SOL    HW214727   4.411   5.314   6.711
 4610SOL     OW14728   5.003   2.934   0.614
 4610SOL    HW114729   4.973   2.889   0.698
 4610SOL    HW214730   5.084   2.889   0.578
 4611SOL     OW14731   0.396   5.426   5.880
 4611SOL    HW114732   0.306   5.466   5.864
 4611SOL    HW214733   0.431   5.387   5.794
 4612SOL     OW14734   1.419   5.645   6.985
 4612SOL    HW114735   1.477   5.698   6.923
 4612SOL    HW214736   1.460   5.645   0.058
 4613SOL     OW14737   2.601   6.342   1.976
 4613SOL    HW114738   2.570   6.314   1.886
 4613SOL    HW214739   2.693   6.381   1.969
 4614SOL     OW14740   0.001   3.389   4.823
 4614SOL    HW114741   0.092   3.430   4.818
 4614SOL    HW214742   0.009   3.290   4.823
 4615SOL     OW14743   2.006   6.830   0.138
 4615SOL    HW114744   2.096   6.867   0.162
 4615SOL    HW214745   1.942   6.848   0.213
 4616SOL     OW14746   6.673   0.321   5.008
 4616SOL    HW114747   6.591   0.269   5.032
 4616SOL    HW214748   6.754   0.274   5.042
 4617SOL     OW14749   0.682   2.509   2.381
 4617SOL    HW114750   0.769   2.465   2.401
 4617SOL    HW214751   0.683   2.542   2.286
 4618SOL     OW14752   2.266   2.841   4.829
 4618SOL    HW114753   2.300   2.885   4.912
 4618SOL    HW214754   2.215   2.759   4.853
 4619SOL     OW14755   3.216   6.392   3.469
 4619SOL    HW114756   3.314   6.372   3.475
 4619SOL    HW214757   3.191   6.407   3.374
 4620SOL     OW14758   2.150   4.481   0.547
 4620SOL    HW114759   2.067   4.425   0.541
 4620SOL    HW214760   2.154   4.544   0.469
 4621SOL     OW14761   5.584   1.083   2.256
 4621SOL    HW114762   5.566   1.071   2.353
 4621SOL    HW214763   5.667   1.033   2.231
 4622SOL     OW14764   2.401   4.547   0.601
 4622SOL    HW114765   2.435   4.568   0.509
 4622SOL    HW214766   2.306   4.517   0.595
 4623SOL     OW14767   5.468   6.529   0.401
 4623SOL    HW114768   5.392   6.577   0.355
 4623SOL    HW214769   5.502   6.457   0.341
 4624SOL     OW14770   4.613   6.816   3.462
 4624SOL    HW114771   4.557   6.790   3.541
 4624SOL    HW214772   4.669   6.896   3.485
 4625SOL     OW14773   2.253   3.850   0.999
 4625SOL    HW114774   2.210   3.804   0.921
 4625SOL    HW214775   2.183   3.870   1.068
 4626SOL     OW14776   5.063   4.493   2.668
 4626SOL    HW114777   5.078   4.529   2.761
 4626SOL    HW214778   5.079   4.566   2.602
 4627SOL     OW14779   2.407   4.662   4.698
 4627SOL    HW114780   2.400   4.563   4.688
 4627SOL    HW214781   2.484   4.684   4.758
 4628SOL     OW14782   6.169   4.795   3.894
 4628SOL    HW114783   6.251   4.818   3.947
 4628SOL    HW214784   6.089   4.802   3.954
 4629SOL     OW14785   2.089   5.031   5.412
 4629SOL    HW114786   2.023   5.106   5.419
 4629SOL    HW214787   2.166   5.059   5.355
 4630SOL     OW14788   3.055   5.316   2.506
 4630SOL    HW114789   3.138   5.275   2.466
 4630SOL    HW214790   3.051   5.413   2.483
 4631SOL     OW14791   2.069   6.372   2.621
 4631SOL    HW114792   1.969   6.367   2.619
 4631SOL    HW214793   2.103   6.406   2.533
 4632SOL     OW14794   3.523   4.951   2.246
 4632SOL    HW114795   3.530   5.032   2.305
 4632SOL    HW214796   3.449   4.893   2.278
 4633SOL     OW14797   5.107   0.064   4.813
 4633SOL    HW114798   5.062   0.136   4.759
 4633SOL    HW214799   5.037   0.003   4.852
 4634SOL     OW14800   2.967   5.276   5.895
 4634SOL    HW114801   2.917   5.240   5.975
 4634SOL    HW214802   2.927   5.238   5.812
 4635SOL     OW14803   5.294   3.938   1.302
 4635SOL    HW114804   5.266   3.904   1.213
 4635SOL    HW214805   5.354   4.017   1.290
 4636SOL     OW14806   1.695   4.422   6.880
 4636SOL    HW114807   1.624   4.443   6.947
 4636SOL    HW214808   1.703   4.498   6.815
 4637SOL     OW14809   1.140   6.723   0.648
 4637SOL    HW114810   1.147   6.758   0.741
 4637SOL    HW214811   1.111   6.797   0.587
 4638SOL     OW14812   5.104   4.076   6.565
 4638SOL    HW114813   5.188   4.024   6.581
 4638SOL    HW214814   5.124   4.152   6.503
 4639SOL     OW14815   3.109   4.435   6.139
 4639SOL    HW114816   3.090   4.413   6.235
 4639SOL    HW214817   3.122   4.534   6.130
 4640SOL     OW14818   5.081   3.997   3.636
 4640SOL    HW114819   5.046   3.994   3.542
 4640SOL    HW214820   5.181   3.989   3.635
 4641SOL     OW14821   2.063   6.963   5.308
 4641SOL    HW114822   2.008   6.890   5.350
 4641SOL    HW214823   2.013   0.030   5.311
 4642SOL     OW14824   0.351   5.330   3.827
 4642SOL    HW114825   0.308   5.261   3.769
 4642SOL    HW214826   0.314   5.323   3.920
 4643SOL     OW14827   6.062   2.877   1.024
 4643SOL    HW114828   6.030   2.951   0.965
 4643SOL    HW214829   6.110   2.808   0.968
 4644SOL     OW14830   6.734   5.022   4.804
 4644SOL    HW114831   6.674   5.022   4.884
 4644SOL    HW214832   6.680   5.000   4.722
 4645SOL     OW14833   0.967   0.719   4.333
 4645SOL    HW114834   1.003   0.651   4.269
 4645SOL    HW214835   1.036   0.741   4.401
 4646SOL     OW14836   1.748   5.791   3.672
 4646SOL    HW114837   1.733   5.692   3.666
 4646SOL    HW214838   1.847   5.809   3.675
 4647SOL     OW14839   1.727   0.717   3.167
 4647SOL    HW114840   1.741   0.804   3.214
 4647SOL    HW214841   1.629   0.702   3.152
 4648SOL     OW14842   3.809   0.970   2.219
 4648SOL    HW114843   3.877   0.980   2.147
 4648SOL    HW214844   3.851   0.928   2.300
 4649SOL     OW14845   5.206   6.953   6.673
 4649SOL    HW114846   5.239   0.029   6.668
 4649SOL    HW214847   5.221   6.909   6.585
 4650SOL     OW14848   4.373   5.463   2.609
 4650SOL    HW114849   4.362   5.480   2.707
 4650SOL    HW214850   4.377   5.364   2.593
 4651SOL     OW14851   6.940   2.602   0.613
 4651SOL    HW114852   6.946   2.558   0.702
 4651SOL    HW214853   6.938   2.532   0.541
 4652SOL     OW14854   6.736   0.106   3.923
 4652SOL    HW114855   6.803   0.031   3.919
 4652SOL    HW214856   6.775   0.183   3.974
 4653SOL     OW14857   5.898   4.936   0.781
 4653SOL    HW114858   5.843   5.008   0.739
 4653SOL    HW214859   5.889   4.851   0.729
 4654SOL     OW14860   1.125   6.921   0.374
 4654SOL    HW114861   1.093   6.832   0.343
 4654SOL    HW214862   1.150   6.978   0.296
 4655SOL     OW14863   5.078   4.257   1.445
 4655SOL    HW114864   5.016   4.183   1.421
 4655SOL    HW214865   5.072   4.276   1.543
 4656SOL     OW14866   1.159   0.869   2.887
 4656SOL    HW114867   1.204   0.783   2.912
 4656SOL    HW214868   1.221   0.925   2.833
 4657SOL     OW14869   5.109   6.155   1.752
 4657SOL    HW114870   5.195   6.172   1.704
 4657SOL    HW214871   5.048   6.102   1.693
 4658SOL     OW14872   3.738   1.228   2.862
 4658SOL    HW114873   3.766   1.194   2.952
 4658SOL    HW214874   3.710   1.324   2.871
 4659SOL     OW14875   3.118   4.987   5.162
 4659SOL    HW114876   3.179   4.978   5.083
 4659SOL    HW214877   3.035   4.934   5.147
 4660SOL     OW14878   1.345   4.400   6.150
 4660SOL    HW114879   1.264   4.348   6.122
 4660SOL    HW214880   1.318   4.489   6.185
 4661SOL     OW14881   3.138   4.358   5.597
 4661SOL    HW114882   3.226   4.397   5.623
 4661SOL    HW214883   3.116   4.385   5.504
 4662SOL     OW14884   3.314   0.086   5.600
 4662SOL    HW114885   3.226   0.039   5.595
 4662SOL    HW214886   3.299   0.185   5.600
 4663SOL     OW14887   0.188   2.292   2.194
 4663SOL    HW114888   0.150   2.219   2.250
 4663SOL    HW214889   0.142   2.378   2.216
 4664SOL     OW14890   1.507   1.483   0.621
 4664SOL    HW114891   1.468   1.405   0.572
 4664SOL    HW214892   1.574   1.528   0.563
 4665SOL     OW14893   3.569   6.874   6.650
 4665SOL    HW114894   3.611   6.962   6.672
 4665SOL    HW214895   3.477   6.870   6.690
 4666SOL     OW14896   1.188   2.394   0.539
 4666SOL    HW114897   1.233   2.373   0.453
 4666SOL    HW214898   1.178   2.493   0.549
 4667SOL     OW14899   6.258   3.530   2.711
 4667SOL    HW114900   6.283   3.616   2.666
 4667SOL    HW214901   6.338   3.469   2.714
 4668SOL     OW14902   4.188   2.074   2.562
 4668SOL    HW114903   4.192   2.079   2.462
 4668SOL    HW214904   4.220   2.160   2.601
 4669SOL     OW14905   5.047   6.005   6.107
 4669SOL    HW114906   5.043   5.905   6.116
 4669SOL    HW214907   4.956   6.043   6.119
 4670SOL     OW14908   3.074   2.330   5.390
 4670SOL    HW114909   3.120   2.336   5.301
 4670SOL    HW214910   2.989   2.382   5.387
 4671SOL     OW14911   6.329   2.699   1.431
 4671SOL    HW114912   6.360   2.605   1.418
 4671SOL    HW214913   6.294   2.711   1.524
 4672SOL     OW14914   2.668   4.601   6.180
 4672SOL    HW114915   2.750   4.556   6.215
 4672SOL    HW214916   2.692   4.654   6.099
 4673SOL     OW14917   5.138   0.155   1.697
 4673SOL    HW114918   5.063   0.166   1.762
 4673SOL    HW214919   5.152   0.241   1.647
 4674SOL     OW14920   5.321   6.894   6.046
 4674SOL    HW114921   5.309   6.960   5.972
 4674SOL    HW214922   5.268   6.924   6.126
 4675SOL     OW14923   1.762   1.471   6.237
 4675SOL    HW114924   1.828   1.543   6.257
 4675SOL    HW214925   1.777   1.436   6.145
 4676SOL     OW14926   0.459   6.467   3.628
 4676SOL    HW114927   0.457   6.425   3.719
 4676SOL    HW214928   0.537   6.433   3.577
 4677SOL     OW14929   2.620   1.308   6.516
 4677SOL    HW114930   2.609   1.318   6.417
 4677SOL    HW214931   2.681   1.231   6.535
 4678SOL     OW14932   1.681   4.541   3.294
 4678SOL    HW114933   1.769   4.522   3.251
 4678SOL    HW214934   1.612   4.555   3.224
 4679SOL     OW14935   4.047   0.470   0.302
 4679SOL    HW114936   4.043   0.561   0.343
 4679SOL    HW214937   4.023   0.401   0.371
 4680SOL     OW14938   3.268   1.590   0.305
 4680SOL    HW114939   3.319   1.675   0.289
 4680SOL    HW214940   3.185   1.590   0.250
 4681SOL     OW14941   5.257   5.272   6.734
 4681SOL    HW114942   5.312   5.199   6.692
 4681SOL    HW214943   5.243   5.251   6.830
 4682SOL     OW14944   4.565   4.532   5.651
 4682SOL    HW114945   4.471   4.541   5.682
 4682SOL    HW214946   4.579   4.442   5.610
 4683SOL     OW14947   4.291   4.624   2.383
 4683SOL    HW114948   4.364   4.672   2.334
 4683SOL    HW214949   4.234   4.575   2.317
 4684SOL     OW14950   6.025   0.744   5.171
 4684SOL    HW114951   6.059   0.777   5.083
 4684SOL    HW214952   5.933   0.707   5.160
 4685SOL     OW14953   1.032   6.068   5.670
 4685SOL    HW114954   1.054   6.102   5.578
 4685SOL    HW214955   1.113   6.026   5.710
 4686SOL     OW14956   4.141   5.264   0.410
 4686SOL    HW114957   4.206   5.247   0.337
 4686SOL    HW214958   4.158   5.354   0.451
 4687SOL     OW14959   6.219   3.822   4.442
 4687SOL    HW114960   6.216   3.729   4.479
 4687SOL    HW214961   6.312   3.842   4.410
 4688SOL     OW14962   5.648   4.207   4.786
 4688SOL    HW114963   5.620   4.252   4.701
 4688SOL    HW214964   5.730   4.152   4.770
 4689SOL     OW14965   5.055   0.972   0.017
 4689SOL    HW114966   5.116   0.925   0.080
 4689SOL    HW214967   4.962   0.971   0.054
 4690SOL     OW14968   1.338   0.488   6.841
 4690SOL    HW114969   1.307   0.495   6.936
 4690SOL    HW214970   1.384   0.573   6.814
 4691SOL     OW14971   2.568   5.100   1.685
 4691SOL    HW114972   2.641   5.068   1.624
 4691SOL    HW214973   2.597   5.185   1.729
 4692SOL     OW14974   5.852   5.870   1.740
 4692SOL    HW114975   5.793   5.807   1.689
 4692SOL    HW214976   5.814   5.962   1.733
 4693SOL     OW14977   1.134   1.725   3.561
 4693SOL    HW114978   1.078   1.803   3.587
 4693SOL    HW214979   1.134   1.715   3.461
 4694SOL     OW14980   2.106   0.895   0.054
 4694SOL    HW114981   2.105   0.993   0.030
 4694SOL    HW214982   2.059   0.882   0.141
 4695SOL     OW14983   1.073   3.232   1.891
 4695SOL    HW114984   1.094   3.170   1.966
 4695SOL    HW214985   0.974   3.248   1.886
 4696SOL     OW14986   0.220   4.262   0.061
 4696SOL    HW114987   0.269   4.234   6.997
 4696SOL    HW214988   0.286   4.281   0.133
 4697SOL     OW14989   1.878   3.349   0.612
 4697SOL    HW114990   1.915   3.301   0.691
 4697SOL    HW214991   1.914   3.442   0.609
 4698SOL     OW14992   4.395   5.168   2.529
 4698SOL    HW114993   4.324   5.161   2.459
 4698SOL    HW214994   4.480   5.129   2.494
 4699SOL     OW14995   1.567   6.566   2.277
 4699SOL    HW114996   1.481   6.558   2.326
 4699SOL    HW214997   1.575   6.657   2.238
 4700SOL     OW14998   6.947   1.197   3.513
 4700SOL    HW114999   6.852   1.178   3.486
 4700SOL    HW215000   7.002   1.212   3.431
 4701SOL     OW15001   2.538   2.537   0.553
 4701SOL    HW115002   2.469   2.592   0.506
 4701SOL    HW215003   2.499   2.447   0.574
 4702SOL     OW15004   4.553   4.938   0.032
 4702SOL    HW115005   4.471   4.959   6.998
 4702SOL    HW215006   4.609   4.873   7.000
 4703SOL     OW15007   0.666   1.758   1.862
 4703SOL    HW115008   0.747   1.736   1.915
 4703SOL    HW215009   0.692   1.807   1.779
 4704SOL     OW15010   0.718   6.351   0.256
 4704SOL    HW115011   0.730   6.349   0.355
 4704SOL    HW215012   0.639   6.295   0.231
 4705SOL     OW15013   3.415   3.143   1.810
 4705SOL    HW115014   3.332   3.091   1.793
 4705SOL    HW215015   3.482   3.085   1.857
 4706SOL     OW15016   3.269   0.146   0.137
 4706SOL    HW115017   3.209   0.067   0.129
 4706SOL    HW215018   3.246   0.198   0.219
 4707SOL     OW15019   1.962   6.909   1.021
 4707SOL    HW115020   1.955   7.006   0.995
 4707SOL    HW215021   1.916   6.896   1.109
 4708SOL     OW15022   1.185   1.683   6.260
 4708SOL    HW115023   1.129   1.623   6.317
 4708SOL    HW215024   1.239   1.744   6.317
 4709SOL     OW15025   4.618   5.363   5.741
 4709SOL    HW115026   4.588   5.427   5.669
 4709SOL    HW215027   4.718   5.354   5.737
 4710SOL     OW15028   5.072   6.764   5.465
 4710SOL    HW115029   5.099   6.832   5.397
 4710SOL    HW215030   5.078   6.805   5.556
 4711SOL     OW15031   6.039   1.344   1.470
 4711SOL    HW115032   6.122   1.398   1.486
 4711SOL    HW215033   6.047   1.257   1.518
 4712SOL     OW15034   2.651   4.361   0.230
 4712SOL    HW115035   2.747   4.389   0.223
 4712SOL    HW215036   2.619   4.329   0.141
 4713SOL     OW15037   3.774   4.154   0.887
 4713SOL    HW115038   3.741   4.239   0.928
 4713SOL    HW215039   3.717   4.131   0.808
 4714SOL     OW15040   0.531   1.958   6.411
 4714SOL    HW115041   0.540   1.861   6.432
 4714SOL    HW215042   0.434   1.982   6.405
 4715SOL     OW15043   5.689   2.652   2.442
 4715SOL    HW115044   5.595   2.624   2.424
 4715SOL    HW215045   5.690   2.730   2.504
 4716SOL     OW15046   4.533   6.024   6.615
 4716SOL    HW115047   4.445   6.028   6.662
 4716SOL    HW215048   4.607   6.038   6.681
 4717SOL     OW15049   6.937   6.944   4.024
 4717SOL    HW115050   6.987   6.877   4.080
 4717SOL    HW215051   6.983   6.956   3.936
 4718SOL     OW15052   5.061   2.402   1.754
 4718SOL    HW115053   5.084   2.443   1.842
 4718SOL    HW215054   5.013   2.469   1.697
 4719SOL     OW15055   4.658   3.230   1.667
 4719SOL    HW115056   4.660   3.148   1.725
 4719SOL    HW215057   4.703   3.211   1.580
 4720SOL     OW15058   2.351   5.675   6.132
 4720SOL    HW115059   2.431   5.730   6.109
 4720SOL    HW215060   2.380   5.596   6.186
 4721SOL     OW15061   6.476   2.286   2.179
 4721SOL    HW115062   6.396   2.262   2.234
 4721SOL    HW215063   6.508   2.378   2.204
 4722SOL     OW15064   1.124   5.987   6.333
 4722SOL    HW115065   1.049   5.929   6.364
 4722SOL    HW215066   1.196   5.929   6.294
 4723SOL     OW15067   2.681   3.754   5.788
 4723SOL    HW115068   2.755   3.697   5.824
 4723SOL    HW215069   2.667   3.832   5.848
 4724SOL     OW15070   6.012   6.595   2.965
 4724SOL    HW115071   6.036   6.554   2.877
 4724SOL    HW215072   5.927   6.554   2.999
 4725SOL     OW15073   6.562   5.304   1.492
 4725SOL    HW115074   6.598   5.327   1.401
 4725SOL    HW215075   6.475   5.257   1.482
 4726SOL     OW15076   1.235   2.281   6.008
 4726SOL    HW115077   1.232   2.354   5.940
 4726SOL    HW215078   1.145   2.239   6.016
 4727SOL     OW15079   1.221   5.967   1.089
 4727SOL    HW115080   1.314   5.999   1.076
 4727SOL    HW215081   1.160   6.014   1.024
 4728SOL     OW15082   5.957   1.081   1.911
 4728SOL    HW115083   6.044   1.033   1.899
 4728SOL    HW215084   5.899   1.031   1.974
 4729SOL     OW15085   3.604   1.695   0.561
 4729SOL    HW115086   3.644   1.606   0.579
 4729SOL    HW215087   3.506   1.692   0.576
 4730SOL     OW15088   3.335   6.085   5.498
 4730SOL    HW115089   3.410   6.122   5.553
 4730SOL    HW215090   3.249   6.094   5.549
 4731SOL     OW15091   4.234   0.353   6.660
 4731SOL    HW115092   4.141   0.339   6.626
 4731SOL    HW215093   4.255   0.451   6.661
 4732SOL     OW15094   1.371   4.077   6.004
 4732SOL    HW115095   1.441   4.112   6.066
 4732SOL    HW215096   1.411   4.066   5.912
 4733SOL     OW15097   1.032   3.992   3.790
 4733SOL    HW115098   1.073   3.961   3.876
 4733SOL    HW215099   0.962   4.061   3.809
 4734SOL     OW15100   3.847   2.743   0.260
 4734SOL    HW115101   3.898   2.802   0.323
 4734SOL    HW215102   3.908   2.708   0.189
 4735SOL     OW15103   6.111   5.685   4.007
 4735SOL    HW115104   6.037   5.748   4.033
 4735SOL    HW215105   6.100   5.659   3.912
 4736SOL     OW15106   6.506   1.645   5.377
 4736SOL    HW115107   6.567   1.631   5.456
 4736SOL    HW215108   6.429   1.703   5.404
 4737SOL     OW15109   2.539   4.627   1.876
 4737SOL    HW115110   2.518   4.723   1.857
 4737SOL    HW215111   2.629   4.620   1.919
 4738SOL     OW15112   0.567   6.368   2.917
 4738SOL    HW115113   0.598   6.433   2.847
 4738SOL    HW215114   0.616   6.281   2.906
 4739SOL     OW15115   3.878   0.698   3.210
 4739SOL    HW115116   3.937   0.682   3.288
 4739SOL    HW215117   3.932   0.733   3.134
 4740SOL     OW15118   0.997   1.537   1.492
 4740SOL    HW115119   0.919   1.512   1.548
 4740SOL    HW215120   0.969   1.538   1.395
 4741SOL     OW15121   4.775   3.419   0.724
 4741SOL    HW115122   4.692   3.407   0.777
 4741SOL    HW215123   4.758   3.392   0.629
 4742SOL     OW15124   3.210   6.978   6.519
 4742SOL    HW115125   3.249   7.018   6.602
 4742SOL    HW215126   3.256   7.016   6.439
 4743SOL     OW15127   1.706   3.456   3.940
 4743SOL    HW115128   1.736   3.519   4.012
 4743SOL    HW215129   1.712   3.362   3.975
 4744SOL     OW15130   1.889   3.973   0.539
 4744SOL    HW115131   1.894   3.961   0.440
 4744SOL    HW215132   1.794   3.968   0.569
 4745SOL     OW15133   3.030   4.818   6.902
 4745SOL    HW115134   3.041   4.917   6.912
 4745SOL    HW215135   3.119   4.773   6.909
 4746SOL     OW15136   5.243   5.674   2.411
 4746SOL    HW115137   5.299   5.627   2.343
 4746SOL    HW215138   5.302   5.707   2.485
 4747SOL     OW15139   1.513   3.545   6.643
 4747SOL    HW115140   1.522   3.498   6.730
 4747SOL    HW215141   1.564   3.495   6.573
 4748SOL     OW15142   1.526   4.818   0.829
 4748SOL    HW115143   1.561   4.907   0.802
 4748SOL    HW215144   1.567   4.790   0.916
 4749SOL     OW15145   2.481   6.268   5.619
 4749SOL    HW115146   2.568   6.311   5.640
 4749SOL    HW215147   2.443   6.307   5.535
 4750SOL     OW15148   0.369   4.138   3.954
 4750SOL    HW115149   0.356   4.059   3.894
 4750SOL    HW215150   0.346   4.222   3.905
 4751SOL     OW15151   4.124   1.861   2.163
 4751SOL    HW115152   4.107   1.899   2.072
 4751SOL    HW215153   4.102   1.929   2.233
 4752SOL     OW15154   4.246   0.668   6.146
 4752SOL    HW115155   4.307   0.595   6.176
 4752SOL    HW215156   4.267   0.691   6.051
 4753SOL     OW15157   5.411   0.201   4.025
 4753SOL    HW115158   5.475   0.149   4.082
 4753SOL    HW215159   5.364   0.139   3.963
 4754SOL     OW15160   5.902   6.106   4.823
 4754SOL    HW115161   5.927   6.028   4.766
 4754SOL    HW215162   5.966   6.114   4.899
 4755SOL     OW15163   2.413   0.520   0.859
 4755SOL    HW115164   2.446   0.611   0.884
 4755SOL    HW215165   2.353   0.486   0.931
 4756SOL     OW15166   5.671   2.802   0.388
 4756SOL    HW115167   5.672   2.808   0.488
 4756SOL    HW215168   5.592   2.749   0.358
 4757SOL     OW15169   2.338   1.852   1.062
 4757SOL    HW115170   2.344   1.788   1.139
 4757SOL    HW215171   2.273   1.818   0.995
 4758SOL     OW15172   2.149   6.176   3.949
 4758SOL    HW115173   2.050   6.168   3.959
 4758SOL    HW215174   2.184   6.097   3.898
 4759SOL     OW15175   6.098   4.488   5.528
 4759SOL    HW115176   6.028   4.540   5.480
 4759SOL    HW215177   6.175   4.548   5.549
 4760SOL     OW15178   2.160   2.385   0.667
 4760SOL    HW115179   2.090   2.457   0.676
 4760SOL    HW215180   2.175   2.366   0.571
 4761SOL     OW15181   0.940   6.035   0.415
 4761SOL    HW115182   0.876   6.046   0.491
 4761SOL    HW215183   0.917   6.099   0.342
 4762SOL     OW15184   0.584   6.195   2.191
 4762SOL    HW115185   0.612   6.112   2.239
 4762SOL    HW215186   0.663   6.233   2.143
 4763SOL     OW15187   5.915   7.015   3.182
 4763SOL    HW115188   5.925   6.969   3.093
 4763SOL    HW215189   5.879   0.088   3.168
 4764SOL     OW15190   4.848   3.771   4.327
 4764SOL    HW115191   4.844   3.859   4.375
 4764SOL    HW215192   4.765   3.719   4.345
 4765SOL     OW15193   5.134   1.075   4.048
 4765SOL    HW115194   5.172   1.103   4.136
 4765SOL    HW215195   5.062   1.139   4.020
 4766SOL     OW15196   5.227   6.261   4.409
 4766SOL    HW115197   5.197   6.297   4.321
 4766SOL    HW215198   5.161   6.286   4.480
 4767SOL     OW15199   3.315   5.874   5.720
 4767SOL    HW115200   3.348   5.897   5.629
 4767SOL    HW215201   3.252   5.945   5.751
 4768SOL     OW15202   4.573   2.243   6.261
 4768SOL    HW115203   4.651   2.306   6.260
 4768SOL    HW215204   4.509   2.268   6.189
 4769SOL     OW15205   4.607   4.201   6.718
 4769SOL    HW115206   4.654   4.138   6.657
 4769SOL    HW215207   4.670   4.233   6.789
 4770SOL     OW15208   0.712   1.109   4.258
 4770SOL    HW115209   0.705   1.010   4.246
 4770SOL    HW215210   0.634   1.153   4.214
 4771SOL     OW15211   2.747   6.108   5.387
 4771SOL    HW115212   2.821   6.095   5.452
 4771SOL    HW215213   2.781   6.155   5.306
 4772SOL     OW15214   3.744   4.957   1.253
 4772SOL    HW115215   3.827   4.997   1.294
 4772SOL    HW215216   3.770   4.884   1.190
 4773SOL     OW15217   6.909   5.421   3.424
 4773SOL    HW115218   6.854   5.473   3.489
 4773SOL    HW215219   6.961   5.351   3.473
 4774SOL     OW15220   1.742   3.130   1.376
 4774SOL    HW115221   1.728   3.049   1.433
 4774SOL    HW215222   1.664   3.140   1.314
 4775SOL     OW15223   5.316   6.701   2.571
 4775SOL    HW115224   5.289   6.652   2.654
 4775SOL    HW215225   5.241   6.698   2.505
 4776SOL     OW15226   1.145   6.534   5.243
 4776SOL    HW115227   1.088   6.565   5.167
 4776SOL    HW215228   1.111   6.446   5.277
 4777SOL     OW15229   2.189   5.137   1.157
 4777SOL    HW115230   2.257   5.210   1.161
 4777SOL    HW215231   2.122   5.158   1.086
 4778SOL     OW15232   6.144   2.536   4.099
 4778SOL    HW115233   6.196   2.597   4.039
 4778SOL    HW215234   6.110   2.459   4.046
 4779SOL     OW15235   6.308   5.686   2.351
 4779SOL    HW115236   6.370   5.754   2.312
 4779SOL    HW215237   6.221   5.730   2.375
 4780SOL     OW15238   5.801   1.223   0.079
 4780SOL    HW115239   5.704   1.198   0.083
 4780SOL    HW215240   5.842   1.209   0.169
 4781SOL     OW15241   2.281   5.580   2.404
 4781SOL    HW115242   2.378   5.601   2.412
 4781SOL    HW215243   2.233   5.660   2.369
 4782SOL     OW15244   5.391   5.470   0.340
 4782SOL    HW115245   5.491   5.464   0.335
 4782SOL    HW215246   5.362   5.451   0.434
 4783SOL     OW15247   4.752   3.681   0.020
 4783SOL    HW115248   4.745   3.768   6.989
 4783SOL    HW215249   4.808   3.617   6.986
 4784SOL     OW15250   6.404   3.760   6.724
 4784SOL    HW115251   6.488   3.707   6.736
 4784SOL    HW215252   6.412   3.848   6.772
 4785SOL     OW15253   1.484   6.610   2.981
 4785SOL    HW115254   1.411   6.568   3.035
 4785SOL    HW215255   1.445   6.676   2.917
 4786SOL     OW15256   2.333   1.214   0.135
 4786SOL    HW115257   2.321   1.199   0.233
 4786SOL    HW215258   2.430   1.207   0.111
 4787SOL     OW15259   3.966   1.330   2.375
 4787SOL    HW115260   4.017   1.247   2.354
 4787SOL    HW215261   3.978   1.396   2.300
 4788SOL     OW15262   0.123   6.047   6.341
 4788SOL    HW115263   0.110   6.145   6.355
 4788SOL    HW215264   0.181   6.010   6.413
 4789SOL     OW15265   4.817   1.960   1.228
 4789SOL    HW115266   4.885   1.890   1.208
 4789SOL    HW215267   4.727   1.918   1.240
 4790SOL     OW15268   6.036   2.376   5.333
 4790SOL    HW115269   6.018   2.304   5.266
 4790SOL    HW215270   6.090   2.449   5.290
 4791SOL     OW15271   0.296   2.648   1.519
 4791SOL    HW115272   0.295   2.548   1.513
 4791SOL    HW215273   0.346   2.675   1.601
 4792SOL     OW15274   2.078   4.525   3.491
 4792SOL    HW115275   2.177   4.537   3.489
 4792SOL    HW215276   2.052   4.468   3.568
 4793SOL     OW15277   1.985   2.944   5.204
 4793SOL    HW115278   1.898   2.978   5.239
 4793SOL    HW215279   2.056   3.013   5.216
 4794SOL     OW15280   4.667   0.095   4.550
 4794SOL    HW115281   4.608   0.024   4.512
 4794SOL    HW215282   4.665   0.176   4.490
 4795SOL     OW15283   5.952   2.149   4.175
 4795SOL    HW115284   5.988   2.057   4.163
 4795SOL    HW215285   5.917   2.159   4.269
 4796SOL     OW15286   4.820   2.000   4.914
 4796SOL    HW115287   4.883   2.000   4.992
 4796SOL    HW215288   4.832   2.085   4.862
 4797SOL     OW15289   1.032   6.275   5.187
 4797SOL    HW115290   0.938   6.249   5.166
 4797SOL    HW215291   1.094   6.224   5.127
 4798SOL     OW15292   0.772   3.888   5.257
 4798SOL    HW115293   0.786   3.820   5.185
 4798SOL    HW215294   0.676   3.916   5.258
 4799SOL     OW15295   4.806   1.654   0.433
 4799SOL    HW115296   4.810   1.658   0.333
 4799SOL    HW215297   4.735   1.589   0.460
 4800SOL     OW15298   3.029   2.686   6.353
 4800SOL    HW115299   3.039   2.645   6.444
 4800SOL    HW215300   2.956   2.639   6.303
 4801SOL     OW15301   3.003   2.297   6.665
 4801SOL    HW115302   2.993   2.315   6.763
 4801SOL    HW215303   3.085   2.242   6.649
 4802SOL     OW15304   1.262   6.815   1.823
 4802SOL    HW115305   1.297   6.760   1.899
 4802SOL    HW215306   1.331   6.882   1.797
 4803SOL     OW15307   0.065   4.944   0.346
 4803SOL    HW115308   0.021   4.901   0.267
 4803SOL    HW215309   0.050   4.888   0.427
 4804SOL     OW15310   6.300   5.958   1.423
 4804SOL    HW115311   6.298   5.918   1.515
 4804SOL    HW215312   6.395   5.963   1.392
 4805SOL     OW15313   6.287   2.222   2.380
 4805SOL    HW115314   6.260   2.233   2.475
 4805SOL    HW215315   6.237   2.287   2.323
 4806SOL     OW15316   1.287   4.351   2.780
 4806SOL    HW115317   1.336   4.350   2.867
 4806SOL    HW215318   1.208   4.412   2.787
 4807SOL     OW15319   1.018   4.784   0.421
 4807SOL    HW115320   1.088   4.855   0.413
 4807SOL    HW215321   1.057   4.696   0.393
 4808SOL     OW15322   5.236   4.717   0.172
 4808SOL    HW115323   5.323   4.669   0.188
 4808SOL    HW215324   5.163   4.668   0.219
 4809SOL     OW15325   3.597   4.833   0.695
 4809SOL    HW115326   3.539   4.911   0.716
 4809SOL    HW215327   3.551   4.775   0.627
 4810SOL     OW15328   1.586   5.074   2.587
 4810SOL    HW115329   1.500   5.099   2.632
 4810SOL    HW215330   1.637   5.011   2.645
 4811SOL     OW15331   2.600   3.960   1.694
 4811SOL    HW115332   2.694   3.994   1.689
 4811SOL    HW215333   2.601   3.863   1.716
 4812SOL     OW15334   0.069   5.242   2.409
 4812SOL    HW115335   0.009   5.162   2.411
 4812SOL    HW215336   0.018   5.321   2.376
 4813SOL     OW15337   6.109   2.053   6.892
 4813SOL    HW115338   6.091   2.056   6.794
 4813SOL    HW215339   6.203   2.023   6.909
 4814SOL     OW15340   0.085   3.410   1.261
 4814SOL    HW115341   0.017   3.482   1.246
 4814SOL    HW215342   0.116   3.374   1.173
 4815SOL     OW15343   5.608   3.890   2.381
 4815SOL    HW115344   5.576   3.925   2.293
 4815SOL    HW215345   5.577   3.795   2.392
 4816SOL     OW15346   2.095   4.382   1.108
 4816SOL    HW115347   2.025   4.442   1.145
 4816SOL    HW215348   2.086   4.377   1.009
 4817SOL     OW15349   1.351   1.606   6.743
 4817SOL    HW115350   1.259   1.607   6.702
 4817SOL    HW215351   1.419   1.590   6.671
 4818SOL     OW15352   0.660   6.406   4.458
 4818SOL    HW115353   0.668   6.322   4.511
 4818SOL    HW215354   0.709   6.480   4.504
 4819SOL     OW15355   1.504   2.173   0.274
 4819SOL    HW115356   1.493   2.083   0.315
 4819SOL    HW215357   1.593   2.179   0.229
 4820SOL     OW15358   6.342   2.620   2.571
 4820SOL    HW115359   6.307   2.626   2.478
 4820SOL    HW215360   6.281   2.562   2.625
 4821SOL     OW15361   0.765   6.421   2.459
 4821SOL    HW115362   0.777   6.467   2.371
 4821SOL    HW215363   0.672   6.383   2.465
 4822SOL     OW15364   2.074   3.359   4.564
 4822SOL    HW115365   1.978   3.354   4.537
 4822SOL    HW215366   2.083   3.415   4.647
 4823SOL     OW15367   1.939   0.360   4.706
 4823SOL    HW115368   1.996   0.284   4.676
 4823SOL    HW215369   1.848   0.352   4.664
 4824SOL     OW15370   5.262   1.869   4.739
 4824SOL    HW115371   5.346   1.873   4.684
 4824SOL    HW215372   5.222   1.961   4.745
 4825SOL     OW15373   1.866   2.903   3.957
 4825SOL    HW115374   1.923   2.827   3.988
 4825SOL    HW215375   1.785   2.911   4.015
 4826SOL     OW15376   6.166   1.273   6.738
 4826SOL    HW115377   6.103   1.339   6.697
 4826SOL    HW215378   6.118   1.220   6.808
 4827SOL     OW15379   6.116   1.466   0.528
 4827SOL    HW115380   6.046   1.536   0.515
 4827SOL    HW215381   6.160   1.446   0.440
 4828SOL     OW15382   5.232   2.821   0.523
 4828SOL    HW115383   5.223   2.764   0.441
 4828SOL    HW215384   5.278   2.769   0.594
 4829SOL     OW15385   3.957   6.756   6.358
 4829SOL    HW115386   4.041   6.704   6.370
 4829SOL    HW215387   3.879   6.693   6.364
 4830SOL     OW15388   4.363   6.655   3.925
 4830SOL    HW115389   4.341   6.679   4.020
 4830SOL    HW215390   4.299   6.585   3.892
 4831SOL     OW15391   0.115   4.557   6.110
 4831SOL    HW115392   0.112   4.600   6.200
 4831SOL    HW215393   0.194   4.497   6.105
 4832SOL     OW15394   3.535   3.215   4.125
 4832SOL    HW115395   3.499   3.211   4.218
 4832SOL    HW215396   3.582   3.130   4.104
 4833SOL     OW15397   4.568   2.301   2.919
 4833SOL    HW115398   4.486   2.244   2.919
 4833SOL    HW215399   4.648   2.246   2.898
 4834SOL     OW15400   3.913   6.241   1.104
 4834SOL    HW115401   3.970   6.291   1.169
 4834SOL    HW215402   3.823   6.225   1.144
 4835SOL     OW15403   5.924   1.624   6.937
 4835SOL    HW115404   5.841   1.567   6.942
 4835SOL    HW215405   5.979   1.609   7.019
 4836SOL     OW15406   5.559   3.147   4.740
 4836SOL    HW115407   5.516   3.064   4.706
 4836SOL    HW215408   5.653   3.152   4.706
 4837SOL     OW15409   6.701   3.963   2.711
 4837SOL    HW115410   6.601   3.971   2.712
 4837SOL    HW215411   6.729   3.887   2.771
 4838SOL     OW15412   0.959   5.186   0.257
 4838SOL    HW115413   0.871   5.152   0.289
 4838SOL    HW215414   0.945   5.242   0.175
 4839SOL     OW15415   1.994   3.298   6.509
 4839SOL    HW115416   2.037   3.233   6.572
 4839SOL    HW215417   1.975   3.252   6.423
 4840SOL     OW15418   6.788   4.617   6.436
 4840SOL    HW115419   6.847   4.692   6.466
 4840SOL    HW215420   6.835   4.530   6.452
 4841SOL     OW15421   2.471   5.734   1.742
 4841SOL    HW115422   2.449   5.718   1.839
 4841SOL    HW215423   2.506   5.650   1.701
 4842SOL     OW15424   3.458   5.319   3.031
 4842SOL    HW115425   3.404   5.262   3.092
 4842SOL    HW215426   3.469   5.273   2.943
 4843SOL     OW15427   6.581   3.052   1.325
 4843SOL    HW115428   6.555   3.118   1.395
 4843SOL    HW215429   6.677   3.064   1.302
 4844SOL     OW15430   0.982   3.098   6.227
 4844SOL    HW115431   0.990   3.117   6.325
 4844SOL    HW215432   1.042   3.160   6.176
 4845SOL     OW15433   5.159   5.297   6.366
 4845SOL    HW115434   5.209   5.217   6.399
 4845SOL    HW215435   5.083   5.317   6.428
 4846SOL     OW15436   0.009   3.207   3.576
 4846SOL    HW115437   7.011   3.260   3.492
 4846SOL    HW215438   6.943   3.167   3.607
 4847SOL     OW15439   2.354   0.547   6.617
 4847SOL    HW115440   2.340   0.526   6.714
 4847SOL    HW215441   2.362   0.462   6.565
 4848SOL     OW15442   1.773   0.918   4.340
 4848SOL    HW115443   1.796   0.954   4.249
 4848SOL    HW215444   1.832   0.960   4.408
 4849SOL     OW15445   0.887   5.748   0.025
 4849SOL    HW115446   0.983   5.769   0.005
 4849SOL    HW215447   0.879   5.709   0.116
 4850SOL     OW15448   3.710   1.524   2.134
 4850SOL    HW115449   3.762   1.442   2.108
 4850SOL    HW215450   3.773   1.601   2.143
 4851SOL     OW15451   4.008   6.890   5.727
 4851SOL    HW115452   4.098   6.922   5.697
 4851SOL    HW215453   4.004   6.790   5.722
 4852SOL     OW15454   1.486   5.820   5.360
 4852SOL    HW115455   1.567   5.874   5.339
 4852SOL    HW215456   1.412   5.845   5.297
 4853SOL     OW15457   3.413   0.882   2.922
 4853SOL    HW115458   3.382   0.939   2.997
 4853SOL    HW215459   3.500   0.916   2.886
 4854SOL     OW15460   4.457   6.618   1.601
 4854SOL    HW115461   4.449   6.708   1.556
 4854SOL    HW215462   4.424   6.626   1.695
 4855SOL     OW15463   5.953   2.842   4.306
 4855SOL    HW115464   5.986   2.758   4.350
 4855SOL    HW215465   5.865   2.867   4.344
 4856SOL     OW15466   1.408   3.132   3.082
 4856SOL    HW115467   1.377   3.218   3.122
 4856SOL    HW215468   1.363   3.056   3.128
 4857SOL     OW15469   3.560   1.861   4.628
 4857SOL    HW115470   3.507   1.938   4.664
 4857SOL    HW215471   3.607   1.889   4.544
 4858SOL     OW15472   0.599   0.295   4.362
 4858SOL    HW115473   0.633   0.338   4.447
 4858SOL    HW215474   0.590   0.196   4.376
 4859SOL     OW15475   1.101   6.779   4.300
 4859SOL    HW115476   1.123   6.697   4.353
 4859SOL    HW215477   1.003   6.782   4.281
 4860SOL     OW15478   4.221   4.320   1.666
 4860SOL    HW115479   4.304   4.274   1.700
 4860SOL    HW215480   4.227   4.332   1.567
 4861SOL     OW15481   6.054   5.390   0.222
 4861SOL    HW115482   6.123   5.375   0.151
 4861SOL    HW215483   6.100   5.408   0.309
 4862SOL     OW15484   2.330   4.446   4.964
 4862SOL    HW115485   2.271   4.366   4.972
 4862SOL    HW215486   2.406   4.438   5.028
 4863SOL     OW15487   4.974   3.921   1.147
 4863SOL    HW115488   4.891   3.875   1.115
 4863SOL    HW215489   5.034   3.855   1.191
 4864SOL     OW15490   4.570   1.411   2.457
 4864SOL    HW115491   4.485   1.434   2.410
 4864SOL    HW215492   4.549   1.383   2.551
 4865SOL     OW15493   2.361   6.741   4.442
 4865SOL    HW115494   2.437   6.805   4.436
 4865SOL    HW215495   2.379   6.675   4.516
 4866SOL     OW15496   6.291   4.355   1.704
 4866SOL    HW115497   6.231   4.386   1.778
 4866SOL    HW215498   6.254   4.386   1.616
 4867SOL     OW15499   4.091   5.535   2.217
 4867SOL    HW115500   4.113   5.543   2.315
 4867SOL    HW215501   4.071   5.440   2.195
 4868SOL     OW15502   6.533   5.206   2.407
 4868SOL    HW115503   6.550   5.109   2.425
 4868SOL    HW215504   6.435   5.220   2.393
 4869SOL     OW15505   0.665   1.085   1.390
 4869SOL    HW115506   0.605   1.135   1.451
 4869SOL    HW215507   0.644   0.988   1.394
 4870SOL     OW15508   0.029   6.094   1.669
 4870SOL    HW115509   7.013   6.001   1.654
 4870SOL    HW215510   0.052   6.136   1.582
 4871SOL     OW15511   0.932   0.893   5.051
 4871SOL    HW115512   0.883   0.930   5.130
 4871SOL    HW215513   0.961   0.968   4.992
 4872SOL     OW15514   6.593   5.784   3.650
 4872SOL    HW115515   6.645   5.845   3.709
 4872SOL    HW215516   6.507   5.759   3.696
 4873SOL     OW15517   6.382   5.034   3.846
 4873SOL    HW115518   6.378   4.940   3.881
 4873SOL    HW215519   6.416   5.033   3.752
 4874SOL     OW15520   6.337   2.852   3.014
 4874SOL    HW115521   6.379   2.913   2.947
 4874SOL    HW215522   6.329   2.901   3.101
 4875SOL     OW15523   5.811   2.983   1.409
 4875SOL    HW115524   5.879   3.049   1.377
 4875SOL    HW215525   5.844   2.890   1.394
 4876SOL     OW15526   5.767   1.380   4.311
 4876SOL    HW115527   5.848   1.326   4.336
 4876SOL    HW215528   5.712   1.328   4.245
 4877SOL     OW15529   1.228   1.966   6.633
 4877SOL    HW115530   1.141   1.920   6.620
 4877SOL    HW215531   1.214   2.065   6.635
 4878SOL     OW15532   6.605   0.358   2.870
 4878SOL    HW115533   6.682   0.395   2.819
 4878SOL    HW215534   6.537   0.430   2.885
 4879SOL     OW15535   4.446   5.248   3.447
 4879SOL    HW115536   4.487   5.281   3.532
 4879SOL    HW215537   4.380   5.176   3.469
 4880SOL     OW15538   5.682   3.599   0.008
 4880SOL    HW115539   5.644   3.655   6.953
 4880SOL    HW215540   5.669   3.502   7.004
 4881SOL     OW15541   1.659   1.358   6.457
 4881SOL    HW115542   1.707   1.413   6.389
 4881SOL    HW215543   1.564   1.344   6.427
 4882SOL     OW15544   4.953   1.578   4.821
 4882SOL    HW115545   4.995   1.615   4.738
 4882SOL    HW215546   4.885   1.643   4.855
 4883SOL     OW15547   5.407   4.180   1.974
 4883SOL    HW115548   5.319   4.219   2.000
 4883SOL    HW215549   5.414   4.086   2.009
 4884SOL     OW15550   3.271   0.217   1.087
 4884SOL    HW115551   3.184   0.213   1.137
 4884SOL    HW215552   3.336   0.274   1.137
 4885SOL     OW15553   1.405   5.354   2.928
 4885SOL    HW115554   1.462   5.354   3.010
 4885SOL    HW215555   1.434   5.429   2.868
 4886SOL     OW15556   0.477   6.052   1.029
 4886SOL    HW115557   0.399   5.990   1.030
 4886SOL    HW215558   0.549   6.015   1.087
 4887SOL     OW15559   0.699   0.689   3.218
 4887SOL    HW115560   0.608   0.679   3.177
 4887SOL    HW215561   0.689   0.706   3.316
 4888SOL     OW15562   2.114   6.699   4.551
 4888SOL    HW115563   2.209   6.705   4.521
 4888SOL    HW215564   2.070   6.619   4.511
 4889SOL     OW15565   6.299   0.911   6.278
 4889SOL    HW115566   6.262   0.930   6.369
 4889SOL    HW215567   6.272   0.984   6.215
 4890SOL     OW15568   0.944   1.819   6.645
 4890SOL    HW115569   0.952   1.851   6.551
 4890SOL    HW215570   0.938   1.897   6.707
 4891SOL     OW15571   1.305   4.700   6.929
 4891SOL    HW115572   1.311   4.683   6.830
 4891SOL    HW215573   1.288   4.797   6.944
 4892SOL     OW15574   3.475   6.179   1.780
 4892SOL    HW115575   3.525   6.094   1.764
 4892SOL    HW215576   3.538   6.250   1.813
 4893SOL     OW15577   6.902   3.844   1.565
 4893SOL    HW115578   6.995   3.868   1.593
 4893SOL    HW215579   6.872   3.904   1.491
 4894SOL     OW15580   2.170   1.863   2.606
 4894SOL    HW115581   2.266   1.875   2.632
 4894SOL    HW215582   2.161   1.784   2.545
 4895SOL     OW15583   0.545   5.106   3.322
 4895SOL    HW115584   0.605   5.035   3.285
 4895SOL    HW215585   0.553   5.107   3.422
 4896SOL     OW15586   1.820   5.676   1.855
 4896SOL    HW115587   1.786   5.723   1.936
 4896SOL    HW215588   1.824   5.577   1.872
 4897SOL     OW15589   2.372   4.129   6.289
 4897SOL    HW115590   2.281   4.165   6.308
 4897SOL    HW215591   2.410   4.177   6.210
 4898SOL     OW15592   3.440   1.331   3.803
 4898SOL    HW115593   3.538   1.322   3.786
 4898SOL    HW215594   3.425   1.361   3.897
 4899SOL     OW15595   6.292   5.484   2.959
 4899SOL    HW115596   6.286   5.563   2.898
 4899SOL    HW215597   6.360   5.420   2.922
 4900SOL     OW15598   1.784   5.712   4.481
 4900SOL    HW115599   1.731   5.795   4.500
 4900SOL    HW215600   1.872   5.719   4.527
 4901SOL     OW15601   3.507   6.448   6.239
 4901SOL    HW115602   3.462   6.528   6.199
 4901SOL    HW215603   3.480   6.366   6.188
 4902SOL     OW15604   2.898   1.815   4.685
 4902SOL    HW115605   2.835   1.740   4.664
 4902SOL    HW215606   2.923   1.861   4.600
 4903SOL     OW15607   3.132   5.934   6.891
 4903SOL    HW115608   3.196   6.005   6.863
 4903SOL    HW215609   3.159   5.897   6.980
 4904SOL     OW15610   1.580   0.345   4.091
 4904SOL    HW115611   1.490   0.341   4.134
 4904SOL    HW215612   1.646   0.381   4.157
 4905SOL     OW15613   3.827   0.609   2.245
 4905SOL    HW115614   3.813   0.529   2.304
 4905SOL    HW215615   3.755   0.676   2.263
 4906SOL     OW15616   4.639   2.574   5.844
 4906SOL    HW115617   4.543   2.557   5.821
 4906SOL    HW215618   4.698   2.534   5.774
 4907SOL     OW15619   4.448   5.850   1.183
 4907SOL    HW115620   4.511   5.832   1.258
 4907SOL    HW215621   4.356   5.865   1.220
 4908SOL     OW15622   5.052   4.994   6.739
 4908SOL    HW115623   4.985   5.058   6.701
 4908SOL    HW215624   5.012   4.946   6.816
 4909SOL     OW15625   6.825   0.160   4.260
 4909SOL    HW115626   6.731   0.155   4.225
 4909SOL    HW215627   6.857   0.068   4.283
 4910SOL     OW15628   5.073   6.607   4.718
 4910SOL    HW115629   5.171   6.594   4.735
 4910SOL    HW215630   5.059   6.690   4.664
 4911SOL     OW15631   1.006   3.626   4.170
 4911SOL    HW115632   1.046   3.668   4.251
 4911SOL    HW215633   0.915   3.665   4.154
 4912SOL     OW15634   5.180   1.771   0.085
 4912SOL    HW115635   5.117   1.702   0.119
 4912SOL    HW215636   5.273   1.746   0.109
 4913SOL     OW15637   3.418   3.498   4.723
 4913SOL    HW115638   3.384   3.577   4.673
 4913SOL    HW215639   3.370   3.415   4.693
 4914SOL     OW15640   3.831   6.602   5.504
 4914SOL    HW115641   3.907   6.547   5.469
 4914SOL    HW215642   3.846   6.620   5.602
 4915SOL     OW15643   4.334   0.377   4.667
 4915SOL    HW115644   4.428   0.400   4.644
 4915SOL    HW215645   4.288   0.337   4.587
 4916SOL     OW15646   1.685   0.729   3.978
 4916SOL    HW115647   1.686   0.686   4.068
 4916SOL    HW215648   1.759   0.693   3.922
 4917SOL     OW15649   1.762   4.817   1.179
 4917SOL    HW115650   1.761   4.906   1.135
 4917SOL    HW215651   1.678   4.767   1.156
 4918SOL     OW15652   3.818   6.359   2.581
 4918SOL    HW115653   3.877   6.312   2.647
 4918SOL    HW215654   3.764   6.292   2.531
 4919SOL     OW15655   2.744   1.926   6.682
 4919SOL    HW115656   2.780   1.941   6.774
 4919SOL    HW215657   2.750   2.011   6.630
 4920SOL     OW15658   5.370   0.587   5.279
 4920SOL    HW115659   5.316   0.670   5.267
 4920SOL    HW215660   5.462   0.610   5.310
 4921SOL     OW15661   1.692   4.419   0.496
 4921SOL    HW115662   1.648   4.339   0.456
 4921SOL    HW215663   1.627   4.494   0.503
 4922SOL     OW15664   1.887   2.989   4.744
 4922SOL    HW115665   1.957   2.984   4.673
 4922SOL    HW215666   1.909   2.924   4.818
 4923SOL     OW15667   3.784   1.481   0.616
 4923SOL    HW115668   3.884   1.480   0.625
 4923SOL    HW215669   3.757   1.417   0.544
 4924SOL     OW15670   2.413   1.634   5.656
 4924SOL    HW115671   2.453   1.567   5.718
 4924SOL    HW215672   2.482   1.701   5.629
 4925SOL     OW15673   5.593   6.666   2.109
 4925SOL    HW115674   5.551   6.720   2.035
 4925SOL    HW215675   5.550   6.690   2.196
 4926SOL     OW15676   5.231   2.235   0.310
 4926SOL    HW115677   5.258   2.139   0.309
 4926SOL    HW215678   5.145   2.246   0.261
 4927SOL     OW15679   4.046   3.500   4.110
 4927SOL    HW115680   4.117   3.531   4.173
 4927SOL    HW215681   3.961   3.550   4.128
 4928SOL     OW15682   1.117   0.154   6.687
 4928SOL    HW115683   1.111   0.241   6.637
 4928SOL    HW215684   1.100   0.171   6.784
 4929SOL     OW15685   1.043   4.927   4.251
 4929SOL    HW115686   1.080   5.001   4.307
 4929SOL    HW215687   1.100   4.846   4.260
 4930SOL     OW15688   4.373   0.662   3.042
 4930SOL    HW115689   4.378   0.760   3.060
 4930SOL    HW215690   4.436   0.637   2.969
 4931SOL     OW15691   0.093   0.293   0.626
 4931SOL    HW115692   0.051   0.383   0.636
 4931SOL    HW215693   0.044   0.241   0.557
 4932SOL     OW15694   2.559   3.425   1.705
 4932SOL    HW115695   2.619   3.477   1.766
 4932SOL    HW215696   2.464   3.437   1.734
 4933SOL     OW15697   2.216   0.321   3.650
 4933SOL    HW115698   2.290   0.384   3.628
 4933SOL    HW215699   2.211   0.308   3.749
 4934SOL     OW15700   2.568   5.287   2.814
 4934SOL    HW115701   2.606   5.241   2.894
 4934SOL    HW215702   2.612   5.376   2.803
 4935SOL     OW15703   1.513   1.594   6.517
 4935SOL    HW115704   1.457   1.639   6.448
 4935SOL    HW215705   1.555   1.512   6.478
 4936SOL     OW15706   1.830   4.871   1.432
 4936SOL    HW115707   1.865   4.790   1.480
 4936SOL    HW215708   1.834   4.856   1.333
 4937SOL     OW15709   6.663   2.625   6.112
 4937SOL    HW115710   6.605   2.692   6.160
 4937SOL    HW215711   6.684   2.550   6.173
 4938SOL     OW15712   2.449   6.293   6.220
 4938SOL    HW115713   2.467   6.387   6.191
 4938SOL    HW215714   2.382   6.251   6.160
 4939SOL     OW15715   6.373   2.144   4.158
 4939SOL    HW115716   6.321   2.221   4.195
 4939SOL    HW215717   6.425   2.174   4.079
 4940SOL     OW15718   0.953   1.127   4.925
 4940SOL    HW115719   1.029   1.185   4.955
 4940SOL    HW215720   0.922   1.157   4.835
 4941SOL     OW15721   4.865   3.052   5.301
 4941SOL    HW115722   4.771   3.082   5.290
 4941SOL    HW215723   4.918   3.076   5.219
 4942SOL     OW15724   5.674   3.055   5.877
 4942SOL    HW115725   5.642   3.026   5.787
 4942SOL    HW215726   5.598   3.096   5.927
 4943SOL     OW15727   4.809   3.696   5.906
 4943SOL    HW115728   4.842   3.604   5.926
 4943SOL    HW215729   4.792   3.744   5.992
 4944SOL     OW15730   2.401   4.424   1.779
 4944SOL    HW115731   2.451   4.422   1.693
 4944SOL    HW215732   2.445   4.488   1.842
 4945SOL     OW15733   1.226   0.148   4.256
 4945SOL    HW115734   1.160   0.094   4.307
 4945SOL    HW215735   1.312   0.153   4.307
 4946SOL     OW15736   1.310   5.261   0.074
 4946SOL    HW115737   1.253   5.338   0.047
 4946SOL    HW215738   1.255   5.197   0.129
 4947SOL     OW15739   2.030   0.518   0.697
 4947SOL    HW115740   1.988   0.441   0.649
 4947SOL    HW215741   1.993   0.523   0.790
 4948SOL     OW15742   2.047   3.064   2.973
 4948SOL    HW115743   1.955   3.064   2.934
 4948SOL    HW215744   2.048   3.119   3.056
 4949SOL     OW15745   5.828   4.708   5.825
 4949SOL    HW115746   5.855   4.800   5.796
 4949SOL    HW215747   5.778   4.664   5.751
 4950SOL     OW15748   1.769   4.961   4.598
 4950SOL    HW115749   1.865   4.944   4.620
 4950SOL    HW215750   1.711   4.920   4.669
 4951SOL     OW15751   5.799   0.490   4.928
 4951SOL    HW115752   5.783   0.560   4.998
 4951SOL    HW215753   5.721   0.428   4.925
 4952SOL     OW15754   0.499   0.542   5.985
 4952SOL    HW115755   0.559   0.493   6.048
 4952SOL    HW215756   0.412   0.561   6.031
 4953SOL     OW15757   1.967   6.972   3.360
 4953SOL    HW115758   1.880   6.930   3.387
 4953SOL    HW215759   1.949   0.040   3.315
 4954SOL     OW15760   3.973   3.093   0.208
 4954SOL    HW115761   3.976   3.090   0.108
 4954SOL    HW215762   4.042   3.157   0.242
 4955SOL     OW15763   3.272   6.553   6.821
 4955SOL    HW115764   3.219   6.555   6.906
 4955SOL    HW215765   3.325   6.468   6.818
 4956SOL     OW15766   2.220   6.588   5.105
 4956SOL    HW115767   2.163   6.546   5.175
 4956SOL    HW215768   2.164   6.613   5.026
 4957SOL     OW15769   5.333   2.218   2.103
 4957SOL    HW115770   5.302   2.202   2.009
 4957SOL    HW215771   5.422   2.175   2.117
 4958SOL     OW15772   0.237   5.069   5.478
 4958SOL    HW115773   0.155   5.056   5.423
 4958SOL    HW215774   0.252   4.987   5.535
 4959SOL     OW15775   6.029   1.874   0.344
 4959SOL    HW115776   5.994   1.868   0.251
 4959SOL    HW215777   6.122   1.837   0.347
 4960SOL     OW15778   3.603   4.925   3.399
 4960SOL    HW115779   3.613   4.881   3.309
 4960SOL    HW215780   3.507   4.928   3.424
 4961SOL     OW15781   4.140   1.000   5.776
 4961SOL    HW115782   4.199   1.079   5.795
 4961SOL    HW215783   4.044   1.028   5.778
 4962SOL     OW15784   5.548   2.580   0.044
 4962SOL    HW115785   5.647   2.570   0.032
 4962SOL    HW215786   5.529   2.616   0.135
 4963SOL     OW15787   6.722   6.293   0.587
 4963SOL    HW115788   6.747   6.388   0.606
 4963SOL    HW215789   6.731   6.239   0.671
 4964SOL     OW15790   2.974   0.827   4.021
 4964SOL    HW115791   2.965   0.767   3.941
 4964SOL    HW215792   3.070   0.852   4.032
 4965SOL     OW15793   0.391   1.069   2.121
 4965SOL    HW115794   0.313   1.009   2.099
 4965SOL    HW215795   0.446   1.026   2.192
 4966SOL     OW15796   2.885   6.635   5.305
 4966SOL    HW115797   2.896   6.604   5.399
 4966SOL    HW215798   2.963   6.603   5.250
 4967SOL     OW15799   3.928   4.830   5.284
 4967SOL    HW115800   3.865   4.873   5.219
 4967SOL    HW215801   4.018   4.873   5.275
 4968SOL     OW15802   6.579   2.274   3.964
 4968SOL    HW115803   6.651   2.246   3.900
 4968SOL    HW215804   6.532   2.354   3.927
 4969SOL     OW15805   2.551   5.571   3.051
 4969SOL    HW115806   2.606   5.560   2.968
 4969SOL    HW215807   2.483   5.497   3.056
 4970SOL     OW15808   2.411   2.575   2.514
 4970SOL    HW115809   2.496   2.543   2.473
 4970SOL    HW215810   2.417   2.569   2.614
 4971SOL     OW15811   5.714   5.830   3.361
 4971SOL    HW115812   5.755   5.848   3.451
 4971SOL    HW215813   5.654   5.906   3.337
 4972SOL     OW15814   0.997   3.858   0.863
 4972SOL    HW115815   0.910   3.835   0.818
 4972SOL    HW215816   1.062   3.889   0.794
 4973SOL     OW15817   1.302   6.589   2.363
 4973SOL    HW115818   1.233   6.527   2.325
 4973SOL    HW215819   1.293   6.679   2.323
 4974SOL     OW15820   6.557   4.182   0.763
 4974SOL    HW115821   6.649   4.162   0.727
 4974SOL    HW215822   6.564   4.218   0.856
 4975SOL     OW15823   6.234   3.914   5.692
 4975SOL    HW115824   6.278   3.958   5.770
 4975SOL    HW215825   6.146   3.958   5.674
 4976SOL     OW15826   2.182   1.196   3.592
 4976SOL    HW115827   2.165   1.247   3.508
 4976SOL    HW215828   2.167   1.099   3.575
 4977SOL     OW15829   3.945   4.728   6.709
 4977SOL    HW115830   4.005   4.679   6.646
 4977SOL    HW215831   3.858   4.747   6.665
 4978SOL     OW15832   6.945   4.155   4.755
 4978SOL    HW115833   6.987   4.207   4.829
 4978SOL    HW215834   6.871   4.098   4.791
 4979SOL     OW15835   7.005   0.033   6.710
 4979SOL    HW115836   0.061   0.092   6.737
 4979SOL    HW215837   6.948   0.012   6.790
 4980SOL     OW15838   5.430   6.410   2.978
 4980SOL    HW115839   5.412   6.322   3.023
 4980SOL    HW215840   5.418   6.400   2.879
 4981SOL     OW15841   4.764   5.307   0.335
 4981SOL    HW115842   4.680   5.255   0.322
 4981SOL    HW215843   4.779   5.366   0.256
 4982SOL     OW15844   2.967   0.987   5.505
 4982SOL    HW115845   2.881   1.023   5.542
 4982SOL    HW215846   2.991   1.035   5.421
 4983SOL     OW15847   6.007   3.549   5.319
 4983SOL    HW115848   5.943   3.625   5.304
 4983SOL    HW215849   6.068   3.541   5.240
 4984SOL     OW15850   5.550   4.012   3.581
 4984SOL    HW115851   5.594   3.924   3.603
 4984SOL    HW215852   5.554   4.028   3.483
 4985SOL     OW15853   6.131   0.010   3.372
 4985SOL    HW115854   6.061   0.004   3.301
 4985SOL    HW215855   6.107   0.081   3.438
 4986SOL     OW15856   6.985   4.166   1.840
 4986SOL    HW115857   0.033   4.181   1.767
 4986SOL    HW215858   6.926   4.088   1.816
 4987SOL     OW15859   1.315   0.561   2.225
 4987SOL    HW115860   1.258   0.525   2.299
 4987SOL    HW215861   1.399   0.601   2.264
 4988SOL     OW15862   5.201   0.750   2.431
 4988SOL    HW115863   5.153   0.832   2.400
 4988SOL    HW215864   5.149   0.707   2.504
 4989SOL     OW15865   4.880   0.133   1.274
 4989SOL    HW115866   4.920   0.112   1.185
 4989SOL    HW215867   4.873   0.049   1.328
 4990SOL     OW15868   2.694   2.314   5.862
 4990SOL    HW115869   2.639   2.394   5.837
 4990SOL    HW215870   2.689   2.245   5.790
 4991SOL     OW15871   5.670   5.302   3.618
 4991SOL    HW115872   5.589   5.272   3.670
 4991SOL    HW215873   5.657   5.397   3.589
 4992SOL     OW15874   4.838   0.930   3.349
 4992SOL    HW115875   4.837   0.835   3.379
 4992SOL    HW215876   4.892   0.985   3.413
 4993SOL     OW15877   2.590   5.598   4.194
 4993SOL    HW115878   2.507   5.581   4.247
 4993SOL    HW215879   2.602   5.525   4.126
 4994SOL     OW15880   1.706   1.031   3.835
 4994SOL    HW115881   1.686   0.933   3.837
 4994SOL    HW215882   1.771   1.051   3.762
 4995SOL     OW15883   0.195   2.320   5.705
 4995SOL    HW115884   0.115   2.362   5.662
 4995SOL    HW215885   0.231   2.249   5.645
 4996SOL     OW15886   0.682   1.431   3.006
 4996SOL    HW115887   0.653   1.346   2.961
 4996SOL    HW215888   0.778   1.449   2.983
 4997SOL     OW15889   5.481   2.862   2.839
 4997SOL    HW115890   5.444   2.789   2.897
 4997SOL    HW215891   5.522   2.933   2.897
 4998SOL     OW15892   2.132   4.216   5.043
 4998SOL    HW115893   2.204   4.149   5.027
 4998SOL    HW215894   2.062   4.207   4.971
 4999SOL     OW15895   6.463   3.826   0.050
 4999SOL    HW115896   6.366   3.849   0.038
 4999SOL    HW215897   6.474   3.727   0.045
 5000SOL     OW15898   2.992   6.919   3.415
 5000SOL    HW115899   3.041   6.980   3.477
 5000SOL    HW215900   3.058   6.876   3.352
 5001SOL     OW15901   0.084   3.778   0.830
 5001SOL    HW115902   0.162   3.719   0.810
 5001SOL    HW215903   0.099   3.868   0.788
 5002SOL     OW15904   0.446   3.239   2.980
 5002SOL    HW115905   0.445   3.255   2.882
 5002SOL    HW215906   0.522   3.289   3.022
 5003SOL     OW15907   2.713   6.474   2.498
 5003SOL    HW115908   2.724   6.435   2.407
 5003SOL    HW215909   2.617   6.474   2.523
 5004SOL     OW15910   3.111   5.688   6.143
 5004SOL    HW115911   3.089   5.630   6.221
 5004SOL    HW215912   3.105   5.634   6.059
 5005SOL     OW15913   3.326   2.715   0.697
 5005SOL    HW115914   3.332   2.749   0.603
 5005SOL    HW215915   3.325   2.615   0.696
 5006SOL     OW15916   5.272   0.342   0.416
 5006SOL    HW115917   5.264   0.418   0.480
 5006SOL    HW215918   5.354   0.354   0.360
 5007SOL     OW15919   1.467   6.949   0.542
 5007SOL    HW115920   1.446   0.000   0.474
 5007SOL    HW215921   1.435   6.860   0.508
 5008SOL     OW15922   6.291   6.818   2.170
 5008SOL    HW115923   6.273   6.725   2.137
 5008SOL    HW215924   6.333   6.814   2.260
 5009SOL     OW15925   0.931   0.063   0.988
 5009SOL    HW115926   0.998   0.096   1.055
 5009SOL    HW215927   0.942   0.114   0.903
 5010SOL     OW15928   4.016   3.703   2.643
 5010SOL    HW115929   4.023   3.617   2.695
 5010SOL    HW215930   4.005   3.682   2.546
 5011SOL     OW15931   1.910   3.902   1.976
 5011SOL    HW115932   2.003   3.871   1.995
 5011SOL    HW215933   1.908   3.952   1.889
 5012SOL     OW15934   5.947   4.280   6.000
 5012SOL    HW115935   5.945   4.353   5.933
 5012SOL    HW215936   5.954   4.318   6.092
 5013SOL     OW15937   4.966   1.482   6.329
 5013SOL    HW115938   5.024   1.415   6.375
 5013SOL    HW215939   4.894   1.434   6.279
 5014SOL     OW15940   5.786   4.154   0.642
 5014SOL    HW115941   5.771   4.107   0.556
 5014SOL    HW215942   5.878   4.135   0.675
 5015SOL     OW15943   5.130   2.121   4.791
 5015SOL    HW115944   5.115   2.201   4.733
 5015SOL    HW215945   5.150   2.151   4.885
 5016SOL     OW15946   2.013   2.260   6.880
 5016SOL    HW115947   1.930   2.313   6.863
 5016SOL    HW215948   1.991   2.162   6.883
 5017SOL     OW15949   1.919   2.655   0.177
 5017SOL    HW115950   1.876   2.634   0.089
 5017SOL    HW215951   2.003   2.705   0.162
 5018SOL     OW15952   0.223   3.999   2.338
 5018SOL    HW115953   0.260   3.950   2.259
 5018SOL    HW215954   0.123   3.993   2.336
 5019SOL     OW15955   1.138   5.027   6.574
 5019SOL    HW115956   1.233   5.048   6.552
 5019SOL    HW215957   1.084   5.024   6.490
 5020SOL     OW15958   5.150   0.082   6.189
 5020SOL    HW115959   5.170   0.159   6.249
 5020SOL    HW215960   5.150   0.113   6.094
 5021SOL     OW15961   0.551   1.468   6.096
 5021SOL    HW115962   0.514   1.386   6.053
 5021SOL    HW215963   0.638   1.446   6.140
 5022SOL     OW15964   0.759   1.617   6.547
 5022SOL    HW115965   0.823   1.687   6.579
 5022SOL    HW215966   0.667   1.642   6.576
 5023SOL     OW15967   6.559   2.777   1.301
 5023SOL    HW115968   6.568   2.876   1.307
 5023SOL    HW215969   6.480   2.747   1.353
 5024SOL     OW15970   5.905   5.373   1.947
 5024SOL    HW115971   5.923   5.465   1.912
 5024SOL    HW215972   5.989   5.320   1.946
 5025SOL     OW15973   3.320   1.633   2.356
 5025SOL    HW115974   3.302   1.719   2.405
 5025SOL    HW215975   3.263   1.631   2.273
 5026SOL     OW15976   6.272   5.895   5.862
 5026SOL    HW115977   6.288   5.987   5.897
 5026SOL    HW215978   6.358   5.857   5.829
 5027SOL     OW15979   0.201   6.716   2.298
 5027SOL    HW115980   0.284   6.660   2.295
 5027SOL    HW215981   0.161   6.712   2.390
 5028SOL     OW15982   0.152   1.566   2.869
 5028SOL    HW115983   0.188   1.508   2.795
 5028SOL    HW215984   0.201   1.653   2.870
 5029SOL     OW15985   6.775   2.799   2.882
 5029SOL    HW115986   6.875   2.794   2.877
 5029SOL    HW215987   6.737   2.794   2.789
 5030SOL     OW15988   0.126   0.208   0.229
 5030SOL    HW115989   0.122   0.304   0.199
 5030SOL    HW215990   0.216   0.189   0.267
 5031SOL     OW15991   5.728   0.148   4.955
 5031SOL    HW115992   5.723   0.059   5.000
 5031SOL    HW215993   5.712   0.137   4.857
 5032SOL     OW15994   2.089   2.617   0.975
 5032SOL    HW115995   2.106   2.522   1.003
 5032SOL    HW215996   2.000   2.646   1.008
 5033SOL     OW15997   2.667   6.455   5.647
 5033SOL    HW115998   2.645   6.548   5.674
 5033SOL    HW215999   2.760   6.451   5.612
 5034SOL     OW16000   4.930   0.444   2.774
 5034SOL    HW116001   4.836   0.420   2.750
 5034SOL    HW216002   4.961   0.385   2.849
 5035SOL     OW16003   0.387   4.318   0.283
 5035SOL    HW116004   0.359   4.383   0.353
 5035SOL    HW216005   0.453   4.254   0.322
 5036SOL     OW16006   0.720   5.130   0.372
 5036SOL    HW116007   0.742   5.142   0.469
 5036SOL    HW216008   0.681   5.039   0.358
 5037SOL     OW16009   5.291   3.149   3.056
 5037SOL    HW116010   5.242   3.199   3.127
 5037SOL    HW216011   5.271   3.189   2.966
 5038SOL     OW16012   2.357   3.875   6.106
 5038SOL    HW116013   2.443   3.828   6.127
 5038SOL    HW216014   2.376   3.967   6.072
 5039SOL     OW16015   3.020   4.410   5.346
 5039SOL    HW116016   2.967   4.458   5.276
 5039SOL    HW216017   3.031   4.314   5.320
 5040SOL     OW16018   2.417   5.190   6.229
 5040SOL    HW116019   2.491   5.203   6.295
 5040SOL    HW216020   2.436   5.109   6.174
 5041SOL     OW16021   1.696   1.256   2.215
 5041SOL    HW116022   1.628   1.285   2.147
 5041SOL    HW216023   1.669   1.288   2.305
 5042SOL     OW16024   6.407   3.039   0.417
 5042SOL    HW116025   6.352   3.097   0.357
 5042SOL    HW216026   6.367   3.038   0.509
 5043SOL     OW16027   3.485   0.205   6.149
 5043SOL    HW116028   3.573   0.158   6.135
 5043SOL    HW216029   3.489   0.257   6.234
 5044SOL     OW16030   0.654   6.815   0.469
 5044SOL    HW116031   0.736   6.759   0.457
 5044SOL    HW216032   0.670   6.883   0.541
 5045SOL     OW16033   5.151   1.322   6.490
 5045SOL    HW116034   5.098   1.283   6.566
 5045SOL    HW216035   5.237   1.358   6.525
 5046SOL     OW16036   3.408   4.153   2.664
 5046SOL    HW116037   3.483   4.158   2.730
 5046SOL    HW216038   3.379   4.245   2.640
 5047SOL     OW16039   6.637   3.460   2.452
 5047SOL    HW116040   6.728   3.457   2.412
 5047SOL    HW216041   6.599   3.552   2.443
 5048SOL     OW16042   0.328   1.283   2.311
 5048SOL    HW116043   0.356   1.367   2.264
 5048SOL    HW216044   0.310   1.212   2.243
 5049SOL     OW16045   6.333   1.810   5.450
 5049SOL    HW116046   6.395   1.887   5.466
 5049SOL    HW216047   6.240   1.843   5.437
 5050SOL     OW16048   1.720   0.629   1.294
 5050SOL    HW116049   1.699   0.706   1.355
 5050SOL    HW216050   1.649   0.622   1.224
 5051SOL     OW16051   4.596   4.777   1.170
 5051SOL    HW116052   4.519   4.814   1.222
 5051SOL    HW216053   4.573   4.686   1.137
 5052SOL     OW16054   2.148   6.912   6.487
 5052SOL    HW116055   2.049   6.926   6.489
 5052SOL    HW216056   2.194   6.985   6.538
 5053SOL     OW16057   2.102   3.976   2.706
 5053SOL    HW116058   2.032   3.943   2.643
 5053SOL    HW216059   2.162   3.900   2.732
 5054SOL     OW16060   3.421   6.332   4.768
 5054SOL    HW116061   3.515   6.325   4.800
 5054SOL    HW216062   3.419   6.376   4.678
 5055SOL     OW16063   1.522   0.528   5.647
 5055SOL    HW116064   1.550   0.478   5.565
 5055SOL    HW216065   1.548   0.475   5.728
 5056SOL     OW16066   6.637   4.563   0.457
 5056SOL    HW116067   6.688   4.481   0.483
 5056SOL    HW216068   6.656   4.585   0.361
 5057SOL     OW16069   6.691   6.133   5.045
 5057SOL    HW116070   6.689   6.148   5.144
 5057SOL    HW216071   6.690   6.034   5.027
 5058SOL     OW16072   2.880   3.196   5.502
 5058SOL    HW116073   2.807   3.175   5.438
 5058SOL    HW216074   2.965   3.213   5.452
 5059SOL     OW16075   5.649   1.871   3.659
 5059SOL    HW116076   5.630   1.775   3.681
 5059SOL    HW216077   5.639   1.926   3.742
 5060SOL     OW16078   1.259   1.768   5.188
 5060SOL    HW116079   1.240   1.676   5.221
 5060SOL    HW216080   1.325   1.764   5.113
 5061SOL     OW16081   4.027   3.499   2.814
 5061SOL    HW116082   4.048   3.491   2.912
 5061SOL    HW216083   4.082   3.434   2.762
 5062SOL     OW16084   5.212   1.228   3.387
 5062SOL    HW116085   5.234   1.240   3.484
 5062SOL    HW216086   5.237   1.136   3.358
 5063SOL     OW16087   1.277   0.042   2.536
 5063SOL    HW116088   1.358   0.089   2.570
 5063SOL    HW216089   1.281   0.039   2.436
 5064SOL     OW16090   4.933   4.104   1.842
 5064SOL    HW116091   4.870   4.093   1.766
 5064SOL    HW216092   4.991   4.023   1.850
 5065SOL     OW16093   1.626   1.938   3.886
 5065SOL    HW116094   1.664   1.863   3.830
 5065SOL    HW216095   1.532   1.916   3.911
 5066SOL     OW16096   3.936   4.832   1.096
 5066SOL    HW116097   4.001   4.791   1.160
 5066SOL    HW216098   3.963   4.809   1.002
 5067SOL     OW16099   3.556   0.954   2.120
 5067SOL    HW116100   3.643   0.963   2.170
 5067SOL    HW216101   3.568   0.892   2.043
 5068SOL     OW16102   2.536   5.049   6.636
 5068SOL    HW116103   2.508   5.001   6.719
 5068SOL    HW216104   2.630   5.024   6.613
 5069SOL     OW16105   2.219   3.191   5.535
 5069SOL    HW116106   2.245   3.096   5.521
 5069SOL    HW216107   2.301   3.249   5.529
 5070SOL     OW16108   4.505   4.471   4.045
 5070SOL    HW116109   4.537   4.514   4.129
 5070SOL    HW216110   4.541   4.377   4.040
 5071SOL     OW16111   4.203   1.341   3.032
 5071SOL    HW116112   4.115   1.352   2.985
 5071SOL    HW216113   4.231   1.245   3.028
 5072SOL     OW16114   0.896   1.096   1.540
 5072SOL    HW116115   0.814   1.106   1.483
 5072SOL    HW216116   0.879   1.026   1.609
 5073SOL     OW16117   1.005   5.261   1.377
 5073SOL    HW116118   0.977   5.323   1.451
 5073SOL    HW216119   1.105   5.266   1.366
 5074SOL     OW16120   3.507   2.219   0.988
 5074SOL    HW116121   3.592   2.215   0.935
 5074SOL    HW216122   3.497   2.310   1.027
 5075SOL     OW16123   0.991   2.554   6.574
 5075SOL    HW116124   0.920   2.485   6.582
 5075SOL    HW216125   1.006   2.576   6.478
 5076SOL     OW16126   5.215   0.551   0.593
 5076SOL    HW116127   5.129   0.587   0.556
 5076SOL    HW216128   5.234   0.594   0.680
 5077SOL     OW16129   2.436   4.039   5.545
 5077SOL    HW116130   2.363   4.051   5.479
 5077SOL    HW216131   2.500   3.969   5.512
 5078SOL     OW16132   0.424   1.094   4.125
 5078SOL    HW116133   0.325   1.100   4.114
 5078SOL    HW216134   0.446   1.046   4.210
 5079SOL     OW16135   2.114   3.122   4.967
 5079SOL    HW116136   2.047   3.059   5.006
 5079SOL    HW216137   2.206   3.084   4.980
 5080SOL     OW16138   6.102   6.136   6.188
 5080SOL    HW116139   6.052   6.053   6.213
 5080SOL    HW216140   6.041   6.196   6.136
 5081SOL     OW16141   3.587   3.365   5.041
 5081SOL    HW116142   3.659   3.430   5.063
 5081SOL    HW216143   3.629   3.277   5.017
 5082SOL     OW16144   5.477   5.378   1.696
 5082SOL    HW116145   5.489   5.426   1.783
 5082SOL    HW216146   5.413   5.429   1.639
 5083SOL     OW16147   2.552   0.049   2.949
 5083SOL    HW116148   2.540   0.145   2.971
 5083SOL    HW216149   2.604   0.040   2.864
 5084SOL     OW16150   0.065   4.307   4.006
 5084SOL    HW116151   6.989   4.327   4.029
 5084SOL    HW216152   0.073   4.212   3.977
 5085SOL     OW16153   5.664   2.445   6.360
 5085SOL    HW116154   5.756   2.477   6.382
 5085SOL    HW216155   5.604   2.524   6.345
 5086SOL     OW16156   1.081   5.685   3.422
 5086SOL    HW116157   1.179   5.694   3.444
 5086SOL    HW216158   1.046   5.600   3.463
 5087SOL     OW16159   1.833   5.354   3.082
 5087SOL    HW116160   1.885   5.407   3.016
 5087SOL    HW216161   1.735   5.371   3.070
 5088SOL     OW16162   6.081   0.159   4.255
 5088SOL    HW116163   6.020   0.221   4.303
 5088SOL    HW216164   6.029   0.103   4.191
 5089SOL     OW16165   5.640   4.036   3.921
 5089SOL    HW116166   5.639   4.005   3.826
 5089SOL    HW216167   5.623   3.958   3.981
 5090SOL     OW16168   2.222   3.920   2.256
 5090SOL    HW116169   2.209   3.999   2.198
 5090SOL    HW216170   2.213   3.947   2.352
 5091SOL     OW16171   0.378   1.342   1.883
 5091SOL    HW116172   0.380   1.249   1.848
 5091SOL    HW216173   0.403   1.343   1.979
 5092SOL     OW16174   3.526   3.796   3.026
 5092SOL    HW116175   3.538   3.893   3.002
 5092SOL    HW216176   3.582   3.774   3.106
 5093SOL     OW16177   2.950   1.632   0.615
 5093SOL    HW116178   2.877   1.570   0.588
 5093SOL    HW216179   2.912   1.723   0.631
 5094SOL     OW16180   2.484   5.416   5.948
 5094SOL    HW116181   2.571   5.367   5.955
 5094SOL    HW216182   2.408   5.353   5.963
 5095SOL     OW16183   6.266   2.274   3.859
 5095SOL    HW116184   6.303   2.363   3.832
 5095SOL    HW216185   6.299   2.204   3.796
 5096SOL     OW16186   4.062   5.003   0.493
 5096SOL    HW116187   3.966   4.984   0.470
 5096SOL    HW216188   4.075   5.102   0.500
 5097SOL     OW16189   1.274   0.044   6.448
 5097SOL    HW116190   1.342   0.116   6.466
 5097SOL    HW216191   1.198   0.054   6.511
 5098SOL     OW16192   2.612   0.075   2.022
 5098SOL    HW116193   2.562   0.155   1.988
 5098SOL    HW216194   2.622   0.009   1.948
 5099SOL     OW16195   1.240   0.148   0.181
 5099SOL    HW116196   1.210   0.234   0.222
 5099SOL    HW216197   1.275   0.164   0.089
 5100SOL     OW16198   3.137   5.665   4.866
 5100SOL    HW116199   3.155   5.569   4.844
 5100SOL    HW216200   3.125   5.675   4.965
 5101SOL     OW16201   5.010   0.195   0.439
 5101SOL    HW116202   4.989   0.115   0.496
 5101SOL    HW216203   5.110   0.204   0.431
 5102SOL     OW16204   5.624   6.572   4.133
 5102SOL    HW116205   5.581   6.492   4.091
 5102SOL    HW216206   5.716   6.548   4.163
 5103SOL     OW16207   0.289   0.588   3.753
 5103SOL    HW116208   0.344   0.614   3.833
 5103SOL    HW216209   0.192   0.588   3.777
 5104SOL     OW16210   1.888   6.411   2.360
 5104SOL    HW116211   1.916   6.504   2.385
 5104SOL    HW216212   1.940   6.382   2.280
 5105SOL     OW16213   2.988   2.999   0.869
 5105SOL    HW116214   2.904   2.952   0.895
 5105SOL    HW216215   3.065   2.961   0.920
 5106SOL     OW16216   4.252   1.944   0.179
 5106SOL    HW116217   4.259   1.955   0.080
 5106SOL    HW216218   4.322   1.998   0.224
 5107SOL     OW16219   3.290   1.267   0.431
 5107SOL    HW116220   3.363   1.235   0.491
 5107SOL    HW216221   3.252   1.352   0.469
 5108SOL     OW16222   3.398   3.859   4.869
 5108SOL    HW116223   3.311   3.809   4.868
 5108SOL    HW216224   3.458   3.818   4.937
 5109SOL     OW16225   1.169   1.660   0.565
 5109SOL    HW116226   1.165   1.622   0.658
 5109SOL    HW216227   1.236   1.609   0.511
 5110SOL     OW16228   0.465   0.831   6.161
 5110SOL    HW116229   0.440   0.915   6.210
 5110SOL    HW216230   0.482   0.758   6.228
 5111SOL     OW16231   1.851   1.000   4.994
 5111SOL    HW116232   1.834   0.902   4.996
 5111SOL    HW216233   1.765   1.049   4.979
 5112SOL     OW16234   2.115   1.375   3.083
 5112SOL    HW116235   2.046   1.355   3.152
 5112SOL    HW216236   2.205   1.346   3.115
 5113SOL     OW16237   2.161   0.214   1.106
 5113SOL    HW116238   2.186   0.309   1.085
 5113SOL    HW216239   2.092   0.182   1.042
 5114SOL     OW16240   3.370   1.168   6.705
 5114SOL    HW116241   3.272   1.170   6.725
 5114SOL    HW216242   3.406   1.078   6.728
 5115SOL     OW16243   1.727   4.899   4.160
 5115SOL    HW116244   1.781   4.983   4.165
 5115SOL    HW216245   1.751   4.838   4.236
 5116SOL     OW16246   0.007   0.268   5.767
 5116SOL    HW116247   0.006   0.217   5.854
 5116SOL    HW216248   0.016   0.203   5.691
 5117SOL     OW16249   2.230   4.195   4.558
 5117SOL    HW116250   2.216   4.130   4.632
 5117SOL    HW216251   2.165   4.176   4.484
 5118SOL     OW16252   5.057   0.003   6.943
 5118SOL    HW116253   5.114   6.978   6.873
 5118SOL    HW216254   5.112   0.021   0.005
 5119SOL     OW16255   4.896   0.698   2.078
 5119SOL    HW116256   4.912   0.673   2.173
 5119SOL    HW216257   4.877   0.796   2.071
 5120SOL     OW16258   3.703   0.744   3.818
 5120SOL    HW116259   3.714   0.805   3.897
 5120SOL    HW216260   3.792   0.703   3.796
 5121SOL     OW16261   2.560   2.160   6.176
 5121SOL    HW116262   2.479   2.193   6.127
 5121SOL    HW216263   2.544   2.067   6.209
 5122SOL     OW16264   3.593   6.972   2.641
 5122SOL    HW116265   3.542   6.890   2.666
 5122SOL    HW216266   3.651   6.952   2.562
 5123SOL     OW16267   4.541   2.360   4.525
 5123SOL    HW116268   4.581   2.392   4.440
 5123SOL    HW216269   4.605   2.378   4.601
 5124SOL     OW16270   2.475   5.556   5.114
 5124SOL    HW116271   2.465   5.655   5.119
 5124SOL    HW216272   2.571   5.533   5.097
 5125SOL     OW16273   6.007   3.429   4.569
 5125SOL    HW116274   5.989   3.332   4.556
 5125SOL    HW216275   5.925   3.473   4.606
 5126SOL     OW16276   6.191   5.008   4.892
 5126SOL    HW116277   6.211   5.105   4.876
 5126SOL    HW216278   6.277   4.957   4.900
 5127SOL     OW16279   1.008   3.759   0.129
 5127SOL    HW116280   1.014   3.663   0.101
 5127SOL    HW216281   1.006   3.817   0.047
 5128SOL     OW16282   6.785   0.546   6.594
 5128SOL    HW116283   6.804   0.578   6.501
 5128SOL    HW216284   6.717   0.472   6.590
 5129SOL     OW16285   5.629   7.017   2.350
 5129SOL    HW116286   5.708   0.011   2.290
 5129SOL    HW216287   5.568   6.948   2.311
 5130SOL     OW16288   0.774   5.977   3.697
 5130SOL    HW116289   0.840   6.052   3.692
 5130SOL    HW216290   0.712   5.993   3.773
 5131SOL     OW16291   2.741   5.028   3.859
 5131SOL    HW116292   2.726   5.127   3.853
 5131SOL    HW216293   2.668   4.980   3.811
 5132SOL     OW16294   3.307   2.371   6.135
 5132SOL    HW116295   3.385   2.416   6.092
 5132SOL    HW216296   3.339   2.295   6.192
 5133SOL     OW16297   1.257   5.363   6.536
 5133SOL    HW116298   1.227   5.439   6.593
 5133SOL    HW216299   1.355   5.349   6.548
 5134SOL     OW16300   6.873   2.394   2.249
 5134SOL    HW116301   6.825   2.397   2.337
 5134SOL    HW216302   6.874   2.300   2.215
 5135SOL     OW16303   5.602   3.799   4.038
 5135SOL    HW116304   5.544   3.736   3.986
 5135SOL    HW216305   5.688   3.753   4.062
 5136SOL     OW16306   5.025   0.304   6.456
 5136SOL    HW116307   5.125   0.310   6.453
 5136SOL    HW216308   4.997   0.219   6.500
 5137SOL     OW16309   4.339   4.111   5.679
 5137SOL    HW116310   4.285   4.149   5.754
 5137SOL    HW216311   4.354   4.181   5.609
 5138SOL     OW16312   3.936   2.900   5.346
 5138SOL    HW116313   3.908   2.927   5.254
 5138SOL    HW216314   3.924   2.802   5.357
 5139SOL     OW16315   1.504   1.421   3.520
 5139SOL    HW116316   1.431   1.355   3.537
 5139SOL    HW216317   1.582   1.401   3.579
 5140SOL     OW16318   4.106   2.178   5.810
 5140SOL    HW116319   4.114   2.154   5.907
 5140SOL    HW216320   4.077   2.098   5.758
 5141SOL     OW16321   5.937   3.836   0.952
 5141SOL    HW116322   5.843   3.861   0.927
 5141SOL    HW216323   5.947   3.737   0.948
 5142SOL     OW16324   5.460   6.793   2.312
 5142SOL    HW116325   5.422   6.884   2.326
 5142SOL    HW216326   5.442   6.737   2.393
 5143SOL     OW16327   6.525   4.542   4.493
 5143SOL    HW116328   6.605   4.595   4.516
 5143SOL    HW216329   6.461   4.540   4.570
 5144SOL     OW16330   0.582   5.176   5.692
 5144SOL    HW116331   0.660   5.233   5.665
 5144SOL    HW216332   0.611   5.113   5.764
 5145SOL     OW16333   3.575   5.610   6.125
 5145SOL    HW116334   3.598   5.559   6.042
 5145SOL    HW216335   3.510   5.682   6.103
 5146SOL     OW16336   3.075   3.872   5.359
 5146SOL    HW116337   3.097   3.894   5.264
 5146SOL    HW216338   3.141   3.916   5.420
 5147SOL     OW16339   6.553   5.732   3.122
 5147SOL    HW116340   6.622   5.681   3.173
 5147SOL    HW216341   6.469   5.678   3.117
 5148SOL     OW16342   6.549   0.566   1.863
 5148SOL    HW116343   6.468   0.578   1.806
 5148SOL    HW216344   6.554   0.471   1.894
 5149SOL     OW16345   6.410   6.333   3.161
 5149SOL    HW116346   6.366   6.410   3.205
 5149SOL    HW216347   6.378   6.248   3.203
 5150SOL     OW16348   2.326   5.680   3.386
 5150SOL    HW116349   2.419   5.651   3.411
 5150SOL    HW216350   2.327   5.722   3.296
 5151SOL     OW16351   6.646   3.576   2.001
 5151SOL    HW116352   6.732   3.569   2.051
 5151SOL    HW216353   6.573   3.534   2.056
 5152SOL     OW16354   1.730   4.896   7.003
 5152SOL    HW116355   1.640   4.934   0.007
 5152SOL    HW216356   1.719   4.825   6.934
 5153SOL     OW16357   1.407   1.314   0.044
 5153SOL    HW116358   1.351   1.391   0.014
 5153SOL    HW216359   1.391   1.236   7.003
 5154SOL     OW16360   1.232   2.454   5.808
 5154SOL    HW116361   1.277   2.428   5.722
 5154SOL    HW216362   1.180   2.538   5.794
 5155SOL     OW16363   4.332   0.451   2.324
 5155SOL    HW116364   4.336   0.372   2.263
 5155SOL    HW216365   4.355   0.423   2.417
 5156SOL     OW16366   5.121   4.110   5.979
 5156SOL    HW116367   5.044   4.085   5.921
 5156SOL    HW216368   5.107   4.073   6.071
 5157SOL     OW16369   3.558   1.793   3.357
 5157SOL    HW116370   3.600   1.838   3.436
 5157SOL    HW216371   3.477   1.844   3.329
 5158SOL     OW16372   3.750   2.106   1.300
 5158SOL    HW116373   3.792   2.128   1.212
 5158SOL    HW216374   3.821   2.089   1.368
 5159SOL     OW16375   6.231   3.649   5.511
 5159SOL    HW116376   6.172   3.721   5.547
 5159SOL    HW216377   6.187   3.609   5.430
 5160SOL     OW16378   0.602   4.737   2.886
 5160SOL    HW116379   0.521   4.793   2.902
 5160SOL    HW216380   0.585   4.673   2.812
 5161SOL     OW16381   1.939   3.471   5.920
 5161SOL    HW116382   1.864   3.536   5.936
 5161SOL    HW216383   2.016   3.520   5.880
 5162SOL     OW16384   0.784   5.106   2.711
 5162SOL    HW116385   0.824   5.196   2.693
 5162SOL    HW216386   0.701   5.117   2.766
 5163SOL     OW16387   3.095   6.452   0.115
 5163SOL    HW116388   3.110   6.549   0.134
 5163SOL    HW216389   3.045   6.410   0.191
 5164SOL     OW16390   4.302   2.037   6.953
 5164SOL    HW116391   4.307   2.003   6.859
 5164SOL    HW216392   4.209   2.070   6.972
 5165SOL     OW16393   0.012   4.016   5.703
 5165SOL    HW116394   6.975   3.995   5.783
 5165SOL    HW216395   6.976   4.007   5.620
 5166SOL     OW16396   0.503   5.471   2.204
 5166SOL    HW116397   0.561   5.400   2.163
 5166SOL    HW216398   0.449   5.431   2.278
 5167SOL     OW16399   6.549   5.417   5.735
 5167SOL    HW116400   6.552   5.376   5.826
 5167SOL    HW216401   6.641   5.415   5.694
 5168SOL     OW16402   5.080   3.478   1.754
 5168SOL    HW116403   5.053   3.572   1.773
 5168SOL    HW216404   5.000   3.418   1.755
 5169SOL     OW16405   4.278   2.260   4.115
 5169SOL    HW116406   4.198   2.251   4.174
 5169SOL    HW216407   4.249   2.258   4.020
 5170SOL     OW16408   0.942   4.120   5.571
 5170SOL    HW116409   1.012   4.137   5.641
 5170SOL    HW216410   0.954   4.184   5.496
 5171SOL     OW16411   0.840   4.908   5.288
 5171SOL    HW116412   0.793   4.975   5.230
 5171SOL    HW216413   0.898   4.956   5.354
 5172SOL     OW16414   1.401   3.180   2.487
 5172SOL    HW116415   1.343   3.174   2.405
 5172SOL    HW216416   1.357   3.130   2.562
 5173SOL     OW16417   4.865   5.311   4.668
 5173SOL    HW116418   4.886   5.260   4.752
 5173SOL    HW216419   4.950   5.347   4.629
 5174SOL     OW16420   2.517   5.054   3.052
 5174SOL    HW116421   2.584   5.090   3.117
 5174SOL    HW216422   2.553   4.970   3.011
 5175SOL     OW16423   2.368   3.755   6.583
 5175SOL    HW116424   2.410   3.664   6.591
 5175SOL    HW216425   2.418   3.808   6.515
 5176SOL     OW16426   5.261   3.208   6.780
 5176SOL    HW116427   5.177   3.158   6.761
 5176SOL    HW216428   5.238   3.302   6.807
 5177SOL     OW16429   5.803   0.358   0.183
 5177SOL    HW116430   5.871   0.306   0.234
 5177SOL    HW216431   5.781   0.310   0.098
 5178SOL     OW16432   0.861   3.390   2.052
 5178SOL    HW116433   0.836   3.479   2.089
 5178SOL    HW216434   0.890   3.330   2.127
 5179SOL     OW16435   4.273   5.065   3.992
 5179SOL    HW116436   4.257   5.135   4.061
 5179SOL    HW216437   4.350   5.007   4.018
 5180SOL     OW16438   2.871   2.539   0.712
 5180SOL    HW116439   2.878   2.540   0.612
 5180SOL    HW216440   2.788   2.489   0.738
 5181SOL     OW16441   5.063   1.097   2.975
 5181SOL    HW116442   5.106   1.113   2.886
 5181SOL    HW216443   5.020   1.007   2.976
 5182SOL     OW16444   3.943   4.232   1.673
 5182SOL    HW116445   4.042   4.239   1.659
 5182SOL    HW216446   3.925   4.184   1.759
 5183SOL     OW16447   4.015   1.711   2.425
 5183SOL    HW116448   4.007   1.678   2.331
 5183SOL    HW216449   3.925   1.742   2.458
 5184SOL     OW16450   0.352   1.609   4.537
 5184SOL    HW116451   0.290   1.673   4.584
 5184SOL    HW216452   0.343   1.518   4.578
 5185SOL     OW16453   5.711   0.708   2.825
 5185SOL    HW116454   5.632   0.754   2.865
 5185SOL    HW216455   5.795   0.748   2.862
 5186SOL     OW16456   6.323   2.691   0.046
 5186SOL    HW116457   6.292   2.722   0.136
 5186SOL    HW216458   6.417   2.720   0.031
 5187SOL     OW16459   1.420   6.451   4.111
 5187SOL    HW116460   1.438   6.504   4.028
 5187SOL    HW216461   1.453   6.358   4.098
 5188SOL     OW16462   0.161   5.615   1.177
 5188SOL    HW116463   0.196   5.691   1.121
 5188SOL    HW216464   0.074   5.583   1.140
 5189SOL     OW16465   3.954   5.363   1.199
 5189SOL    HW116466   4.042   5.331   1.166
 5189SOL    HW216467   3.936   5.455   1.165
 5190SOL     OW16468   0.573   1.879   4.727
 5190SOL    HW116469   0.600   1.961   4.678
 5190SOL    HW216470   0.574   1.801   4.665
 5191SOL     OW16471   4.279   6.971   1.887
 5191SOL    HW116472   4.187   6.982   1.924
 5191SOL    HW216473   4.311   0.039   1.850
 5192SOL     OW16474   2.142   5.495   2.063
 5192SOL    HW116475   2.090   5.417   2.097
 5192SOL    HW216476   2.240   5.476   2.069
 5193SOL     OW16477   4.747   4.945   4.645
 5193SOL    HW116478   4.703   5.021   4.691
 5193SOL    HW216479   4.702   4.928   4.557
 5194SOL     OW16480   4.378   1.955   6.711
 5194SOL    HW116481   4.314   1.880   6.695
 5194SOL    HW216482   4.471   1.924   6.692
 5195SOL     OW16483   6.812   6.390   3.953
 5195SOL    HW116484   6.732   6.331   3.966
 5195SOL    HW216485   6.783   6.486   3.951
 5196SOL     OW16486   3.605   6.205   1.181
 5196SOL    HW116487   3.590   6.150   1.263
 5196SOL    HW216488   3.609   6.145   1.101
 5197SOL     OW16489   2.379   4.522   5.924
 5197SOL    HW116490   2.380   4.616   5.959
 5197SOL    HW216491   2.463   4.475   5.953
 5198SOL     OW16492   4.556   6.820   3.194
 5198SOL    HW116493   4.526   6.725   3.181
 5198SOL    HW216494   4.589   6.832   3.287
 5199SOL     OW16495   1.629   5.726   0.513
 5199SOL    HW116496   1.541   5.734   0.558
 5199SOL    HW216497   1.625   5.655   0.443
 5200SOL     OW16498   1.296   3.164   5.322
 5200SOL    HW116499   1.234   3.235   5.356
 5200SOL    HW216500   1.280   3.148   5.225
 5201SOL     OW16501   0.094   0.038   2.981
 5201SOL    HW116502   0.048   0.028   3.069
 5201SOL    HW216503   0.174   0.097   2.992
 5202SOL     OW16504   6.101   3.447   5.887
 5202SOL    HW116505   6.015   3.406   5.857
 5202SOL    HW216506   6.097   3.546   5.875
 5203SOL     OW16507   2.652   2.248   0.283
 5203SOL    HW116508   2.590   2.224   0.358
 5203SOL    HW216509   2.607   2.316   0.225
 5204SOL     OW16510   3.915   5.319   0.014
 5204SOL    HW116511   3.890   5.391   0.079
 5204SOL    HW216512   3.857   5.239   0.028
 5205SOL     OW16513   0.904   6.120   0.999
 5205SOL    HW116514   0.885   6.216   1.016
 5205SOL    HW216515   0.841   6.085   0.929
 5206SOL     OW16516   0.734   5.022   6.235
 5206SOL    HW116517   0.704   5.077   6.312
 5206SOL    HW216518   0.834   5.030   6.225
 5207SOL     OW16519   0.994   6.457   3.550
 5207SOL    HW116520   1.089   6.470   3.520
 5207SOL    HW216521   0.949   6.545   3.561
 5208SOL     OW16522   4.385   2.378   6.136
 5208SOL    HW116523   4.348   2.354   6.046
 5208SOL    HW216524   4.418   2.472   6.135
 5209SOL     OW16525   5.853   6.495   2.712
 5209SOL    HW116526   5.783   6.429   2.740
 5209SOL    HW216527   5.816   6.588   2.718
 5210SOL     OW16528   4.418   2.889   6.436
 5210SOL    HW116529   4.354   2.821   6.470
 5210SOL    HW216530   4.510   2.850   6.430
 5211SOL     OW16531   3.619   2.731   5.323
 5211SOL    HW116532   3.715   2.727   5.296
 5211SOL    HW216533   3.612   2.756   5.419
 5212SOL     OW16534   6.855   2.928   1.112
 5212SOL    HW116535   6.788   3.001   1.109
 5212SOL    HW216536   6.893   2.915   1.020
 5213SOL     OW16537   4.709   3.799   6.158
 5213SOL    HW116538   4.742   3.894   6.166
 5213SOL    HW216539   4.631   3.786   6.219
 5214SOL     OW16540   5.409   1.194   5.842
 5214SOL    HW116541   5.312   1.177   5.821
 5214SOL    HW216542   5.436   1.282   5.801
 5215SOL     OW16543   6.937   4.823   4.043
 5215SOL    HW116544   0.009   4.814   4.082
 5215SOL    HW216545   6.927   4.913   4.001
 5216SOL     OW16546   4.848   5.039   2.151
 5216SOL    HW116547   4.842   5.023   2.249
 5216SOL    HW216548   4.890   5.128   2.134
 5217SOL     OW16549   4.276   5.328   4.385
 5217SOL    HW116550   4.192   5.364   4.343
 5217SOL    HW216551   4.259   5.309   4.482
 5218SOL     OW16552   0.874   0.959   3.310
 5218SOL    HW116553   0.799   0.985   3.371
 5218SOL    HW216554   0.886   1.030   3.241
 5219SOL     OW16555   4.509   1.340   4.821
 5219SOL    HW116556   4.493   1.278   4.898
 5219SOL    HW216557   4.496   1.290   4.735
 5220SOL     OW16558   0.647   5.827   2.577
 5220SOL    HW116559   0.625   5.747   2.632
 5220SOL    HW216560   0.579   5.838   2.505
 5221SOL     OW16561   5.528   2.500   4.456
 5221SOL    HW116562   5.459   2.565   4.424
 5221SOL    HW216563   5.502   2.407   4.428
 5222SOL     OW16564   3.503   5.983   2.967
 5222SOL    HW116565   3.578   6.006   3.029
 5222SOL    HW216566   3.490   5.884   2.966
 5223SOL     OW16567   6.209   2.383   0.698
 5223SOL    HW116568   6.245   2.400   0.606
 5223SOL    HW216569   6.114   2.354   0.692
 5224SOL     OW16570   6.517   2.396   4.587
 5224SOL    HW116571   6.433   2.440   4.621
 5224SOL    HW216572   6.520   2.301   4.620
 5225SOL     OW16573   0.651   0.765   3.502
 5225SOL    HW116574   0.745   0.745   3.529
 5225SOL    HW216575   0.643   0.862   3.479
 5226SOL     OW16576   6.883   5.778   5.133
 5226SOL    HW116577   6.940   5.739   5.061
 5226SOL    HW216578   6.941   5.818   5.204
 5227SOL     OW16579   0.659   3.368   4.764
 5227SOL    HW116580   0.618   3.332   4.847
 5227SOL    HW216581   0.748   3.324   4.748
 5228SOL     OW16582   6.317   2.254   1.172
 5228SOL    HW116583   6.389   2.307   1.127
 5228SOL    HW216584   6.237   2.249   1.112
 5229SOL     OW16585   1.522   5.918   6.939
 5229SOL    HW116586   1.588   5.975   6.890
 5229SOL    HW216587   1.550   5.910   0.016
 5230SOL     OW16588   0.558   5.801   1.439
 5230SOL    HW116589   0.539   5.869   1.510
 5230SOL    HW216590   0.626   5.736   1.472
 5231SOL     OW16591   4.872   3.123   4.912
 5231SOL    HW116592   4.786   3.170   4.892
 5231SOL    HW216593   4.911   3.088   4.827
 5232SOL     OW16594   2.821   3.061   5.785
 5232SOL    HW116595   2.914   3.088   5.762
 5232SOL    HW216596   2.783   3.006   5.711
 5233SOL     OW16597   4.946   0.986   2.511
 5233SOL    HW116598   4.869   1.047   2.491
 5233SOL    HW216599   5.007   0.983   2.432
 5234SOL     OW16600   2.738   1.062   6.463
 5234SOL    HW116601   2.785   1.024   6.383
 5234SOL    HW216602   2.667   0.999   6.493
 5235SOL     OW16603   1.543   2.365   0.538
 5235SOL    HW116604   1.493   2.443   0.578
 5235SOL    HW216605   1.565   2.385   0.443
 5236SOL     OW16606   5.502   4.605   2.629
 5236SOL    HW116607   5.441   4.670   2.584
 5236SOL    HW216608   5.448   4.535   2.675
 5237SOL     OW16609   2.158   1.251   5.151
 5237SOL    HW116610   2.123   1.252   5.057
 5237SOL    HW216611   2.154   1.158   5.187
 5238SOL     OW16612   0.825   4.336   0.147
 5238SOL    HW116613   0.781   4.249   0.127
 5238SOL    HW216614   0.800   4.366   0.239
 5239SOL     OW16615   3.717   2.865   3.894
 5239SOL    HW116616   3.797   2.806   3.900
 5239SOL    HW216617   3.646   2.832   3.955
 5240SOL     OW16618   3.240   1.598   6.208
 5240SOL    HW116619   3.264   1.667   6.277
 5240SOL    HW216620   3.177   1.531   6.248
 5241SOL     OW16621   0.728   5.037   5.087
 5241SOL    HW116622   0.690   5.127   5.109
 5241SOL    HW216623   0.807   5.049   5.027
 5242SOL     OW16624   0.436   6.170   6.223
 5242SOL    HW116625   0.427   6.071   6.227
 5242SOL    HW216626   0.470   6.196   6.132
 5243SOL     OW16627   0.904   5.086   1.623
 5243SOL    HW116628   0.854   5.069   1.539
 5243SOL    HW216629   0.929   5.183   1.629
 5244SOL     OW16630   3.634   5.398   0.256
 5244SOL    HW116631   3.540   5.410   0.289
 5244SOL    HW216632   3.691   5.363   0.330
 5245SOL     OW16633   3.669   4.529   0.341
 5245SOL    HW116634   3.594   4.516   0.276
 5245SOL    HW216635   3.648   4.480   0.426
 5246SOL     OW16636   6.091   3.913   2.204
 5246SOL    HW116637   6.029   3.849   2.161
 5246SOL    HW216638   6.163   3.940   2.139
 5247SOL     OW16639   1.569   1.014   0.503
 5247SOL    HW116640   1.628   0.964   0.566
 5247SOL    HW216641   1.582   0.979   0.410
 5248SOL     OW16642   5.349   0.985   3.886
 5248SOL    HW116643   5.264   1.022   3.924
 5248SOL    HW216644   5.418   0.977   3.957
 5249SOL     OW16645   7.015   4.717   5.461
 5249SOL    HW116646   6.964   4.797   5.494
 5249SOL    HW216647   6.951   4.643   5.441
 5250SOL     OW16648   1.806   6.580   5.854
 5250SOL    HW116649   1.871   6.655   5.846
 5250SOL    HW216650   1.836   6.518   5.926
 5251SOL     OW16651   0.697   3.749   0.335
 5251SOL    HW116652   0.730   3.822   0.277
 5251SOL    HW216653   0.741   3.663   0.310
 5252SOL     OW16654   1.894   6.121   0.425
 5252SOL    HW116655   1.882   6.022   0.417
 5252SOL    HW216656   1.889   6.148   0.521
 5253SOL     OW16657   5.237   4.639   4.309
 5253SOL    HW116658   5.287   4.632   4.222
 5253SOL    HW216659   5.201   4.549   4.334
 5254SOL     OW16660   4.822   1.242   3.153
 5254SOL    HW116661   4.825   1.312   3.224
 5254SOL    HW216662   4.915   1.210   3.134
 5255SOL     OW16663   5.836   1.211   5.798
 5255SOL    HW116664   5.879   1.121   5.794
 5255SOL    HW216665   5.901   1.280   5.766
 5256SOL     OW16666   4.279   0.802   3.354
 5256SOL    HW116667   4.270   0.886   3.300
 5256SOL    HW216668   4.373   0.769   3.349
 5257SOL     OW16669   5.315   6.582   1.980
 5257SOL    HW116670   5.327   6.519   1.904
 5257SOL    HW216671   5.245   6.547   2.042
 5258SOL     OW16672   6.338   4.306   2.208
 5258SOL    HW116673   6.348   4.311   2.307
 5258SOL    HW216674   6.384   4.384   2.166
 5259SOL     OW16675   5.576   5.876   0.905
 5259SOL    HW116676   5.520   5.958   0.912
 5259SOL    HW216677   5.517   5.795   0.903
 5260SOL     OW16678   5.200   3.736   1.130
 5260SOL    HW116679   5.271   3.685   1.081
 5260SOL    HW216680   5.116   3.682   1.132
 5261SOL     OW16681   0.984   3.753   0.457
 5261SOL    HW116682   0.998   3.769   0.359
 5261SOL    HW216683   0.910   3.811   0.490
 5262SOL     OW16684   2.759   1.086   2.827
 5262SOL    HW116685   2.773   1.069   2.924
 5262SOL    HW216686   2.844   1.070   2.777
 5263SOL     OW16687   2.184   1.864   4.489
 5263SOL    HW116688   2.182   1.769   4.457
 5263SOL    HW216689   2.223   1.922   4.418
 5264SOL     OW16690   5.894   2.271   2.593
 5264SOL    HW116691   5.958   2.294   2.666
 5264SOL    HW216692   5.801   2.297   2.620
 5265SOL     OW16693   5.997   3.998   4.448
 5265SOL    HW116694   6.028   4.091   4.469
 5265SOL    HW216695   6.077   3.939   4.433
 5266SOL     OW16696   2.306   6.007   1.021
 5266SOL    HW116697   2.260   6.002   0.932
 5266SOL    HW216698   2.240   6.036   1.090
 5267SOL     OW16699   4.892   3.848   4.876
 5267SOL    HW116700   4.839   3.770   4.908
 5267SOL    HW216701   4.909   3.911   4.952
 5268SOL     OW16702   6.028   0.043   6.500
 5268SOL    HW116703   6.029   0.022   6.402
 5268SOL    HW216704   5.970   0.122   6.516
 5269SOL     OW16705   1.154   6.771   3.603
 5269SOL    HW116706   1.253   6.767   3.590
 5269SOL    HW216707   1.129   6.721   3.686
 5270SOL     OW16708   5.804   1.222   1.301
 5270SOL    HW116709   5.864   1.254   1.374
 5270SOL    HW216710   5.858   1.181   1.228
 5271SOL     OW16711   5.901   5.655   4.830
 5271SOL    HW116712   5.890   5.592   4.754
 5271SOL    HW216713   5.971   5.723   4.807
 5272SOL     OW16714   2.692   5.255   1.923
 5272SOL    HW116715   2.784   5.276   1.956
 5272SOL    HW216716   2.636   5.220   1.999
 5273SOL     OW16717   6.834   2.980   3.439
 5273SOL    HW116718   6.818   2.906   3.373
 5273SOL    HW216719   6.757   2.983   3.504
 5274SOL     OW16720   6.193   0.127   2.333
 5274SOL    HW116721   6.272   0.088   2.379
 5274SOL    HW216722   6.201   0.112   2.234
 5275SOL     OW16723   3.693   1.797   0.014
 5275SOL    HW116724   3.673   1.835   6.943
 5275SOL    HW216725   3.746   1.863   0.067
 5276SOL     OW16726   1.516   0.371   0.559
 5276SOL    HW116727   1.461   0.302   0.511
 5276SOL    HW216728   1.604   0.381   0.514
 5277SOL     OW16729   1.548   1.859   3.149
 5277SOL    HW116730   1.516   1.920   3.222
 5277SOL    HW216731   1.612   1.793   3.188
 5278SOL     OW16732   5.443   0.191   3.259
 5278SOL    HW116733   5.373   0.245   3.306
 5278SOL    HW216734   5.400   0.130   3.193
 5279SOL     OW16735   1.467   5.180   6.170
 5279SOL    HW116736   1.530   5.122   6.222
 5279SOL    HW216737   1.434   5.131   6.090
 5280SOL     OW16738   2.679   6.311   4.924
 5280SOL    HW116739   2.773   6.335   4.900
 5280SOL    HW216740   2.634   6.389   4.968
 5281SOL     OW16741   0.087   1.704   2.411
 5281SOL    HW116742   0.161   1.747   2.463
 5281SOL    HW216743   0.059   1.619   2.455
 5282SOL     OW16744   2.503   2.045   3.093
 5282SOL    HW116745   2.596   2.014   3.075
 5282SOL    HW216746   2.438   1.974   3.067
 5283SOL     OW16747   4.753   6.223   1.522
 5283SOL    HW116748   4.773   6.320   1.511
 5283SOL    HW216749   4.756   6.199   1.620
 5284SOL     OW16750   5.117   3.472   3.443
 5284SOL    HW116751   5.135   3.472   3.541
 5284SOL    HW216752   5.035   3.527   3.425
 5285SOL     OW16753   2.454   4.734   3.801
 5285SOL    HW116754   2.392   4.812   3.810
 5285SOL    HW216755   2.402   4.649   3.799
 5286SOL     OW16756   1.543   3.688   1.080
 5286SOL    HW116757   1.460   3.735   1.051
 5286SOL    HW216758   1.621   3.723   1.028
 5287SOL     OW16759   2.400   6.483   1.366
 5287SOL    HW116760   2.473   6.415   1.377
 5287SOL    HW216761   2.404   6.549   1.441
 5288SOL     OW16762   3.708   0.331   1.770
 5288SOL    HW116763   3.779   0.289   1.826
 5288SOL    HW216764   3.619   0.321   1.814
 5289SOL     OW16765   1.477   5.046   5.912
 5289SOL    HW116766   1.435   5.124   5.865
 5289SOL    HW216767   1.575   5.043   5.892
 5290SOL     OW16768   1.580   4.810   5.146
 5290SOL    HW116769   1.538   4.723   5.119
 5290SOL    HW216770   1.642   4.794   5.223
 5291SOL     OW16771   2.419   5.678   5.589
 5291SOL    HW116772   2.461   5.762   5.624
 5291SOL    HW216773   2.456   5.600   5.638
 5292SOL     OW16774   6.921   3.956   0.138
 5292SOL    HW116775   6.856   3.923   0.069
 5292SOL    HW216776   6.921   3.893   0.216
 5293SOL     OW16777   1.493   0.898   4.144
 5293SOL    HW116778   1.440   0.826   4.189
 5293SOL    HW216779   1.586   0.865   4.127
 5294SOL     OW16780   4.942   3.459   5.872
 5294SOL    HW116781   4.872   3.452   5.801
 5294SOL    HW216782   5.012   3.390   5.856
 5295SOL     OW16783   4.927   0.366   2.323
 5295SOL    HW116784   4.904   0.270   2.306
 5295SOL    HW216785   4.980   0.373   2.408
 5296SOL     OW16786   1.902   5.171   0.311
 5296SOL    HW116787   1.929   5.087   0.265
 5296SOL    HW216788   1.866   5.149   0.402
 5297SOL     OW16789   3.424   2.031   1.207
 5297SOL    HW116790   3.476   1.948   1.227
 5297SOL    HW216791   3.487   2.109   1.201
 5298SOL     OW16792   1.072   5.953   6.669
 5298SOL    HW116793   1.133   5.995   6.601
 5298SOL    HW216794   1.125   5.923   6.747
 5299SOL     OW16795   2.453   2.639   1.216
 5299SOL    HW116796   2.362   2.598   1.220
 5299SOL    HW216797   2.521   2.567   1.202
 5300SOL     OW16798   0.185   6.114   1.926
 5300SOL    HW116799   0.200   6.204   1.884
 5300SOL    HW216800   0.150   6.051   1.857
 5301SOL     OW16801   4.627   2.912   0.673
 5301SOL    HW116802   4.601   2.933   0.578
 5301SOL    HW216803   4.669   2.821   0.676
 5302SOL     OW16804   6.491   4.580   2.460
 5302SOL    HW116805   6.586   4.587   2.490
 5302SOL    HW216806   6.473   4.648   2.389
 5303SOL     OW16807   6.515   5.960   2.984
 5303SOL    HW116808   6.544   5.874   3.026
 5303SOL    HW216809   6.574   6.034   3.018
 5304SOL     OW16810   6.430   1.459   6.072
 5304SOL    HW116811   6.499   1.484   6.004
 5304SOL    HW216812   6.454   1.500   6.160
 5305SOL     OW16813   0.989   5.901   4.214
 5305SOL    HW116814   0.951   5.994   4.218
 5305SOL    HW216815   0.947   5.851   4.139
 5306SOL     OW16816   0.672   5.281   5.196
 5306SOL    HW116817   0.605   5.305   5.126
 5306SOL    HW216818   0.628   5.282   5.286
 5307SOL     OW16819   4.438   7.010   0.000
 5307SOL    HW116820   4.350   6.966   0.021
 5307SOL    HW216821   4.423   0.066   6.955
 5308SOL     OW16822   1.012   6.210   3.963
 5308SOL    HW116823   0.938   6.211   4.030
 5308SOL    HW216824   0.973   6.199   3.871
 5309SOL     OW16825   3.542   4.204   1.917
 5309SOL    HW116826   3.494   4.253   1.844
 5309SOL    HW216827   3.519   4.107   1.912
 5310SOL     OW16828   5.736   2.405   2.231
 5310SOL    HW116829   5.800   2.329   2.216
 5310SOL    HW216830   5.767   2.458   2.311
 5311SOL     OW16831   0.073   5.952   1.248
 5311SOL    HW116832   0.111   6.021   1.309
 5311SOL    HW216833   0.026   5.882   1.302
 5312SOL     OW16834   0.647   3.855   2.074
 5312SOL    HW116835   0.729   3.892   2.031
 5312SOL    HW216836   0.580   3.929   2.087
 5313SOL     OW16837   1.334   3.735   7.006
 5313SOL    HW116838   1.314   3.793   0.066
 5313SOL    HW216839   1.268   3.755   6.933
 5314SOL     OW16840   3.405   5.756   0.290
 5314SOL    HW116841   3.486   5.700   0.309
 5314SOL    HW216842   3.357   5.774   0.375
 5315SOL     OW16843   3.918   3.507   1.287
 5315SOL    HW116844   3.967   3.451   1.354
 5315SOL    HW216845   3.952   3.487   1.195
 5316SOL     OW16846   6.978   4.845   4.398
 5316SOL    HW116847   6.992   4.938   4.432
 5316SOL    HW216848   0.005   4.833   4.310
 5317SOL     OW16849   6.978   0.674   4.919
 5317SOL    HW116850   6.936   0.664   4.829
 5317SOL    HW216851   0.044   0.727   4.911
 5318SOL     OW16852   0.325   1.677   5.915
 5318SOL    HW116853   0.300   1.596   5.862
 5318SOL    HW216854   0.385   1.651   5.991
 5319SOL     OW16855   4.667   6.354   6.618
 5319SOL    HW116856   4.594   6.345   6.686
 5319SOL    HW216857   4.636   6.413   6.543
 5320SOL     OW16858   5.870   4.945   6.599
 5320SOL    HW116859   5.771   4.942   6.597
 5320SOL    HW216860   5.903   5.010   6.530
 5321SOL     OW16861   0.934   4.248   2.795
 5321SOL    HW116862   0.988   4.197   2.728
 5321SOL    HW216863   0.984   4.329   2.823
 5322SOL     OW16864   3.934   5.648   6.022
 5322SOL    HW116865   3.919   5.639   5.924
 5322SOL    HW216866   3.912   5.562   6.067
 5323SOL     OW16867   4.172   3.199   0.375
 5323SOL    HW116868   4.253   3.254   0.356
 5323SOL    HW216869   4.199   3.108   0.406
 5324SOL     OW16870   3.742   2.573   1.735
 5324SOL    HW116871   3.694   2.503   1.787
 5324SOL    HW216872   3.839   2.548   1.728
 5325SOL     OW16873   5.524   6.694   3.652
 5325SOL    HW116874   5.581   6.753   3.596
 5325SOL    HW216875   5.496   6.614   3.598
 5326SOL     OW16876   6.992   5.961   3.418
 5326SOL    HW116877   6.918   5.916   3.368
 5326SOL    HW216878   0.025   5.893   3.469
 5327SOL     OW16879   6.436   4.887   4.845
 5327SOL    HW116880   6.436   4.796   4.886
 5327SOL    HW216881   6.406   4.880   4.749
 5328SOL     OW16882   4.822   2.873   5.737
 5328SOL    HW116883   4.877   2.850   5.657
 5328SOL    HW216884   4.763   2.951   5.716
 5329SOL     OW16885   0.821   3.500   0.309
 5329SOL    HW116886   0.914   3.472   0.285
 5329SOL    HW216887   0.798   3.463   0.399
 5330SOL     OW16888   3.769   4.121   6.779
 5330SOL    HW116889   3.867   4.106   6.792
 5330SOL    HW216890   3.738   4.066   6.701
 5331SOL     OW16891   5.365   0.805   1.486
 5331SOL    HW116892   5.453   0.852   1.497
 5331SOL    HW216893   5.377   0.707   1.500
 5332SOL     OW16894   0.257   4.660   0.247
 5332SOL    HW116895   0.175   4.699   0.288
 5332SOL    HW216896   0.233   4.612   0.162
 5333SOL     OW16897   1.017   0.845   3.856
 5333SOL    HW116898   1.064   0.930   3.831
 5333SOL    HW216899   0.920   0.864   3.872
 5334SOL     OW16900   3.052   5.412   5.071
 5334SOL    HW116901   3.112   5.401   4.992
 5334SOL    HW216902   3.052   5.508   5.099
 5335SOL     OW16903   0.063   5.069   2.014
 5335SOL    HW116904   0.133   5.014   1.968
 5335SOL    HW216905   0.078   5.165   1.994
 5336SOL     OW16906   2.193   1.993   3.121
 5336SOL    HW116907   2.229   1.937   3.046
 5336SOL    HW216908   2.217   1.950   3.208
 5337SOL     OW16909   4.773   4.680   1.897
 5337SOL    HW116910   4.838   4.756   1.895
 5337SOL    HW216911   4.692   4.703   1.843
 5338SOL     OW16912   6.093   0.697   6.064
 5338SOL    HW116913   6.042   0.779   6.091
 5338SOL    HW216914   6.156   0.671   6.137
 5339SOL     OW16915   5.595   1.339   3.116
 5339SOL    HW116916   5.514   1.351   3.059
 5339SOL    HW216917   5.611   1.421   3.170
 5340SOL     OW16918   5.948   3.809   1.267
 5340SOL    HW116919   6.045   3.803   1.242
 5340SOL    HW216920   5.915   3.902   1.250
 5341SOL     OW16921   3.135   5.225   5.265
 5341SOL    HW116922   3.068   5.282   5.218
 5341SOL    HW216923   3.123   5.130   5.236
 5342SOL     OW16924   5.447   6.334   4.847
 5342SOL    HW116925   5.539   6.299   4.828
 5342SOL    HW216926   5.389   6.260   4.882
 5343SOL     OW16927   4.257   3.542   5.149
 5343SOL    HW116928   4.311   3.573   5.227
 5343SOL    HW216929   4.304   3.566   5.064
 5344SOL     OW16930   1.398   1.855   0.880
 5344SOL    HW116931   1.345   1.792   0.936
 5344SOL    HW216932   1.441   1.923   0.939
 5345SOL     OW16933   5.332   6.754   0.238
 5345SOL    HW116934   5.323   6.700   0.154
 5345SOL    HW216935   5.408   6.818   0.228
 5346SOL     OW16936   3.059   5.472   3.782
 5346SOL    HW116937   3.066   5.390   3.838
 5346SOL    HW216938   3.087   5.451   3.688
 5347SOL     OW16939   0.621   3.341   2.493
 5347SOL    HW116940   0.694   3.331   2.561
 5347SOL    HW216941   0.646   3.291   2.410
 5348SOL     OW16942   6.623   1.276   6.792
 5348SOL    HW116943   6.556   1.249   6.862
 5348SOL    HW216944   6.654   1.369   6.810
 5349SOL     OW16945   2.496   3.515   0.434
 5349SOL    HW116946   2.501   3.553   0.341
 5349SOL    HW216947   2.402   3.518   0.467
 5350SOL     OW16948   2.127   0.259   5.098
 5350SOL    HW116949   2.083   0.259   5.188
 5350SOL    HW216950   2.081   0.192   5.040
 5351SOL     OW16951   0.311   5.663   2.209
 5351SOL    HW116952   0.293   5.709   2.122
 5351SOL    HW216953   0.397   5.613   2.203
 5352SOL     OW16954   2.320   4.869   2.858
 5352SOL    HW116955   2.277   4.786   2.822
 5352SOL    HW216956   2.407   4.845   2.901
 5353SOL     OW16957   3.965   5.901   4.665
 5353SOL    HW116958   3.998   5.811   4.693
 5353SOL    HW216959   4.018   5.933   4.586
 5354SOL     OW16960   1.925   4.154   0.885
 5354SOL    HW116961   1.951   4.058   0.874
 5354SOL    HW216962   2.005   4.212   0.872
 5355SOL     OW16963   5.702   5.007   3.809
 5355SOL    HW116964   5.722   5.001   3.907
 5355SOL    HW216965   5.628   5.072   3.795
 5356SOL     OW16966   6.758   3.433   3.142
 5356SOL    HW116967   6.829   3.403   3.079
 5356SOL    HW216968   6.724   3.355   3.194
 5357SOL     OW16969   3.159   5.365   0.697
 5357SOL    HW116970   3.118   5.353   0.787
 5357SOL    HW216971   3.231   5.434   0.703
 5358SOL     OW16972   4.408   1.884   1.148
 5358SOL    HW116973   4.466   1.911   1.225
 5358SOL    HW216974   4.364   1.966   1.110
 5359SOL     OW16975   2.475   1.869   6.301
 5359SOL    HW116976   2.423   1.916   6.373
 5359SOL    HW216977   2.573   1.882   6.316
 5360SOL     OW16978   4.353   6.065   3.852
 5360SOL    HW116979   4.334   5.967   3.860
 5360SOL    HW216980   4.295   6.115   3.916
 5361SOL     OW16981   2.355   0.081   4.561
 5361SOL    HW116982   2.444   0.111   4.528
 5361SOL    HW216983   2.366   0.032   4.648
 5362SOL     OW16984   6.743   5.884   2.375
 5362SOL    HW116985   6.808   5.959   2.389
 5362SOL    HW216986   6.696   5.864   2.461
 5363SOL     OW16987   5.996   5.919   5.944
 5363SOL    HW116988   6.074   5.869   5.983
 5363SOL    HW216989   6.025   5.963   5.859
 5364SOL     OW16990   5.951   0.328   1.522
 5364SOL    HW116991   5.954   0.320   1.621
 5364SOL    HW216992   5.856   0.337   1.492
 5365SOL     OW16993   3.210   3.160   2.482
 5365SOL    HW116994   3.232   3.256   2.464
 5365SOL    HW216995   3.135   3.132   2.423
 5366SOL     OW16996   6.230   6.330   1.552
 5366SOL    HW116997   6.154   6.309   1.490
 5366SOL    HW216998   6.315   6.339   1.500
 5367SOL     OW16999   0.276   0.249   1.864
 5367SOL    HW117000   0.281   0.343   1.897
 5367SOL    HW217001   0.367   0.216   1.841
 5368SOL     OW17002   6.002   6.976   2.674
 5368SOL    HW117003   5.953   6.986   2.587
 5368SOL    HW217004   6.095   6.944   2.657
 5369SOL     OW17005   2.460   6.503   0.885
 5369SOL    HW117006   2.430   6.408   0.894
 5369SOL    HW217007   2.409   6.561   0.947
 5370SOL     OW17008   4.526   3.657   0.567
 5370SOL    HW117009   4.566   3.574   0.607
 5370SOL    HW217010   4.439   3.635   0.525
 5371SOL     OW17011   0.937   4.348   5.416
 5371SOL    HW117012   0.857   4.388   5.461
 5371SOL    HW217013   0.995   4.422   5.381
 5372SOL     OW17014   1.019   6.374   3.005
 5372SOL    HW117015   1.084   6.374   2.928
 5372SOL    HW217016   1.046   6.304   3.071
 5373SOL     OW17017   4.015   6.278   5.200
 5373SOL    HW117018   4.030   6.219   5.280
 5373SOL    HW217019   4.005   6.220   5.118
 5374SOL     OW17020   2.492   5.166   1.032
 5374SOL    HW117021   2.478   5.078   0.986
 5374SOL    HW217022   2.457   5.240   0.974
 5375SOL     OW17023   0.350   6.107   5.668
 5375SOL    HW117024   0.368   6.031   5.730
 5375SOL    HW217025   0.400   6.093   5.583
 5376SOL     OW17026   0.872   2.552   1.433
 5376SOL    HW117027   0.964   2.555   1.472
 5376SOL    HW217028   0.813   2.616   1.482
 5377SOL     OW17029   1.060   0.071   2.874
 5377SOL    HW117030   1.057   0.128   2.792
 5377SOL    HW217031   1.015   7.002   2.855
 5378SOL     OW17032   6.432   6.849   2.404
 5378SOL    HW117033   6.442   6.778   2.473
 5378SOL    HW217034   6.520   6.894   2.389
 5379SOL     OW17035   1.247   3.528   4.789
 5379SOL    HW117036   1.238   3.456   4.858
 5379SOL    HW217037   1.343   3.543   4.769
 5380SOL     OW17038   3.235   6.806   1.557
 5380SOL    HW117039   3.277   6.891   1.587
 5380SOL    HW217040   3.177   6.769   1.630
 5381SOL     OW17041   6.804   6.171   1.776
 5381SOL    HW117042   6.737   6.112   1.732
 5381SOL    HW217043   6.895   6.151   1.740
 5382SOL     OW17044   3.055   2.117   2.055
 5382SOL    HW117045   3.017   2.205   2.028
 5382SOL    HW217046   2.986   2.046   2.044
 5383SOL     OW17047   1.526   3.153   4.859
 5383SOL    HW117048   1.569   3.066   4.836
 5383SOL    HW217049   1.495   3.199   4.776
 5384SOL     OW17050   4.975   6.436   4.938
 5384SOL    HW117051   4.912   6.514   4.935
 5384SOL    HW217052   4.962   6.380   4.856
 5385SOL     OW17053   4.109   3.332   5.107
 5385SOL    HW117054   4.033   3.340   5.171
 5385SOL    HW217055   4.180   3.399   5.130
 5386SOL     OW17056   5.227   1.955   4.120
 5386SOL    HW117057   5.145   1.970   4.175
 5386SOL    HW217058   5.214   1.876   4.060
 5387SOL     OW17059   2.420   6.500   2.861
 5387SOL    HW117060   2.463   6.415   2.894
 5387SOL    HW217061   2.406   6.562   2.939
 5388SOL     OW17062   0.773   0.806   2.944
 5388SOL    HW117063   0.730   0.736   2.886
 5388SOL    HW217064   0.753   0.785   3.040
 5389SOL     OW17065   3.937   1.134   3.980
 5389SOL    HW117066   4.018   1.083   4.011
 5389SOL    HW217067   3.888   1.080   3.911
 5390SOL     OW17068   6.174   4.187   3.224
 5390SOL    HW117069   6.261   4.224   3.192
 5390SOL    HW217070   6.151   4.106   3.170
 5391SOL     OW17071   2.312   1.966   0.663
 5391SOL    HW117072   2.405   1.971   0.628
 5391SOL    HW217073   2.313   1.963   0.763
 5392SOL     OW17074   5.674   3.969   0.914
 5392SOL    HW117075   5.630   3.886   0.948
 5392SOL    HW217076   5.610   4.020   0.856
 5393SOL     OW17077   4.505   0.496   5.119
 5393SOL    HW117078   4.427   0.442   5.088
 5393SOL    HW217079   4.512   0.579   5.063
 5394SOL     OW17080   0.979   5.746   0.710
 5394SOL    HW117081   0.926   5.685   0.652
 5394SOL    HW217082   0.973   5.715   0.805
 5395SOL     OW17083   4.992   0.574   1.393
 5395SOL    HW117084   4.966   0.622   1.309
 5395SOL    HW217085   5.032   0.638   1.458
 5396SOL     OW17086   5.537   4.795   1.546
 5396SOL    HW117087   5.450   4.838   1.572
 5396SOL    HW217088   5.558   4.818   1.451
 5397SOL     OW17089   0.254   1.775   1.426
 5397SOL    HW117090   0.272   1.812   1.517
 5397SOL    HW217091   0.334   1.724   1.395
 5398SOL     OW17092   3.251   1.940   4.336
 5398SOL    HW117093   3.203   1.998   4.270
 5398SOL    HW217094   3.344   1.923   4.302
 5399SOL     OW17095   2.557   6.586   6.188
 5399SOL    HW117096   2.549   6.610   6.285
 5399SOL    HW217097   2.550   6.669   6.132
 5400SOL     OW17098   3.312   4.050   0.049
 5400SOL    HW117099   3.395   4.075   7.018
 5400SOL    HW217100   3.336   3.992   0.127
 5401SOL     OW17101   5.833   4.153   2.137
 5401SOL    HW117102   5.827   4.053   2.143
 5401SOL    HW217103   5.887   4.179   2.058
 5402SOL     OW17104   3.561   6.136   0.937
 5402SOL    HW117105   3.468   6.124   0.972
 5402SOL    HW217106   3.559   6.198   0.858
 5403SOL     OW17107   5.175   3.353   6.067
 5403SOL    HW117108   5.185   3.430   6.130
 5403SOL    HW217109   5.099   3.296   6.095
 5404SOL     OW17110   0.827   0.824   1.958
 5404SOL    HW117111   0.877   0.792   2.038
 5404SOL    HW217112   0.761   0.894   1.985
 5405SOL     OW17113   5.912   4.875   0.011
 5405SOL    HW117114   5.816   4.846   0.011
 5405SOL    HW217115   5.923   4.954   0.071
 5406SOL     OW17116   2.121   0.727   5.323
 5406SOL    HW117117   2.044   0.706   5.383
 5406SOL    HW217118   2.117   0.823   5.296
 5407SOL     OW17119   3.336   1.875   0.957
 5407SOL    HW117120   3.326   1.955   1.016
 5407SOL    HW217121   3.403   1.895   0.886
 5408SOL     OW17122   4.146   0.570   4.825
 5408SOL    HW117123   4.187   0.489   4.782
 5408SOL    HW217124   4.050   0.552   4.846
 5409SOL     OW17125   6.524   1.779   3.167
 5409SOL    HW117126   6.552   1.818   3.080
 5409SOL    HW217127   6.595   1.717   3.201
 5410SOL     OW17128   0.757   2.123   6.381
 5410SOL    HW117129   0.789   2.111   6.287
 5410SOL    HW217130   0.665   2.084   6.389
 5411SOL     OW17131   5.624   5.148   6.444
 5411SOL    HW117132   5.557   5.219   6.421
 5411SOL    HW217133   5.672   5.173   6.528
 5412SOL     OW17134   2.788   1.279   6.888
 5412SOL    HW117135   2.805   1.377   6.874
 5412SOL    HW217136   2.807   1.230   6.803
 5413SOL     OW17137   0.700   0.503   6.713
 5413SOL    HW117138   0.604   0.478   6.727
 5413SOL    HW217139   0.742   0.441   6.647
 5414SOL     OW17140   6.312   4.492   4.705
 5414SOL    HW117141   6.235   4.439   4.669
 5414SOL    HW217142   6.377   4.430   4.749
 5415SOL     OW17143   2.530   6.768   1.278
 5415SOL    HW117144   2.467   6.760   1.355
 5415SOL    HW217145   2.481   6.753   1.192
 5416SOL     OW17146   2.838   4.871   5.136
 5416SOL    HW117147   2.833   4.774   5.110
 5416SOL    HW217148   2.796   4.927   5.065
 5417SOL     OW17149   4.294   6.687   4.971
 5417SOL    HW117150   4.238   6.714   4.893
 5417SOL    HW217151   4.248   6.613   5.021
 5418SOL     OW17152   5.305   6.561   4.832
 5418SOL    HW117153   5.273   6.588   4.922
 5418SOL    HW217154   5.368   6.484   4.840
 5419SOL     OW17155   3.392   5.850   0.981
 5419SOL    HW117156   3.489   5.829   0.989
 5419SOL    HW217157   3.341   5.797   1.050
 5420SOL     OW17158   2.011   2.015   1.761
 5420SOL    HW117159   2.106   2.015   1.793
 5420SOL    HW217160   2.000   2.085   1.691
 5421SOL     OW17161   3.159   5.170   1.938
 5421SOL    HW117162   3.097   5.093   1.924
 5421SOL    HW217163   3.249   5.136   1.967
 5422SOL     OW17164   0.493   4.440   4.085
 5422SOL    HW117165   0.533   4.382   4.156
 5422SOL    HW217166   0.523   4.408   3.995
 5423SOL     OW17167   5.056   4.996   0.120
 5423SOL    HW117168   5.030   5.092   0.119
 5423SOL    HW217169   5.141   4.985   0.172
 5424SOL     OW17170   5.629   4.172   4.169
 5424SOL    HW117171   5.718   4.125   4.169
 5424SOL    HW217172   5.556   4.104   4.177
 5425SOL     OW17173   5.598   1.993   4.969
 5425SOL    HW117174   5.566   2.049   4.893
 5425SOL    HW217175   5.522   1.938   5.005
 5426SOL     OW17176   5.902   5.942   2.830
 5426SOL    HW117177   5.822   5.941   2.889
 5426SOL    HW217178   5.962   6.018   2.855
 5427SOL     OW17179   5.024   3.356   0.382
 5427SOL    HW117180   4.932   3.337   0.417
 5427SOL    HW217181   5.081   3.391   0.456
 5428SOL     OW17182   5.575   6.911   1.701
 5428SOL    HW117183   5.514   6.841   1.738
 5428SOL    HW217184   5.535   7.001   1.715
 5429SOL     OW17185   2.036   0.388   5.875
 5429SOL    HW117186   2.040   0.471   5.930
 5429SOL    HW217187   2.036   0.412   5.778
 5430SOL     OW17188   1.928   2.757   5.540
 5430SOL    HW117189   1.879   2.840   5.515
 5430SOL    HW217190   2.019   2.758   5.498
 5431SOL     OW17191   2.841   4.136   6.149
 5431SOL    HW117192   2.822   4.197   6.225
 5431SOL    HW217193   2.826   4.184   6.062
 5432SOL     OW17194   3.791   5.067   0.058
 5432SOL    HW117195   3.715   5.069   7.013
 5432SOL    HW217196   3.853   4.991   0.035
 5433SOL     OW17197   0.751   1.015   2.285
 5433SOL    HW117198   0.730   0.957   2.364
 5433SOL    HW217199   0.830   1.072   2.306
 5434SOL     OW17200   4.182   0.805   4.661
 5434SOL    HW117201   4.256   0.786   4.597
 5434SOL    HW217202   4.155   0.720   4.707
 5435SOL     OW17203   6.706   3.005   0.452
 5435SOL    HW117204   6.761   3.069   0.399
 5435SOL    HW217205   6.610   3.028   0.444
 5436SOL     OW17206   5.577   4.610   3.519
 5436SOL    HW117207   5.633   4.642   3.442
 5436SOL    HW217208   5.560   4.686   3.582
 5437SOL     OW17209   3.150   4.949   4.857
 5437SOL    HW117210   3.072   4.910   4.809
 5437SOL    HW217211   3.128   5.041   4.888
 5438SOL     OW17212   6.057   4.227   2.308
 5438SOL    HW117213   6.151   4.199   2.326
 5438SOL    HW217214   6.008   4.151   2.264
 5439SOL     OW17215   0.507   3.117   0.200
 5439SOL    HW117216   0.442   3.153   0.133
 5439SOL    HW217217   0.479   3.143   0.292
 5440SOL     OW17218   6.650   6.782   3.525
 5440SOL    HW117219   6.733   6.763   3.577
 5440SOL    HW217220   6.592   6.701   3.525
 5441SOL     OW17221   4.920   3.429   3.787
 5441SOL    HW117222   4.895   3.525   3.798
 5441SOL    HW217223   4.891   3.398   3.696
 5442SOL     OW17224   3.547   0.187   3.030
 5442SOL    HW117225   3.616   0.212   2.961
 5442SOL    HW217226   3.588   0.193   3.121
 5443SOL     OW17227   3.958   5.882   4.020
 5443SOL    HW117228   3.944   5.888   3.921
 5443SOL    HW217229   3.889   5.938   4.067
 5444SOL     OW17230   0.375   0.655   3.475
 5444SOL    HW117231   0.345   0.650   3.570
 5444SOL    HW217232   0.474   0.667   3.472
 5445SOL     OW17233   6.044   4.540   3.804
 5445SOL    HW117234   5.951   4.577   3.799
 5445SOL    HW217235   6.107   4.612   3.833
 5446SOL     OW17236   5.794   5.735   4.301
 5446SOL    HW117237   5.842   5.823   4.295
 5446SOL    HW217238   5.859   5.663   4.322
 5447SOL     OW17239   1.506   1.366   0.289
 5447SOL    HW117240   1.464   1.316   0.364
 5447SOL    HW217241   1.464   1.338   0.202
 5448SOL     OW17242   4.450   4.867   3.930
 5448SOL    HW117243   4.401   4.782   3.951
 5448SOL    HW217244   4.500   4.856   3.845
 5449SOL     OW17245   2.040   1.546   0.535
 5449SOL    HW117246   2.130   1.588   0.552
 5449SOL    HW217247   2.043   1.450   0.561
 5450SOL     OW17248   3.462   0.413   1.188
 5450SOL    HW117249   3.559   0.407   1.167
 5450SOL    HW217250   3.418   0.479   1.127
 5451SOL     OW17251   1.973   6.201   3.570
 5451SOL    HW117252   1.881   6.215   3.605
 5451SOL    HW217253   1.993   6.268   3.499
 5452SOL     OW17254   2.428   4.335   0.968
 5452SOL    HW117255   2.356   4.346   0.900
 5452SOL    HW217256   2.389   4.302   1.054
 5453SOL     OW17257   5.433   4.150   2.286
 5453SOL    HW117258   5.499   4.189   2.222
 5453SOL    HW217259   5.376   4.223   2.324
 5454SOL     OW17260   5.380   5.800   0.155
 5454SOL    HW117261   5.447   5.842   0.094
 5454SOL    HW217262   5.404   5.819   0.250
 5455SOL     OW17263   0.146   2.576   3.529
 5455SOL    HW117264   0.222   2.633   3.558
 5455SOL    HW217265   0.076   2.575   3.600
 5456SOL     OW17266   3.320   1.421   6.654
 5456SOL    HW117267   3.338   1.457   6.745
 5456SOL    HW217268   3.359   1.329   6.646
 5457SOL     OW17269   6.506   1.908   0.978
 5457SOL    HW117270   6.487   1.832   0.916
 5457SOL    HW217271   6.568   1.878   1.050
 5458SOL     OW17272   6.766   5.297   0.222
 5458SOL    HW117273   6.861   5.275   0.199
 5458SOL    HW217274   6.709   5.285   0.141
 5459SOL     OW17275   2.670   4.476   5.765
 5459SOL    HW117276   2.755   4.423   5.771
 5459SOL    HW217277   2.634   4.472   5.672
 5460SOL     OW17278   3.058   0.352   2.653
 5460SOL    HW117279   3.047   0.256   2.627
 5460SOL    HW217280   3.156   0.374   2.657
 5461SOL     OW17281   0.478   6.727   4.635
 5461SOL    HW117282   0.427   6.643   4.616
 5461SOL    HW217283   0.505   6.770   4.548
 5462SOL     OW17284   5.615   6.353   0.224
 5462SOL    HW117285   5.647   6.367   0.130
 5462SOL    HW217286   5.692   6.325   0.281
 5463SOL     OW17287   0.385   1.900   6.991
 5463SOL    HW117288   0.323   1.823   6.979
 5463SOL    HW217289   0.393   1.922   0.069
 5464SOL     OW17290   5.985   6.806   4.944
 5464SOL    HW117291   5.892   6.788   4.977
 5464SOL    HW217292   5.992   6.783   4.847
 5465SOL     OW17293   5.896   0.332   4.003
 5465SOL    HW117294   5.937   0.241   3.996
 5465SOL    HW217295   5.892   0.360   4.099
 5466SOL     OW17296   5.168   2.715   5.850
 5466SOL    HW117297   5.158   2.788   5.918
 5466SOL    HW217298   5.095   2.648   5.862
 5467SOL     OW17299   6.453   3.674   3.297
 5467SOL    HW117300   6.413   3.735   3.364
 5467SOL    HW217301   6.521   3.616   3.341
 5468SOL     OW17302   6.394   2.217   5.286
 5468SOL    HW117303   6.433   2.265   5.365
 5468SOL    HW217304   6.369   2.284   5.216
 5469SOL     OW17305   3.075   6.308   5.441
 5469SOL    HW117306   3.121   6.301   5.352
 5469SOL    HW217307   3.039   6.219   5.467
 5470SOL     OW17308   3.429   5.478   3.660
 5470SOL    HW117309   3.506   5.500   3.601
 5470SOL    HW217310   3.369   5.559   3.668
 5471SOL     OW17311   6.786   0.863   3.171
 5471SOL    HW117312   6.879   0.863   3.209
 5471SOL    HW217313   6.780   0.932   3.099
 5472SOL     OW17314   2.624   3.767   6.194
 5472SOL    HW117315   2.631   3.667   6.205
 5472SOL    HW217316   2.714   3.808   6.208
 5473SOL     OW17317   2.065   3.071   0.948
 5473SOL    HW117318   2.142   3.011   0.970
 5473SOL    HW217319   1.982   3.037   0.992
 5474SOL     OW17320   1.145   4.286   4.739
 5474SOL    HW117321   1.172   4.227   4.663
 5474SOL    HW217322   1.061   4.251   4.780
 5475SOL     OW17323   1.645   2.288   1.008
 5475SOL    HW117324   1.688   2.204   1.041
 5475SOL    HW217325   1.558   2.266   0.965
 5476SOL     OW17326   2.236   4.710   4.966
 5476SOL    HW117327   2.278   4.622   4.947
 5476SOL    HW217328   2.138   4.697   4.983
 5477SOL     OW17329   2.007   4.256   2.638
 5477SOL    HW117330   1.979   4.202   2.559
 5477SOL    HW217331   1.949   4.234   2.716
 5478SOL     OW17332   3.905   0.144   5.623
 5478SOL    HW117333   3.932   0.062   5.674
 5478SOL    HW217334   3.960   0.222   5.653
 5479SOL     OW17335   5.656   2.230   5.278
 5479SOL    HW117336   5.711   2.266   5.353
 5479SOL    HW217337   5.694   2.142   5.249
 5480SOL     OW17338   5.600   5.979   4.572
 5480SOL    HW117339   5.626   5.883   4.583
 5480SOL    HW217340   5.571   5.995   4.478
 5481SOL     OW17341   4.636   1.186   4.375
 5481SOL    HW117342   4.722   1.222   4.412
 5481SOL    HW217343   4.564   1.197   4.443
 5482SOL     OW17344   3.555   3.539   2.137
 5482SOL    HW117345   3.614   3.466   2.102
 5482SOL    HW217346   3.495   3.502   2.208
 5483SOL     OW17347   0.475   1.919   5.113
 5483SOL    HW117348   0.393   1.863   5.112
 5483SOL    HW217349   0.544   1.876   5.172
 5484SOL     OW17350   5.046   0.803   3.574
 5484SOL    HW117351   5.017   0.723   3.521
 5484SOL    HW217352   5.139   0.789   3.607
 5485SOL     OW17353   3.587   6.961   5.587
 5485SOL    HW117354   3.544   6.871   5.583
 5485SOL    HW217355   3.665   6.963   5.524
 5486SOL     OW17356   1.728   5.186   5.373
 5486SOL    HW117357   1.771   5.276   5.363
 5486SOL    HW217358   1.785   5.118   5.326
 5487SOL     OW17359   5.017   3.147   6.128
 5487SOL    HW117360   5.020   3.104   6.219
 5487SOL    HW217361   4.950   3.222   6.129
 5488SOL     OW17362   5.721   0.530   1.183
 5488SOL    HW117363   5.803   0.523   1.127
 5488SOL    HW217364   5.700   0.626   1.201
 5489SOL     OW17365   1.613   4.484   1.383
 5489SOL    HW117366   1.603   4.486   1.283
 5489SOL    HW217367   1.573   4.567   1.422
 5490SOL     OW17368   3.487   0.034   0.017
 5490SOL    HW117369   3.471   6.958   0.043
 5490SOL    HW217370   3.424   0.093   0.066
 5491SOL     OW17371   2.212   3.809   0.681
 5491SOL    HW117372   2.219   3.890   0.624
 5491SOL    HW217373   2.256   3.731   0.635
 5492SOL     OW17374   0.472   2.071   6.114
 5492SOL    HW117375   0.426   2.076   6.025
 5492SOL    HW217376   0.537   1.994   6.114
 5493SOL     OW17377   4.018   3.929   4.541
 5493SOL    HW117378   4.018   3.983   4.624
 5493SOL    HW217379   3.971   3.980   4.468
 5494SOL     OW17380   6.519   2.536   5.868
 5494SOL    HW117381   6.587   2.551   5.941
 5494SOL    HW217382   6.507   2.438   5.854
 5495SOL     OW17383   3.785   1.719   1.108
 5495SOL    HW117384   3.707   1.731   1.170
 5495SOL    HW217385   3.847   1.797   1.117
 5496SOL     OW17386   2.744   0.192   3.258
 5496SOL    HW117387   2.747   0.103   3.212
 5496SOL    HW217388   2.806   0.255   3.211
 5497SOL     OW17389   0.575   2.267   3.960
 5497SOL    HW117390   0.659   2.275   3.908
 5497SOL    HW217391   0.555   2.354   4.006
 5498SOL     OW17392   5.987   6.415   0.799
 5498SOL    HW117393   5.921   6.464   0.744
 5498SOL    HW217394   6.002   6.464   0.885
 5499SOL     OW17395   0.198   0.795   4.892
 5499SOL    HW117396   0.205   0.875   4.952
 5499SOL    HW217397   0.202   0.825   4.797
 5500SOL     OW17398   1.573   0.725   0.378
 5500SOL    HW117399   1.484   0.688   0.402
 5500SOL    HW217400   1.638   0.705   0.452
 5501SOL     OW17401   3.809   6.562   0.461
 5501SOL    HW117402   3.762   6.496   0.403
 5501SOL    HW217403   3.890   6.520   0.501
 5502SOL     OW17404   5.691   3.682   0.326
 5502SOL    HW117405   5.787   3.710   0.318
 5502SOL    HW217406   5.667   3.622   0.249
 5503SOL     OW17407   0.207   5.404   2.629
 5503SOL    HW117408   0.189   5.311   2.662
 5503SOL    HW217409   0.189   5.409   2.531
 5504SOL     OW17410   3.989   0.872   5.356
 5504SOL    HW117411   3.978   0.782   5.399
 5504SOL    HW217412   3.949   0.942   5.415
 5505SOL     OW17413   1.714   5.406   4.031
 5505SOL    HW117414   1.713   5.371   3.937
 5505SOL    HW217415   1.622   5.435   4.058
 5506SOL     OW17416   0.923   2.117   6.154
 5506SOL    HW117417   0.928   2.179   6.075
 5506SOL    HW217418   0.988   2.042   6.141
 5507SOL     OW17419   2.735   0.234   3.739
 5507SOL    HW117420   2.716   0.330   3.759
 5507SOL    HW217421   2.682   0.176   3.802
 5508SOL     OW17422   0.935   0.349   6.248
 5508SOL    HW117423   0.876   0.275   6.216
 5508SOL    HW217424   0.917   0.431   6.193
 5509SOL     OW17425   0.638   6.544   0.056
 5509SOL    HW117426   0.655   6.500   0.144
 5509SOL    HW217427   0.721   6.540   7.019
 5510SOL     OW17428   5.536   5.396   0.871
 5510SOL    HW117429   5.529   5.350   0.960
 5510SOL    HW217430   5.625   5.442   0.864
 5511SOL     OW17431   2.100   1.245   3.840
 5511SOL    HW117432   2.113   1.231   3.742
 5511SOL    HW217433   2.166   1.189   3.890
 5512SOL     OW17434   5.889   1.898   1.322
 5512SOL    HW117435   5.875   1.805   1.356
 5512SOL    HW217436   5.982   1.928   1.346
 5513SOL     OW17437   4.345   5.005   6.876
 5513SOL    HW117438   4.387   5.089   6.841
 5513SOL    HW217439   4.268   5.028   6.936
 5514SOL     OW17440   3.953   6.775   4.009
 5514SOL    HW117441   3.883   6.845   4.000
 5514SOL    HW217442   3.977   6.764   4.105
 5515SOL     OW17443   0.444   5.037   1.169
 5515SOL    HW117444   0.441   4.941   1.142
 5515SOL    HW217445   0.466   5.094   1.090
 5516SOL     OW17446   1.843   3.965   6.748
 5516SOL    HW117447   1.936   3.963   6.785
 5516SOL    HW217448   1.814   3.872   6.726
 5517SOL     OW17449   1.778   3.426   2.176
 5517SOL    HW117450   1.783   3.460   2.083
 5517SOL    HW217451   1.870   3.426   2.216
 5518SOL     OW17452   6.503   6.052   6.267
 5518SOL    HW117453   6.514   5.961   6.228
 5518SOL    HW217454   6.412   6.087   6.244
 5519SOL     OW17455   5.689   3.245   3.025
 5519SOL    HW117456   5.649   3.154   3.013
 5519SOL    HW217457   5.735   3.272   2.940
 5520SOL     OW17458   5.787   6.132   1.770
 5520SOL    HW117459   5.758   6.207   1.710
 5520SOL    HW217460   5.799   6.167   1.863
 5521SOL     OW17461   5.181   0.020   1.427
 5521SOL    HW117462   5.158   0.081   1.504
 5521SOL    HW217463   5.124   6.958   1.431
 5522SOL     OW17464   0.157   5.549   0.142
 5522SOL    HW117465   0.086   5.551   0.072
 5522SOL    HW217466   0.247   5.547   0.099
 5523SOL     OW17467   3.216   0.090   1.730
 5523SOL    HW117468   3.315   0.084   1.721
 5523SOL    HW217469   3.187   0.186   1.722
 5524SOL     OW17470   5.528   5.692   5.348
 5524SOL    HW117471   5.513   5.748   5.430
 5524SOL    HW217472   5.598   5.623   5.367
 5525SOL     OW17473   0.088   2.273   0.672
 5525SOL    HW117474   0.043   2.343   0.726
 5525SOL    HW217475   0.063   2.182   0.707
 5526SOL     OW17476   4.862   5.071   4.180
 5526SOL    HW117477   4.911   5.081   4.266
 5526SOL    HW217478   4.813   4.984   4.178
 5527SOL     OW17479   5.445   3.752   3.724
 5527SOL    HW117480   5.441   3.663   3.769
 5527SOL    HW217481   5.532   3.762   3.677
 5528SOL     OW17482   0.886   1.090   6.726
 5528SOL    HW117483   0.959   1.046   6.780
 5528SOL    HW217484   0.870   1.036   6.643
 5529SOL     OW17485   2.468   0.328   2.909
 5529SOL    HW117486   2.529   0.386   2.855
 5529SOL    HW217487   2.464   0.363   3.003
 5530SOL     OW17488   5.737   2.069   2.029
 5530SOL    HW117489   5.765   1.991   1.973
 5530SOL    HW217490   5.783   2.152   1.995
 5531SOL     OW17491   3.060   3.053   2.269
 5531SOL    HW117492   3.132   3.014   2.212
 5531SOL    HW217493   3.026   2.983   2.332
 5532SOL     OW17494   0.973   2.634   0.520
 5532SOL    HW117495   0.913   2.580   0.461
 5532SOL    HW217496   0.938   2.728   0.526
 5533SOL     OW17497   3.734   1.383   3.169
 5533SOL    HW117498   3.677   1.328   3.230
 5533SOL    HW217499   3.830   1.371   3.194
 5534SOL     OW17500   0.678   1.779   5.876
 5534SOL    HW117501   0.608   1.810   5.812
 5534SOL    HW217502   0.678   1.839   5.957
 5535SOL     OW17503   0.106   2.947   3.398
 5535SOL    HW117504   0.107   2.868   3.337
 5535SOL    HW217505   0.012   2.977   3.413
 5536SOL     OW17506   2.993   1.491   4.332
 5536SOL    HW117507   3.041   1.575   4.305
 5536SOL    HW217508   3.055   1.413   4.325
 5537SOL     OW17509   3.006   0.822   2.277
 5537SOL    HW117510   3.056   0.806   2.192
 5537SOL    HW217511   2.957   0.739   2.304
 5538SOL     OW17512   2.440   6.430   5.339
 5538SOL    HW117513   2.515   6.496   5.333
 5538SOL    HW217514   2.458   6.353   5.278
 5539SOL     OW17515   1.570   2.993   1.107
 5539SOL    HW117516   1.561   2.941   1.023
 5539SOL    HW217517   1.504   3.068   1.108
 5540SOL     OW17518   5.817   3.982   3.432
 5540SOL    HW117519   5.910   4.017   3.444
 5540SOL    HW217520   5.795   3.980   3.334
 5541SOL     OW17521   5.997   0.172   6.173
 5541SOL    HW117522   6.065   0.244   6.167
 5541SOL    HW217523   5.936   0.190   6.251
 5542SOL     OW17524   5.343   4.212   6.165
 5542SOL    HW117525   5.313   4.199   6.070
 5542SOL    HW217526   5.273   4.262   6.216
 5543SOL     OW17527   3.671   4.971   5.985
 5543SOL    HW117528   3.597   5.032   5.955
 5543SOL    HW217529   3.758   5.005   5.950
 5544SOL     OW17530   5.770   5.887   6.075
 5544SOL    HW117531   5.864   5.910   6.051
 5544SOL    HW217532   5.729   5.962   6.126
 5545SOL     OW17533   3.782   1.737   1.819
 5545SOL    HW117534   3.765   1.759   1.915
 5545SOL    HW217535   3.741   1.808   1.761
 5546SOL     OW17536   1.088   5.283   4.684
 5546SOL    HW117537   1.178   5.247   4.711
 5546SOL    HW217538   1.023   5.207   4.675
 5547SOL     OW17539   2.698   0.336   4.794
 5547SOL    HW117540   2.673   0.241   4.776
 5547SOL    HW217541   2.640   0.374   4.866
 5548SOL     OW17542   5.533   3.489   5.836
 5548SOL    HW117543   5.568   3.451   5.922
 5548SOL    HW217544   5.433   3.484   5.836
 5549SOL     OW17545   4.080   3.517   6.849
 5549SOL    HW117546   4.148   3.588   6.832
 5549SOL    HW217547   4.116   3.429   6.817
 5550SOL     OW17548   2.338   4.588   2.059
 5550SOL    HW117549   2.250   4.554   2.024
 5550SOL    HW217550   2.405   4.585   1.985
 5551SOL     OW17551   2.165   0.153   3.415
 5551SOL    HW117552   2.154   0.194   3.505
 5551SOL    HW217553   2.103   0.074   3.406
 5552SOL     OW17554   0.273   0.547   0.022
 5552SOL    HW117555   0.221   0.543   0.107
 5552SOL    HW217556   0.260   0.637   6.998
 5553SOL     OW17557   4.935   6.038   6.978
 5553SOL    HW117558   5.033   6.055   6.970
 5553SOL    HW217559   4.919   5.941   6.994
 5554SOL     OW17560   4.275   1.816   5.433
 5554SOL    HW117561   4.334   1.890   5.402
 5554SOL    HW217562   4.302   1.731   5.387
 5555SOL     OW17563   2.101   4.521   3.965
 5555SOL    HW117564   2.121   4.435   4.013
 5555SOL    HW217565   2.155   4.525   3.881
 5556SOL     OW17566   6.357   1.773   3.592
 5556SOL    HW117567   6.370   1.797   3.496
 5556SOL    HW217568   6.284   1.704   3.600
 5557SOL     OW17569   3.664   6.708   2.902
 5557SOL    HW117570   3.679   6.616   2.938
 5557SOL    HW217571   3.601   6.704   2.825
 5558SOL     OW17572   4.598   3.231   6.217
 5558SOL    HW117573   4.552   3.241   6.129
 5558SOL    HW217574   4.697   3.222   6.203
 5559SOL     OW17575   2.608   0.593   1.993
 5559SOL    HW117576   2.646   0.662   1.930
 5559SOL    HW217577   2.683   0.545   2.038
 5560SOL     OW17578   1.425   6.763   3.571
 5560SOL    HW117579   1.483   6.687   3.540
 5560SOL    HW217580   1.481   6.826   3.626
 5561SOL     OW17581   1.633   2.427   4.225
 5561SOL    HW117582   1.637   2.327   4.231
 5561SOL    HW217583   1.558   2.454   4.164
 5562SOL     OW17584   2.874   2.023   6.907
 5562SOL    HW117585   2.871   1.996   7.003
 5562SOL    HW217586   2.827   2.110   6.895
 5563SOL     OW17587   4.109   5.494   2.556
 5563SOL    HW117588   4.102   5.426   2.629
 5563SOL    HW217589   4.203   5.529   2.552
 5564SOL     OW17590   4.905   1.013   2.101
 5564SOL    HW117591   4.820   1.063   2.087
 5564SOL    HW217592   4.958   1.013   2.016
 5565SOL     OW17593   4.602   1.631   6.533
 5565SOL    HW117594   4.551   1.634   6.447
 5565SOL    HW217595   4.617   1.536   6.559
 5566SOL     OW17596   1.845   5.704   0.102
 5566SOL    HW117597   1.799   5.781   0.058
 5566SOL    HW217598   1.920   5.738   0.159
 5567SOL     OW17599   0.379   4.336   1.664
 5567SOL    HW117600   0.416   4.419   1.706
 5567SOL    HW217601   0.412   4.256   1.713
 5568SOL     OW17602   3.967   2.203   3.193
 5568SOL    HW117603   3.943   2.299   3.181
 5568SOL    HW217604   3.921   2.148   3.123
 5569SOL     OW17605   2.164   1.362   2.662
 5569SOL    HW117606   2.161   1.305   2.744
 5569SOL    HW217607   2.165   1.459   2.688
 5570SOL     OW17608   5.655   4.587   5.105
 5570SOL    HW117609   5.683   4.550   5.016
 5570SOL    HW217610   5.567   4.549   5.131
 5571SOL     OW17611   0.562   5.939   0.755
 5571SOL    HW117612   0.489   5.966   0.692
 5571SOL    HW217613   0.546   5.982   0.844
 5572SOL     OW17614   1.362   2.377   4.924
 5572SOL    HW117615   1.426   2.302   4.942
 5572SOL    HW217616   1.288   2.373   4.991
 5573SOL     OW17617   1.652   3.389   6.488
 5573SOL    HW117618   1.672   3.403   6.391
 5573SOL    HW217619   1.671   3.294   6.513
 5574SOL     OW17620   6.060   1.958   3.774
 5574SOL    HW117621   6.038   1.890   3.844
 5574SOL    HW217622   6.158   1.959   3.758
 5575SOL     OW17623   6.705   1.361   1.226
 5575SOL    HW117624   6.798   1.326   1.222
 5575SOL    HW217625   6.683   1.388   1.320
 5576SOL     OW17626   1.182   6.276   1.930
 5576SOL    HW117627   1.264   6.236   1.889
 5576SOL    HW217628   1.166   6.366   1.891
 5577SOL     OW17629   2.824   2.441   5.491
 5577SOL    HW117630   2.877   2.490   5.560
 5577SOL    HW217631   2.792   2.505   5.421
 5578SOL     OW17632   3.948   4.471   0.403
 5578SOL    HW117633   3.998   4.426   0.329
 5578SOL    HW217634   3.852   4.483   0.375
 5579SOL     OW17635   0.026   3.570   6.453
 5579SOL    HW117636   0.095   3.525   6.511
 5579SOL    HW217637   7.004   3.502   6.392
 5580SOL     OW17638   4.720   3.243   5.906
 5580SOL    HW117639   4.701   3.301   5.828
 5580SOL    HW217640   4.814   3.210   5.903
 5581SOL     OW17641   2.844   6.469   1.914
 5581SOL    HW117642   2.801   6.557   1.896
 5581SOL    HW217643   2.937   6.469   1.877
 5582SOL     OW17644   3.865   3.347   3.789
 5582SOL    HW117645   3.937   3.370   3.854
 5582SOL    HW217646   3.810   3.429   3.769
 5583SOL     OW17647   4.141   0.237   2.962
 5583SOL    HW117648   4.213   0.224   3.030
 5583SOL    HW217649   4.082   0.312   2.990
 5584SOL     OW17650   5.756   4.297   3.938
 5584SOL    HW117651   5.833   4.251   3.893
 5584SOL    HW217652   5.705   4.231   3.993
 5585SOL     OW17653   4.343   6.683   4.189
 5585SOL    HW117654   4.412   6.753   4.207
 5585SOL    HW217655   4.378   6.594   4.217
 5586SOL     OW17656   0.465   2.190   6.692
 5586SOL    HW117657   0.368   2.169   6.705
 5586SOL    HW217658   0.477   2.289   6.683
 5587SOL     OW17659   4.230   6.075   2.412
 5587SOL    HW117660   4.266   6.161   2.376
 5587SOL    HW217661   4.140   6.057   2.370
 5588SOL     OW17662   1.666   0.202   3.100
 5588SOL    HW117663   1.640   0.106   3.104
 5588SOL    HW217664   1.584   0.259   3.103
 5589SOL     OW17665   5.651   2.052   6.383
 5589SOL    HW117666   5.625   1.962   6.420
 5589SOL    HW217667   5.740   2.079   6.421
 5590SOL     OW17668   6.643   6.164   3.117
 5590SOL    HW117669   6.691   6.149   3.203
 5590SOL    HW217670   6.555   6.208   3.135
 5591SOL     OW17671   6.221   1.018   6.517
 5591SOL    HW117672   6.228   1.100   6.460
 5591SOL    HW217673   6.125   0.993   6.528
 5592SOL     OW17674   1.016   4.258   2.434
 5592SOL    HW117675   1.031   4.228   2.340
 5592SOL    HW217676   1.079   4.210   2.495
 5593SOL     OW17677   6.991   2.439   6.126
 5593SOL    HW117678   6.937   2.406   6.049
 5593SOL    HW217679   0.006   2.531   6.105
 5594SOL     OW17680   2.832   0.917   6.807
 5594SOL    HW117681   2.850   0.880   6.716
 5594SOL    HW217682   2.735   0.937   6.817
 5595SOL     OW17683   6.329   0.711   5.166
 5595SOL    HW117684   6.248   0.768   5.182
 5595SOL    HW217685   6.410   0.769   5.157
 5596SOL     OW17686   5.077   0.357   2.573
 5596SOL    HW117687   5.004   0.400   2.625
 5596SOL    HW217688   5.147   0.321   2.635
 5597SOL     OW17689   6.174   1.520   5.611
 5597SOL    HW117690   6.271   1.515   5.636
 5597SOL    HW217691   6.166   1.536   5.512
 5598SOL     OW17692   5.823   2.256   4.391
 5598SOL    HW117693   5.749   2.239   4.326
 5598SOL    HW217694   5.784   2.263   4.484
 5599SOL     OW17695   6.840   3.171   2.275
 5599SOL    HW117696   6.888   3.181   2.187
 5599SOL    HW217697   6.780   3.091   2.271
 5600SOL     OW17698   2.166   0.386   2.363
 5600SOL    HW117699   2.069   0.405   2.348
 5600SOL    HW217700   2.197   0.433   2.446
 5601SOL     OW17701   3.505   1.246   6.364
 5601SOL    HW117702   3.589   1.201   6.394
 5601SOL    HW217703   3.501   1.339   6.400
 5602SOL     OW17704   0.613   0.272   2.605
 5602SOL    HW117705   0.631   0.232   2.694
 5602SOL    HW217706   0.523   0.317   2.606
 5603SOL     OW17707   5.362   2.086   6.221
 5603SOL    HW117708   5.362   1.991   6.189
 5603SOL    HW217709   5.424   2.094   6.299
 5604SOL     OW17710   0.138   2.004   5.301
 5604SOL    HW117711   0.079   2.060   5.360
 5604SOL    HW217712   0.229   1.998   5.341
 5605SOL     OW17713   2.099   0.174   4.598
 5605SOL    HW117714   2.046   0.091   4.580
 5605SOL    HW217715   2.190   0.165   4.558
 5606SOL     OW17716   5.365   0.734   0.427
 5606SOL    HW117717   5.383   0.797   0.502
 5606SOL    HW217718   5.310   0.658   0.459
 5607SOL     OW17719   5.513   1.748   4.059
 5607SOL    HW117720   5.479   1.828   4.108
 5607SOL    HW217721   5.607   1.765   4.030
 5608SOL     OW17722   5.909   1.555   2.925
 5608SOL    HW117723   5.891   1.627   2.859
 5608SOL    HW217724   5.862   1.576   3.011
 5609SOL     OW17725   4.814   5.890   0.828
 5609SOL    HW117726   4.769   5.804   0.803
 5609SOL    HW217727   4.802   5.907   0.926
 5610SOL     OW17728   5.650   4.367   1.402
 5610SOL    HW117729   5.656   4.433   1.327
 5610SOL    HW217730   5.581   4.398   1.468
 5611SOL     OW17731   0.900   4.989   2.026
 5611SOL    HW117732   0.966   5.050   2.070
 5611SOL    HW217733   0.891   4.905   2.079
 5612SOL     OW17734   3.910   3.419   0.219
 5612SOL    HW117735   3.856   3.438   0.136
 5612SOL    HW217736   4.005   3.405   0.194
 5613SOL     OW17737   5.810   4.797   5.180
 5613SOL    HW117738   5.873   4.788   5.103
 5613SOL    HW217739   5.737   4.729   5.171
 5614SOL     OW17740   5.520   3.878   4.963
 5614SOL    HW117741   5.434   3.829   4.950
 5614SOL    HW217742   5.503   3.964   5.010
 5615SOL     OW17743   6.469   1.497   3.826
 5615SOL    HW117744   6.447   1.570   3.761
 5615SOL    HW217745   6.568   1.492   3.839
 5616SOL     OW17746   2.137   3.007   4.623
 5616SOL    HW117747   2.147   3.103   4.597
 5616SOL    HW217748   2.183   2.991   4.710
 5617SOL     OW17749   1.426   3.793   5.306
 5617SOL    HW117750   1.401   3.704   5.343
 5617SOL    HW217751   1.523   3.811   5.326
 5618SOL     OW17752   6.735   4.572   3.302
 5618SOL    HW117753   6.827   4.539   3.325
 5618SOL    HW217754   6.717   4.554   3.206
 5619SOL     OW17755   3.155   3.961   3.291
 5619SOL    HW117756   3.059   3.941   3.273
 5619SOL    HW217757   3.190   3.897   3.359
 5620SOL     OW17758   4.667   3.569   6.719
 5620SOL    HW117759   4.592   3.571   6.653
 5620SOL    HW217760   4.635   3.534   6.806
 5621SOL     OW17761   1.123   3.286   6.101
 5621SOL    HW117762   1.096   3.382   6.090
 5621SOL    HW217763   1.198   3.265   6.039
 5622SOL     OW17764   5.051   6.614   5.914
 5622SOL    HW117765   5.100   6.533   5.880
 5622SOL    HW217766   5.002   6.591   5.998
 5623SOL     OW17767   4.498   6.106   5.471
 5623SOL    HW117768   4.540   6.071   5.386
 5623SOL    HW217769   4.563   6.166   5.518
 5624SOL     OW17770   0.308   5.063   3.693
 5624SOL    HW117771   0.209   5.054   3.688
 5624SOL    HW217772   0.342   5.013   3.773
 5625SOL     OW17773   0.160   5.587   5.573
 5625SOL    HW117774   0.138   5.679   5.604
 5625SOL    HW217775   0.076   5.539   5.548
 5626SOL     OW17776   2.155   5.254   3.978
 5626SOL    HW117777   2.228   5.190   4.001
 5626SOL    HW217778   2.110   5.285   4.062
 5627SOL     OW17779   7.004   5.094   6.401
 5627SOL    HW117780   6.906   5.114   6.402
 5627SOL    HW217781   0.030   5.151   6.332
 5628SOL     OW17782   2.225   2.508   1.299
 5628SOL    HW117783   2.186   2.427   1.256
 5628SOL    HW217784   2.167   2.538   1.375
 5629SOL     OW17785   5.289   3.077   2.226
 5629SOL    HW117786   5.251   3.168   2.244
 5629SOL    HW217787   5.215   3.012   2.213
 5630SOL     OW17788   1.827   4.015   6.464
 5630SOL    HW117789   1.902   4.015   6.398
 5630SOL    HW217790   1.862   3.992   6.555
 5631SOL     OW17791   5.208   1.272   1.334
 5631SOL    HW117792   5.271   1.336   1.290
 5631SOL    HW217793   5.231   1.179   1.306
 5632SOL     OW17794   3.567   1.861   5.574
 5632SOL    HW117795   3.653   1.824   5.540
 5632SOL    HW217796   3.520   1.911   5.501
 5633SOL     OW17797   6.188   4.258   4.394
 5633SOL    HW117798   6.131   4.323   4.445
 5633SOL    HW217799   6.225   4.303   4.313
 5634SOL     OW17800   2.103   4.537   4.467
 5634SOL    HW117801   2.064   4.552   4.376
 5634SOL    HW217802   2.202   4.525   4.459
 5635SOL     OW17803   1.849   6.106   6.543
 5635SOL    HW117804   1.927   6.046   6.558
 5635SOL    HW217805   1.879   6.201   6.548
 5636SOL     OW17806   5.709   6.950   5.125
 5636SOL    HW117807   5.802   6.958   5.162
 5636SOL    HW217808   5.682   6.854   5.125
 5637SOL     OW17809   3.445   6.975   3.562
 5637SOL    HW117810   3.420   6.989   3.466
 5637SOL    HW217811   3.407   6.888   3.594
 5638SOL     OW17812   6.326   4.202   0.593
 5638SOL    HW117813   6.412   4.204   0.645
 5638SOL    HW217814   6.322   4.283   0.534
 5639SOL     OW17815   2.343   0.508   1.992
 5639SOL    HW117816   2.430   0.559   1.989
 5639SOL    HW217817   2.272   0.560   1.944
 5640SOL     OW17818   2.980   0.838   2.842
 5640SOL    HW117819   3.019   0.763   2.789
 5640SOL    HW217820   3.021   0.925   2.813
 5641SOL     OW17821   0.540   4.749   5.990
 5641SOL    HW117822   0.626   4.786   6.024
 5641SOL    HW217823   0.469   4.818   5.996
 5642SOL     OW17824   0.948   5.324   5.091
 5642SOL    HW117825   0.971   5.231   5.060
 5642SOL    HW217826   0.861   5.322   5.139
 5643SOL     OW17827   3.901   1.318   4.314
 5643SOL    HW117828   3.809   1.288   4.339
 5643SOL    HW217829   3.900   1.356   4.221
 5644SOL     OW17830   3.479   0.455   4.200
 5644SOL    HW117831   3.408   0.387   4.185
 5644SOL    HW217832   3.514   0.486   4.111
 5645SOL     OW17833   5.970   4.948   2.800
 5645SOL    HW117834   5.936   4.870   2.852
 5645SOL    HW217835   6.070   4.947   2.800
 5646SOL     OW17836   0.850   5.845   3.448
 5646SOL    HW117837   0.827   5.880   3.539
 5646SOL    HW217838   0.931   5.788   3.454
 5647SOL     OW17839   5.829   6.642   0.720
 5647SOL    HW117840   5.793   6.669   0.631
 5647SOL    HW217841   5.758   6.652   0.789
 5648SOL     OW17842   1.734   1.344   3.637
 5648SOL    HW117843   1.744   1.372   3.733
 5648SOL    HW217844   1.775   1.253   3.625
 5649SOL     OW17845   6.779   0.177   5.318
 5649SOL    HW117846   6.746   0.085   5.296
 5649SOL    HW217847   6.865   0.194   5.269
 5650SOL     OW17848   1.215   5.153   0.827
 5650SOL    HW117849   1.283   5.207   0.776
 5650SOL    HW217850   1.175   5.210   0.899
 5651SOL     OW17851   0.338   1.073   1.741
 5651SOL    HW117852   0.260   1.120   1.700
 5651SOL    HW217853   0.310   0.982   1.770
 5652SOL     OW17854   6.214   0.033   2.061
 5652SOL    HW117855   6.235   6.965   2.107
 5652SOL    HW217856   6.130   0.022   2.007
 5653SOL     OW17857   0.599   6.015   6.590
 5653SOL    HW117858   0.606   6.105   6.547
 5653SOL    HW217859   0.506   5.980   6.579
 5654SOL     OW17860   6.445   6.768   5.549
 5654SOL    HW117861   6.403   6.783   5.459
 5654SOL    HW217862   6.458   6.856   5.595
 5655SOL     OW17863   2.001   3.922   5.278
 5655SOL    HW117864   2.083   3.892   5.327
 5655SOL    HW217865   2.004   4.022   5.265
 5656SOL     OW17866   0.352   3.455   0.635
 5656SOL    HW117867   0.392   3.372   0.673
 5656SOL    HW217868   0.335   3.442   0.537
 5657SOL     OW17869   5.494   1.118   0.168
 5657SOL    HW117870   5.429   1.047   0.142
 5657SOL    HW217871   5.505   1.120   0.267
 5658SOL     OW17872   3.419   5.104   5.637
 5658SOL    HW117873   3.402   5.019   5.587
 5658SOL    HW217874   3.360   5.108   5.718
 5659SOL     OW17875   4.128   3.648   3.700
 5659SOL    HW117876   4.152   3.577   3.766
 5659SOL    HW217877   4.111   3.607   3.611
 5660SOL     OW17878   5.501   0.361   5.620
 5660SOL    HW117879   5.578   0.358   5.684
 5660SOL    HW217880   5.440   0.435   5.645
 5661SOL     OW17881   1.384   4.420   4.732
 5661SOL    HW117882   1.374   4.518   4.750
 5661SOL    HW217883   1.298   4.373   4.754
 5662SOL     OW17884   3.165   5.418   3.545
 5662SOL    HW117885   3.245   5.430   3.603
 5662SOL    HW217886   3.194   5.414   3.449
 5663SOL     OW17887   2.076   3.076   6.679
 5663SOL    HW117888   2.088   3.023   6.594
 5663SOL    HW217889   2.132   3.036   6.751
 5664SOL     OW17890   6.479   3.881   4.355
 5664SOL    HW117891   6.523   3.814   4.414
 5664SOL    HW217892   6.541   3.959   4.341
 5665SOL     OW17893   1.612   2.264   6.995
 5665SOL    HW117894   1.519   2.235   6.970
 5665SOL    HW217895   1.647   2.204   0.048
 5666SOL     OW17896   6.081   5.619   1.461
 5666SOL    HW117897   5.992   5.574   1.465
 5666SOL    HW217898   6.100   5.662   1.549
 5667SOL     OW17899   1.011   4.810   3.833
 5667SOL    HW117900   1.059   4.752   3.900
 5667SOL    HW217901   1.070   4.825   3.754
 5668SOL     OW17902   5.406   1.866   5.090
 5668SOL    HW117903   5.457   1.815   5.160
 5668SOL    HW217904   5.337   1.806   5.050
 5669SOL     OW17905   0.762   3.019   0.239
 5669SOL    HW117906   0.669   3.051   0.222
 5669SOL    HW217907   0.761   2.920   0.251
 5670SOL     OW17908   6.200   2.663   3.830
 5670SOL    HW117909   6.239   2.752   3.853
 5670SOL    HW217910   6.269   2.607   3.785
 5671SOL     OW17911   0.585   6.126   0.157
 5671SOL    HW117912   0.500   6.130   0.105
 5671SOL    HW217913   0.660   6.100   0.096
 5672SOL     OW17914   3.892   4.884   6.484
 5672SOL    HW117915   3.960   4.908   6.552
 5672SOL    HW217916   3.849   4.966   6.448
 5673SOL     OW17917   0.871   6.678   1.916
 5673SOL    HW117918   0.796   6.739   1.888
 5673SOL    HW217919   0.893   6.615   1.841
 5674SOL     OW17920   0.118   4.761   4.810
 5674SOL    HW117921   0.118   4.848   4.762
 5674SOL    HW217922   0.027   4.719   4.803
 5675SOL     OW17923   4.365   2.169   5.633
 5675SOL    HW117924   4.270   2.155   5.659
 5675SOL    HW217925   4.417   2.199   5.713
 5676SOL     OW17926   2.210   2.752   2.467
 5676SOL    HW117927   2.135   2.727   2.527
 5676SOL    HW217928   2.295   2.714   2.503
 5677SOL     OW17929   0.078   1.196   1.984
 5677SOL    HW117930   6.998   1.182   1.979
 5677SOL    HW217931   0.104   1.275   1.928
 5678SOL     OW17932   3.671   6.471   3.027
 5678SOL    HW117933   3.640   6.378   3.007
 5678SOL    HW217934   3.717   6.472   3.116
 5679SOL     OW17935   1.085   0.996   4.123
 5679SOL    HW117936   1.131   0.966   4.207
 5679SOL    HW217937   1.088   0.921   4.056
 5680SOL     OW17938   1.221   4.997   6.925
 5680SOL    HW117939   1.182   5.089   6.925
 5680SOL    HW217940   1.189   4.948   7.006
 5681SOL     OW17941   0.380   4.460   0.511
 5681SOL    HW117942   0.342   4.485   0.600
 5681SOL    HW217943   0.435   4.536   0.476
 5682SOL     OW17944   2.509   4.399   6.194
 5682SOL    HW117945   2.554   4.486   6.171
 5682SOL    HW217946   2.425   4.418   6.244
 5683SOL     OW17947   4.081   0.621   0.002
 5683SOL    HW117948   4.146   0.694   0.023
 5683SOL    HW217949   4.108   0.538   0.051
 5684SOL     OW17950   3.092   3.039   4.951
 5684SOL    HW117951   3.023   2.973   4.978
 5684SOL    HW217952   3.166   3.040   5.018
 5685SOL     OW17953   1.663   3.205   2.489
 5685SOL    HW117954   1.717   3.145   2.431
 5685SOL    HW217955   1.570   3.169   2.498
 5686SOL     OW17956   2.728   0.433   6.137
 5686SOL    HW117957   2.632   0.460   6.128
 5686SOL    HW217958   2.767   0.419   6.045
 5687SOL     OW17959   0.423   4.510   6.091
 5687SOL    HW117960   0.405   4.418   6.054
 5687SOL    HW217961   0.484   4.559   6.029
 5688SOL     OW17962   0.295   2.547   0.248
 5688SOL    HW117963   0.202   2.512   0.233
 5688SOL    HW217964   0.339   2.494   0.321
 5689SOL     OW17965   4.556   0.742   0.901
 5689SOL    HW117966   4.542   0.660   0.845
 5689SOL    HW217967   4.574   0.714   0.996
 5690SOL     OW17968   2.687   6.131   1.177
 5690SOL    HW117969   2.772   6.100   1.135
 5690SOL    HW217970   2.624   6.054   1.186
 5691SOL     OW17971   2.767   6.711   2.348
 5691SOL    HW117972   2.865   6.727   2.358
 5691SOL    HW217973   2.738   6.637   2.408
 5692SOL     OW17974   6.126   2.909   0.267
 5692SOL    HW117975   6.096   2.979   0.331
 5692SOL    HW217976   6.154   2.828   0.318
 5693SOL     OW17977   5.649   2.319   2.662
 5693SOL    HW117978   5.574   2.363   2.613
 5693SOL    HW217979   5.612   2.262   2.736
 5694SOL     OW17980   0.850   2.179   4.021
 5694SOL    HW117981   0.896   2.120   3.954
 5694SOL    HW217982   0.919   2.221   4.080
 5695SOL     OW17983   1.057   2.591   2.958
 5695SOL    HW117984   1.008   2.579   2.872
 5695SOL    HW217985   1.036   2.681   2.996
 5696SOL     OW17986   1.499   0.914   3.157
 5696SOL    HW117987   1.469   0.866   3.074
 5696SOL    HW217988   1.431   0.900   3.229
 5697SOL     OW17989   6.022   2.162   1.363
 5697SOL    HW117990   6.098   2.098   1.348
 5697SOL    HW217991   5.964   2.164   1.282
 5698SOL     OW17992   0.658   3.349   3.090
 5698SOL    HW117993   0.647   3.362   3.188
 5698SOL    HW217994   0.720   3.419   3.053
 5699SOL     OW17995   6.693   2.561   3.025
 5699SOL    HW117996   6.699   2.652   2.984
 5699SOL    HW217997   6.603   2.551   3.069
 5700SOL     OW17998   0.038   6.679   4.513
 5700SOL    HW117999   7.004   6.634   4.585
 5700SOL    HW218000   7.005   6.679   4.428
 5701SOL     OW18001   1.331   0.666   2.929
 5701SOL    HW118002   1.382   0.674   3.015
 5701SOL    HW218003   1.393   0.678   2.852
 5702SOL     OW18004   2.152   6.227   5.329
 5702SOL    HW118005   2.106   6.145   5.362
 5702SOL    HW218006   2.198   6.272   5.405
 5703SOL     OW18007   6.645   4.693   1.583
 5703SOL    HW118008   6.593   4.640   1.650
 5703SOL    HW218009   6.739   4.706   1.615
 5704SOL     OW18010   4.206   4.961   2.385
 5704SOL    HW118011   4.110   4.941   2.365
 5704SOL    HW218012   4.240   4.896   2.453
 5705SOL     OW18013   4.811   0.861   1.361
 5705SOL    HW118014   4.765   0.776   1.387
 5705SOL    HW218015   4.783   0.885   1.268
 5706SOL     OW18016   6.591   3.331   0.584
 5706SOL    HW118017   6.688   3.355   0.587
 5706SOL    HW218018   6.551   3.365   0.499
 5707SOL     OW18019   0.087   6.887   0.684
 5707SOL    HW118020   0.070   6.874   0.586
 5707SOL    HW218021   0.053   6.808   0.734
 5708SOL     OW18022   4.937   6.100   1.144
 5708SOL    HW118023   4.918   6.178   1.083
 5708SOL    HW218024   4.853   6.049   1.159
 5709SOL     OW18025   1.504   0.180   2.604
 5709SOL    HW118026   1.582   0.129   2.641
 5709SOL    HW218027   1.475   0.250   2.670
 5710SOL     OW18028   2.530   3.003   6.668
 5710SOL    HW118029   2.567   2.913   6.648
 5710SOL    HW218030   2.474   2.999   6.751
 5711SOL     OW18031   4.728   1.373   2.917
 5711SOL    HW118032   4.721   1.314   2.998
 5711SOL    HW218033   4.804   1.437   2.928
 5712SOL     OW18034   0.909   5.984   5.998
 5712SOL    HW118035   0.854   6.006   6.078
 5712SOL    HW218036   1.000   5.955   6.027
 5713SOL     OW18037   2.801   3.057   1.726
 5713SOL    HW118038   2.772   3.120   1.653
 5713SOL    HW218039   2.755   2.969   1.713
 5714SOL     OW18040   0.612   5.409   6.739
 5714SOL    HW118041   0.526   5.391   6.787
 5714SOL    HW218042   0.652   5.495   6.772
 5715SOL     OW18043   0.908   6.667   3.210
 5715SOL    HW118044   0.894   6.584   3.265
 5715SOL    HW218045   0.859   6.659   3.124
 5716SOL     OW18046   1.440   4.073   6.791
 5716SOL    HW118047   1.447   4.062   6.691
 5716SOL    HW218048   1.508   4.015   6.835
 5717SOL     OW18049   1.886   5.904   0.937
 5717SOL    HW118050   1.961   5.838   0.934
 5717SOL    HW218051   1.800   5.856   0.957
 5718SOL     OW18052   0.852   2.499   5.690
 5718SOL    HW118053   0.821   2.573   5.630
 5718SOL    HW218054   0.947   2.517   5.718
 5719SOL     OW18055   3.330   1.715   6.442
 5719SOL    HW118056   3.419   1.760   6.433
 5719SOL    HW218057   3.262   1.782   6.472
 5720SOL     OW18058   1.394   5.167   4.208
 5720SOL    HW118059   1.428   5.074   4.194
 5720SOL    HW218060   1.297   5.164   4.230
 5721SOL     OW18061   0.263   4.079   1.316
 5721SOL    HW118062   0.276   4.020   1.237
 5721SOL    HW218063   0.182   4.049   1.367
 5722SOL     OW18064   6.409   1.024   5.382
 5722SOL    HW118065   6.458   1.095   5.433
 5722SOL    HW218066   6.311   1.042   5.386
 5723SOL     OW18067   4.888   3.437   6.945
 5723SOL    HW118068   4.970   3.446   6.887
 5723SOL    HW218069   4.810   3.412   6.888
 5724SOL     OW18070   4.732   2.783   5.054
 5724SOL    HW118071   4.717   2.803   4.957
 5724SOL    HW218072   4.766   2.864   5.100
 5725SOL     OW18073   5.594   5.702   3.731
 5725SOL    HW118074   5.607   5.650   3.646
 5725SOL    HW218075   5.583   5.799   3.709
 5726SOL     OW18076   0.244   4.666   5.029
 5726SOL    HW118077   0.188   4.686   4.948
 5726SOL    HW218078   0.311   4.739   5.042
 5727SOL     OW18079   6.893   1.827   3.941
 5727SOL    HW118080   6.991   1.810   3.927
 5727SOL    HW218081   6.865   1.789   4.029
 5728SOL     OW18082   3.996   1.139   6.455
 5728SOL    HW118083   4.012   1.085   6.371
 5728SOL    HW218084   3.898   1.159   6.463
 5729SOL     OW18085   0.806   1.430   0.233
 5729SOL    HW118086   0.873   1.366   0.195
 5729SOL    HW218087   0.796   1.508   0.171
 5730SOL     OW18088   4.528   5.111   6.304
 5730SOL    HW118089   4.524   5.099   6.205
 5730SOL    HW218090   4.516   5.207   6.327
 5731SOL     OW18091   0.948   6.664   4.105
 5731SOL    HW118092   0.949   6.712   4.017
 5731SOL    HW218093   1.010   6.586   4.101
 5732SOL     OW18094   6.615   5.020   5.043
 5732SOL    HW118095   6.681   4.975   5.102
 5732SOL    HW218096   6.534   4.963   5.033
 5733SOL     OW18097   3.753   0.062   5.058
 5733SOL    HW118098   3.777   0.054   5.155
 5733SOL    HW218099   3.704   6.998   5.030
 5734SOL     OW18100   0.957   6.250   6.135
 5734SOL    HW118101   1.046   6.223   6.097
 5734SOL    HW218102   0.917   6.172   6.184
 5735SOL     OW18103   3.966   2.212   1.881
 5735SOL    HW118104   3.989   2.308   1.862
 5735SOL    HW218105   3.867   2.201   1.880
 5736SOL     OW18106   6.164   3.875   0.259
 5736SOL    HW118107   6.259   3.863   0.287
 5736SOL    HW218108   6.155   3.853   0.162
 5737SOL     OW18109   4.699   5.517   0.500
 5737SOL    HW118110   4.667   5.587   0.436
 5737SOL    HW218111   4.753   5.449   0.450
 5738SOL     OW18112   2.821   2.677   5.937
 5738SOL    HW118113   2.896   2.744   5.936
 5738SOL    HW218114   2.734   2.725   5.942
 5739SOL     OW18115   0.818   0.012   5.624
 5739SOL    HW118116   0.737   6.978   5.648
 5739SOL    HW218117   0.892   6.970   5.598
 5740SOL     OW18118   4.253   3.643   0.774
 5740SOL    HW118119   4.192   3.565   0.760
 5740SOL    HW218120   4.229   3.689   0.859
 5741SOL     OW18121   6.474   4.253   4.765
 5741SOL    HW118122   6.394   4.202   4.734
 5741SOL    HW218123   6.555   4.195   4.759
 5742SOL     OW18124   4.539   6.787   2.505
 5742SOL    HW118125   4.447   6.810   2.474
 5742SOL    HW218126   4.533   6.722   2.581
 5743SOL     OW18127   2.752   5.614   5.148
 5743SOL    HW118128   2.751   5.694   5.089
 5743SOL    HW218129   2.846   5.590   5.170
 5744SOL     OW18130   5.049   1.593   1.937
 5744SOL    HW118131   4.986   1.596   1.860
 5744SOL    HW218132   5.017   1.655   2.009
 5745SOL     OW18133   2.079   1.470   4.119
 5745SOL    HW118134   2.135   1.530   4.063
 5745SOL    HW218135   2.084   1.377   4.084
 5746SOL     OW18136   5.097   6.870   0.916
 5746SOL    HW118137   5.078   6.950   0.973
 5746SOL    HW218138   5.066   6.788   0.962
 5747SOL     OW18139   0.613   4.370   2.651
 5747SOL    HW118140   0.638   4.283   2.695
 5747SOL    HW218141   0.527   4.403   2.689
 5748SOL     OW18142   1.419   6.253   0.819
 5748SOL    HW118143   1.418   6.352   0.805
 5748SOL    HW218144   1.466   6.209   0.743
 5749SOL     OW18145   1.277   6.081   4.263
 5749SOL    HW118146   1.207   6.152   4.269
 5749SOL    HW218147   1.307   6.071   4.168
 5750SOL     OW18148   6.729   6.445   4.606
 5750SOL    HW118149   6.818   6.443   4.652
 5750SOL    HW218150   6.741   6.473   4.511
 5751SOL     OW18151   2.554   2.381   4.338
 5751SOL    HW118152   2.507   2.431   4.265
 5751SOL    HW218153   2.488   2.331   4.393
 5752SOL     OW18154   6.471   0.392   0.415
 5752SOL    HW118155   6.522   0.324   0.469
 5752SOL    HW218156   6.439   0.465   0.475
 5753SOL     OW18157   3.507   3.298   4.482
 5753SOL    HW118158   3.412   3.329   4.475
 5753SOL    HW218159   3.568   3.374   4.461
 5754SOL     OW18160   6.889   4.739   1.714
 5754SOL    HW118161   6.878   4.838   1.724
 5754SOL    HW218162   6.984   4.718   1.689
 5755SOL     OW18163   2.330   2.737   6.083
 5755SOL    HW118164   2.246   2.700   6.042
 5755SOL    HW218165   2.384   2.783   6.012
 5756SOL     OW18166   6.114   0.315   3.091
 5756SOL    HW118167   6.152   0.232   3.049
 5756SOL    HW218168   6.100   0.300   3.189
 5757SOL     OW18169   6.975   6.800   3.433
 5757SOL    HW118170   6.926   6.862   3.493
 5757SOL    HW218171   6.928   6.711   3.431
 5758SOL     OW18172   2.581   1.007   4.672
 5758SOL    HW118173   2.547   1.069   4.742
 5758SOL    HW218174   2.533   1.025   4.586
 5759SOL     OW18175   4.840   1.550   6.815
 5759SOL    HW118176   4.749   1.591   6.819
 5759SOL    HW218177   4.908   1.620   6.835
 5760SOL     OW18178   0.169   4.245   0.549
 5760SOL    HW118179   0.155   4.258   0.450
 5760SOL    HW218180   0.266   4.253   0.570
 5761SOL     OW18181   5.853   5.641   6.120
 5761SOL    HW118182   5.900   5.615   6.036
 5761SOL    HW218183   5.811   5.731   6.108
 5762SOL     OW18184   4.664   4.751   0.375
 5762SOL    HW118185   4.724   4.696   0.432
 5762SOL    HW218186   4.570   4.715   0.381
 5763SOL     OW18187   0.374   0.137   0.307
 5763SOL    HW118188   0.461   0.157   0.262
 5763SOL    HW218189   0.363   0.037   0.314
 5764SOL     OW18190   5.297   5.076   5.373
 5764SOL    HW118191   5.292   5.062   5.472
 5764SOL    HW218192   5.218   5.131   5.344
 5765SOL     OW18193   5.771   2.860   0.095
 5765SOL    HW118194   5.789   2.885   0.190
 5765SOL    HW218195   5.800   2.765   0.079
 5766SOL     OW18196   2.450   2.126   6.754
 5766SOL    HW118197   2.509   2.057   6.797
 5766SOL    HW218198   2.356   2.093   6.755
 5767SOL     OW18199   1.927   1.376   7.015
 5767SOL    HW118200   1.913   1.469   6.979
 5767SOL    HW218201   1.949   1.381   0.093
 5768SOL     OW18202   0.872   6.404   3.283
 5768SOL    HW118203   0.895   6.371   3.192
 5768SOL    HW218204   0.946   6.381   3.347
 5769SOL     OW18205   2.312   5.867   4.736
 5769SOL    HW118206   2.399   5.818   4.745
 5769SOL    HW218207   2.309   5.913   4.647
 5770SOL     OW18208   6.213   6.493   0.188
 5770SOL    HW118209   6.260   6.482   0.275
 5770SOL    HW218210   6.193   6.590   0.174
 5771SOL     OW18211   1.552   6.977   3.690
 5771SOL    HW118212   1.596   6.984   3.601
 5771SOL    HW218213   1.501   0.042   3.708
 5772SOL     OW18214   5.902   1.906   0.725
 5772SOL    HW118215   5.993   1.927   0.760
 5772SOL    HW218216   5.891   1.949   0.635
 5773SOL     OW18217   4.571   0.725   3.637
 5773SOL    HW118218   4.652   0.670   3.658
 5773SOL    HW218219   4.545   0.713   3.542
 5774SOL     OW18220   2.928   5.863   3.327
 5774SOL    HW118221   2.856   5.891   3.263
 5774SOL    HW218222   2.947   5.766   3.316
 5775SOL     OW18223   1.283   1.087   2.050
 5775SOL    HW118224   1.281   0.997   2.095
 5775SOL    HW218225   1.244   1.080   1.959
 5776SOL     OW18226   0.076   0.469   5.055
 5776SOL    HW118227   0.029   0.529   4.990
 5776SOL    HW218228   0.012   0.441   5.127
 5777SOL     OW18229   6.153   0.238   5.309
 5777SOL    HW118230   6.063   0.265   5.275
 5777SOL    HW218231   6.196   0.316   5.354
 5778SOL     OW18232   1.406   0.803   1.550
 5778SOL    HW118233   1.397   0.707   1.577
 5778SOL    HW218234   1.408   0.861   1.632
 5779SOL     OW18235   5.008   2.291   0.124
 5779SOL    HW118236   4.956   2.258   0.203
 5779SOL    HW218237   4.968   2.377   0.092
 5780SOL     OW18238   6.051   5.424   3.435
 5780SOL    HW118239   5.974   5.366   3.458
 5780SOL    HW218240   6.136   5.378   3.459
 5781SOL     OW18241   0.251   4.546   4.023
 5781SOL    HW118242   0.326   4.481   4.030
 5781SOL    HW218243   0.166   4.497   4.003
 5782SOL     OW18244   0.973   1.389   0.478
 5782SOL    HW118245   0.933   1.400   0.387
 5782SOL    HW218246   0.994   1.479   0.516
 5783SOL     OW18247   1.958   0.749   1.698
 5783SOL    HW118248   1.969   0.778   1.603
 5783SOL    HW218249   2.046   0.750   1.744
 5784SOL     OW18250   0.082   6.138   0.312
 5784SOL    HW118251   0.102   6.076   0.236
 5784SOL    HW218252   7.012   6.181   0.298
 5785SOL     OW18253   1.923   2.089   0.510
 5785SOL    HW118254   1.956   2.062   0.420
 5785SOL    HW218255   1.930   2.188   0.520
 5786SOL     OW18256   0.648   4.617   1.076
 5786SOL    HW118257   0.567   4.577   1.035
 5786SOL    HW218258   0.654   4.590   1.172
 5787SOL     OW18259   4.049   2.128   5.313
 5787SOL    HW118260   3.988   2.065   5.264
 5787SOL    HW218261   4.008   2.152   5.401
 5788SOL     OW18262   3.304   1.571   1.580
 5788SOL    HW118263   3.278   1.662   1.549
 5788SOL    HW218264   3.354   1.524   1.507
 5789SOL     OW18265   2.757   4.461   0.521
 5789SOL    HW118266   2.724   4.409   0.442
 5789SOL    HW218267   2.699   4.441   0.600
 5790SOL     OW18268   0.415   4.614   4.705
 5790SOL    HW118269   0.429   4.650   4.613
 5790SOL    HW218270   0.318   4.620   4.729
 5791SOL     OW18271   3.258   1.834   2.521
 5791SOL    HW118272   3.288   1.929   2.518
 5791SOL    HW218273   3.160   1.829   2.503
 5792SOL     OW18274   5.641   2.843   2.147
 5792SOL    HW118275   5.725   2.820   2.097
 5792SOL    HW218276   5.567   2.783   2.116
 5793SOL     OW18277   5.518   0.563   4.277
 5793SOL    HW118278   5.450   0.588   4.208
 5793SOL    HW218279   5.491   0.478   4.321
 5794SOL     OW18280   2.050   0.914   6.522
 5794SOL    HW118281   1.966   0.960   6.492
 5794SOL    HW218282   2.098   0.972   6.588
 5795SOL     OW18283   0.179   6.885   0.090
 5795SOL    HW118284   0.259   6.828   0.110
 5795SOL    HW218285   0.096   6.830   0.101
 5796SOL     OW18286   4.978   0.588   5.932
 5796SOL    HW118287   4.904   0.531   5.967
 5796SOL    HW218288   4.979   0.675   5.981
 5797SOL     OW18289   4.820   2.199   0.325
 5797SOL    HW118290   4.817   2.269   0.396
 5797SOL    HW218291   4.726   2.177   0.297
 5798SOL     OW18292   6.649   5.167   3.904
 5798SOL    HW118293   6.598   5.201   3.983
 5798SOL    HW218294   6.609   5.080   3.873
 5799SOL     OW18295   0.128   0.848   4.324
 5799SOL    HW118296   0.169   0.763   4.291
 5799SOL    HW218297   0.074   0.829   4.406
 5800SOL     OW18298   6.489   7.016   1.958
 5800SOL    HW118299   6.427   0.026   2.030
 5800SOL    HW218300   6.436   6.980   1.880
 5801SOL     OW18301   1.709   2.649   3.509
 5801SOL    HW118302   1.778   2.669   3.578
 5801SOL    HW218303   1.665   2.562   3.530
 5802SOL     OW18304   6.909   3.406   2.393
 5802SOL    HW118305   6.885   3.309   2.388
 5802SOL    HW218306   7.007   3.415   2.412
 5803SOL     OW18307   2.128   5.727   2.744
 5803SOL    HW118308   2.198   5.665   2.708
 5803SOL    HW218309   2.093   5.784   2.669
 5804SOL     OW18310   0.371   4.928   3.169
 5804SOL    HW118311   0.467   4.955   3.162
 5804SOL    HW218312   0.364   4.828   3.174
 5805SOL     OW18313   1.947   2.981   0.487
 5805SOL    HW118314   2.027   2.922   0.482
 5805SOL    HW218315   1.942   3.024   0.577
 5806SOL     OW18316   6.136   5.456   4.435
 5806SOL    HW118317   6.152   5.553   4.456
 5806SOL    HW218318   6.108   5.447   4.339
 5807SOL     OW18319   0.745   4.552   0.813
 5807SOL    HW118320   0.785   4.636   0.777
 5807SOL    HW218321   0.698   4.571   0.899
 5808SOL     OW18322   6.710   5.479   4.002
 5808SOL    HW118323   6.714   5.570   4.045
 5808SOL    HW218324   6.795   5.430   4.018
 5809SOL     OW18325   6.525   1.814   5.147
 5809SOL    HW118326   6.535   1.727   5.195
 5809SOL    HW218327   6.557   1.803   5.053
 5810SOL     OW18328   4.967   1.281   5.568
 5810SOL    HW118329   4.876   1.243   5.556
 5810SOL    HW218330   4.999   1.321   5.482
 5811SOL     OW18331   3.920   0.940   4.674
 5811SOL    HW118332   3.968   1.027   4.664
 5811SOL    HW218333   3.986   0.867   4.692
 5812SOL     OW18334   5.857   3.379   5.077
 5812SOL    HW118335   5.777   3.403   5.022
 5812SOL    HW218336   5.842   3.408   5.171
 5813SOL     OW18337   1.884   1.319   1.097
 5813SOL    HW118338   1.792   1.292   1.070
 5813SOL    HW218339   1.936   1.238   1.125
 5814SOL     OW18340   6.432   3.564   2.181
 5814SOL    HW118341   6.473   3.637   2.235
 5814SOL    HW218342   6.413   3.485   2.239
 5815SOL     OW18343   4.055   1.844   3.927
 5815SOL    HW118344   3.958   1.820   3.921
 5815SOL    HW218345   4.069   1.937   3.893
 5816SOL     OW18346   4.976   4.514   0.829
 5816SOL    HW118347   4.995   4.440   0.765
 5816SOL    HW218348   4.960   4.476   0.920
 5817SOL     OW18349   5.957   4.465   5.783
 5817SOL    HW118350   6.005   4.484   5.697
 5817SOL    HW218351   5.920   4.549   5.821
 5818SOL     OW18352   6.435   4.992   5.416
 5818SOL    HW118353   6.483   4.961   5.498
 5818SOL    HW218354   6.420   4.914   5.355
 5819SOL     OW18355   3.887   0.317   6.846
 5819SOL    HW118356   3.836   0.397   6.877
 5819SOL    HW218357   3.962   0.299   6.908
 5820SOL     OW18358   4.290   4.683   3.672
 5820SOL    HW118359   4.270   4.610   3.606
 5820SOL    HW218360   4.302   4.643   3.762
 5821SOL     OW18361   0.188   0.948   2.020
 5821SOL    HW118362   0.150   1.039   2.006
 5821SOL    HW218363   0.137   0.882   1.964
 5822SOL     OW18364   1.447   2.711   1.514
 5822SOL    HW118365   1.373   2.772   1.543
 5822SOL    HW218366   1.440   2.696   1.416
 5823SOL     OW18367   2.941   0.542   4.537
 5823SOL    HW118368   2.913   0.625   4.490
 5823SOL    HW218369   3.027   0.509   4.497
 5824SOL     OW18370   0.115   5.846   2.696
 5824SOL    HW118371   0.159   5.880   2.779
 5824SOL    HW218372   0.181   5.848   2.621
 5825SOL     OW18373   0.332   6.944   4.852
 5825SOL    HW118374   0.329   0.025   4.861
 5825SOL    HW218375   0.350   6.920   4.756
 5826SOL     OW18376   0.102   5.223   6.201
 5826SOL    HW118377   0.048   5.206   6.118
 5826SOL    HW218378   0.164   5.300   6.185
 5827SOL     OW18379   1.736   3.906   5.388
 5827SOL    HW118380   1.675   3.955   5.325
 5827SOL    HW218381   1.831   3.926   5.366
 5828SOL     OW18382   5.897   1.968   2.291
 5828SOL    HW118383   5.908   1.959   2.192
 5828SOL    HW218384   5.922   2.061   2.319
 5829SOL     OW18385   1.778   0.437   4.235
 5829SOL    HW118386   1.867   0.433   4.281
 5829SOL    HW218387   1.730   0.520   4.263
 5830SOL     OW18388   5.832   6.595   5.668
 5830SOL    HW118389   5.758   6.611   5.603
 5830SOL    HW218390   5.805   6.630   5.758
 5831SOL     OW18391   1.127   0.756   5.819
 5831SOL    HW118392   1.047   0.702   5.847
 5831SOL    HW218393   1.155   0.729   5.728
 5832SOL     OW18394   3.470   5.258   0.032
 5832SOL    HW118395   3.488   5.231   0.127
 5832SOL    HW218396   3.537   5.327   0.005
 5833SOL     OW18397   3.893   4.074   4.980
 5833SOL    HW118398   3.832   4.153   4.979
 5833SOL    HW218399   3.979   4.098   5.025
 5834SOL     OW18400   0.291   2.870   0.257
 5834SOL    HW118401   0.341   2.955   0.239
 5834SOL    HW218402   0.353   2.803   0.297
 5835SOL     OW18403   5.188   2.914   3.217
 5835SOL    HW118404   5.178   2.883   3.312
 5835SOL    HW218405   5.225   3.007   3.216
 5836SOL     OW18406   2.823   0.275   1.711
 5836SOL    HW118407   2.904   0.321   1.747
 5836SOL    HW218408   2.848   0.183   1.681
 5837SOL     OW18409   3.055   3.935   0.031
 5837SOL    HW118410   3.034   3.905   6.957
 5837SOL    HW218411   3.143   3.982   0.032
 5838SOL     OW18412   2.842   2.146   0.978
 5838SOL    HW118413   2.886   2.205   0.911
 5838SOL    HW218414   2.889   2.058   0.983
 5839SOL     OW18415   0.991   1.935   1.966
 5839SOL    HW118416   1.012   1.937   2.064
 5839SOL    HW218417   1.064   1.888   1.917
 5840SOL     OW18418   1.675   5.048   6.341
 5840SOL    HW118419   1.666   4.968   6.400
 5840SOL    HW218420   1.717   5.123   6.393
 5841SOL     OW18421   4.758   1.180   2.467
 5841SOL    HW118422   4.692   1.172   2.392
 5841SOL    HW218423   4.713   1.220   2.547
 5842SOL     OW18424   4.589   2.834   1.520
 5842SOL    HW118425   4.645   2.916   1.527
 5842SOL    HW218426   4.493   2.857   1.535
 5843SOL     OW18427   1.473   4.356   2.236
 5843SOL    HW118428   1.502   4.384   2.144
 5843SOL    HW218429   1.476   4.435   2.297
 5844SOL     OW18430   1.754   5.834   5.718
 5844SOL    HW118431   1.723   5.751   5.671
 5844SOL    HW218432   1.801   5.809   5.803
 5845SOL     OW18433   0.432   0.470   2.595
 5845SOL    HW118434   0.492   0.540   2.556
 5845SOL    HW218435   0.350   0.514   2.632
 5846SOL     OW18436   5.713   3.947   6.155
 5846SOL    HW118437   5.694   3.883   6.080
 5846SOL    HW218438   5.743   4.034   6.118
 5847SOL     OW18439   2.748   2.260   2.237
 5847SOL    HW118440   2.803   2.283   2.157
 5847SOL    HW218441   2.664   2.214   2.208
 5848SOL     OW18442   1.580   5.668   3.225
 5848SOL    HW118443   1.637   5.750   3.220
 5848SOL    HW218444   1.571   5.628   3.134
 5849SOL     OW18445   1.513   0.320   5.421
 5849SOL    HW118446   1.544   0.233   5.381
 5849SOL    HW218447   1.472   0.376   5.349
 5850SOL     OW18448   6.743   3.291   1.537
 5850SOL    HW118449   6.649   3.259   1.529
 5850SOL    HW218450   6.747   3.371   1.596
 5851SOL     OW18451   4.953   3.163   2.897
 5851SOL    HW118452   4.984   3.082   2.948
 5851SOL    HW218453   5.025   3.232   2.897
 5852SOL     OW18454   5.762   6.536   3.100
 5852SOL    HW118455   5.800   6.594   3.172
 5852SOL    HW218456   5.724   6.453   3.140
 5853SOL     OW18457   3.347   5.679   5.222
 5853SOL    HW118458   3.367   5.641   5.313
 5853SOL    HW218459   3.376   5.614   5.152
 5854SOL     OW18460   4.421   4.725   6.436
 5854SOL    HW118461   4.448   4.770   6.351
 5854SOL    HW218462   4.502   4.685   6.479
 5855SOL     OW18463   1.642   1.173   5.005
 5855SOL    HW118464   1.616   1.188   4.909
 5855SOL    HW218465   1.565   1.196   5.064
 5856SOL     OW18466   2.323   5.844   3.614
 5856SOL    HW118467   2.325   5.941   3.592
 5856SOL    HW218468   2.336   5.791   3.531
 5857SOL     OW18469   6.315   2.537   5.689
 5857SOL    HW118470   6.409   2.570   5.694
 5857SOL    HW218471   6.312   2.450   5.640
 5858SOL     OW18472   2.528   2.228   2.667
 5858SOL    HW118473   2.508   2.141   2.622
 5858SOL    HW218474   2.445   2.282   2.675
 5859SOL     OW18475   6.499   5.752   1.586
 5859SOL    HW118476   6.455   5.697   1.658
 5859SOL    HW218477   6.555   5.823   1.629
 5860SOL     OW18478   0.292   3.916   3.149
 5860SOL    HW118479   0.225   3.916   3.075
 5860SOL    HW218480   0.323   4.010   3.165
 5861SOL     OW18481   4.543   1.761   4.504
 5861SOL    HW118482   4.619   1.697   4.512
 5861SOL    HW218483   4.541   1.821   4.584
 5862SOL     OW18484   6.156   5.593   0.971
 5862SOL    HW118485   6.130   5.496   0.968
 5862SOL    HW218486   6.197   5.614   1.060
 5863SOL     OW18487   3.032   2.105   5.213
 5863SOL    HW118488   2.940   2.121   5.176
 5863SOL    HW218489   3.093   2.177   5.181
 5864SOL     OW18490   3.854   3.994   2.720
 5864SOL    HW118491   3.920   4.068   2.703
 5864SOL    HW218492   3.812   4.008   2.810
 5865SOL     OW18493   5.904   6.977   5.659
 5865SOL    HW118494   5.998   6.958   5.629
 5865SOL    HW218495   5.874   0.045   5.621
 5866SOL     OW18496   3.193   4.310   0.450
 5866SOL    HW118497   3.161   4.260   0.530
 5866SOL    HW218498   3.249   4.387   0.479
 5867SOL     OW18499   2.589   3.274   1.157
 5867SOL    HW118500   2.498   3.305   1.184
 5867SOL    HW218501   2.653   3.351   1.161
 5868SOL     OW18502   1.770   1.637   5.118
 5868SOL    HW118503   1.806   1.544   5.121
 5868SOL    HW218504   1.737   1.657   5.025
 5869SOL     OW18505   2.007   6.475   3.150
 5869SOL    HW118506   2.025   6.573   3.145
 5869SOL    HW218507   2.024   6.433   3.061
 5870SOL     OW18508   4.572   6.673   4.956
 5870SOL    HW118509   4.472   6.679   4.954
 5870SOL    HW218510   4.611   6.744   4.899
 5871SOL     OW18511   3.252   3.541   1.307
 5871SOL    HW118512   3.296   3.469   1.360
 5871SOL    HW218513   3.265   3.523   1.210
 5872SOL     OW18514   4.602   6.218   1.136
 5872SOL    HW118515   4.586   6.200   1.039
 5872SOL    HW218516   4.624   6.315   1.149
 5873SOL     OW18517   3.801   1.270   2.118
 5873SOL    HW118518   3.888   1.270   2.069
 5873SOL    HW218519   3.798   1.192   2.180
 5874SOL     OW18520   2.966   4.810   6.252
 5874SOL    HW118521   3.049   4.772   6.212
 5874SOL    HW218522   2.990   4.866   6.332
 5875SOL     OW18523   4.343   1.321   0.554
 5875SOL    HW118524   4.246   1.296   0.557
 5875SOL    HW218525   4.352   1.416   0.525
 5876SOL     OW18526   3.940   3.104   0.768
 5876SOL    HW118527   3.915   3.045   0.692
 5876SOL    HW218528   3.863   3.110   0.832
 5877SOL     OW18529   0.622   6.943   1.616
 5877SOL    HW118530   0.530   6.941   1.575
 5877SOL    HW218531   0.685   6.893   1.558
 5878SOL     OW18532   5.902   5.242   3.738
 5878SOL    HW118533   5.812   5.257   3.697
 5878SOL    HW218534   5.951   5.173   3.685
 5879SOL     OW18535   1.379   3.805   6.633
 5879SOL    HW118536   1.428   3.719   6.621
 5879SOL    HW218537   1.377   3.855   6.546
 5880SOL     OW18538   4.464   4.646   5.899
 5880SOL    HW118539   4.391   4.658   5.832
 5880SOL    HW218540   4.546   4.694   5.868
 5881SOL     OW18541   1.071   0.169   2.644
 5881SOL    HW118542   1.073   0.265   2.615
 5881SOL    HW218543   1.159   0.126   2.623
 5882SOL     OW18544   6.955   5.376   0.626
 5882SOL    HW118545   7.013   5.295   0.638
 5882SOL    HW218546   6.971   5.415   0.536
 5883SOL     OW18547   0.993   1.294   6.541
 5883SOL    HW118548   1.008   1.288   6.640
 5883SOL    HW218549   0.934   1.219   6.512
 5884SOL     OW18550   4.144   1.477   4.286
 5884SOL    HW118551   4.110   1.503   4.196
 5884SOL    HW218552   4.078   1.417   4.332
 5885SOL     OW18553   0.710   6.738   2.583
 5885SOL    HW118554   0.648   6.756   2.506
 5885SOL    HW218555   0.717   6.819   2.640
 5886SOL     OW18556   0.169   2.254   4.700
 5886SOL    HW118557   0.250   2.294   4.656
 5886SOL    HW218558   0.117   2.201   4.633
 5887SOL     OW18559   2.876   1.905   1.988
 5887SOL    HW118560   2.778   1.921   1.985
 5887SOL    HW218561   2.918   1.938   1.903
 5888SOL     OW18562   3.098   0.609   1.367
 5888SOL    HW118563   3.169   0.572   1.426
 5888SOL    HW218564   3.138   0.638   1.280
 5889SOL     OW18565   0.895   0.509   0.761
 5889SOL    HW118566   0.800   0.478   0.769
 5889SOL    HW218567   0.896   0.607   0.740
 5890SOL     OW18568   2.361   1.326   3.176
 5890SOL    HW118569   2.450   1.348   3.134
 5890SOL    HW218570   2.360   1.357   3.271
 5891SOL     OW18571   3.332   3.218   6.589
 5891SOL    HW118572   3.309   3.202   6.493
 5891SOL    HW218573   3.336   3.130   6.637
 5892SOL     OW18574   1.002   5.748   1.797
 5892SOL    HW118575   0.928   5.745   1.865
 5892SOL    HW218576   1.080   5.694   1.829
 5893SOL     OW18577   2.538   4.456   4.067
 5893SOL    HW118578   2.592   4.393   4.123
 5893SOL    HW218579   2.469   4.405   4.016
 5894SOL     OW18580   6.650   5.747   4.143
 5894SOL    HW118581   6.704   5.828   4.121
 5894SOL    HW218582   6.570   5.743   4.082
 5895SOL     OW18583   5.404   3.984   4.149
 5895SOL    HW118584   5.388   4.016   4.056
 5895SOL    HW218585   5.430   3.888   4.148
 5896SOL     OW18586   3.413   0.920   0.504
 5896SOL    HW118587   3.383   0.840   0.555
 5896SOL    HW218588   3.388   0.910   0.408
 5897SOL     OW18589   4.029   0.279   1.319
 5897SOL    HW118590   3.998   0.234   1.403
 5897SOL    HW218591   4.017   0.218   1.242
 5898SOL     OW18592   2.279   6.826   3.499
 5898SOL    HW118593   2.208   6.765   3.535
 5898SOL    HW218594   2.366   6.777   3.495
 5899SOL     OW18595   6.090   5.598   6.879
 5899SOL    HW118596   6.020   5.604   6.951
 5899SOL    HW218597   6.090   5.682   6.825
 5900SOL     OW18598   6.304   5.283   3.828
 5900SOL    HW118599   6.211   5.285   3.865
 5900SOL    HW218600   6.336   5.189   3.823
 5901SOL     OW18601   2.452   1.515   0.104
 5901SOL    HW118602   2.446   1.417   0.124
 5901SOL    HW218603   2.515   1.529   0.028
 5902SOL     OW18604   6.178   2.050   5.358
 5902SOL    HW118605   6.260   2.105   5.339
 5902SOL    HW218606   6.158   2.054   5.456
 5903SOL     OW18607   4.838   4.299   6.851
 5903SOL    HW118608   4.922   4.317   6.800
 5903SOL    HW218609   4.860   4.280   6.947
 5904SOL     OW18610   0.802   4.480   1.569
 5904SOL    HW118611   0.789   4.459   1.666
 5904SOL    HW218612   0.797   4.579   1.556
 5905SOL     OW18613   6.413   6.937   3.579
 5905SOL    HW118614   6.506   6.906   3.556
 5905SOL    HW218615   6.363   6.862   3.621
 5906SOL     OW18616   3.901   2.010   4.225
 5906SOL    HW118617   3.962   2.079   4.263
 5906SOL    HW218618   3.833   1.983   4.294
 5907SOL     OW18619   1.330   4.539   0.738
 5907SOL    HW118620   1.247   4.592   0.755
 5907SOL    HW218621   1.310   4.442   0.748
 5908SOL     OW18622   0.370   3.102   6.825
 5908SOL    HW118623   0.374   3.174   6.756
 5908SOL    HW218624   0.327   3.138   6.908
 5909SOL     OW18625   6.906   5.254   0.957
 5909SOL    HW118626   6.894   5.227   1.053
 5909SOL    HW218627   6.965   5.187   0.911
 5910SOL     OW18628   0.554   4.305   3.571
 5910SOL    HW118629   0.613   4.371   3.525
 5910SOL    HW218630   0.595   4.214   3.564
 5911SOL     OW18631   6.847   5.382   6.523
 5911SOL    HW118632   6.855   5.382   6.424
 5911SOL    HW218633   6.751   5.393   6.549
 5912SOL     OW18634   6.032   1.451   6.581
 5912SOL    HW118635   5.953   1.474   6.638
 5912SOL    HW218636   6.054   1.529   6.522
 5913SOL     OW18637   5.453   3.186   6.261
 5913SOL    HW118638   5.402   3.215   6.342
 5913SOL    HW218639   5.401   3.117   6.212
 5914SOL     OW18640   1.386   5.647   5.957
 5914SOL    HW118641   1.410   5.576   6.023
 5914SOL    HW218642   1.466   5.703   5.938
 5915SOL     OW18643   4.619   5.278   1.092
 5915SOL    HW118644   4.556   5.261   1.168
 5915SOL    HW218645   4.578   5.247   1.006
 5916SOL     OW18646   5.175   6.940   4.041
 5916SOL    HW118647   5.234   7.002   3.991
 5916SOL    HW218648   5.097   6.990   4.078
 5917SOL     OW18649   3.051   3.543   4.002
 5917SOL    HW118650   3.146   3.524   4.030
 5917SOL    HW218651   2.990   3.477   4.045
 5918SOL     OW18652   1.618   3.675   6.235
 5918SOL    HW118653   1.668   3.590   6.249
 5918SOL    HW218654   1.624   3.702   6.139
 5919SOL     OW18655   3.484   3.441   2.858
 5919SOL    HW118656   3.563   3.498   2.884
 5919SOL    HW218657   3.488   3.422   2.760
 5920SOL     OW18658   4.571   0.212   6.676
 5920SOL    HW118659   4.644   0.202   6.743
 5920SOL    HW218660   4.482   0.210   6.723
 5921SOL     OW18661   3.703   5.114   6.798
 5921SOL    HW118662   3.691   5.018   6.821
 5921SOL    HW218663   3.613   5.155   6.779
 5922SOL     OW18664   5.323   5.072   3.115
 5922SOL    HW118665   5.374   5.040   3.035
 5922SOL    HW218666   5.373   5.147   3.158
 5923SOL     OW18667   6.289   1.484   1.498
 5923SOL    HW118668   6.356   1.468   1.571
 5923SOL    HW218669   6.279   1.401   1.443
 5924SOL     OW18670   6.419   0.561   2.861
 5924SOL    HW118671   6.418   0.590   2.765
 5924SOL    HW218672   6.327   0.531   2.888
 5925SOL     OW18673   4.048   6.858   2.165
 5925SOL    HW118674   4.052   6.888   2.260
 5925SOL    HW218675   4.032   6.936   2.105
 5926SOL     OW18676   3.915   5.825   1.261
 5926SOL    HW118677   3.999   5.795   1.307
 5926SOL    HW218678   3.886   5.913   1.299
 5927SOL     OW18679   1.299   4.134   2.312
 5927SOL    HW118680   1.346   4.209   2.266
 5927SOL    HW218681   1.287   4.157   2.409
 5928SOL     OW18682   3.816   0.745   0.849
 5928SOL    HW118683   3.912   0.732   0.822
 5928SOL    HW218684   3.807   0.735   0.948
 5929SOL     OW18685   0.305   6.998   6.895
 5929SOL    HW118686   0.246   6.995   6.975
 5929SOL    HW218687   0.289   6.917   6.839
 5930SOL     OW18688   6.858   3.652   3.578
 5930SOL    HW118689   6.870   3.590   3.655
 5930SOL    HW218690   6.857   3.747   3.611
 5931SOL     OW18691   0.013   5.570   2.736
 5931SOL    HW118692   0.041   5.655   2.692
 5931SOL    HW218693   0.081   5.499   2.719
 5932SOL     OW18694   3.050   0.257   0.568
 5932SOL    HW118695   3.115   0.241   0.641
 5932SOL    HW218696   2.958   0.266   0.606
 5933SOL     OW18697   6.614   6.286   2.675
 5933SOL    HW118698   6.571   6.340   2.747
 5933SOL    HW218699   6.584   6.191   2.681
 5934SOL     OW18700   3.846   2.951   4.481
 5934SOL    HW118701   3.870   2.868   4.532
 5934SOL    HW218702   3.880   3.031   4.530
 5935SOL     OW18703   5.212   5.079   6.497
 5935SOL    HW118704   5.265   4.995   6.487
 5935SOL    HW218705   5.139   5.064   6.564
 5936SOL     OW18706   3.843   2.750   1.299
 5936SOL    HW118707   3.860   2.838   1.343
 5936SOL    HW218708   3.794   2.690   1.363
 5937SOL     OW18709   6.824   4.543   2.367
 5937SOL    HW118710   6.908   4.568   2.319
 5937SOL    HW218711   6.761   4.499   2.304
 5938SOL     OW18712   6.859   5.970   2.746
 5938SOL    HW118713   6.927   5.897   2.747
 5938SOL    HW218714   6.836   5.996   2.840
 5939SOL     OW18715   2.815   6.998   3.075
 5939SOL    HW118716   2.894   6.967   3.023
 5939SOL    HW218717   2.754   0.031   3.016
 5940SOL     OW18718   5.309   5.500   1.537
 5940SOL    HW118719   5.278   5.595   1.534
 5940SOL    HW218720   5.230   5.440   1.546
 5941SOL     OW18721   6.002   2.774   2.102
 5941SOL    HW118722   5.990   2.799   2.198
 5941SOL    HW218723   6.013   2.857   2.048
 5942SOL     OW18724   5.202   3.463   6.814
 5942SOL    HW118725   5.246   3.530   6.873
 5942SOL    HW218726   5.179   3.506   6.726
 5943SOL     OW18727   3.292   4.828   6.770
 5943SOL    HW118728   3.330   4.921   6.768
 5943SOL    HW218729   3.278   4.796   6.677
 5944SOL     OW18730   6.219   3.052   1.134
 5944SOL    HW118731   6.240   3.029   1.229
 5944SOL    HW218732   6.160   2.981   1.094
 5945SOL     OW18733   6.325   5.268   4.564
 5945SOL    HW118734   6.422   5.275   4.540
 5945SOL    HW218735   6.270   5.296   4.485
 5946SOL     OW18736   3.876   3.547   6.168
 5946SOL    HW118737   3.813   3.497   6.228
 5946SOL    HW218738   3.906   3.631   6.214
 5947SOL     OW18739   3.440   3.731   2.474
 5947SOL    HW118740   3.357   3.713   2.528
 5947SOL    HW218741   3.415   3.777   2.389
 5948SOL     OW18742   4.214   5.420   3.666
 5948SOL    HW118743   4.167   5.488   3.609
 5948SOL    HW218744   4.154   5.341   3.680
 5949SOL     OW18745   5.175   3.788   2.095
 5949SOL    HW118746   5.079   3.761   2.084
 5949SOL    HW218747   5.179   3.881   2.132
 5950SOL     OW18748   4.928   1.372   5.833
 5950SOL    HW118749   4.943   1.346   5.738
 5950SOL    HW218750   4.836   1.343   5.862
 5951SOL     OW18751   1.334   5.988   3.984
 5951SOL    HW118752   1.292   5.915   4.037
 5951SOL    HW218753   1.412   5.952   3.933
 5952SOL     OW18754   5.567   4.935   3.370
 5952SOL    HW118755   5.590   4.953   3.274
 5952SOL    HW218756   5.500   5.003   3.401
 5953SOL     OW18757   6.287   2.841   5.681
 5953SOL    HW118758   6.291   2.796   5.770
 5953SOL    HW218759   6.345   2.791   5.616
 5954SOL     OW18760   6.803   4.148   5.846
 5954SOL    HW118761   6.797   4.210   5.925
 5954SOL    HW218762   6.718   4.153   5.794
 5955SOL     OW18763   4.467   5.856   2.683
 5955SOL    HW118764   4.423   5.855   2.773
 5955SOL    HW218765   4.547   5.797   2.685
 5956SOL     OW18766   4.531   1.613   4.767
 5956SOL    HW118767   4.611   1.648   4.718
 5956SOL    HW218768   4.536   1.513   4.771
 5957SOL     OW18769   4.476   0.577   5.640
 5957SOL    HW118770   4.469   0.526   5.726
 5957SOL    HW218771   4.393   0.564   5.586
 5958SOL     OW18772   5.661   6.696   2.676
 5958SOL    HW118773   5.692   6.783   2.636
 5958SOL    HW218774   5.568   6.706   2.711
 5959SOL     OW18775   4.199   2.766   5.380
 5959SOL    HW118776   4.111   2.769   5.429
 5959SOL    HW218777   4.196   2.694   5.311
 5960SOL     OW18778   3.812   5.425   4.980
 5960SOL    HW118779   3.814   5.486   4.901
 5960SOL    HW218780   3.905   5.416   5.017
 5961SOL     OW18781   4.955   1.526   2.861
 5961SOL    HW118782   5.010   1.472   2.924
 5961SOL    HW218783   4.981   1.623   2.868
 5962SOL     OW18784   5.845   6.223   0.350
 5962SOL    HW118785   5.906   6.184   0.280
 5962SOL    HW218786   5.882   6.203   0.440
 5963SOL     OW18787   3.867   3.791   5.362
 5963SOL    HW118788   3.902   3.787   5.455
 5963SOL    HW218789   3.943   3.794   5.298
 5964SOL     OW18790   0.725   5.566   5.502
 5964SOL    HW118791   0.651   5.560   5.569
 5964SOL    HW218792   0.786   5.642   5.525
 5965SOL     OW18793   1.892   2.035   6.382
 5965SOL    HW118794   1.831   2.033   6.461
 5965SOL    HW218795   1.922   2.129   6.366
 5966SOL     OW18796   2.509   5.981   5.343
 5966SOL    HW118797   2.556   5.899   5.374
 5966SOL    HW218798   2.575   6.056   5.333
 5967SOL     OW18799   4.114   6.611   6.685
 5967SOL    HW118800   4.138   6.588   6.779
 5967SOL    HW218801   4.170   6.688   6.655
 5968SOL     OW18802   5.201   2.136   1.097
 5968SOL    HW118803   5.250   2.057   1.133
 5968SOL    HW218804   5.171   2.117   1.003
 5969SOL     OW18805   6.760   6.873   6.383
 5969SOL    HW118806   6.841   6.816   6.367
 5969SOL    HW218807   6.788   6.968   6.397
 5970SOL     OW18808   0.432   4.125   2.473
 5970SOL    HW118809   0.360   4.072   2.428
 5970SOL    HW218810   0.413   4.131   2.571
 5971SOL     OW18811   0.382   1.447   2.699
 5971SOL    HW118812   0.446   1.371   2.713
 5971SOL    HW218813   0.314   1.421   2.630
 5972SOL     OW18814   5.830   5.229   5.950
 5972SOL    HW118815   5.914   5.249   5.899
 5972SOL    HW218816   5.751   5.241   5.890
 5973SOL     OW18817   1.627   3.793   2.979
 5973SOL    HW118818   1.557   3.770   2.911
 5973SOL    HW218819   1.716   3.800   2.935
 5974SOL     OW18820   5.548   5.175   6.159
 5974SOL    HW118821   5.506   5.086   6.141
 5974SOL    HW218822   5.587   5.175   6.251
 5975SOL     OW18823   4.623   0.277   0.493
 5975SOL    HW118824   4.677   0.356   0.521
 5975SOL    HW218825   4.666   0.193   0.527
 5976SOL     OW18826   3.735   2.485   5.816
 5976SOL    HW118827   3.827   2.518   5.797
 5976SOL    HW218828   3.696   2.445   5.733
 5977SOL     OW18829   1.741   5.766   6.734
 5977SOL    HW118830   1.663   5.800   6.682
 5977SOL    HW218831   1.718   5.678   6.776
 5978SOL     OW18832   4.514   5.522   2.038
 5978SOL    HW118833   4.441   5.470   1.992
 5978SOL    HW218834   4.504   5.512   2.137
 5979SOL     OW18835   5.566   1.067   3.058
 5979SOL    HW118836   5.560   1.143   3.122
 5979SOL    HW218837   5.558   1.102   2.964
 5980SOL     OW18838   4.224   4.015   1.014
 5980SOL    HW118839   4.189   4.023   0.921
 5980SOL    HW218840   4.305   4.074   1.024
 5981SOL     OW18841   5.292   2.306   1.556
 5981SOL    HW118842   5.236   2.340   1.631
 5981SOL    HW218843   5.389   2.309   1.583
 5982SOL     OW18844   6.269   3.333   2.452
 5982SOL    HW118845   6.306   3.307   2.541
 5982SOL    HW218846   6.340   3.320   2.382
 5983SOL     OW18847   1.384   1.401   4.123
 5983SOL    HW118848   1.471   1.362   4.154
 5983SOL    HW218849   1.391   1.427   4.027
 5984SOL     OW18850   6.735   5.831   3.407
 5984SOL    HW118851   6.721   5.742   3.363
 5984SOL    HW218852   6.732   5.820   3.506
 5985SOL     OW18853   6.985   2.697   4.320
 5985SOL    HW118854   6.914   2.688   4.390
 5985SOL    HW218855   6.947   2.674   4.230
 5986SOL     OW18856   2.961   3.821   3.968
 5986SOL    HW118857   2.979   3.858   4.059
 5986SOL    HW218858   2.996   3.727   3.963
 5987SOL     OW18859   5.420   6.971   3.873
 5987SOL    HW118860   5.460   7.016   3.793
 5987SOL    HW218861   5.451   6.875   3.876
 5988SOL     OW18862   4.767   6.860   5.634
 5988SOL    HW118863   4.752   6.769   5.672
 5988SOL    HW218864   4.768   6.927   5.707
 5989SOL     OW18865   1.953   6.353   6.522
 5989SOL    HW118866   1.928   6.437   6.474
 5989SOL    HW218867   2.050   6.354   6.544
 5990SOL     OW18868   3.490   3.903   0.211
 5990SOL    HW118869   3.539   3.818   0.194
 5990SOL    HW218870   3.556   3.977   0.229
 5991SOL     OW18871   3.075   5.449   0.287
 5991SOL    HW118872   3.072   5.548   0.296
 5991SOL    HW218873   3.017   5.421   0.209
 5992SOL     OW18874   3.523   0.527   2.162
 5992SOL    HW118875   3.506   0.614   2.207
 5992SOL    HW218876   3.442   0.499   2.111
 5993SOL     OW18877   3.378   5.424   6.400
 5993SOL    HW118878   3.315   5.384   6.334
 5993SOL    HW218879   3.347   5.402   6.493
 5994SOL     OW18880   5.670   2.841   2.646
 5994SOL    HW118881   5.605   2.839   2.722
 5994SOL    HW218882   5.630   2.892   2.570
 5995SOL     OW18883   4.871   3.650   2.444
 5995SOL    HW118884   4.799   3.718   2.431
 5995SOL    HW218885   4.878   3.592   2.363
 5996SOL     OW18886   1.291   6.535   1.056
 5996SOL    HW118887   1.231   6.605   1.018
 5996SOL    HW218888   1.253   6.444   1.038
 5997SOL     OW18889   0.220   6.001   2.496
 5997SOL    HW118890   0.277   6.069   2.541
 5997SOL    HW218891   0.178   6.041   2.414
 5998SOL     OW18892   5.775   1.019   3.647
 5998SOL    HW118893   5.778   0.923   3.673
 5998SOL    HW218894   5.746   1.027   3.551
 5999SOL     OW18895   1.400   1.099   2.447
 5999SOL    HW118896   1.340   1.072   2.523
 5999SOL    HW218897   1.475   1.034   2.440
 6000SOL     OW18898   4.036   0.037   0.890
 6000SOL    HW118899   3.997   0.063   0.979
 6000SOL    HW218900   4.070   6.963   0.895
 6001SOL     OW18901   0.725   3.942   0.125
 6001SOL    HW118902   0.723   3.939   0.025
 6001SOL    HW218903   0.631   3.941   0.159
 6002SOL     OW18904   5.663   0.449   0.515
 6002SOL    HW118905   5.621   0.472   0.428
 6002SOL    HW218906   5.609   0.487   0.590
 6003SOL     OW18907   5.617   2.720   5.143
 6003SOL    HW118908   5.685   2.689   5.076
 6003SOL    HW218909   5.560   2.791   5.102
 6004SOL     OW18910   6.965   3.959   2.612
 6004SOL    HW118911   6.946   3.977   2.515
 6004SOL    HW218912   6.881   3.968   2.665
 6005SOL     OW18913   4.725   5.814   4.363
 6005SOL    HW118914   4.764   5.905   4.375
 6005SOL    HW218915   4.705   5.799   4.266
 6006SOL     OW18916   2.766   1.065   5.666
 6006SOL    HW118917   2.675   1.028   5.651
 6006SOL    HW218918   2.768   1.161   5.639
 6007SOL     OW18919   4.636   3.831   5.743
 6007SOL    HW118920   4.551   3.836   5.796
 6007SOL    HW218921   4.703   3.775   5.791
 6008SOL     OW18922   2.554   4.453   5.524
 6008SOL    HW118923   2.602   4.420   5.443
 6008SOL    HW218924   2.457   4.433   5.516
 6009SOL     OW18925   2.400   0.405   3.174
 6009SOL    HW118926   2.409   0.505   3.174
 6009SOL    HW218927   2.457   0.367   3.247
 6010SOL     OW18928   1.173   4.681   4.300
 6010SOL    HW118929   1.265   4.715   4.322
 6010SOL    HW218930   1.144   4.615   4.370
 6011SOL     OW18931   4.626   2.539   2.803
 6011SOL    HW118932   4.548   2.593   2.835
 6011SOL    HW218933   4.629   2.452   2.853
 6012SOL     OW18934   5.378   0.868   7.008
 6012SOL    HW118935   5.306   0.811   6.969
 6012SOL    HW218936   5.430   0.815   0.056
 6013SOL     OW18937   4.903   2.002   2.532
 6013SOL    HW118938   4.832   2.018   2.464
 6013SOL    HW218939   4.888   1.913   2.575
 6014SOL     OW18940   3.790   3.297   2.092
 6014SOL    HW118941   3.868   3.359   2.081
 6014SOL    HW218942   3.800   3.220   2.029
 6015SOL     OW18943   5.953   4.090   3.880
 6015SOL    HW118944   6.017   4.139   3.820
 6015SOL    HW218945   6.003   4.017   3.928
 6016SOL     OW18946   6.679   2.328   5.745
 6016SOL    HW118947   6.743   2.251   5.737
 6016SOL    HW218948   6.609   2.305   5.813
 6017SOL     OW18949   6.854   4.301   3.137
 6017SOL    HW118950   6.813   4.256   3.216
 6017SOL    HW218951   6.785   4.360   3.093
 6018SOL     OW18952   3.967   0.365   6.596
 6018SOL    HW118953   3.948   0.332   6.689
 6018SOL    HW218954   3.882   0.370   6.544
 6019SOL     OW18955   6.778   1.302   4.194
 6019SOL    HW118956   6.729   1.347   4.269
 6019SOL    HW218957   6.731   1.218   4.168
 6020SOL     OW18958   0.914   4.731   0.671
 6020SOL    HW118959   0.951   4.754   0.581
 6020SOL    HW218960   0.912   4.813   0.729
 6021SOL     OW18961   5.030   0.209   2.960
 6021SOL    HW118962   5.004   0.122   2.917
 6021SOL    HW218963   4.961   0.234   3.028
 6022SOL     OW18964   5.169   2.561   4.021
 6022SOL    HW118965   5.189   2.658   4.003
 6022SOL    HW218966   5.175   2.510   3.936
 6023SOL     OW18967   6.157   0.734   2.079
 6023SOL    HW118968   6.187   0.818   2.034
 6023SOL    HW218969   6.236   0.677   2.101
 6024SOL     OW18970   1.238   4.698   2.969
 6024SOL    HW118971   1.304   4.762   3.008
 6024SOL    HW218972   1.199   4.737   2.885
 6025SOL     OW18973   3.921   1.698   2.867
 6025SOL    HW118974   3.884   1.763   2.801
 6025SOL    HW218975   3.969   1.748   2.940
 6026SOL     OW18976   0.662   4.239   5.559
 6026SOL    HW118977   0.592   4.267   5.492
 6026SOL    HW218978   0.752   4.245   5.517
 6027SOL     OW18979   0.979   3.536   6.061
 6027SOL    HW118980   0.958   3.631   6.081
 6027SOL    HW218981   1.067   3.531   6.013
 6028SOL     OW18982   6.501   5.294   0.100
 6028SOL    HW118983   6.491   5.196   0.084
 6028SOL    HW218984   6.433   5.344   0.046
 6029SOL     OW18985   2.123   6.199   4.921
 6029SOL    HW118986   2.076   6.215   5.008
 6029SOL    HW218987   2.115   6.280   4.864
 6030SOL     OW18988   3.902   5.673   2.566
 6030SOL    HW118989   3.836   5.631   2.504
 6030SOL    HW218990   3.983   5.615   2.572
 6031SOL     OW18991   2.765   5.340   3.836
 6031SOL    HW118992   2.716   5.348   3.923
 6031SOL    HW218993   2.859   5.311   3.852
 6032SOL     OW18994   2.244   4.689   2.667
 6032SOL    HW118995   2.190   4.610   2.641
 6032SOL    HW218996   2.284   4.731   2.586
 6033SOL     OW18997   2.981   2.210   3.428
 6033SOL    HW118998   2.884   2.231   3.414
 6033SOL    HW218999   2.999   2.202   3.527
 6034SOL     OW19000   1.229   5.727   4.633
 6034SOL    HW119001   1.292   5.650   4.618
 6034SOL    HW219002   1.216   5.776   4.547
 6035SOL     OW19003   0.197   1.341   2.531
 6035SOL    HW119004   0.247   1.334   2.445
 6035SOL    HW219005   0.112   1.393   2.516
 6036SOL     OW19006   5.226   5.615   3.512
 6036SOL    HW119007   5.165   5.546   3.473
 6036SOL    HW219008   5.297   5.571   3.565
 6037SOL     OW19009   4.166   5.629   0.044
 6037SOL    HW119010   4.090   5.591   7.010
 6037SOL    HW219011   4.135   5.648   0.137
 6038SOL     OW19012   1.689   1.924   5.612
 6038SOL    HW119013   1.669   1.864   5.535
 6038SOL    HW219014   1.627   1.902   5.688
 6039SOL     OW19015   2.910   3.793   2.464
 6039SOL    HW119016   2.977   3.863   2.489
 6039SOL    HW219017   2.881   3.745   2.547
 6040SOL     OW19018   0.873   1.595   7.016
 6040SOL    HW119019   0.802   1.665   7.002
 6040SOL    HW219020   0.872   1.530   6.941
 6041SOL     OW19021   3.126   0.589   5.268
 6041SOL    HW119022   3.116   0.489   5.261
 6041SOL    HW219023   3.174   0.612   5.353
 6042SOL     OW19024   4.732   6.045   2.490
 6042SOL    HW119025   4.748   5.966   2.431
 6042SOL    HW219026   4.633   6.061   2.497
 6043SOL     OW19027   0.846   4.200   5.171
 6043SOL    HW119028   0.880   4.217   5.263
 6043SOL    HW219029   0.755   4.160   5.175
 6044SOL     OW19030   1.070   2.175   1.283
 6044SOL    HW119031   1.129   2.151   1.360
 6044SOL    HW219032   1.115   2.246   1.228
 6045SOL     OW19033   5.691   4.488   2.438
 6045SOL    HW119034   5.655   4.530   2.522
 6045SOL    HW219035   5.717   4.559   2.374
 6046SOL     OW19036   3.618   2.202   0.543
 6046SOL    HW119037   3.632   2.108   0.514
 6046SOL    HW219038   3.554   2.247   0.480
 6047SOL     OW19039   4.669   2.051   2.059
 6047SOL    HW119040   4.675   2.014   2.152
 6047SOL    HW219041   4.753   2.030   2.009
 6048SOL     OW19042   4.514   5.454   5.057
 6048SOL    HW119043   4.512   5.552   5.081
 6048SOL    HW219044   4.577   5.406   5.118
 6049SOL     OW19045   5.238   2.913   6.487
 6049SOL    HW119046   5.290   2.998   6.477
 6049SOL    HW219047   5.263   2.869   6.574
 6050SOL     OW19048   3.667   5.666   5.289
 6050SOL    HW119049   3.584   5.660   5.344
 6050SOL    HW219050   3.672   5.757   5.246
 6051SOL     OW19051   2.541   0.263   4.230
 6051SOL    HW119052   2.530   0.308   4.141
 6051SOL    HW219053   2.521   0.328   4.303
 6052SOL     OW19054   6.738   0.625   0.562
 6052SOL    HW119055   6.806   0.691   0.532
 6052SOL    HW219056   6.773   0.532   0.548
 6053SOL     OW19057   3.961   1.432   6.545
 6053SOL    HW119058   3.994   1.439   6.450
 6053SOL    HW219059   3.898   1.355   6.552
 6054SOL     OW19060   2.088   3.287   7.010
 6054SOL    HW119061   2.036   3.206   6.984
 6054SOL    HW219062   2.114   3.281   0.087
 6055SOL     OW19063   4.681   0.602   5.303
 6055SOL    HW119064   4.594   0.598   5.253
 6055SOL    HW219065   4.732   0.517   5.288
 6056SOL     OW19066   4.954   2.851   4.669
 6056SOL    HW119067   4.870   2.801   4.645
 6056SOL    HW219068   5.030   2.816   4.615
 6057SOL     OW19069   5.922   3.228   3.875
 6057SOL    HW119070   5.857   3.187   3.938
 6057SOL    HW219071   5.929   3.326   3.893
 6058SOL     OW19072   5.070   2.691   1.859
 6058SOL    HW119073   5.050   2.678   1.956
 6058SOL    HW219074   5.009   2.761   1.821
 6059SOL     OW19075   5.291   4.581   4.659
 6059SOL    HW119076   5.353   4.512   4.697
 6059SOL    HW219077   5.234   4.539   4.589
 6060SOL     OW19078   3.091   4.266   0.013
 6060SOL    HW119079   3.114   4.255   6.935
 6060SOL    HW219080   3.174   4.259   0.068
 6061SOL     OW19081   3.926   2.207   1.098
 6061SOL    HW119082   3.969   2.118   1.108
 6061SOL    HW219083   3.958   2.251   1.014
 6062SOL     OW19084   2.742   1.118   5.200
 6062SOL    HW119085   2.674   1.182   5.165
 6062SOL    HW219086   2.814   1.168   5.247
 6063SOL     OW19087   3.812   1.849   5.950
 6063SOL    HW119088   3.823   1.929   6.009
 6063SOL    HW219089   3.770   1.775   6.002
 6064SOL     OW19090   2.144   6.033   0.785
 6064SOL    HW119091   2.101   6.115   0.822
 6064SOL    HW219092   2.167   6.047   0.688
 6065SOL     OW19093   6.718   7.015   1.858
 6065SOL    HW119094   6.637   0.009   1.915
 6065SOL    HW219095   6.800   0.011   1.914
 6066SOL     OW19096   4.880   1.017   6.094
 6066SOL    HW119097   4.964   1.069   6.077
 6066SOL    HW219098   4.855   0.965   6.012
 6067SOL     OW19099   5.688   1.015   5.501
 6067SOL    HW119100   5.731   0.954   5.568
 6067SOL    HW219101   5.744   1.017   5.418
 6068SOL     OW19102   5.406   3.681   4.368
 6068SOL    HW119103   5.337   3.686   4.440
 6068SOL    HW219104   5.489   3.729   4.398
 6069SOL     OW19105   6.611   2.619   5.310
 6069SOL    HW119106   6.608   2.576   5.220
 6069SOL    HW219107   6.706   2.640   5.334
 6070SOL     OW19108   3.270   2.823   0.261
 6070SOL    HW119109   3.183   2.775   0.276
 6070SOL    HW219110   3.252   2.907   0.211
 6071SOL     OW19111   5.037   5.580   3.928
 6071SOL    HW119112   5.052   5.644   3.852
 6071SOL    HW219113   5.037   5.486   3.893
 6072SOL     OW19114   0.189   0.528   1.933
 6072SOL    HW119115   0.126   0.479   1.994
 6072SOL    HW219116   0.155   0.620   1.917
 6073SOL     OW19117   5.892   3.693   6.854
 6073SOL    HW119118   5.813   3.710   6.794
 6073SOL    HW219119   5.860   3.653   6.940
 6074SOL     OW19120   1.461   6.614   3.886
 6074SOL    HW119121   1.516   6.684   3.932
 6074SOL    HW219122   1.498   6.598   3.795
 6075SOL     OW19123   6.257   1.226   6.293
 6075SOL    HW119124   6.158   1.235   6.304
 6075SOL    HW219125   6.304   1.283   6.360
 6076SOL     OW19126   2.787   5.393   4.268
 6076SOL    HW119127   2.737   5.466   4.220
 6076SOL    HW219128   2.759   5.392   4.364
 6077SOL     OW19129   6.127   5.795   1.202
 6077SOL    HW119130   6.105   5.805   1.299
 6077SOL    HW219131   6.113   5.882   1.156
 6078SOL     OW19132   4.132   4.743   0.437
 6078SOL    HW119133   4.052   4.687   0.458
 6078SOL    HW219134   4.105   4.839   0.426
 6079SOL     OW19135   4.204   3.878   6.073
 6079SOL    HW119136   4.284   3.881   6.013
 6079SOL    HW219137   4.220   3.933   6.154
 6080SOL     OW19138   6.951   0.656   1.204
 6080SOL    HW119139   6.900   0.702   1.131
 6080SOL    HW219140   0.030   0.674   1.193
 6081SOL     OW19141   6.482   3.427   5.904
 6081SOL    HW119142   6.465   3.505   5.963
 6081SOL    HW219143   6.552   3.450   5.836
 6082SOL     OW19144   2.342   1.847   3.950
 6082SOL    HW119145   2.378   1.791   3.877
 6082SOL    HW219146   2.340   1.943   3.921
 6083SOL     OW19147   6.849   5.199   6.784
 6083SOL    HW119148   6.915   5.236   6.849
 6083SOL    HW219149   6.768   5.257   6.781
 6084SOL     OW19150   0.878   0.030   3.691
 6084SOL    HW119151   0.956   0.092   3.685
 6084SOL    HW219152   0.888   6.978   3.622
 6085SOL     OW19153   0.638   4.625   0.464
 6085SOL    HW119154   0.659   4.616   0.562
 6085SOL    HW219155   0.698   4.564   0.412
 6086SOL     OW19156   4.079   0.146   6.127
 6086SOL    HW119157   4.039   0.226   6.172
 6086SOL    HW219158   4.170   0.168   6.094
 6087SOL     OW19159   3.643   5.502   0.925
 6087SOL    HW119160   3.722   5.541   0.879
 6087SOL    HW219161   3.674   5.438   0.996
 6088SOL     OW19162   5.867   5.816   4.027
 6088SOL    HW119163   5.832   5.723   4.013
 6088SOL    HW219164   5.800   5.869   4.079
 6089SOL     OW19165   5.521   3.355   0.542
 6089SOL    HW119166   5.539   3.361   0.444
 6089SOL    HW219167   5.496   3.261   0.566
 6090SOL     OW19168   2.245   5.647   5.882
 6090SOL    HW119169   2.302   5.675   5.959
 6090SOL    HW219170   2.219   5.728   5.829
 6091SOL     OW19171   1.725   1.284   0.500
 6091SOL    HW119172   1.709   1.339   0.418
 6091SOL    HW219173   1.677   1.196   0.490
 6092SOL     OW19174   3.786   0.002   2.852
 6092SOL    HW119175   3.705   6.988   2.802
 6092SOL    HW219176   3.783   0.101   2.857
 6093SOL     OW19177   1.712   3.765   2.250
 6093SOL    HW119178   1.694   3.762   2.151
 6093SOL    HW219179   1.810   3.755   2.266
 6094SOL     OW19180   3.110   6.807   1.338
 6094SOL    HW119181   3.038   6.875   1.350
 6094SOL    HW219182   3.164   6.801   1.422
 6095SOL     OW19183   5.114   3.780   0.579
 6095SOL    HW119184   5.056   3.718   0.633
 6095SOL    HW219185   5.187   3.816   0.637
 6096SOL     OW19186   6.999   6.965   3.215
 6096SOL    HW119187   6.998   0.041   3.247
 6096SOL    HW219188   6.975   6.904   3.290
 6097SOL     OW19189   2.628   6.955   2.412
 6097SOL    HW119190   2.672   0.026   2.408
 6097SOL    HW219191   2.685   6.888   2.365
 6098SOL     OW19192   1.579   2.662   5.390
 6098SOL    HW119193   1.540   2.652   5.481
 6098SOL    HW219194   1.600   2.758   5.372
 6099SOL     OW19195   6.493   6.657   0.024
 6099SOL    HW119196   6.465   6.664   6.948
 6099SOL    HW219197   6.413   6.647   0.083
 6100SOL     OW19198   4.762   4.709   0.136
 6100SOL    HW119199   4.692   4.689   0.068
 6100SOL    HW219200   4.721   4.754   0.215
 6101SOL     OW19201   6.092   2.609   4.517
 6101SOL    HW119202   6.071   2.542   4.445
 6101SOL    HW219203   6.160   2.571   4.579
 6102SOL     OW19204   3.599   6.652   3.522
 6102SOL    HW119205   3.671   6.720   3.541
 6102SOL    HW219206   3.511   6.698   3.517
 6103SOL     OW19207   6.719   2.421   2.503
 6103SOL    HW119208   6.673   2.431   2.591
 6103SOL    HW219209   6.685   2.489   2.438
 6104SOL     OW19210   6.139   0.559   5.396
 6104SOL    HW119211   6.161   0.532   5.302
 6104SOL    HW219212   6.220   0.549   5.453
 6105SOL     OW19213   3.079   6.820   6.128
 6105SOL    HW119214   3.118   6.813   6.220
 6105SOL    HW219215   2.979   6.824   6.135
 6106SOL     OW19216   2.851   4.303   5.934
 6106SOL    HW119217   2.851   4.286   5.835
 6106SOL    HW219218   2.931   4.358   5.958
 6107SOL     OW19219   2.695   5.304   4.594
 6107SOL    HW119220   2.673   5.388   4.643
 6107SOL    HW219221   2.615   5.245   4.591
 6108SOL     OW19222   1.237   2.539   1.852
 6108SOL    HW119223   1.167   2.510   1.918
 6108SOL    HW219224   1.326   2.502   1.879
 6109SOL     OW19225   5.472   2.954   5.122
 6109SOL    HW119226   5.403   2.940   5.192
 6109SOL    HW219227   5.433   3.007   5.046
 6110SOL     OW19228   4.278   3.933   0.316
 6110SOL    HW119229   4.307   3.920   0.411
 6110SOL    HW219230   4.212   4.008   0.312
 6111SOL     OW19231   2.346   4.253   2.261
 6111SOL    HW119232   2.284   4.199   2.204
 6111SOL    HW219233   2.357   4.208   2.350
 6112SOL     OW19234   3.565   0.278   2.359
 6112SOL    HW119235   3.496   0.209   2.381
 6112SOL    HW219236   3.553   0.310   2.266
 6113SOL     OW19237   2.338   1.148   6.309
 6113SOL    HW119238   2.300   1.190   6.392
 6113SOL    HW219239   2.420   1.197   6.282
 6114SOL     OW19240   5.282   6.085   1.429
 6114SOL    HW119241   5.331   6.064   1.345
 6114SOL    HW219242   5.199   6.138   1.408
 6115SOL     OW19243   5.328   6.763   4.158
 6115SOL    HW119244   5.247   6.817   4.138
 6115SOL    HW219245   5.378   6.744   4.073
 6116SOL     OW19246   3.609   0.855   6.972
 6116SOL    HW119247   3.644   0.949   6.978
 6116SOL    HW219248   3.517   0.856   6.934
 6117SOL     OW19249   1.350   1.114   5.028
 6117SOL    HW119250   1.321   1.042   4.965
 6117SOL    HW219251   1.324   1.203   4.991
 6118SOL     OW19252   6.542   1.110   2.221
 6118SOL    HW119253   6.597   1.140   2.144
 6118SOL    HW219254   6.505   1.189   2.270
 6119SOL     OW19255   1.389   3.537   6.177
 6119SOL    HW119256   1.413   3.440   6.185
 6119SOL    HW219257   1.466   3.593   6.207
 6120SOL     OW19258   3.804   6.722   4.746
 6120SOL    HW119259   3.786   6.766   4.834
 6120SOL    HW219260   3.719   6.681   4.712
 6121SOL     OW19261   1.109   3.300   5.499
 6121SOL    HW119262   1.154   3.220   5.538
 6121SOL    HW219263   1.114   3.376   5.564
 6122SOL     OW19264   4.273   6.179   0.631
 6122SOL    HW119265   4.324   6.185   0.716
 6122SOL    HW219266   4.335   6.189   0.553
 6123SOL     OW19267   6.549   6.636   6.689
 6123SOL    HW119268   6.477   6.653   6.623
 6123SOL    HW219269   6.608   6.717   6.694
 6124SOL     OW19270   2.378   0.133   6.267
 6124SOL    HW119271   2.296   0.189   6.252
 6124SOL    HW219272   2.385   0.066   6.193
 6125SOL     OW19273   1.364   5.488   0.533
 6125SOL    HW119274   1.321   5.491   0.442
 6125SOL    HW219275   1.430   5.413   0.536
 6126SOL     OW19276   0.862   0.206   4.039
 6126SOL    HW119277   0.865   0.275   4.112
 6126SOL    HW219278   0.952   0.199   3.996
 6127SOL     OW19279   4.064   6.875   1.171
 6127SOL    HW119280   4.049   6.840   1.263
 6127SOL    HW219281   4.040   6.804   1.105
 6128SOL     OW19282   6.230   3.610   6.928
 6128SOL    HW119283   6.307   3.564   6.973
 6128SOL    HW219284   6.264   3.666   6.852
 6129SOL     OW19285   6.842   3.162   3.218
 6129SOL    HW119286   6.913   3.232   3.212
 6129SOL    HW219287   6.841   3.123   3.310
 6130SOL     OW19288   6.041   2.308   4.001
 6130SOL    HW119289   6.006   2.241   4.067
 6130SOL    HW219290   6.110   2.264   3.943
 6131SOL     OW19291   6.970   1.151   5.246
 6131SOL    HW119292   6.958   1.247   5.219
 6131SOL    HW219293   6.908   1.131   5.322
 6132SOL     OW19294   4.941   1.815   0.578
 6132SOL    HW119295   4.874   1.772   0.517
 6132SOL    HW219296   5.026   1.832   0.528
 6133SOL     OW19297   1.107   2.906   1.970
 6133SOL    HW119298   1.077   2.872   1.880
 6133SOL    HW219299   1.184   2.851   2.002
 6134SOL     OW19300   3.654   4.390   6.590
 6134SOL    HW119301   3.568   4.400   6.540
 6134SOL    HW219302   3.699   4.304   6.563
 6135SOL     OW19303   0.534   0.326   2.057
 6135SOL    HW119304   0.528   0.226   2.055
 6135SOL    HW219305   0.467   0.363   2.122
 6136SOL     OW19306   0.937   2.413   2.429
 6136SOL    HW119307   0.954   2.447   2.522
 6136SOL    HW219308   1.015   2.433   2.371
 6137SOL     OW19309   6.461   2.491   3.859
 6137SOL    HW119310   6.493   2.460   3.770
 6137SOL    HW219311   6.480   2.589   3.869
 6138SOL     OW19312   4.088   6.885   3.070
 6138SOL    HW119313   4.079   6.983   3.085
 6138SOL    HW219314   4.178   6.865   3.032
 6139SOL     OW19315   1.181   0.424   6.600
 6139SOL    HW119316   1.254   0.471   6.550
 6139SOL    HW219317   1.185   0.449   6.696
 6140SOL     OW19318   0.566   6.545   1.482
 6140SOL    HW119319   0.600   6.555   1.575
 6140SOL    HW219320   0.634   6.496   1.427
 6141SOL     OW19321   7.018   6.276   5.981
 6141SOL    HW119322   6.976   6.318   6.062
 6141SOL    HW219323   0.026   6.347   5.916
 6142SOL     OW19324   1.363   5.765   0.616
 6142SOL    HW119325   1.345   5.673   0.582
 6142SOL    HW219326   1.279   5.805   0.652
 6143SOL     OW19327   6.665   3.708   1.283
 6143SOL    HW119328   6.627   3.717   1.191
 6143SOL    HW219329   6.674   3.798   1.326
 6144SOL     OW19330   5.362   4.419   3.253
 6144SOL    HW119331   5.353   4.343   3.316
 6144SOL    HW219332   5.459   4.438   3.237
 6145SOL     OW19333   4.797   5.434   3.115
 6145SOL    HW119334   4.823   5.366   3.046
 6145SOL    HW219335   4.708   5.408   3.154
 6146SOL     OW19336   2.553   6.031   3.474
 6146SOL    HW119337   2.457   6.047   3.494
 6146SOL    HW219338   2.608   6.048   3.556
 6147SOL     OW19339   1.540   3.171   4.558
 6147SOL    HW119340   1.502   3.261   4.537
 6147SOL    HW219341   1.488   3.101   4.509
 6148SOL     OW19342   6.028   6.823   3.742
 6148SOL    HW119343   5.996   6.894   3.804
 6148SOL    HW219344   6.123   6.801   3.764
 6149SOL     OW19345   2.777   5.694   1.108
 6149SOL    HW119346   2.723   5.622   1.152
 6149SOL    HW219347   2.735   5.783   1.126
 6150SOL     OW19348   4.522   4.983   0.477
 6150SOL    HW119349   4.485   5.044   0.406
 6150SOL    HW219350   4.565   4.904   0.434
 6151SOL     OW19351   5.946   4.401   6.240
 6151SOL    HW119352   5.919   4.350   6.321
 6151SOL    HW219353   5.869   4.454   6.206
 6152SOL     OW19354   6.086   4.886   4.663
 6152SOL    HW119355   6.104   4.933   4.749
 6152SOL    HW219356   6.066   4.954   4.592
 6153SOL     OW19357   5.698   4.463   1.132
 6153SOL    HW119358   5.747   4.546   1.105
 6153SOL    HW219359   5.693   4.401   1.053
 6154SOL     OW19360   6.196   2.254   2.655
 6154SOL    HW119361   6.248   2.247   2.740
 6154SOL    HW219362   6.158   2.346   2.646
 6155SOL     OW19363   1.746   1.906   4.432
 6155SOL    HW119364   1.808   1.871   4.362
 6155SOL    HW219365   1.678   1.965   4.388
 6156SOL     OW19366   3.947   4.555   1.635
 6156SOL    HW119367   3.955   4.455   1.627
 6156SOL    HW219368   3.852   4.582   1.621
 6157SOL     OW19369   1.184   0.421   4.451
 6157SOL    HW119370   1.222   0.369   4.375
 6157SOL    HW219371   1.255   0.482   4.488
 6158SOL     OW19372   4.018   1.436   6.254
 6158SOL    HW119373   3.950   1.364   6.241
 6158SOL    HW219374   4.007   1.506   6.184
 6159SOL     OW19375   4.653   2.635   2.253
 6159SOL    HW119376   4.578   2.653   2.316
 6159SOL    HW219377   4.616   2.608   2.164
 6160SOL     OW19378   4.729   1.393   6.604
 6160SOL    HW119379   4.705   1.334   6.681
 6160SOL    HW219380   4.817   1.438   6.623
 6161SOL     OW19381   4.757   1.329   4.666
 6161SOL    HW119382   4.677   1.325   4.726
 6161SOL    HW219383   4.785   1.237   4.640
 6162SOL     OW19384   0.791   6.645   3.628
 6162SOL    HW119385   0.697   6.667   3.604
 6162SOL    HW219386   0.816   6.690   3.713
 6163SOL     OW19387   6.481   6.603   0.840
 6163SOL    HW119388   6.536   6.619   0.758
 6163SOL    HW219389   6.464   6.691   0.886
 6164SOL     OW19390   3.585   3.002   1.970
 6164SOL    HW119391   3.655   2.987   2.039
 6164SOL    HW219392   3.585   2.926   1.904
 6165SOL     OW19393   4.937   0.918   6.762
 6165SOL    HW119394   4.949   0.947   6.857
 6165SOL    HW219395   5.006   0.963   6.705
 6166SOL     OW19396   5.152   1.155   5.751
 6166SOL    HW119397   5.143   1.056   5.761
 6166SOL    HW219398   5.093   1.187   5.677
 6167SOL     OW19399   0.926   5.083   3.522
 6167SOL    HW119400   1.011   5.051   3.478
 6167SOL    HW219401   0.897   5.168   3.478
 6168SOL     OW19402   0.921   3.809   1.455
 6168SOL    HW119403   0.989   3.858   1.400
 6168SOL    HW219404   0.937   3.710   1.447
 6169SOL     OW19405   1.388   2.307   0.850
 6169SOL    HW119406   1.304   2.260   0.875
 6169SOL    HW219407   1.441   2.249   0.787
 6170SOL     OW19408   0.970   4.412   5.851
 6170SOL    HW119409   1.039   4.355   5.806
 6170SOL    HW219410   0.909   4.451   5.782
 6171SOL     OW19411   0.444   3.079   0.987
 6171SOL    HW119412   0.403   3.020   0.917
 6171SOL    HW219413   0.535   3.044   1.011
 6172SOL     OW19414   2.191   3.031   2.598
 6172SOL    HW119415   2.223   2.992   2.512
 6172SOL    HW219416   2.233   3.121   2.612
 6173SOL     OW19417   0.134   5.632   1.828
 6173SOL    HW119418   0.109   5.714   1.881
 6173SOL    HW219419   0.123   5.551   1.886
 6174SOL     OW19420   4.816   5.847   3.891
 6174SOL    HW119421   4.847   5.775   3.828
 6174SOL    HW219422   4.736   5.893   3.853
 6175SOL     OW19423   4.323   0.235   3.657
 6175SOL    HW119424   4.336   0.314   3.716
 6175SOL    HW219425   4.248   0.178   3.691
 6176SOL     OW19426   5.039   4.163   5.406
 6176SOL    HW119427   5.000   4.218   5.480
 6176SOL    HW219428   5.065   4.073   5.442
 6177SOL     OW19429   5.660   0.947   0.909
 6177SOL    HW119430   5.602   0.877   0.950
 6177SOL    HW219431   5.611   0.992   0.834
 6178SOL     OW19432   4.485   4.604   2.584
 6178SOL    HW119433   4.403   4.621   2.528
 6178SOL    HW219434   4.463   4.619   2.680
 6179SOL     OW19435   5.947   4.963   3.641
 6179SOL    HW119436   5.892   4.960   3.724
 6179SOL    HW219437   5.899   4.917   3.567
 6180SOL     OW19438   2.835   4.272   1.258
 6180SOL    HW119439   2.736   4.261   1.265
 6180SOL    HW219440   2.875   4.188   1.223
 6181SOL     OW19441   4.530   6.349   0.148
 6181SOL    HW119442   4.538   6.413   0.071
 6181SOL    HW219443   4.605   6.283   0.143
 6182SOL     OW19444   5.422   3.648   5.599
 6182SOL    HW119445   5.436   3.565   5.544
 6182SOL    HW219446   5.444   3.629   5.695
 6183SOL     OW19447   1.296   2.807   3.726
 6183SOL    HW119448   1.199   2.803   3.749
 6183SOL    HW219449   1.331   2.899   3.743
 6184SOL     OW19450   2.517   6.356   6.475
 6184SOL    HW119451   2.556   6.448   6.469
 6184SOL    HW219452   2.510   6.316   6.384
 6185SOL     OW19453   0.327   3.501   6.260
 6185SOL    HW119454   0.308   3.599   6.258
 6185SOL    HW219455   0.261   3.455   6.319
 6186SOL     OW19456   0.190   0.739   0.394
 6186SOL    HW119457   0.249   0.659   0.383
 6186SOL    HW219458   0.232   0.803   0.459
 6187SOL     OW19459   5.257   4.374   4.059
 6187SOL    HW119460   5.311   4.298   4.022
 6187SOL    HW219461   5.160   4.354   4.051
 6188SOL     OW19462   2.478   1.505   6.606
 6188SOL    HW119463   2.536   1.427   6.583
 6188SOL    HW219464   2.446   1.549   6.522
 6189SOL     OW19465   4.436   4.665   2.870
 6189SOL    HW119466   4.359   4.707   2.822
 6189SOL    HW219467   4.494   4.736   2.909
 6190SOL     OW19468   0.830   3.883   5.525
 6190SOL    HW119469   0.800   3.890   5.430
 6190SOL    HW219470   0.848   3.974   5.561
 6191SOL     OW19471   2.909   2.328   6.922
 6191SOL    HW119472   2.835   2.393   6.939
 6191SOL    HW219473   2.984   2.344   6.987
 6192SOL     OW19474   2.838   2.562   6.196
 6192SOL    HW119475   2.881   2.569   6.106
 6192SOL    HW219476   2.793   2.473   6.205
 6193SOL     OW19477   4.729   6.745   1.699
 6193SOL    HW119478   4.633   6.729   1.674
 6193SOL    HW219479   4.763   6.666   1.750
 6194SOL     OW19480   0.865   0.172   1.396
 6194SOL    HW119481   0.832   0.261   1.364
 6194SOL    HW219482   0.855   0.105   1.323
 6195SOL     OW19483   4.365   5.819   4.829
 6195SOL    HW119484   4.384   5.762   4.750
 6195SOL    HW219485   4.339   5.911   4.798
 6196SOL     OW19486   5.886   3.144   2.135
 6196SOL    HW119487   5.862   3.241   2.140
 6196SOL    HW219488   5.805   3.091   2.111
 6197SOL     OW19489   3.541   5.164   0.942
 6197SOL    HW119490   3.449   5.125   0.947
 6197SOL    HW219491   3.542   5.254   0.986
 6198SOL     OW19492   4.483   6.861   1.498
 6198SOL    HW119493   4.490   6.901   1.407
 6198SOL    HW219494   4.502   6.931   1.567
 6199SOL     OW19495   1.325   1.562   0.369
 6199SOL    HW119496   1.272   1.597   0.291
 6199SOL    HW219497   1.390   1.494   0.336
 6200SOL     OW19498   1.292   1.154   5.674
 6200SOL    HW119499   1.250   1.241   5.648
 6200SOL    HW219500   1.228   1.101   5.729
 6201SOL     OW19501   0.447   4.077   5.924
 6201SOL    HW119502   0.413   3.997   5.973
 6201SOL    HW219503   0.503   4.049   5.847
 6202SOL     OW19504   4.612   1.458   1.573
 6202SOL    HW119505   4.602   1.360   1.559
 6202SOL    HW219506   4.582   1.482   1.665
 6203SOL     OW19507   6.436   5.527   1.782
 6203SOL    HW119508   6.397   5.588   1.851
 6203SOL    HW219509   6.376   5.449   1.768
 6204SOL     OW19510   0.277   5.407   4.124
 6204SOL    HW119511   0.281   5.498   4.084
 6204SOL    HW219512   0.317   5.409   4.216
 6205SOL     OW19513   6.701   5.514   1.066
 6205SOL    HW119514   6.752   5.495   0.983
 6205SOL    HW219515   6.620   5.570   1.044
 6206SOL     OW19516   5.562   2.245   3.369
 6206SOL    HW119517   5.642   2.293   3.403
 6206SOL    HW219518   5.569   2.235   3.269
 6207SOL     OW19519   1.582   5.106   5.587
 6207SOL    HW119520   1.638   5.152   5.519
 6207SOL    HW219521   1.612   5.011   5.596
 6208SOL     OW19522   5.455   3.044   5.693
 6208SOL    HW119523   5.449   2.949   5.724
 6208SOL    HW219524   5.451   3.105   5.772
 6209SOL     OW19525   3.588   6.237   0.030
 6209SOL    HW119526   3.628   6.153   0.068
 6209SOL    HW219527   3.497   6.250   0.069
 6210SOL     OW19528   5.079   3.442   4.029
 6210SOL    HW119529   5.175   3.429   4.052
 6210SOL    HW219530   5.060   3.396   3.942
 6211SOL     OW19531   3.009   6.126   6.275
 6211SOL    HW119532   3.025   6.220   6.245
 6211SOL    HW219533   3.090   6.093   6.324
 6212SOL     OW19534   2.599   4.760   4.868
 6212SOL    HW119535   2.665   4.718   4.931
 6212SOL    HW219536   2.531   4.812   4.921
 6213SOL     OW19537   6.127   6.985   6.943
 6213SOL    HW119538   6.199   6.924   6.977
 6213SOL    HW219539   6.169   0.039   6.889
 6214SOL     OW19540   5.133   5.342   4.578
 6214SOL    HW119541   5.218   5.362   4.626
 6214SOL    HW219542   5.138   5.381   4.485
 6215SOL     OW19543   4.224   2.221   6.310
 6215SOL    HW119544   4.242   2.198   6.405
 6215SOL    HW219545   4.296   2.282   6.277
 6216SOL     OW19546   6.567   2.190   2.982
 6216SOL    HW119547   6.544   2.184   3.079
 6216SOL    HW219548   6.651   2.243   2.971
 6217SOL     OW19549   0.825   3.663   2.207
 6217SOL    HW119550   0.740   3.694   2.163
 6217SOL    HW219551   0.850   3.727   2.280
 6218SOL     OW19552   3.749   6.582   6.373
 6218SOL    HW119553   3.665   6.637   6.380
 6218SOL    HW219554   3.760   6.528   6.456
 6219SOL     OW19555   1.322   1.863   4.797
 6219SOL    HW119556   1.391   1.819   4.855
 6219SOL    HW219557   1.233   1.857   4.842
 6220SOL     OW19558   2.889   1.084   4.947
 6220SOL    HW119559   2.871   1.088   5.046
 6220SOL    HW219560   2.913   0.990   4.922
 6221SOL     OW19561   5.923   6.903   0.114
 6221SOL    HW119562   5.976   6.948   0.043
 6221SOL    HW219563   5.965   6.921   0.203
 6222SOL     OW19564   1.632   0.069   1.971
 6222SOL    HW119565   1.695   0.021   2.032
 6222SOL    HW219566   1.681   0.141   1.922
 6223SOL     OW19567   1.212   5.028   3.880
 6223SOL    HW119568   1.260   5.111   3.851
 6223SOL    HW219569   1.139   5.053   3.944
 6224SOL     OW19570   3.866   1.028   5.872
 6224SOL    HW119571   3.790   1.000   5.931
 6224SOL    HW219572   3.852   0.992   5.779
 6225SOL     OW19573   4.031   3.369   6.447
 6225SOL    HW119574   4.016   3.331   6.355
 6225SOL    HW219575   4.128   3.370   6.468
 6226SOL     OW19576   0.773   1.492   4.694
 6226SOL    HW119577   0.747   1.555   4.767
 6226SOL    HW219578   0.861   1.520   4.657
 6227SOL     OW19579   3.423   4.928   4.901
 6227SOL    HW119580   3.332   4.904   4.865
 6227SOL    HW219581   3.425   4.911   4.999
 6228SOL     OW19582   0.589   3.596   1.941
 6228SOL    HW119583   0.521   3.537   1.898
 6228SOL    HW219584   0.546   3.683   1.967
 6229SOL     OW19585   1.033   2.139   4.498
 6229SOL    HW119586   1.075   2.142   4.589
 6229SOL    HW219587   0.963   2.209   4.491
 6230SOL     OW19588   0.784   2.367   4.207
 6230SOL    HW119589   0.762   2.286   4.153
 6230SOL    HW219590   0.734   2.446   4.171
 6231SOL     OW19591   6.374   5.700   0.260
 6231SOL    HW119592   6.279   5.727   0.244
 6231SOL    HW219593   6.436   5.762   0.212
 6232SOL     OW19594   6.264   1.179   0.940
 6232SOL    HW119595   6.242   1.127   1.023
 6232SOL    HW219596   6.246   1.123   0.860
 6233SOL     OW19597   6.795   2.420   1.351
 6233SOL    HW119598   6.782   2.328   1.389
 6233SOL    HW219599   6.856   2.472   1.410
 6234SOL     OW19600   6.929   0.382   5.436
 6234SOL    HW119601   6.850   0.337   5.477
 6234SOL    HW219602   6.905   0.418   5.346
 6235SOL     OW19603   6.892   0.137   1.327
 6235SOL    HW119604   6.913   0.065   1.393
 6235SOL    HW219605   6.826   0.201   1.368
 6236SOL     OW19606   0.532   4.758   1.325
 6236SOL    HW119607   0.586   4.675   1.341
 6236SOL    HW219608   0.557   4.797   1.237
 6237SOL     OW19609   3.722   0.101   6.668
 6237SOL    HW119610   3.781   0.051   6.605
 6237SOL    HW219611   3.737   0.199   6.659
 6238SOL     OW19612   4.845   5.592   2.596
 6238SOL    HW119613   4.823   5.495   2.597
 6238SOL    HW219614   4.789   5.641   2.663
 6239SOL     OW19615   3.920   1.378   1.716
 6239SOL    HW119616   3.973   1.421   1.643
 6239SOL    HW219617   3.827   1.413   1.715
 6240SOL     OW19618   2.348   3.452   5.654
 6240SOL    HW119619   2.393   3.470   5.566
 6240SOL    HW219620   2.412   3.469   5.728
 6241SOL     OW19621   3.122   0.746   2.051
 6241SOL    HW119622   3.099   0.812   1.979
 6241SOL    HW219623   3.111   0.653   2.016
 6242SOL     OW19624   3.777   0.269   3.644
 6242SOL    HW119625   3.849   0.234   3.584
 6242SOL    HW219626   3.715   0.327   3.591
 6243SOL     OW19627   0.099   6.557   5.245
 6243SOL    HW119628   0.037   6.520   5.314
 6243SOL    HW219629   0.178   6.599   5.289
 6244SOL     OW19630   5.839   3.209   3.283
 6244SOL    HW119631   5.820   3.290   3.338
 6244SOL    HW219632   5.771   3.202   3.210
 6245SOL     OW19633   1.405   3.478   0.962
 6245SOL    HW119634   1.476   3.532   1.007
 6245SOL    HW219635   1.387   3.516   0.872
 6246SOL     OW19636   0.901   1.791   5.407
 6246SOL    HW119637   0.911   1.870   5.346
 6246SOL    HW219638   0.855   1.820   5.492
 6247SOL     OW19639   0.074   6.112   3.857
 6247SOL    HW119640   0.160   6.092   3.810
 6247SOL    HW219641   0.091   6.173   3.934
 6248SOL     OW19642   3.826   3.784   6.687
 6248SOL    HW119643   3.888   3.805   6.611
 6248SOL    HW219644   3.879   3.749   6.764
 6249SOL     OW19645   6.805   3.521   0.826
 6249SOL    HW119646   6.828   3.425   0.812
 6249SOL    HW219647   6.710   3.528   0.855
 6250SOL     OW19648   6.520   0.280   1.230
 6250SOL    HW119649   6.507   0.375   1.200
 6250SOL    HW219650   6.598   0.276   1.293
 6251SOL     OW19651   4.344   5.493   5.423
 6251SOL    HW119652   4.386   5.506   5.513
 6251SOL    HW219653   4.264   5.552   5.416
 6252SOL     OW19654   2.720   6.342   6.164
 6252SOL    HW119655   2.810   6.368   6.127
 6252SOL    HW219656   2.673   6.424   6.198
 6253SOL     OW19657   2.842   4.766   4.281
 6253SOL    HW119658   2.774   4.693   4.292
 6253SOL    HW219659   2.822   4.818   4.197
 6254SOL     OW19660   5.692   0.776   1.283
 6254SOL    HW119661   5.650   0.840   1.218
 6254SOL    HW219662   5.720   0.827   1.365
 6255SOL     OW19663   3.092   0.833   1.022
 6255SOL    HW119664   3.103   0.824   0.923
 6255SOL    HW219665   3.010   0.887   1.042
 6256SOL     OW19666   3.287   5.232   2.402
 6256SOL    HW119667   3.249   5.169   2.334
 6256SOL    HW219668   3.385   5.241   2.388
 6257SOL     OW19669   4.724   2.671   0.651
 6257SOL    HW119670   4.716   2.577   0.618
 6257SOL    HW219671   4.814   2.685   0.691
 6258SOL     OW19672   2.904   0.776   3.575
 6258SOL    HW119673   2.844   0.741   3.503
 6258SOL    HW219674   2.992   0.802   3.536
 6259SOL     OW19675   1.411   1.844   6.846
 6259SOL    HW119676   1.399   1.756   6.801
 6259SOL    HW219677   1.359   1.914   6.797
 6260SOL     OW19678   3.666   6.026   0.424
 6260SOL    HW119679   3.661   5.948   0.486
 6260SOL    HW219680   3.704   6.105   0.473
 6261SOL     OW19681   4.737   0.531   6.795
 6261SOL    HW119682   4.749   0.445   6.844
 6261SOL    HW219683   4.748   0.608   6.859
 6262SOL     OW19684   2.391   6.707   1.535
 6262SOL    HW119685   2.422   6.705   1.630
 6262SOL    HW219686   2.296   6.677   1.531
 6263SOL     OW19687   0.548   6.854   4.375
 6263SOL    HW119688   0.496   6.890   4.297
 6263SOL    HW219689   0.620   6.793   4.342
 6264SOL     OW19690   1.797   0.669   1.900
 6264SOL    HW119691   1.870   0.625   1.953
 6264SOL    HW219692   1.829   0.684   1.806
 6265SOL     OW19693   3.846   3.552   6.958
 6265SOL    HW119694   3.935   3.526   6.921
 6265SOL    HW219695   3.855   3.636   7.011
 6266SOL     OW19696   4.978   0.172   3.693
 6266SOL    HW119697   5.048   0.180   3.763
 6266SOL    HW219698   4.893   0.214   3.725
 6267SOL     OW19699   2.382   0.168   5.366
 6267SOL    HW119700   2.317   0.096   5.341
 6267SOL    HW219701   2.422   0.207   5.283
 6268SOL     OW19702   2.952   1.028   2.436
 6268SOL    HW119703   2.869   0.976   2.456
 6268SOL    HW219704   3.012   0.974   2.377
 6269SOL     OW19705   6.500   6.484   2.310
 6269SOL    HW119706   6.586   6.436   2.323
 6269SOL    HW219707   6.516   6.568   2.258
 6270SOL     OW19708   0.486   0.618   6.364
 6270SOL    HW119709   0.515   0.553   6.293
 6270SOL    HW219710   0.400   0.588   6.404
 6271SOL     OW19711   5.844   2.194   5.938
 6271SOL    HW119712   5.937   2.219   5.964
 6271SOL    HW219713   5.788   2.188   6.021
 6272SOL     OW19714   0.665   2.249   0.154
 6272SOL    HW119715   0.619   2.223   0.069
 6272SOL    HW219716   0.722   2.330   0.137
 6273SOL     OW19717   0.438   6.581   2.595
 6273SOL    HW119718   0.411   6.487   2.572
 6273SOL    HW219719   0.521   6.605   2.545
 6274SOL     OW19720   3.168   6.785   5.706
 6274SOL    HW119721   3.120   6.864   5.666
 6274SOL    HW219722   3.105   6.734   5.764
 6275SOL     OW19723   2.025   6.291   0.213
 6275SOL    HW119724   2.041   6.381   0.253
 6275SOL    HW219725   1.989   6.229   0.283
 6276SOL     OW19726   2.064   4.932   4.200
 6276SOL    HW119727   2.158   4.906   4.177
 6276SOL    HW219728   2.046   5.025   4.169
 6277SOL     OW19729   4.689   3.039   1.194
 6277SOL    HW119730   4.589   3.046   1.203
 6277SOL    HW219731   4.731   3.048   1.284
 6278SOL     OW19732   4.662   6.844   4.748
 6278SOL    HW119733   4.706   6.839   4.659
 6278SOL    HW219734   4.661   6.939   4.779
 6279SOL     OW19735   3.370   6.153   0.422
 6279SOL    HW119736   3.300   6.098   0.377
 6279SOL    HW219737   3.456   6.102   0.426
 6280SOL     OW19738   6.951   1.000   6.250
 6280SOL    HW119739   6.891   0.965   6.323
 6280SOL    HW219740   0.025   1.007   6.285
 6281SOL     OW19741   6.996   5.227   4.441
 6281SOL    HW119742   0.044   5.198   4.373
 6281SOL    HW219743   0.002   5.192   4.531
 6282SOL     OW19744   6.270   5.325   5.658
 6282SOL    HW119745   6.368   5.340   5.675
 6282SOL    HW219746   6.259   5.266   5.577
 6283SOL     OW19747   0.161   3.889   4.462
 6283SOL    HW119748   0.202   3.889   4.371
 6283SOL    HW219749   0.209   3.822   4.519
 6284SOL     OW19750   1.662   4.122   4.946
 6284SOL    HW119751   1.672   4.139   5.044
 6284SOL    HW219752   1.743   4.074   4.913
 6285SOL     OW19753   0.163   3.249   3.809
 6285SOL    HW119754   0.090   3.230   3.744
 6285SOL    HW219755   0.242   3.192   3.789
 6286SOL     OW19756   6.280   2.527   4.714
 6286SOL    HW119757   6.302   2.610   4.764
 6286SOL    HW219758   6.308   2.447   4.768
 6287SOL     OW19759   3.273   4.938   4.574
 6287SOL    HW119760   3.230   4.983   4.651
 6287SOL    HW219761   3.204   4.890   4.520
 6288SOL     OW19762   4.983   4.619   2.203
 6288SOL    HW119763   4.905   4.681   2.214
 6288SOL    HW219764   4.960   4.548   2.137
 6289SOL     OW19765   2.010   5.029   6.822
 6289SOL    HW119766   1.968   4.956   6.768
 6289SOL    HW219767   1.943   5.063   6.889
 6290SOL     OW19768   6.005   4.756   6.076
 6290SOL    HW119769   6.066   4.767   6.155
 6290SOL    HW219770   5.947   4.676   6.090
 6291SOL     OW19771   3.966   3.816   3.844
 6291SOL    HW119772   4.016   3.736   3.812
 6291SOL    HW219773   4.001   3.844   3.934
 6292SOL     OW19774   2.131   2.149   5.124
 6292SOL    HW119775   2.039   2.189   5.129
 6292SOL    HW219776   2.134   2.081   5.050
 6293SOL     OW19777   4.654   1.435   1.156
 6293SOL    HW119778   4.666   1.392   1.066
 6293SOL    HW219779   4.566   1.407   1.195
 6294SOL     OW19780   3.896   0.533   3.778
 6294SOL    HW119781   3.860   0.445   3.750
 6294SOL    HW219782   3.952   0.522   3.860
 6295SOL     OW19783   4.928   4.764   4.692
 6295SOL    HW119784   5.024   4.781   4.667
 6295SOL    HW219785   4.872   4.841   4.663
 6296SOL     OW19786   6.727   5.206   5.853
 6296SOL    HW119787   6.758   5.230   5.761
 6296SOL    HW219788   6.805   5.188   5.912
 6297SOL     OW19789   5.608   0.632   5.422
 6297SOL    HW119790   5.680   0.610   5.489
 6297SOL    HW219791   5.553   0.708   5.455
 6298SOL     OW19792   1.196   3.440   6.647
 6298SOL    HW119793   1.163   3.534   6.641
 6298SOL    HW219794   1.291   3.436   6.616
 6299SOL     OW19795   6.123   2.399   1.798
 6299SOL    HW119796   6.172   2.316   1.823
 6299SOL    HW219797   6.083   2.388   1.707
 6300SOL     OW19798   6.598   1.126   6.547
 6300SOL    HW119799   6.590   1.153   6.643
 6300SOL    HW219800   6.691   1.093   6.530
 6301SOL     OW19801   2.742   6.816   0.128
 6301SOL    HW119802   2.689   6.800   0.046
 6301SOL    HW219803   2.792   6.732   0.152
 6302SOL     OW19804   1.742   2.120   5.251
 6302SOL    HW119805   1.797   2.039   5.270
 6302SOL    HW219806   1.801   2.192   5.213
 6303SOL     OW19807   0.980   0.609   5.059
 6303SOL    HW119808   0.970   0.708   5.054
 6303SOL    HW219809   1.054   0.586   5.123
 6304SOL     OW19810   3.322   0.947   1.822
 6304SOL    HW119811   3.290   1.009   1.750
 6304SOL    HW219812   3.326   0.996   1.909
 6305SOL     OW19813   5.963   6.232   0.607
 6305SOL    HW119814   5.984   6.295   0.681
 6305SOL    HW219815   5.905   6.158   0.640
 6306SOL     OW19816   6.822   4.427   4.064
 6306SOL    HW119817   6.779   4.460   4.148
 6306SOL    HW219818   6.851   4.506   4.008
 6307SOL     OW19819   3.828   4.086   4.011
 6307SOL    HW119820   3.918   4.094   3.968
 6307SOL    HW219821   3.760   4.063   3.942
 6308SOL     OW19822   1.745   2.863   4.532
 6308SOL    HW119823   1.741   2.937   4.600
 6308SOL    HW219824   1.706   2.780   4.571
 6309SOL     OW19825   6.761   5.988   4.085
 6309SOL    HW119826   6.834   6.043   4.123
 6309SOL    HW219827   6.683   6.046   4.063
 6310SOL     OW19828   1.942   6.051   2.323
 6310SOL    HW119829   1.888   5.967   2.317
 6310SOL    HW219830   1.908   6.118   2.256
 6311SOL     OW19831   5.147   1.416   5.977
 6311SOL    HW119832   5.105   1.445   6.063
 6311SOL    HW219833   5.076   1.395   5.910
 6312SOL     OW19834   0.053   6.516   4.975
 6312SOL    HW119835   0.098   6.592   4.928
 6312SOL    HW219836   0.076   6.519   5.073
 6313SOL     OW19837   6.760   5.940   3.787
 6313SOL    HW119838   6.745   6.032   3.751
 6313SOL    HW219839   6.789   5.946   3.883
 6314SOL     OW19840   3.884   6.593   1.672
 6314SOL    HW119841   3.791   6.576   1.704
 6314SOL    HW219842   3.949   6.555   1.738
 6315SOL     OW19843   3.209   1.973   6.050
 6315SOL    HW119844   3.118   1.936   6.031
 6315SOL    HW219845   3.232   2.042   5.981
 6316SOL     OW19846   4.737   1.947   6.176
 6316SOL    HW119847   4.774   2.036   6.201
 6316SOL    HW219848   4.638   1.955   6.162
 6317SOL     OW19849   5.234   4.865   2.014
 6317SOL    HW119850   5.314   4.863   1.953
 6317SOL    HW219851   5.225   4.777   2.060
 6318SOL     OW19852   4.403   6.806   5.867
 6318SOL    HW119853   4.441   6.888   5.909
 6318SOL    HW219854   4.345   6.758   5.933
 6319SOL     OW19855   6.479   2.017   5.529
 6319SOL    HW119856   6.477   2.110   5.492
 6319SOL    HW219857   6.572   1.980   5.521
 6320SOL     OW19858   6.805   6.440   5.073
 6320SOL    HW119859   6.880   6.502   5.052
 6320SOL    HW219860   6.838   6.346   5.075
 6321SOL     OW19861   4.536   3.281   1.027
 6321SOL    HW119862   4.526   3.207   0.960
 6321SOL    HW219863   4.631   3.284   1.059
 6322SOL     OW19864   1.840   2.670   1.026
 6322SOL    HW119865   1.815   2.635   1.116
 6322SOL    HW219866   1.787   2.623   0.956
 6323SOL     OW19867   2.151   2.401   1.840
 6323SOL    HW119868   2.199   2.357   1.916
 6323SOL    HW219869   2.218   2.436   1.775
 6324SOL     OW19870   4.835   1.030   0.844
 6324SOL    HW119871   4.848   1.109   0.784
 6324SOL    HW219872   4.863   0.947   0.796
 6325SOL     OW19873   1.815   3.466   2.575
 6325SOL    HW119874   1.745   3.537   2.577
 6325SOL    HW219875   1.777   3.382   2.537
 6326SOL     OW19876   5.346   5.048   1.304
 6326SOL    HW119877   5.441   5.018   1.291
 6326SOL    HW219878   5.343   5.147   1.313
 6327SOL     OW19879   0.087   1.542   4.816
 6327SOL    HW119880   0.066   1.583   4.727
 6327SOL    HW219881   0.001   1.524   4.865
 6328SOL     OW19882   4.099   3.775   0.147
 6328SOL    HW119883   4.153   3.693   0.166
 6328SOL    HW219884   4.139   3.853   0.195
 6329SOL     OW19885   1.602   2.845   3.832
 6329SOL    HW119886   1.694   2.849   3.870
 6329SOL    HW219887   1.538   2.889   3.895
 6330SOL     OW19888   5.806   6.969   1.910
 6330SOL    HW119889   5.819   6.873   1.936
 6330SOL    HW219890   5.727   6.976   1.850
 6331SOL     OW19891   6.872   3.464   5.252
 6331SOL    HW119892   6.817   3.527   5.308
 6331SOL    HW219893   6.811   3.412   5.191
 6332SOL     OW19894   0.578   2.450   0.843
 6332SOL    HW119895   0.545   2.517   0.910
 6332SOL    HW219896   0.676   2.465   0.827
 6333SOL     OW19897   4.374   6.585   5.415
 6333SOL    HW119898   4.460   6.583   5.364
 6333SOL    HW219899   4.328   6.672   5.397
 6334SOL     OW19900   3.347   1.243   2.586
 6334SOL    HW119901   3.436   1.281   2.610
 6334SOL    HW219902   3.358   1.148   2.555
 6335SOL     OW19903   4.088   0.690   0.790
 6335SOL    HW119904   4.141   0.608   0.768
 6335SOL    HW219905   4.109   0.720   0.883
 6336SOL     OW19906   1.200   2.232   6.593
 6336SOL    HW119907   1.120   2.284   6.622
 6336SOL    HW219908   1.224   2.259   6.499
 6337SOL     OW19909   4.892   5.339   5.686
 6337SOL    HW119910   4.913   5.427   5.643
 6337SOL    HW219911   4.935   5.266   5.634
 6338SOL     OW19912   3.154   2.119   4.151
 6338SOL    HW119913   3.235   2.105   4.095
 6338SOL    HW219914   3.082   2.161   4.096
 6339SOL     OW19915   1.021   3.702   3.703
 6339SOL    HW119916   1.039   3.630   3.770
 6339SOL    HW219917   1.054   3.790   3.738
 6340SOL     OW19918   1.479   5.067   1.781
 6340SOL    HW119919   1.500   5.149   1.835
 6340SOL    HW219920   1.529   4.989   1.817
 6341SOL     OW19921   6.655   4.111   4.328
 6341SOL    HW119922   6.744   4.110   4.282
 6341SOL    HW219923   6.644   4.198   4.376
 6342SOL     OW19924   2.585   1.731   0.910
 6342SOL    HW119925   2.641   1.713   0.991
 6342SOL    HW219926   2.495   1.763   0.938
 6343SOL     OW19927   4.587   0.664   6.129
 6343SOL    HW119928   4.592   0.756   6.168
 6343SOL    HW219929   4.524   0.609   6.184
 6344SOL     OW19930   5.158   2.335   4.587
 6344SOL    HW119931   5.194   2.391   4.662
 6344SOL    HW219932   5.224   2.334   4.511
 6345SOL     OW19933   6.006   2.548   2.414
 6345SOL    HW119934   5.962   2.554   2.503
 6345SOL    HW219935   6.026   2.640   2.380
 6346SOL     OW19936   6.240   5.583   3.756
 6346SOL    HW119937   6.310   5.517   3.785
 6346SOL    HW219938   6.252   5.602   3.658
 6347SOL     OW19939   2.112   1.159   6.995
 6347SOL    HW119940   2.069   1.245   6.967
 6347SOL    HW219941   2.184   1.178   0.042
 6348SOL     OW19942   1.646   3.003   6.019
 6348SOL    HW119943   1.558   2.956   6.017
 6348SOL    HW219944   1.700   2.977   5.939
 6349SOL     OW19945   1.701   0.745   0.910
 6349SOL    HW119946   1.627   0.703   0.859
 6349SOL    HW219947   1.670   0.766   1.003
 6350SOL     OW19948   0.678   5.141   4.151
 6350SOL    HW119949   0.603   5.091   4.194
 6350SOL    HW219950   0.724   5.197   4.220
 6351SOL     OW19951   6.245   3.840   3.432
 6351SOL    HW119952   6.180   3.914   3.448
 6351SOL    HW219953   6.196   3.753   3.431
 6352SOL     OW19954   2.784   6.993   5.033
 6352SOL    HW119955   2.830   0.033   4.968
 6352SOL    HW219956   2.835   6.908   5.044
 6353SOL     OW19957   0.771   6.100   5.778
 6353SOL    HW119958   0.809   6.063   5.863
 6353SOL    HW219959   0.844   6.114   5.712
 6354SOL     OW19960   2.981   5.211   3.032
 6354SOL    HW119961   2.985   5.137   2.965
 6354SOL    HW219962   3.019   5.180   3.119
 6355SOL     OW19963   1.994   5.457   6.740
 6355SOL    HW119964   1.960   5.372   6.701
 6355SOL    HW219965   1.973   5.460   6.838
 6356SOL     OW19966   4.847   5.343   1.247
 6356SOL    HW119967   4.818   5.310   1.337
 6356SOL    HW219968   4.788   5.304   1.176
 6357SOL     OW19969   6.224   3.208   2.830
 6357SOL    HW119970   6.267   3.278   2.773
 6357SOL    HW219971   6.203   3.247   2.920
 6358SOL     OW19972   0.145   1.778   6.747
 6358SOL    HW119973   0.239   1.812   6.756
 6358SOL    HW219974   0.115   1.742   6.836
 6359SOL     OW19975   6.327   0.156   0.396
 6359SOL    HW119976   6.391   0.108   0.337
 6359SOL    HW219977   6.328   0.254   0.373
 6360SOL     OW19978   1.205   3.789   5.661
 6360SOL    HW119979   1.239   3.725   5.591
 6360SOL    HW219980   1.114   3.821   5.635
 6361SOL     OW19981   1.269   0.288   0.883
 6361SOL    HW119982   1.223   0.253   0.802
 6361SOL    HW219983   1.244   0.384   0.897
 6362SOL     OW19984   0.494   5.734   6.909
 6362SOL    HW119985   0.457   5.664   6.970
 6362SOL    HW219986   0.590   5.714   6.889
 6363SOL     OW19987   2.452   5.639   3.721
 6363SOL    HW119988   2.412   5.723   3.684
 6363SOL    HW219989   2.546   5.629   3.687
 6364SOL     OW19990   2.635   1.796   5.573
 6364SOL    HW119991   2.734   1.788   5.586
 6364SOL    HW219992   2.615   1.849   5.491
 6365SOL     OW19993   4.808   6.985   3.887
 6365SOL    HW119994   4.715   6.949   3.897
 6365SOL    HW219995   4.863   6.922   3.832
 6366SOL     OW19996   1.132   5.516   5.199
 6366SOL    HW119997   1.099   5.445   5.137
 6366SOL    HW219998   1.080   5.600   5.186
 6367SOL     OW19999   4.281   1.472   3.683
 6367SOL    HW120000   4.281   1.396   3.617
 6367SOL    HW220001   4.270   1.559   3.633
 6368SOL     OW20002   3.535   4.893   3.749
 6368SOL    HW120003   3.525   4.854   3.658
 6368SOL    HW220004   3.446   4.897   3.794
 6369SOL     OW20005   2.437   0.731   4.668
 6369SOL    HW120006   2.389   0.775   4.592
 6369SOL    HW220007   2.535   0.743   4.658
 6370SOL     OW20008   6.276   3.420   3.702
 6370SOL    HW120009   6.289   3.345   3.766
 6370SOL    HW220010   6.359   3.433   3.648
 6371SOL     OW20011   5.165   4.821   3.068
 6371SOL    HW120012   5.163   4.756   3.145
 6371SOL    HW220013   5.232   4.893   3.087
 6372SOL     OW20014   1.574   1.175   1.823
 6372SOL    HW120015   1.560   1.225   1.909
 6372SOL    HW220016   1.502   1.106   1.812
 6373SOL     OW20017   4.577   4.426   2.914
 6373SOL    HW120018   4.540   4.515   2.888
 6373SOL    HW220019   4.504   4.371   2.956
 6374SOL     OW20020   3.937   3.614   2.403
 6374SOL    HW120021   3.852   3.638   2.358
 6374SOL    HW220022   3.924   3.532   2.459
 6375SOL     OW20023   6.667   2.103   2.467
 6375SOL    HW120024   6.663   2.184   2.526
 6375SOL    HW220025   6.752   2.054   2.484
 6376SOL     OW20026   4.759   2.258   6.002
 6376SOL    HW120027   4.785   2.172   5.958
 6376SOL    HW220028   4.699   2.310   5.942
 6377SOL     OW20029   0.004   1.085   5.678
 6377SOL    HW120030   0.033   1.145   5.752
 6377SOL    HW220031   0.014   0.990   5.706
 6378SOL     OW20032   4.569   4.523   3.721
 6378SOL    HW120033   4.661   4.560   3.736
 6378SOL    HW220034   4.525   4.506   3.809
 6379SOL     OW20035   1.000   4.677   5.473
 6379SOL    HW120036   1.003   4.754   5.409
 6379SOL    HW220037   0.906   4.658   5.498
 6380SOL     OW20038   0.662   1.448   4.986
 6380SOL    HW120039   0.742   1.389   4.975
 6380SOL    HW220040   0.601   1.435   4.908
 6381SOL     OW20041   4.063   2.921   1.100
 6381SOL    HW120042   4.042   3.016   1.123
 6381SOL    HW220043   4.133   2.919   1.028
 6382SOL     OW20044   3.258   2.033   0.579
 6382SOL    HW120045   3.285   2.100   0.647
 6382SOL    HW220046   3.240   1.945   0.623
 6383SOL     OW20047   2.083   2.723   3.367
 6383SOL    HW120048   2.016   2.764   3.304
 6383SOL    HW220049   2.142   2.661   3.316
 6384SOL     OW20050   6.609   3.647   3.067
 6384SOL    HW120051   6.669   3.576   3.102
 6384SOL    HW220052   6.541   3.670   3.136
 6385SOL     OW20053   0.009   3.607   3.360
 6385SOL    HW120054   6.962   3.621   3.434
 6385SOL    HW220055   0.098   3.642   3.387
 6386SOL     OW20056   2.430   3.347   6.174
 6386SOL    HW120057   2.401   3.292   6.096
 6386SOL    HW220058   2.378   3.432   6.177
 6387SOL     OW20059   6.807   1.892   6.501
 6387SOL    HW120060   6.735   1.961   6.491
 6387SOL    HW220061   6.779   1.825   6.570
 6388SOL     OW20062   4.703   6.147   1.792
 6388SOL    HW120063   4.668   6.075   1.853
 6388SOL    HW220064   4.789   6.183   1.829
 6389SOL     OW20065   0.230   6.668   0.922
 6389SOL    HW120066   0.255   6.592   0.982
 6389SOL    HW220067   0.179   6.633   0.844
 6390SOL     OW20068   0.204   0.678   5.608
 6390SOL    HW120069   0.212   0.589   5.652
 6390SOL    HW220070   0.131   0.675   5.540
 6391SOL     OW20071   1.104   6.917   6.257
 6391SOL    HW120072   1.170   6.958   6.320
 6391SOL    HW220073   1.126   6.945   6.164
 6392SOL     OW20074   2.534   5.679   2.451
 6392SOL    HW120075   2.622   5.633   2.450
 6392SOL    HW220076   2.526   5.734   2.534
 6393SOL     OW20077   0.649   5.874   1.795
 6393SOL    HW120078   0.691   5.839   1.879
 6393SOL    HW220079   0.554   5.843   1.789
 6394SOL     OW20080   1.915   5.506   0.446
 6394SOL    HW120081   1.832   5.541   0.403
 6394SOL    HW220082   1.936   5.561   0.527
 6395SOL     OW20083   0.234   2.909   1.516
 6395SOL    HW120084   0.263   2.814   1.509
 6395SOL    HW220085   0.202   2.940   1.426
 6396SOL     OW20086   5.834   3.276   7.014
 6396SOL    HW120087   5.911   3.338   0.010
 6396SOL    HW220088   5.867   3.189   6.977
 6397SOL     OW20089   5.775   1.536   1.744
 6397SOL    HW120090   5.840   1.481   1.796
 6397SOL    HW220091   5.693   1.481   1.725
 6398SOL     OW20092   3.072   6.693   1.749
 6398SOL    HW120093   2.989   6.717   1.700
 6398SOL    HW220094   3.086   6.594   1.744
 6399SOL     OW20095   1.881   0.094   0.160
 6399SOL    HW120096   1.855   0.095   0.063
 6399SOL    HW220097   1.980   0.096   0.168
 6400SOL     OW20098   2.279   5.145   2.838
 6400SOL    HW120099   2.363   5.193   2.864
 6400SOL    HW220100   2.288   5.048   2.862
 6401SOL     OW20101   5.348   6.411   3.492
 6401SOL    HW120102   5.434   6.442   3.450
 6401SOL    HW220103   5.271   6.438   3.434
 6402SOL     OW20104   2.286   2.876   3.441
 6402SOL    HW120105   2.210   2.812   3.427
 6402SOL    HW220106   2.302   2.927   3.357
 6403SOL     OW20107   6.524   5.304   6.040
 6403SOL    HW120108   6.533   5.401   6.064
 6403SOL    HW220109   6.604   5.275   5.987
 6404SOL     OW20110   4.005   0.963   2.030
 6404SOL    HW120111   3.971   0.914   1.950
 6404SOL    HW220112   4.099   0.934   2.050
 6405SOL     OW20113   3.567   0.563   3.965
 6405SOL    HW120114   3.481   0.582   3.918
 6405SOL    HW220115   3.638   0.626   3.932
 6406SOL     OW20116   0.701   2.638   2.834
 6406SOL    HW120117   0.679   2.595   2.921
 6406SOL    HW220118   0.725   2.734   2.849
 6407SOL     OW20119   2.246   0.254   4.188
 6407SOL    HW120120   2.218   0.160   4.211
 6407SOL    HW220121   2.344   0.265   4.206
 6408SOL     OW20122   5.188   1.232   0.576
 6408SOL    HW120123   5.244   1.291   0.634
 6408SOL    HW220124   5.234   1.144   0.563
 6409SOL     OW20125   5.924   4.600   4.265
 6409SOL    HW120126   5.937   4.688   4.221
 6409SOL    HW220127   5.930   4.527   4.197
 6410SOL     OW20128   2.177   1.224   5.870
 6410SOL    HW120129   2.109   1.267   5.811
 6410SOL    HW220130   2.196   1.283   5.948
 6411SOL     OW20131   0.372   2.866   2.997
 6411SOL    HW120132   0.395   2.934   3.066
 6411SOL    HW220133   0.415   2.890   2.910
 6412SOL     OW20134   1.638   1.998   4.815
 6412SOL    HW120135   1.673   1.906   4.829
 6412SOL    HW220136   1.571   1.998   4.741
 6413SOL     OW20137   3.883   4.932   3.435
 6413SOL    HW120138   3.895   4.951   3.533
 6413SOL    HW220139   3.788   4.907   3.417
 6414SOL     OW20140   5.445   1.263   6.961
 6414SOL    HW120141   5.358   1.232   6.922
 6414SOL    HW220142   5.461   1.217   0.029
 6415SOL     OW20143   1.400   3.342   3.438
 6415SOL    HW120144   1.484   3.301   3.474
 6415SOL    HW220145   1.329   3.339   3.508
 6416SOL     OW20146   1.671   0.076   6.952
 6416SOL    HW120147   1.693   0.007   6.882
 6416SOL    HW220148   1.712   0.164   6.925
 6417SOL     OW20149   5.665   4.919   0.355
 6417SOL    HW120150   5.583   4.884   0.400
 6417SOL    HW220151   5.744   4.864   0.383
 6418SOL     OW20152   4.890   3.414   2.583
 6418SOL    HW120153   4.963   3.373   2.528
 6418SOL    HW220154   4.882   3.511   2.561
 6419SOL     OW20155   0.951   4.865   3.205
 6419SOL    HW120156   0.963   4.876   3.304
 6419SOL    HW220157   0.966   4.769   3.180
 6420SOL     OW20158   2.491   6.623   4.079
 6420SOL    HW120159   2.580   6.590   4.049
 6420SOL    HW220160   2.422   6.553   4.059
 6421SOL     OW20161   4.417   0.319   2.053
 6421SOL    HW120162   4.510   0.307   2.087
 6421SOL    HW220163   4.400   0.417   2.036
 6422SOL     OW20164   6.940   0.194   5.103
 6422SOL    HW120165   6.961   0.171   5.008
 6422SOL    HW220166   0.006   0.204   5.155
 6423SOL     OW20167   4.601   5.832   3.311
 6423SOL    HW120168   4.575   5.908   3.372
 6423SOL    HW220169   4.643   5.759   3.364
 6424SOL     OW20170   0.411   4.329   4.648
 6424SOL    HW120171   0.318   4.307   4.618
 6424SOL    HW220172   0.428   4.426   4.632
 6425SOL     OW20173   6.483   6.711   3.021
 6425SOL    HW120174   6.547   6.735   3.094
 6425SOL    HW220175   6.457   6.793   2.970
 6426SOL     OW20176   1.136   5.038   3.105
 6426SOL    HW120177   1.071   4.964   3.119
 6426SOL    HW220178   1.108   5.118   3.158
 6427SOL     OW20179   4.072   3.879   4.086
 6427SOL    HW120180   3.993   3.921   4.130
 6427SOL    HW220181   4.135   3.845   4.157
 6428SOL     OW20182   5.333   3.492   6.541
 6428SOL    HW120183   5.424   3.460   6.515
 6428SOL    HW220184   5.336   3.590   6.561
 6429SOL     OW20185   0.303   1.268   5.607
 6429SOL    HW120186   0.372   1.203   5.639
 6429SOL    HW220187   0.264   1.235   5.522
 6430SOL     OW20188   6.060   1.053   3.733
 6430SOL    HW120189   6.044   1.149   3.710
 6430SOL    HW220190   5.977   1.001   3.716
 6431SOL     OW20191   4.364   6.561   3.513
 6431SOL    HW120192   4.276   6.585   3.553
 6431SOL    HW220193   4.396   6.475   3.552
 6432SOL     OW20194   4.318   4.466   6.046
 6432SOL    HW120195   4.372   4.529   5.990
 6432SOL    HW220196   4.314   4.500   6.140
 6433SOL     OW20197   1.614   5.337   5.803
 6433SOL    HW120198   1.701   5.314   5.848
 6433SOL    HW220199   1.591   5.265   5.737
 6434SOL     OW20200   2.413   6.283   5.874
 6434SOL    HW120201   2.400   6.273   5.775
 6434SOL    HW220202   2.488   6.225   5.904
 6435SOL     OW20203   5.115   6.718   0.568
 6435SOL    HW120204   5.202   6.760   0.543
 6435SOL    HW220205   5.074   6.676   0.487
 6436SOL     OW20206   1.268   2.783   2.467
 6436SOL    HW120207   1.275   2.834   2.381
 6436SOL    HW220208   1.172   2.781   2.496
 6437SOL     OW20209   1.743   2.089   0.167
 6437SOL    HW120210   1.841   2.086   0.188
 6437SOL    HW220211   1.725   2.037   0.084
 6438SOL     OW20212   0.501   3.776   5.709
 6438SOL    HW120213   0.580   3.715   5.706
 6438SOL    HW220214   0.451   3.762   5.795
 6439SOL     OW20215   5.506   1.445   1.994
 6439SOL    HW120216   5.555   1.424   2.079
 6439SOL    HW220217   5.484   1.542   1.991
 6440SOL     OW20218   2.793   1.427   5.857
 6440SOL    HW120219   2.797   1.388   5.765
 6440SOL    HW220220   2.838   1.516   5.858
 6441SOL     OW20221   0.354   6.977   1.540
 6441SOL    HW120222   0.311   6.953   1.626
 6441SOL    HW220223   0.303   0.032   1.496
 6442SOL     OW20224   2.377   1.499   4.942
 6442SOL    HW120225   2.338   1.553   5.016
 6442SOL    HW220226   2.473   1.523   4.930
 6443SOL     OW20227   3.542   2.490   5.419
 6443SOL    HW120228   3.547   2.579   5.373
 6443SOL    HW220229   3.450   2.477   5.457
 6444SOL     OW20230   5.570   3.608   4.834
 6444SOL    HW120231   5.554   3.701   4.868
 6444SOL    HW220232   5.560   3.607   4.735
 6445SOL     OW20233   3.986   3.147   4.608
 6445SOL    HW120234   3.948   3.231   4.645
 6445SOL    HW220235   4.027   3.165   4.519
 6446SOL     OW20236   1.303   1.187   6.618
 6446SOL    HW120237   1.244   1.243   6.675
 6446SOL    HW220238   1.347   1.117   6.675
 6447SOL     OW20239   5.822   5.128   2.949
 6447SOL    HW120240   5.883   5.175   3.012
 6447SOL    HW220241   5.876   5.073   2.885
 6448SOL     OW20242   5.024   5.470   1.747
 6448SOL    HW120243   4.950   5.467   1.814
 6448SOL    HW220244   5.054   5.564   1.734
 6449SOL     OW20245   3.949   5.957   1.650
 6449SOL    HW120246   3.855   5.946   1.684
 6449SOL    HW220247   4.012   5.959   1.727
 6450SOL     OW20248   1.668   3.193   0.880
 6450SOL    HW120249   1.738   3.261   0.856
 6450SOL    HW220250   1.624   3.220   0.966
 6451SOL     OW20251   2.187   0.867   5.684
 6451SOL    HW120252   2.258   0.873   5.614
 6451SOL    HW220253   2.098   0.858   5.640
 6452SOL     OW20254   4.279   5.189   3.193
 6452SOL    HW120255   4.220   5.112   3.217
 6452SOL    HW220256   4.359   5.191   3.253
 6453SOL     OW20257   2.402   0.011   2.199
 6453SOL    HW120258   2.466   6.993   2.131
 6453SOL    HW220259   2.402   0.111   2.192
 6454SOL     OW20260   0.940   2.144   3.211
 6454SOL    HW120261   0.957   2.139   3.112
 6454SOL    HW220262   0.859   2.091   3.234
 6455SOL     OW20263   0.171   3.307   4.080
 6455SOL    HW120264   0.200   3.400   4.101
 6455SOL    HW220265   0.169   3.294   3.981
 6456SOL     OW20266   1.733   1.380   3.145
 6456SOL    HW120267   1.660   1.315   3.165
 6456SOL    HW220268   1.817   1.332   3.123
 6457SOL     OW20269   5.187   1.185   2.016
 6457SOL    HW120270   5.109   1.246   2.031
 6457SOL    HW220271   5.189   1.157   1.921
 6458SOL     OW20272   0.824   5.770   3.948
 6458SOL    HW120273   0.805   5.675   3.925
 6458SOL    HW220274   0.747   5.827   3.921
 6459SOL     OW20275   6.000   3.191   1.360
 6459SOL    HW120276   5.971   3.218   1.451
 6459SOL    HW220277   6.048   3.267   1.316
 6460SOL     OW20278   6.008   5.896   6.274
 6460SOL    HW120279   6.073   5.836   6.227
 6460SOL    HW220280   5.922   5.846   6.290
 6461SOL     OW20281   2.134   4.453   6.736
 6461SOL    HW120282   2.060   4.441   6.802
 6461SOL    HW220283   2.193   4.372   6.736
 6462SOL     OW20284   2.149   3.377   4.285
 6462SOL    HW120285   2.190   3.305   4.230
 6462SOL    HW220286   2.165   3.359   4.382
 6463SOL     OW20287   5.664   2.201   0.363
 6463SOL    HW120288   5.637   2.281   0.417
 6463SOL    HW220289   5.722   2.231   0.287
 6464SOL     OW20290   1.383   4.680   4.797
 6464SOL    HW120291   1.415   4.721   4.712
 6464SOL    HW220292   1.314   4.739   4.839
 6465SOL     OW20293   6.459   3.294   2.287
 6465SOL    HW120294   6.455   3.205   2.242
 6465SOL    HW220295   6.554   3.322   2.297
 6466SOL     OW20296   6.433   1.331   5.783
 6466SOL    HW120297   6.350   1.307   5.833
 6466SOL    HW220298   6.513   1.318   5.842
 6467SOL     OW20299   4.073   0.260   0.023
 6467SOL    HW120300   4.041   0.175   0.065
 6467SOL    HW220301   4.140   0.303   0.083
 6468SOL     OW20302   2.966   6.453   1.359
 6468SOL    HW120303   2.891   6.430   1.296
 6468SOL    HW220304   3.050   6.467   1.306
 6469SOL     OW20305   4.471   2.146   3.835
 6469SOL    HW120306   4.476   2.080   3.911
 6469SOL    HW220307   4.531   2.223   3.855
 6470SOL     OW20308   5.631   2.773   1.000
 6470SOL    HW120309   5.719   2.751   0.959
 6470SOL    HW220310   5.605   2.701   1.065
 6471SOL     OW20311   0.105   6.452   5.821
 6471SOL    HW120312   0.106   6.546   5.855
 6471SOL    HW220313   0.072   6.451   5.727
 6472SOL     OW20314   0.001   5.764   1.419
 6472SOL    HW120315   6.930   5.726   1.401
 6472SOL    HW220316   0.066   5.690   1.433
 6473SOL     OW20317   2.977   1.853   4.957
 6473SOL    HW120318   2.959   1.942   4.999
 6473SOL    HW220319   2.930   1.847   4.870
 6474SOL     OW20320   3.131   5.113   6.703
 6474SOL    HW120321   3.038   5.122   6.739
 6474SOL    HW220322   3.130   5.053   6.622
 6475SOL     OW20323   5.862   5.188   3.437
 6475SOL    HW120324   5.782   5.226   3.484
 6475SOL    HW220325   5.884   5.099   3.477
 6476SOL     OW20326   4.494   3.493   0.791
 6476SOL    HW120327   4.421   3.561   0.782
 6476SOL    HW220328   4.460   3.414   0.843
 6477SOL     OW20329   6.039   4.984   0.348
 6477SOL    HW120330   6.074   4.987   0.442
 6477SOL    HW220331   6.113   4.963   0.285
 6478SOL     OW20332   3.197   0.221   2.077
 6478SOL    HW120333   3.167   0.180   1.991
 6478SOL    HW220334   3.250   0.154   2.129
 6479SOL     OW20335   4.088   5.628   3.563
 6479SOL    HW120336   4.008   5.595   3.612
 6479SOL    HW220337   4.103   5.725   3.585
 6480SOL     OW20338   3.086   0.901   6.962
 6480SOL    HW120339   3.001   0.870   6.919
 6480SOL    HW220340   3.100   0.850   0.028
 6481SOL     OW20341   3.252   2.096   2.225
 6481SOL    HW120342   3.220   2.100   2.130
 6481SOL    HW220343   3.348   2.068   2.227
 6482SOL     OW20344   6.460   1.599   5.796
 6482SOL    HW120345   6.424   1.644   5.878
 6482SOL    HW220346   6.424   1.506   5.792
 6483SOL     OW20347   0.890   0.355   3.277
 6483SOL    HW120348   0.919   0.450   3.265
 6483SOL    HW220349   0.897   0.307   3.190
 6484SOL     OW20350   3.590   0.020   1.410
 6484SOL    HW120351   3.618   6.963   1.468
 6484SOL    HW220352   3.599   7.012   1.314
 6485SOL     OW20353   1.897   5.106   4.005
 6485SOL    HW120354   1.960   5.073   3.935
 6485SOL    HW220355   1.823   5.157   3.961
 6486SOL     OW20356   0.628   4.293   3.043
 6486SOL    HW120357   0.663   4.374   3.090
 6486SOL    HW220358   0.702   4.247   2.996
 6487SOL     OW20359   0.992   7.011   5.141
 6487SOL    HW120360   0.924   0.012   5.071
 6487SOL    HW220361   1.077   6.982   5.099
 6488SOL     OW20362   3.669   6.387   4.822
 6488SOL    HW120363   3.704   6.392   4.916
 6488SOL    HW220364   3.721   6.449   4.764
 6489SOL     OW20365   3.082   3.824   6.052
 6489SOL    HW120366   3.101   3.917   6.019
 6489SOL    HW220367   3.139   3.759   6.001
 6490SOL     OW20368   3.738   1.158   6.490
 6490SOL    HW120369   3.712   1.071   6.447
 6490SOL    HW220370   3.671   1.183   6.559
 6491SOL     OW20371   3.988   0.921   1.379
 6491SOL    HW120372   3.968   0.840   1.325
 6491SOL    HW220373   3.925   0.995   1.354
 6492SOL     OW20374   3.896   4.667   6.110
 6492SOL    HW120375   3.942   4.623   6.033
 6492SOL    HW220376   3.938   4.756   6.127
 6493SOL     OW20377   1.888   4.531   6.062
 6493SOL    HW120378   1.898   4.619   6.016
 6493SOL    HW220379   1.978   4.486   6.068
 6494SOL     OW20380   6.650   0.932   3.627
 6494SOL    HW120381   6.646   0.833   3.610
 6494SOL    HW220382   6.743   0.957   3.656
 6495SOL     OW20383   6.668   0.180   4.558
 6495SOL    HW120384   6.638   0.092   4.520
 6495SOL    HW220385   6.706   0.237   4.486
 6496SOL     OW20386   5.803   1.207   3.252
 6496SOL    HW120387   5.745   1.262   3.191
 6496SOL    HW220388   5.745   1.151   3.311
 6497SOL     OW20389   0.898   1.118   1.138
 6497SOL    HW120390   0.956   1.144   1.216
 6497SOL    HW220391   0.803   1.144   1.157
 6498SOL     OW20392   1.698   3.512   3.679
 6498SOL    HW120393   1.606   3.482   3.653
 6498SOL    HW220394   1.716   3.489   3.775
 6499SOL     OW20395   5.376   3.905   5.662
 6499SOL    HW120396   5.465   3.948   5.674
 6499SOL    HW220397   5.388   3.808   5.639
 6500SOL     OW20398   6.666   4.047   4.807
 6500SOL    HW120399   6.700   4.014   4.719
 6500SOL    HW220400   6.642   3.970   4.865
 6501SOL     OW20401   6.810   0.898   6.471
 6501SOL    HW120402   6.786   0.900   6.567
 6501SOL    HW220403   6.822   0.803   6.441
 6502SOL     OW20404   6.702   2.875   2.635
 6502SOL    HW120405   6.769   2.883   2.562
 6502SOL    HW220406   6.611   2.894   2.598
 6503SOL     OW20407   5.512   1.655   3.812
 6503SOL    HW120408   5.417   1.656   3.782
 6503SOL    HW220409   5.517   1.686   3.907
 6504SOL     OW20410   4.299   6.285   5.426
 6504SOL    HW120411   4.378   6.236   5.463
 6504SOL    HW220412   4.319   6.383   5.423
 6505SOL     OW20413   5.552   5.682   6.839
 6505SOL    HW120414   5.570   5.655   6.934
 6505SOL    HW220415   5.465   5.643   6.809
 6506SOL     OW20416   7.009   2.263   3.113
 6506SOL    HW120417   0.017   2.350   3.155
 6506SOL    HW220418   0.070   2.216   3.077
 6507SOL     OW20419   1.251   5.654   6.282
 6507SOL    HW120420   1.299   5.567   6.281
 6507SOL    HW220421   1.317   5.729   6.269
 6508SOL     OW20422   1.624   0.906   2.539
 6508SOL    HW120423   1.615   0.965   2.619
 6508SOL    HW220424   1.721   0.889   2.521
 6509SOL     OW20425   4.133   1.784   4.602
 6509SOL    HW120426   4.178   1.776   4.513
 6509SOL    HW220427   4.115   1.881   4.621
 6510SOL     OW20428   6.365   5.220   0.538
 6510SOL    HW120429   6.391   5.131   0.500
 6510SOL    HW220430   6.419   5.292   0.494
 6511SOL     OW20431   3.998   1.215   5.093
 6511SOL    HW120432   3.994   1.115   5.092
 6511SOL    HW220433   4.063   1.246   5.024
 6512SOL     OW20434   4.034   6.531   1.895
 6512SOL    HW120435   4.083   6.445   1.906
 6512SOL    HW220436   4.087   6.604   1.939
 6513SOL     OW20437   2.793   4.728   3.127
 6513SOL    HW120438   2.809   4.738   3.225
 6513SOL    HW220439   2.719   4.662   3.113
 6514SOL     OW20440   6.139   1.329   4.086
 6514SOL    HW120441   6.111   1.383   4.006
 6514SOL    HW220442   6.177   1.242   4.056
 6515SOL     OW20443   0.397   4.986   4.139
 6515SOL    HW120444   0.360   4.998   4.047
 6515SOL    HW220445   0.453   4.903   4.142
 6516SOL     OW20446   0.129   3.640   1.578
 6516SOL    HW120447   0.128   3.728   1.626
 6516SOL    HW220448   0.063   3.642   1.504
 6517SOL     OW20449   6.661   1.486   1.503
 6517SOL    HW120450   6.591   1.442   1.560
 6517SOL    HW220451   6.624   1.570   1.464
 6518SOL     OW20452   0.018   0.819   0.203
 6518SOL    HW120453   6.954   0.768   0.226
 6518SOL    HW220454   0.090   0.796   0.270
 6519SOL     OW20455   0.647   2.284   3.183
 6519SOL    HW120456   0.738   2.325   3.178
 6519SOL    HW220457   0.655   2.185   3.197
 6520SOL     OW20458   6.121   4.990   1.429
 6520SOL    HW120459   6.026   5.004   1.454
 6520SOL    HW220460   6.134   4.895   1.398
 6521SOL     OW20461   1.847   2.794   4.281
 6521SOL    HW120462   1.815   2.838   4.364
 6521SOL    HW220463   1.875   2.700   4.301
 6522SOL     OW20464   3.076   5.137   5.579
 6522SOL    HW120465   2.987   5.168   5.613
 6522SOL    HW220466   3.077   5.143   5.479
 6523SOL     OW20467   3.468   1.577   6.820
 6523SOL    HW120468   3.469   1.573   6.920
 6523SOL    HW220469   3.485   1.671   6.790
 6524SOL     OW20470   3.265   3.746   1.738
 6524SOL    HW120471   3.295   3.691   1.816
 6524SOL    HW220472   3.176   3.714   1.708
 6525SOL     OW20473   2.491   5.084   3.459
 6525SOL    HW120474   2.399   5.103   3.423
 6525SOL    HW220475   2.507   5.140   3.540
 6526SOL     OW20476   2.555   0.681   0.642
 6526SOL    HW120477   2.627   0.616   0.667
 6526SOL    HW220478   2.497   0.699   0.721
 6527SOL     OW20479   0.486   1.512   5.205
 6527SOL    HW120480   0.562   1.475   5.151
 6527SOL    HW220481   0.410   1.534   5.144
 6528SOL     OW20482   6.362   0.998   4.924
 6528SOL    HW120483   6.337   1.092   4.947
 6528SOL    HW220484   6.425   0.962   4.993
 6529SOL     OW20485   2.059   0.690   2.895
 6529SOL    HW120486   2.067   0.592   2.914
 6529SOL    HW220487   2.117   0.714   2.816
 6530SOL     OW20488   0.042   2.451   0.202
 6530SOL    HW120489   6.994   2.512   0.158
 6530SOL    HW220490   7.013   2.390   0.265
 6531SOL     OW20491   5.222   3.151   5.390
 6531SOL    HW120492   5.186   3.149   5.296
 6531SOL    HW220493   5.269   3.065   5.409
 6532SOL     OW20494   6.911   1.066   0.937
 6532SOL    HW120495   6.839   1.134   0.952
 6532SOL    HW220496   6.985   1.081   1.003
 6533SOL     OW20497   4.750   0.004   0.567
 6533SOL    HW120498   4.800   0.078   0.612
 6533SOL    HW220499   4.684   6.983   0.631
 6534SOL     OW20500   4.374   4.433   1.446
 6534SOL    HW120501   4.432   4.412   1.524
 6534SOL    HW220502   4.395   4.370   1.371
 6535SOL     OW20503   6.243   4.425   4.167
 6535SOL    HW120504   6.282   4.515   4.186
 6535SOL    HW220505   6.164   4.435   4.107
 6536SOL     OW20506   0.557   1.096   5.597
 6536SOL    HW120507   0.597   1.123   5.510
 6536SOL    HW220508   0.623   1.111   5.670
 6537SOL     OW20509   0.030   5.064   6.664
 6537SOL    HW120510   0.022   5.050   6.565
 6537SOL    HW220511   6.965   5.106   6.698
 6538SOL     OW20512   2.079   3.403   6.156
 6538SOL    HW120513   2.132   3.483   6.187
 6538SOL    HW220514   2.051   3.417   6.061
 6539SOL     OW20515   4.979   0.669   6.733
 6539SOL    HW120516   4.897   0.617   6.759
 6539SOL    HW220517   4.964   0.766   6.751
 6540SOL     OW20518   4.646   1.758   5.603
 6540SOL    HW120519   4.717   1.819   5.568
 6540SOL    HW220520   4.639   1.677   5.545
 6541SOL     OW20521   4.762   1.737   4.912
 6541SOL    HW120522   4.801   1.829   4.921
 6541SOL    HW220523   4.663   1.741   4.924
 6542SOL     OW20524   6.553   3.023   4.260
 6542SOL    HW120525   6.633   2.989   4.211
 6542SOL    HW220526   6.546   2.977   4.349
 6543SOL     OW20527   5.091   2.892   6.036
 6543SOL    HW120528   5.064   2.984   6.066
 6543SOL    HW220529   5.010   2.834   6.029
 6544SOL     OW20530   0.927   6.245   2.603
 6544SOL    HW120531   0.883   6.325   2.563
 6544SOL    HW220532   1.005   6.274   2.659
 6545SOL     OW20533   4.166   0.893   0.633
 6545SOL    HW120534   4.134   0.806   0.671
 6545SOL    HW220535   4.233   0.875   0.561
 6546SOL     OW20536   2.942   4.350   0.254
 6546SOL    HW120537   2.984   4.298   0.180
 6546SOL    HW220538   2.942   4.296   0.337
 6547SOL     OW20539   4.756   1.343   6.200
 6547SOL    HW120540   4.727   1.334   6.104
 6547SOL    HW220541   4.687   1.302   6.259
 6548SOL     OW20542   0.300   4.017   0.925
 6548SOL    HW120543   0.300   3.937   0.985
 6548SOL    HW220544   0.392   4.033   0.890
 6549SOL     OW20545   4.355   0.585   2.054
 6549SOL    HW120546   4.375   0.677   2.019
 6549SOL    HW220547   4.325   0.591   2.149
 6550SOL     OW20548   0.252   6.969   3.327
 6550SOL    HW120549   0.280   7.012   3.241
 6550SOL    HW220550   0.164   7.008   3.356
 6551SOL     OW20551   1.900   4.995   2.196
 6551SOL    HW120552   1.815   4.999   2.249
 6551SOL    HW220553   1.928   5.088   2.172
 6552SOL     OW20554   1.907   0.279   0.622
 6552SOL    HW120555   1.978   0.218   0.588
 6552SOL    HW220556   1.817   0.238   0.607
 6553SOL     OW20557   0.036   2.477   3.282
 6553SOL    HW120558   0.090   2.505   3.361
 6553SOL    HW220559   6.961   2.510   3.292
 6554SOL     OW20560   0.575   0.543   5.105
 6554SOL    HW120561   0.653   0.482   5.088
 6554SOL    HW220562   0.587   0.589   5.193
 6555SOL     OW20563   5.589   1.548   3.294
 6555SOL    HW120564   5.618   1.625   3.351
 6555SOL    HW220565   5.492   1.528   3.311
 6556SOL     OW20566   4.990   4.356   4.071
 6556SOL    HW120567   4.914   4.323   4.015
 6556SOL    HW220568   4.970   4.342   4.168
 6557SOL     OW20569   3.385   0.159   2.548
 6557SOL    HW120570   3.440   0.102   2.610
 6557SOL    HW220571   3.381   0.253   2.584
 6558SOL     OW20572   0.026   5.208   0.266
 6558SOL    HW120573   0.024   5.127   0.324
 6558SOL    HW220574   0.119   5.245   0.264
 6559SOL     OW20575   0.684   3.731   6.749
 6559SOL    HW120576   0.607   3.698   6.694
 6559SOL    HW220577   0.756   3.662   6.750
 6560SOL     OW20578   4.462   4.886   1.476
 6560SOL    HW120579   4.430   4.970   1.520
 6560SOL    HW220580   4.561   4.877   1.489
 6561SOL     OW20581   3.297   3.973   1.577
 6561SOL    HW120582   3.283   3.896   1.639
 6561SOL    HW220583   3.391   4.006   1.586
 6562SOL     OW20584   6.111   3.295   0.286
 6562SOL    HW120585   6.069   3.217   0.333
 6562SOL    HW220586   6.184   3.263   0.226
 6563SOL     OW20587   5.020   5.819   6.673
 6563SOL    HW120588   5.022   5.907   6.625
 6563SOL    HW220589   4.926   5.795   6.694
 6564SOL     OW20590   7.017   3.682   3.066
 6564SOL    HW120591   6.962   3.721   2.993
 6564SOL    HW220592   6.956   3.638   3.133
 6565SOL     OW20593   5.330   2.069   3.169
 6565SOL    HW120594   5.256   2.106   3.113
 6565SOL    HW220595   5.418   2.092   3.127
 6566SOL     OW20596   4.170   6.312   1.900
 6566SOL    HW120597   4.264   6.320   1.868
 6566SOL    HW220598   4.167   6.246   1.975
 6567SOL     OW20599   4.716   0.924   2.807
 6567SOL    HW120600   4.752   0.923   2.900
 6567SOL    HW220601   4.679   1.014   2.786
 6568SOL     OW20602   2.898   1.150   3.790
 6568SOL    HW120603   2.990   1.115   3.776
 6568SOL    HW220604   2.832   1.076   3.776
 6569SOL     OW20605   2.726   3.476   0.141
 6569SOL    HW120606   2.825   3.469   0.150
 6569SOL    HW220607   2.682   3.403   0.194
 6570SOL     OW20608   3.384   0.760   2.183
 6570SOL    HW120609   3.428   0.850   2.191
 6570SOL    HW220610   3.295   0.771   2.138
 6571SOL     OW20611   3.256   5.324   1.684
 6571SOL    HW120612   3.176   5.342   1.627
 6571SOL    HW220613   3.227   5.282   1.770
 6572SOL     OW20614   6.990   5.087   4.902
 6572SOL    HW120615   7.005   5.102   4.999
 6572SOL    HW220616   6.894   5.064   4.886
 6573SOL     OW20617   1.241   1.913   2.464
 6573SOL    HW120618   1.288   1.862   2.536
 6573SOL    HW220619   1.309   1.955   2.404
 6574SOL     OW20620   2.601   5.361   2.416
 6574SOL    HW120621   2.690   5.405   2.409
 6574SOL    HW220622   2.534   5.412   2.362
 6575SOL     OW20623   0.917   0.172   3.085
 6575SOL    HW120624   0.894   0.083   3.125
 6575SOL    HW220625   0.968   0.158   3.000
 6576SOL     OW20626   2.155   6.285   7.003
 6576SOL    HW120627   2.085   6.271   6.933
 6576SOL    HW220628   2.112   6.290   0.074
 6577SOL     OW20629   0.854   1.891   4.452
 6577SOL    HW120630   0.948   1.863   4.431
 6577SOL    HW220631   0.799   1.810   4.472
 6578SOL     OW20632   0.754   5.568   3.299
 6578SOL    HW120633   0.777   5.616   3.384
 6578SOL    HW220634   0.703   5.629   3.238
 6579SOL     OW20635   0.050   3.472   4.373
 6579SOL    HW120636   0.085   3.506   4.460
 6579SOL    HW220637   0.055   3.544   4.304
 6580SOL     OW20638   0.824   2.241   1.060
 6580SOL    HW120639   0.849   2.334   1.031
 6580SOL    HW220640   0.817   2.238   1.160
 6581SOL     OW20641   3.078   0.771   0.215
 6581SOL    HW120642   3.046   0.676   0.214
 6581SOL    HW220643   3.004   0.832   0.243
 6582SOL     OW20644   0.586   1.411   3.433
 6582SOL    HW120645   0.512   1.370   3.487
 6582SOL    HW220646   0.570   1.393   3.336
 6583SOL     OW20647   4.437   0.193   5.613
 6583SOL    HW120648   4.360   0.256   5.603
 6583SOL    HW220649   4.521   0.237   5.580
 6584SOL     OW20650   4.665   2.685   1.114
 6584SOL    HW120651   4.722   2.756   1.073
 6584SOL    HW220652   4.721   2.604   1.133
 6585SOL     OW20653   6.367   6.483   6.812
 6585SOL    HW120654   6.455   6.509   6.772
 6585SOL    HW220655   6.313   6.566   6.830
 6586SOL     OW20656   5.716   0.643   5.170
 6586SOL    HW120657   5.676   0.723   5.126
 6586SOL    HW220658   5.672   0.628   5.259
 6587SOL     OW20659   1.961   5.629   5.567
 6587SOL    HW120660   1.942   5.711   5.513
 6587SOL    HW220661   1.890   5.617   5.636
 6588SOL     OW20662   0.880   3.050   1.637
 6588SOL    HW120663   0.863   3.079   1.543
 6588SOL    HW220664   0.850   3.121   1.700
 6589SOL     OW20665   4.946   0.816   0.712
 6589SOL    HW120666   4.950   0.784   0.618
 6589SOL    HW220667   4.939   0.737   0.774
 6590SOL     OW20668   0.046   1.264   5.890
 6590SOL    HW120669   6.976   1.310   5.895
 6590SOL    HW220670   0.117   1.333   5.873
 6591SOL     OW20671   6.271   5.379   2.600
 6591SOL    HW120672   6.327   5.460   2.586
 6591SOL    HW220673   6.175   5.405   2.608
 6592SOL     OW20674   5.218   6.932   3.341
 6592SOL    HW120675   5.205   6.908   3.438
 6592SOL    HW220676   5.316   6.944   3.324
 6593SOL     OW20677   1.720   2.411   2.833
 6593SOL    HW120678   1.761   2.476   2.897
 6593SOL    HW220679   1.718   2.320   2.875
 6594SOL     OW20680   3.781   1.531   0.041
 6594SOL    HW120681   3.690   1.494   0.060
 6594SOL    HW220682   3.776   1.631   0.035
 6595SOL     OW20683   1.375   4.178   6.510
 6595SOL    HW120684   1.333   4.092   6.479
 6595SOL    HW220685   1.467   4.186   6.471
 6596SOL     OW20686   3.154   6.539   4.605
 6596SOL    HW120687   3.136   6.573   4.513
 6596SOL    HW220688   3.247   6.503   4.610
 6597SOL     OW20689   1.321   5.519   1.598
 6597SOL    HW120690   1.233   5.543   1.640
 6597SOL    HW220691   1.311   5.433   1.548
 6598SOL     OW20692   1.188   5.859   4.400
 6598SOL    HW120693   1.105   5.856   4.345
 6598SOL    HW220694   1.229   5.950   4.393
 6599SOL     OW20695   4.406   6.228   6.455
 6599SOL    HW120696   4.357   6.270   6.532
 6599SOL    HW220697   4.458   6.149   6.487
 6600SOL     OW20698   4.454   5.251   5.358
 6600SOL    HW120699   4.532   5.295   5.314
 6600SOL    HW220700   4.401   5.320   5.407
 6601SOL     OW20701   1.579   2.210   4.999
 6601SOL    HW120702   1.598   2.146   4.924
 6601SOL    HW220703   1.645   2.196   5.072
 6602SOL     OW20704   1.534   0.947   2.216
 6602SOL    HW120705   1.565   0.887   2.142
 6602SOL    HW220706   1.562   1.041   2.196
 6603SOL     OW20707   6.972   2.616   3.742
 6603SOL    HW120708   6.973   2.562   3.827
 6603SOL    HW220709   6.879   2.620   3.706
 6604SOL     OW20710   1.547   0.593   0.715
 6604SOL    HW120711   1.464   0.603   0.771
 6604SOL    HW220712   1.535   0.518   0.650
 6605SOL     OW20713   5.250   4.476   1.872
 6605SOL    HW120714   5.273   4.546   1.805
 6605SOL    HW220715   5.232   4.519   1.960
 6606SOL     OW20716   0.596   5.720   2.121
 6606SOL    HW120717   0.531   5.788   2.089
 6606SOL    HW220718   0.548   5.636   2.145
 6607SOL     OW20719   2.007   3.713   2.320
 6607SOL    HW120720   2.012   3.615   2.303
 6607SOL    HW220721   2.061   3.762   2.252
 6608SOL     OW20722   6.403   6.335   0.802
 6608SOL    HW120723   6.422   6.433   0.796
 6608SOL    HW220724   6.406   6.306   0.898
 6609SOL     OW20725   4.635   0.921   6.198
 6609SOL    HW120726   4.724   0.962   6.177
 6609SOL    HW220727   4.588   0.977   6.266
 6610SOL     OW20728   2.336   6.432   6.861
 6610SOL    HW120729   2.294   6.367   6.924
 6610SOL    HW220730   2.429   6.401   6.840
 6611SOL     OW20731   4.967   2.814   3.796
 6611SOL    HW120732   4.906   2.875   3.745
 6611SOL    HW220733   4.962   2.722   3.757
 6612SOL     OW20734   6.091   1.987   6.108
 6612SOL    HW120735   6.154   1.949   6.041
 6612SOL    HW220736   5.998   1.987   6.071
 6613SOL     OW20737   6.418   6.745   5.249
 6613SOL    HW120738   6.328   6.765   5.210
 6613SOL    HW220739   6.454   6.661   5.207
 6614SOL     OW20740   4.554   5.642   0.256
 6614SOL    HW120741   4.577   5.647   0.158
 6614SOL    HW220742   4.490   5.567   0.270
 6615SOL     OW20743   1.708   5.806   1.638
 6615SOL    HW120744   1.698   5.904   1.654
 6615SOL    HW220745   1.761   5.766   1.713
 6616SOL     OW20746   5.147   0.850   6.103
 6616SOL    HW120747   5.070   0.795   6.137
 6616SOL    HW220748   5.114   0.942   6.081
 6617SOL     OW20749   4.637   5.086   3.841
 6617SOL    HW120750   4.620   5.005   3.897
 6617SOL    HW220751   4.655   5.057   3.746
 6618SOL     OW20752   1.461   2.505   2.010
 6618SOL    HW120753   1.547   2.463   1.979
 6618SOL    HW220754   1.456   2.501   2.110
 6619SOL     OW20755   5.867   0.354   4.277
 6619SOL    HW120756   5.856   0.421   4.351
 6619SOL    HW220757   5.786   0.296   4.273
 6620SOL     OW20758   1.941   2.587   5.751
 6620SOL    HW120759   2.025   2.640   5.749
 6620SOL    HW220760   1.888   2.604   5.667
 6621SOL     OW20761   3.752   3.085   6.306
 6621SOL    HW120762   3.757   3.178   6.270
 6621SOL    HW220763   3.721   3.088   6.402
 6622SOL     OW20764   5.960   6.506   1.730
 6622SOL    HW120765   5.861   6.497   1.744
 6622SOL    HW220766   5.980   6.494   1.633
 6623SOL     OW20767   3.271   2.959   4.785
 6623SOL    HW120768   3.354   2.912   4.816
 6623SOL    HW220769   3.212   2.977   4.863
 6624SOL     OW20770   0.247   4.725   5.852
 6624SOL    HW120771   0.316   4.694   5.786
 6624SOL    HW220772   0.196   4.646   5.886
 6625SOL     OW20773   5.227   1.254   5.253
 6625SOL    HW120774   5.288   1.264   5.331
 6625SOL    HW220775   5.273   1.202   5.181
 6626SOL     OW20776   4.172   4.980   5.262
 6626SOL    HW120777   4.127   5.070   5.264
 6626SOL    HW220778   4.216   4.963   5.350
 6627SOL     OW20779   2.067   6.479   5.296
 6627SOL    HW120780   2.104   6.540   5.365
 6627SOL    HW220781   2.107   6.388   5.307
 6628SOL     OW20782   4.925   5.061   4.438
 6628SOL    HW120783   4.891   5.093   4.526
 6628SOL    HW220784   5.022   5.039   4.446
 6629SOL     OW20785   4.761   5.820   6.776
 6629SOL    HW120786   4.768   5.920   6.784
 6629SOL    HW220787   4.818   5.777   6.846
 6630SOL     OW20788   4.215   1.732   1.471
 6630SOL    HW120789   4.304   1.758   1.507
 6630SOL    HW220790   4.209   1.758   1.374
 6631SOL     OW20791   2.433   5.151   3.766
 6631SOL    HW120792   2.421   5.168   3.863
 6631SOL    HW220793   2.486   5.225   3.725
 6632SOL     OW20794   0.084   0.299   1.255
 6632SOL    HW120795   0.088   0.349   1.169
 6632SOL    HW220796   7.017   0.248   1.259
 6633SOL     OW20797   1.731   4.482   6.465
 6633SOL    HW120798   1.691   4.548   6.401
 6633SOL    HW220799   1.822   4.513   6.492
 6634SOL     OW20800   5.233   2.101   5.077
 6634SOL    HW120801   5.280   2.013   5.087
 6634SOL    HW220802   5.291   2.174   5.112
 6635SOL     OW20803   4.580   4.878   3.011
 6635SOL    HW120804   4.647   4.882   3.085
 6635SOL    HW220805   4.547   4.970   2.990
 6636SOL     OW20806   4.609   1.612   5.859
 6636SOL    HW120807   4.645   1.641   5.947
 6636SOL    HW220808   4.650   1.667   5.786
 6637SOL     OW20809   1.203   6.723   0.010
 6637SOL    HW120810   1.251   6.756   0.091
 6637SOL    HW220811   1.156   6.637   0.032
 6638SOL     OW20812   2.917   3.759   3.262
 6638SOL    HW120813   2.908   3.773   3.163
 6638SOL    HW220814   2.976   3.680   3.278
 6639SOL     OW20815   5.306   4.829   6.435
 6639SOL    HW120816   5.228   4.777   6.470
 6639SOL    HW220817   5.281   4.872   6.348
 6640SOL     OW20818   0.740   1.699   4.871
 6640SOL    HW120819   0.691   1.784   4.851
 6640SOL    HW220820   0.697   1.653   4.948
 6641SOL     OW20821   2.513   1.426   5.805
 6641SOL    HW120822   2.492   1.331   5.782
 6641SOL    HW220823   2.611   1.435   5.821
 6642SOL     OW20824   1.860   5.947   6.870
 6642SOL    HW120825   1.811   6.033   6.864
 6642SOL    HW220826   1.815   5.878   6.814
 6643SOL     OW20827   6.155   5.426   0.476
 6643SOL    HW120828   6.249   5.457   0.477
 6643SOL    HW220829   6.151   5.331   0.508
 6644SOL     OW20830   2.604   5.865   1.318
 6644SOL    HW120831   2.508   5.875   1.342
 6644SOL    HW220832   2.643   5.788   1.368
 6645SOL     OW20833   6.282   4.499   0.483
 6645SOL    HW120834   6.326   4.561   0.548
 6645SOL    HW220835   6.313   4.520   0.390
 6646SOL     OW20836   3.832   0.434   4.872
 6646SOL    HW120837   3.743   0.478   4.890
 6646SOL    HW220838   3.890   0.443   4.952
 6647SOL     OW20839   5.303   1.236   0.991
 6647SOL    HW120840   5.205   1.248   1.003
 6647SOL    HW220841   5.352   1.277   1.068
 6648SOL     OW20842   3.472   6.334   3.664
 6648SOL    HW120843   3.445   6.410   3.724
 6648SOL    HW220844   3.477   6.250   3.717
 6649SOL     OW20845   5.211   1.132   6.838
 6649SOL    HW120846   5.150   1.088   6.904
 6649SOL    HW220847   5.158   1.180   6.769
 6650SOL     OW20848   3.621   1.150   5.750
 6650SOL    HW120849   3.666   1.120   5.666
 6650SOL    HW220850   3.677   1.220   5.794
 6651SOL     OW20851   3.072   1.078   5.761
 6651SOL    HW120852   3.014   1.055   5.683
 6651SOL    HW220853   3.117   1.165   5.744
 6652SOL     OW20854   0.926   4.347   0.978
 6652SOL    HW120855   1.007   4.377   1.028
 6652SOL    HW220856   0.855   4.417   0.984
 6653SOL     OW20857   3.667   3.664   2.328
 6653SOL    HW120858   3.638   3.615   2.246
 6653SOL    HW220859   3.592   3.665   2.395
 6654SOL     OW20860   1.376   4.892   1.391
 6654SOL    HW120861   1.386   4.883   1.292
 6654SOL    HW220862   1.417   4.979   1.421
 6655SOL     OW20863   1.125   0.610   3.871
 6655SOL    HW120864   1.086   0.702   3.875
 6655SOL    HW220865   1.210   0.613   3.818
 6656SOL     OW20866   5.173   2.207   4.001
 6656SOL    HW120867   5.086   2.160   4.013
 6656SOL    HW220868   5.247   2.140   4.004
 6657SOL     OW20869   6.377   4.914   6.514
 6657SOL    HW120870   6.414   4.823   6.533
 6657SOL    HW220871   6.434   4.958   6.444
 6658SOL     OW20872   6.818   0.642   4.670
 6658SOL    HW120873   6.771   0.554   4.674
 6658SOL    HW220874   6.765   0.706   4.614
 6659SOL     OW20875   1.896   3.336   0.320
 6659SOL    HW120876   1.885   3.295   0.411
 6659SOL    HW220877   1.859   3.274   0.251
 6660SOL     OW20878   1.195   5.395   1.192
 6660SOL    HW120879   1.253   5.374   1.270
 6660SOL    HW220880   1.252   5.420   1.114
 6661SOL     OW20881   1.359   6.498   5.094
 6661SOL    HW120882   1.408   6.584   5.080
 6661SOL    HW220883   1.276   6.516   5.147
 6662SOL     OW20884   1.599   0.018   0.227
 6662SOL    HW120885   1.623   0.051   0.136
 6662SOL    HW220886   1.675   6.984   0.264
 6663SOL     OW20887   6.103   5.454   4.166
 6663SOL    HW120888   6.116   5.399   4.084
 6663SOL    HW220889   6.087   5.549   4.141
 6664SOL     OW20890   2.395   6.239   0.883
 6664SOL    HW120891   2.301   6.251   0.913
 6664SOL    HW220892   2.401   6.159   0.823
 6665SOL     OW20893   2.038   5.819   4.681
 6665SOL    HW120894   1.971   5.806   4.754
 6665SOL    HW220895   2.129   5.830   4.721
 6666SOL     OW20896   6.283   0.113   5.766
 6666SOL    HW120897   6.342   0.147   5.840
 6666SOL    HW220898   6.198   0.077   5.806
 6667SOL     OW20899   6.920   6.537   6.815
 6667SOL    HW120900   6.876   6.450   6.794
 6667SOL    HW220901   7.019   6.527   6.806
 6668SOL     OW20902   0.068   5.104   0.594
 6668SOL    HW120903   0.116   5.071   0.675
 6668SOL    HW220904   0.116   5.075   0.512
 6669SOL     OW20905   1.721   2.389   3.286
 6669SOL    HW120906   1.640   2.399   3.343
 6669SOL    HW220907   1.781   2.468   3.297
 6670SOL     OW20908   3.649   1.191   5.396
 6670SOL    HW120909   3.577   1.260   5.392
 6670SOL    HW220910   3.735   1.233   5.426
 6671SOL     OW20911   5.244   6.556   0.739
 6671SOL    HW120912   5.188   6.623   0.689
 6671SOL    HW220913   5.194   6.469   0.744
 6672SOL     OW20914   6.414   2.643   6.759
 6672SOL    HW120915   6.455   2.733   6.779
 6672SOL    HW220916   6.314   2.652   6.755
 6673SOL     OW20917   5.012   4.787   4.227
 6673SOL    HW120918   5.095   4.739   4.253
 6673SOL    HW220919   4.947   4.784   4.303
 6674SOL     OW20920   0.292   3.726   6.413
 6674SOL    HW120921   0.279   3.793   6.486
 6674SOL    HW220922   0.233   3.749   6.336
 6675SOL     OW20923   5.368   3.615   0.946
 6675SOL    HW120924   5.415   3.622   0.858
 6675SOL    HW220925   5.335   3.522   0.959
 6676SOL     OW20926   0.871   4.133   5.891
 6676SOL    HW120927   0.779   4.117   5.855
 6676SOL    HW220928   0.872   4.215   5.948
 6677SOL     OW20929   1.325   1.708   6.024
 6677SOL    HW120930   1.265   1.659   6.088
 6677SOL    HW220931   1.408   1.736   6.072
 6678SOL     OW20932   3.010   3.240   6.203
 6678SOL    HW120933   3.061   3.187   6.135
 6678SOL    HW220934   2.914   3.243   6.177
 6679SOL     OW20935   3.294   1.201   3.612
 6679SOL    HW120936   3.338   1.238   3.694
 6679SOL    HW220937   3.247   1.116   3.636
 6680SOL     OW20938   5.249   6.707   6.815
 6680SOL    HW120939   5.229   6.795   6.774
 6680SOL    HW220940   5.181   6.686   6.885
 6681SOL     OW20941   3.662   5.966   1.746
 6681SOL    HW120942   3.686   5.954   1.843
 6681SOL    HW220943   3.626   5.880   1.710
 6682SOL     OW20944   0.901   4.097   2.215
 6682SOL    HW120945   0.808   4.071   2.242
 6682SOL    HW220946   0.901   4.128   2.120
 6683SOL     OW20947   6.285   3.227   5.098
 6683SOL    HW120948   6.284   3.171   5.180
 6683SOL    HW220949   6.373   3.218   5.052
 6684SOL     OW20950   2.964   0.017   1.320
 6684SOL    HW120951   2.992   0.108   1.290
 6684SOL    HW220952   2.864   0.009   1.315
 6685SOL     OW20953   6.485   3.087   5.702
 6685SOL    HW120954   6.434   3.014   5.656
 6685SOL    HW220955   6.456   3.175   5.666
 6686SOL     OW20956   5.000   6.390   4.583
 6686SOL    HW120957   5.015   6.473   4.638
 6686SOL    HW220958   4.914   6.347   4.610
 6687SOL     OW20959   1.252   3.300   0.592
 6687SOL    HW120960   1.208   3.383   0.626
 6687SOL    HW220961   1.351   3.308   0.603
 6688SOL     OW20962   6.148   4.686   2.475
 6688SOL    HW120963   6.064   4.741   2.465
 6688SOL    HW220964   6.225   4.746   2.494
 6689SOL     OW20965   4.187   2.900   0.156
 6689SOL    HW120966   4.201   2.831   0.228
 6689SOL    HW220967   4.120   2.967   0.187
 6690SOL     OW20968   1.007   1.035   0.852
 6690SOL    HW120969   0.937   1.051   0.922
 6690SOL    HW220970   0.986   1.090   0.771
 6691SOL     OW20971   2.701   6.324   2.240
 6691SOL    HW120972   2.668   6.378   2.163
 6691SOL    HW220973   2.635   6.253   2.263
 6692SOL     OW20974   3.120   3.097   4.559
 6692SOL    HW120975   3.177   3.032   4.507
 6692SOL    HW220976   3.085   3.051   4.640
 6693SOL     OW20977   4.012   3.258   5.705
 6693SOL    HW120978   3.964   3.187   5.653
 6693SOL    HW220979   4.035   3.334   5.645
 6694SOL     OW20980   3.724   5.647   1.157
 6694SOL    HW120981   3.794   5.709   1.192
 6694SOL    HW220982   3.731   5.642   1.057
 6695SOL     OW20983   3.296   2.195   0.107
 6695SOL    HW120984   3.385   2.222   0.145
 6695SOL    HW220985   3.249   2.136   0.172
 6696SOL     OW20986   3.125   2.515   5.638
 6696SOL    HW120987   3.211   2.490   5.681
 6696SOL    HW220988   3.119   2.472   5.548
 6697SOL     OW20989   4.806   2.191   2.904
 6697SOL    HW120990   4.858   2.183   2.819
 6697SOL    HW220991   4.809   2.104   2.954
 6698SOL     OW20992   2.873   2.678   1.129
 6698SOL    HW120993   2.890   2.723   1.217
 6698SOL    HW220994   2.897   2.741   1.055
 6699SOL     OW20995   2.457   5.836   5.107
 6699SOL    HW120996   2.412   5.895   5.041
 6699SOL    HW220997   2.473   5.886   5.192
 6700SOL     OW20998   1.036   0.039   1.604
 6700SOL    HW120999   0.990   0.100   1.540
 6700SOL    HW221000   0.996   0.050   1.695
 6701SOL     OW21001   5.943   4.343   2.548
 6701SOL    HW121002   5.857   4.382   2.516
 6701SOL    HW221003   6.004   4.329   2.469
 6702SOL     OW21004   3.069   2.148   1.425
 6702SOL    HW121005   3.136   2.160   1.499
 6702SOL    HW221006   3.089   2.063   1.376
 6703SOL     OW21007   6.324   2.102   0.110
 6703SOL    HW121008   6.298   2.117   0.205
 6703SOL    HW221009   6.415   2.141   0.093
 6704SOL     OW21010   3.547   1.354   3.379
 6704SOL    HW121011   3.535   1.264   3.420
 6704SOL    HW221012   3.504   1.423   3.437
 6705SOL     OW21013   0.004   3.365   1.575
 6705SOL    HW121014   6.963   3.443   1.559
 6705SOL    HW221015   0.047   3.337   1.489
 6706SOL     OW21016   1.963   4.814   2.545
 6706SOL    HW121017   1.980   4.716   2.557
 6706SOL    HW221018   1.898   4.827   2.470
 6707SOL     OW21019   6.648   6.346   3.528
 6707SOL    HW121020   6.723   6.336   3.595
 6707SOL    HW221021   6.675   6.301   3.443
 6708SOL     OW21022   6.975   5.083   1.442
 6708SOL    HW121023   0.015   5.005   1.424
 6708SOL    HW221024   0.011   5.163   1.465
 6709SOL     OW21025   2.768   6.371   3.144
 6709SOL    HW121026   2.698   6.339   3.080
 6709SOL    HW221027   2.855   6.327   3.122
 6710SOL     OW21028   3.719   0.419   6.521
 6710SOL    HW121029   3.657   0.361   6.468
 6710SOL    HW221030   3.671   0.458   6.599
 6711SOL     OW21031   4.629   5.484   5.960
 6711SOL    HW121032   4.540   5.515   5.994
 6711SOL    HW221033   4.615   5.413   5.891
 6712SOL     OW21034   5.463   3.795   0.403
 6712SOL    HW121035   5.558   3.764   0.397
 6712SOL    HW221036   5.404   3.733   0.350
 6713SOL     OW21037   2.300   0.392   2.614
 6713SOL    HW121038   2.324   0.445   2.695
 6713SOL    HW221039   2.262   0.303   2.643
 6714SOL     OW21040   6.338   0.533   5.864
 6714SOL    HW121041   6.328   0.457   5.799
 6714SOL    HW221042   6.248   0.567   5.890
 6715SOL     OW21043   0.560   0.476   0.225
 6715SOL    HW121044   0.548   0.538   0.148
 6715SOL    HW221045   0.559   0.381   0.193
 6716SOL     OW21046   0.384   5.780   1.743
 6716SOL    HW121047   0.338   5.768   1.655
 6716SOL    HW221048   0.391   5.691   1.789
 6717SOL     OW21049   4.007   3.007   6.642
 6717SOL    HW121050   3.938   3.078   6.627
 6717SOL    HW221051   3.963   2.921   6.667
 6718SOL     OW21052   5.336   0.662   0.817
 6718SOL    HW121053   5.415   0.601   0.804
 6718SOL    HW221054   5.301   0.652   0.910
 6719SOL     OW21055   2.349   0.082   6.600
 6719SOL    HW121056   2.369   0.180   6.603
 6719SOL    HW221057   2.407   0.034   6.665
 6720SOL     OW21058   1.370   0.083   4.003
 6720SOL    HW121059   1.463   0.079   4.038
 6720SOL    HW221060   1.314   0.015   4.050
 6721SOL     OW21061   0.071   0.476   0.208
 6721SOL    HW121062   0.111   0.518   0.289
 6721SOL    HW221063   6.998   0.513   0.193
 6722SOL     OW21064   6.905   3.120   1.690
 6722SOL    HW121065   6.833   3.105   1.758
 6722SOL    HW221066   6.885   3.203   1.638
 6723SOL     OW21067   2.203   6.112   3.060
 6723SOL    HW121068   2.293   6.142   3.092
 6723SOL    HW221069   2.164   6.183   3.001
 6724SOL     OW21070   1.750   3.272   6.033
 6724SOL    HW121071   1.709   3.192   5.988
 6724SOL    HW221072   1.806   3.322   5.966
 6725SOL     OW21073   0.150   3.213   1.806
 6725SOL    HW121074   0.097   3.211   1.721
 6725SOL    HW221075   0.176   3.307   1.828
 6726SOL     OW21076   0.353   2.168   5.555
 6726SOL    HW121077   0.359   2.082   5.504
 6726SOL    HW221078   0.416   2.235   5.515
 6727SOL     OW21079   0.177   3.905   4.863
 6727SOL    HW121080   0.079   3.889   4.865
 6727SOL    HW221081   0.198   3.975   4.794
 6728SOL     OW21082   3.685   1.822   2.769
 6728SOL    HW121083   3.663   1.919   2.780
 6728SOL    HW221084   3.654   1.772   2.850
 6729SOL     OW21085   6.764   1.353   3.252
 6729SOL    HW121086   6.757   1.284   3.323
 6729SOL    HW221087   6.844   1.335   3.195
 6730SOL     OW21088   2.205   6.863   0.897
 6730SOL    HW121089   2.127   6.910   0.937
 6730SOL    HW221090   2.280   6.860   0.962
 6731SOL     OW21091   0.693   6.130   1.405
 6731SOL    HW121092   0.685   6.092   1.313
 6731SOL    HW221093   0.632   6.081   1.467
 6732SOL     OW21094   5.606   4.328   4.528
 6732SOL    HW121095   5.508   4.313   4.526
 6732SOL    HW221096   5.639   4.349   4.436
 6733SOL     OW21097   4.195   5.934   0.059
 6733SOL    HW121098   4.215   5.904   6.985
 6733SOL    HW221099   4.109   5.984   0.060
 6734SOL     OW21100   6.116   2.325   4.483
 6734SOL    HW121101   6.100   2.324   4.582
 6734SOL    HW221102   6.059   2.256   4.440
 6735SOL     OW21103   0.064   4.282   4.965
 6735SOL    HW121104   0.015   4.305   5.050
 6735SOL    HW221105   0.151   4.238   4.988
 6736SOL     OW21106   2.760   3.549   6.853
 6736SOL    HW121107   2.694   3.623   6.846
 6736SOL    HW221108   2.746   3.500   6.939
 6737SOL     OW21109   1.456   2.559   0.791
 6737SOL    HW121110   1.405   2.599   0.716
 6737SOL    HW221111   1.424   2.466   0.808
 6738SOL     OW21112   1.785   6.118   3.066
 6738SOL    HW121113   1.779   6.117   2.966
 6738SOL    HW221114   1.744   6.203   3.100
 6739SOL     OW21115   3.347   5.970   5.240
 6739SOL    HW121116   3.344   6.007   5.333
 6739SOL    HW221117   3.358   5.871   5.245
 6740SOL     OW21118   1.740   0.243   4.514
 6740SOL    HW121119   1.680   0.189   4.573
 6740SOL    HW221120   1.788   0.182   4.451
 6741SOL     OW21121   4.290   1.354   5.621
 6741SOL    HW121122   4.381   1.377   5.588
 6741SOL    HW221123   4.236   1.437   5.632
 6742SOL     OW21124   6.200   6.370   2.809
 6742SOL    HW121125   6.271   6.326   2.754
 6742SOL    HW221126   6.232   6.380   2.903
 6743SOL     OW21127   3.673   5.715   0.325
 6743SOL    HW121128   3.725   5.708   0.410
 6743SOL    HW221129   3.730   5.685   0.248
 6744SOL     OW21130   5.719   4.207   5.877
 6744SOL    HW121131   5.643   4.262   5.913
 6744SOL    HW221132   5.800   4.219   5.935
 6745SOL     OW21133   6.734   0.101   3.184
 6745SOL    HW121134   6.690   0.139   3.265
 6745SOL    HW221135   6.702   0.007   3.169
 6746SOL     OW21136   0.536   1.379   4.065
 6746SOL    HW121137   0.489   1.290   4.068
 6746SOL    HW221138   0.602   1.379   3.991
 6747SOL     OW21139   5.641   1.168   4.934
 6747SOL    HW121140   5.587   1.210   4.861
 6747SOL    HW221141   5.676   1.240   4.995
 6748SOL     OW21142   2.454   1.181   3.675
 6748SOL    HW121143   2.357   1.189   3.649
 6748SOL    HW221144   2.503   1.261   3.641
 6749SOL     OW21145   2.846   5.755   0.489
 6749SOL    HW121146   2.862   5.656   0.480
 6749SOL    HW221147   2.786   5.786   0.416
 6750SOL     OW21148   4.180   2.237   4.893
 6750SOL    HW121149   4.220   2.161   4.943
 6750SOL    HW221150   4.186   2.320   4.948
 6751SOL     OW21151   3.936   0.181   3.228
 6751SOL    HW121152   4.024   0.206   3.188
 6751SOL    HW221153   3.946   0.168   3.326
 6752SOL     OW21154   0.607   1.665   3.092
 6752SOL    HW121155   0.674   1.729   3.055
 6752SOL    HW221156   0.633   1.572   3.067
 6753SOL     OW21157   3.356   0.668   6.657
 6753SOL    HW121158   3.445   0.632   6.686
 6753SOL    HW221159   3.361   0.694   6.560
 6754SOL     OW21160   0.610   1.757   0.345
 6754SOL    HW121161   0.661   1.834   0.307
 6754SOL    HW221162   0.603   1.685   0.276
 6755SOL     OW21163   4.176   0.577   3.221
 6755SOL    HW121164   4.172   0.653   3.286
 6755SOL    HW221165   4.259   0.586   3.165
 6756SOL     OW21166   3.704   4.683   5.339
 6756SOL    HW121167   3.766   4.755   5.309
 6756SOL    HW221168   3.691   4.689   5.438
 6757SOL     OW21169   4.740   1.808   1.571
 6757SOL    HW121170   4.749   1.804   1.671
 6757SOL    HW221171   4.822   1.850   1.532
 6758SOL     OW21172   6.770   2.092   1.709
 6758SOL    HW121173   6.785   2.018   1.774
 6758SOL    HW221174   6.692   2.147   1.738
 6759SOL     OW21175   0.657   4.307   4.925
 6759SOL    HW121176   0.714   4.270   4.852
 6759SOL    HW221177   0.628   4.400   4.901
 6760SOL     OW21178   6.465   4.030   2.482
 6760SOL    HW121179   6.459   4.130   2.486
 6760SOL    HW221180   6.547   4.004   2.430
 6761SOL     OW21181   6.492   2.319   6.228
 6761SOL    HW121182   6.438   2.306   6.311
 6761SOL    HW221183   6.589   2.308   6.249
 6762SOL     OW21184   0.560   5.892   4.156
 6762SOL    HW121185   0.568   5.798   4.122
 6762SOL    HW221186   0.495   5.894   4.233
 6763SOL     OW21187   0.392   4.920   2.885
 6763SOL    HW121188   0.371   4.964   2.972
 6763SOL    HW221189   0.310   4.919   2.828
 6764SOL     OW21190   2.038   4.740   0.333
 6764SOL    HW121191   1.993   4.650   0.337
 6764SOL    HW221192   1.980   4.804   0.282
 6765SOL     OW21193   5.583   3.801   3.212
 6765SOL    HW121194   5.533   3.888   3.217
 6765SOL    HW221195   5.523   3.727   3.242
 6766SOL     OW21196   4.976   6.414   6.374
 6766SOL    HW121197   5.012   6.489   6.430
 6766SOL    HW221198   5.048   6.345   6.360
 6767SOL     OW21199   1.413   2.398   1.193
 6767SOL    HW121200   1.463   2.365   1.274
 6767SOL    HW221201   1.468   2.382   1.111
 6768SOL     OW21202   1.195   6.698   3.879
 6768SOL    HW121203   1.291   6.700   3.849
 6768SOL    HW221204   1.173   6.608   3.914
 6769SOL     OW21205   2.831   0.357   5.267
 6769SOL    HW121206   2.837   0.404   5.179
 6769SOL    HW221207   2.789   0.418   5.335
 6770SOL     OW21208   4.733   2.121   3.468
 6770SOL    HW121209   4.777   2.201   3.427
 6770SOL    HW221210   4.776   2.038   3.433
 6771SOL     OW21211   4.112   1.127   2.343
 6771SOL    HW121212   4.179   1.164   2.407
 6771SOL    HW221213   4.146   1.042   2.303
 6772SOL     OW21214   4.410   2.406   2.347
 6772SOL    HW121215   4.466   2.411   2.430
 6772SOL    HW221216   4.346   2.483   2.347
 6773SOL     OW21217   0.824   6.537   2.177
 6773SOL    HW121218   0.816   6.448   2.132
 6773SOL    HW221219   0.831   6.609   2.107
 6774SOL     OW21220   1.893   3.535   4.763
 6774SOL    HW121221   1.861   3.440   4.764
 6774SOL    HW221222   1.891   3.572   4.855
 6775SOL     OW21223   1.563   2.821   3.367
 6775SOL    HW121224   1.617   2.750   3.413
 6775SOL    HW221225   1.467   2.794   3.368
 6776SOL     OW21226   4.345   3.502   0.400
 6776SOL    HW121227   4.314   3.509   0.305
 6776SOL    HW221228   4.274   3.538   0.461
 6777SOL     OW21229   4.833   4.954   0.995
 6777SOL    HW121230   4.853   4.912   0.906
 6777SOL    HW221231   4.865   5.049   0.995
 6778SOL     OW21232   6.804   4.963   1.970
 6778SOL    HW121233   6.768   5.033   1.909
 6778SOL    HW221234   6.902   4.976   1.983
 6779SOL     OW21235   5.776   4.829   6.283
 6779SOL    HW121236   5.817   4.903   6.230
 6779SOL    HW221237   5.735   4.865   6.367
 6780SOL     OW21238   1.000   2.827   2.561
 6780SOL    HW121239   0.963   2.878   2.639
 6780SOL    HW221240   0.927   2.810   2.495
 6781SOL     OW21241   6.290   1.283   4.846
 6781SOL    HW121242   6.191   1.275   4.838
 6781SOL    HW221243   6.314   1.375   4.874
 6782SOL     OW21244   1.017   1.248   3.396
 6782SOL    HW121245   1.083   1.195   3.343
 6782SOL    HW221246   1.064   1.295   3.471
 6783SOL     OW21247   0.810   1.865   5.653
 6783SOL    HW121248   0.712   1.851   5.635
 6783SOL    HW221249   0.837   1.807   5.730
 6784SOL     OW21250   2.524   3.937   0.578
 6784SOL    HW121251   2.493   3.927   0.672
 6784SOL    HW221252   2.447   3.918   0.516
 6785SOL     OW21253   6.108   5.065   5.149
 6785SOL    HW121254   6.143   5.159   5.156
 6785SOL    HW221255   6.101   5.039   5.053
 6786SOL     OW21256   0.989   2.332   0.372
 6786SOL    HW121257   1.014   2.236   0.367
 6786SOL    HW221258   1.023   2.371   0.457
 6787SOL     OW21259   3.558   3.485   0.388
 6787SOL    HW121260   3.492   3.465   0.315
 6787SOL    HW221261   3.542   3.577   0.423
 6788SOL     OW21262   0.953   4.745   2.170
 6788SOL    HW121263   0.879   4.680   2.188
 6788SOL    HW221264   0.987   4.782   2.256
 6789SOL     OW21265   0.275   4.859   3.880
 6789SOL    HW121266   0.289   4.794   3.955
 6789SOL    HW221267   0.289   4.813   3.792
 6790SOL     OW21268   1.038   3.419   0.111
 6790SOL    HW121269   1.005   3.325   0.100
 6790SOL    HW221270   1.135   3.418   0.133
 6791SOL     OW21271   3.931   2.072   2.152
 6791SOL    HW121272   3.943   2.082   2.053
 6791SOL    HW221273   3.847   2.118   2.180
 6792SOL     OW21274   5.224   6.992   5.333
 6792SOL    HW121275   5.323   6.979   5.336
 6792SOL    HW221276   5.193   0.017   5.417
 6793SOL     OW21277   2.568   0.859   6.539
 6793SOL    HW121278   2.527   0.887   6.625
 6793SOL    HW221279   2.497   0.840   6.472
 6794SOL     OW21280   5.724   1.368   5.102
 6794SOL    HW121281   5.752   1.361   5.197
 6794SOL    HW221282   5.706   1.463   5.078
 6795SOL     OW21283   1.177   5.949   1.582
 6795SOL    HW121284   1.120   6.002   1.520
 6795SOL    HW221285   1.273   5.959   1.557
 6796SOL     OW21286   6.414   0.833   3.045
 6796SOL    HW121287   6.432   0.743   3.006
 6796SOL    HW221288   6.329   0.869   3.008
 6797SOL     OW21289   0.212   2.095   1.841
 6797SOL    HW121290   0.288   2.160   1.852
 6797SOL    HW221291   0.126   2.146   1.838
 6798SOL     OW21292   6.384   6.313   1.281
 6798SOL    HW121293   6.442   6.301   1.361
 6798SOL    HW221294   6.342   6.225   1.257
 6799SOL     OW21295   6.237   0.959   1.887
 6799SOL    HW121296   6.245   0.907   1.802
 6799SOL    HW221297   6.322   0.953   1.939
 6800SOL     OW21298   2.312   2.629   2.221
 6800SOL    HW121299   2.278   2.673   2.304
 6800SOL    HW221300   2.294   2.687   2.143
 6801SOL     OW21301   1.516   0.640   3.445
 6801SOL    HW121302   1.590   0.706   3.463
 6801SOL    HW221303   1.490   0.595   3.530
 6802SOL     OW21304   3.275   5.799   1.722
 6802SOL    HW121305   3.217   5.725   1.689
 6802SOL    HW221306   3.269   5.877   1.660
 6803SOL     OW21307   4.300   4.112   6.581
 6803SOL    HW121308   4.314   4.055   6.662
 6803SOL    HW221309   4.234   4.184   6.602
 6804SOL     OW21310   3.877   5.281   3.164
 6804SOL    HW121311   3.929   5.292   3.249
 6804SOL    HW221312   3.850   5.185   3.155
 6805SOL     OW21313   0.727   4.291   6.178
 6805SOL    HW121314   0.820   4.326   6.194
 6805SOL    HW221315   0.691   4.329   6.093
 6806SOL     OW21316   6.398   1.423   3.373
 6806SOL    HW121317   6.341   1.389   3.299
 6806SOL    HW221318   6.340   1.461   3.446
 6807SOL     OW21319   3.233   3.353   1.895
 6807SOL    HW121320   3.292   3.288   1.849
 6807SOL    HW221321   3.144   3.310   1.914
 6808SOL     OW21322   6.872   2.095   5.749
 6808SOL    HW121323   6.927   2.174   5.777
 6808SOL    HW221324   6.910   2.012   5.790
 6809SOL     OW21325   6.465   3.352   1.345
 6809SOL    HW121326   6.477   3.449   1.365
 6809SOL    HW221327   6.449   3.340   1.247
 6810SOL     OW21328   3.214   1.396   2.406
 6810SOL    HW121329   3.255   1.332   2.471
 6810SOL    HW221330   3.275   1.474   2.393
 6811SOL     OW21331   6.194   3.476   2.006
 6811SOL    HW121332   6.279   3.528   2.008
 6811SOL    HW221333   6.170   3.448   2.099
 6812SOL     OW21334   3.367   4.120   5.044
 6812SOL    HW121335   3.279   4.074   5.032
 6812SOL    HW221336   3.410   4.135   4.955
 6813SOL     OW21337   5.566   3.371   2.571
 6813SOL    HW121338   5.510   3.407   2.496
 6813SOL    HW221339   5.568   3.272   2.566
 6814SOL     OW21340   4.473   1.902   6.193
 6814SOL    HW121341   4.393   1.891   6.134
 6814SOL    HW221342   4.492   1.816   6.240
 6815SOL     OW21343   2.261   6.042   6.963
 6815SOL    HW121344   2.269   6.007   6.870
 6815SOL    HW221345   2.221   6.133   6.962
 6816SOL     OW21346   6.823   0.798   5.389
 6816SOL    HW121347   6.833   0.790   5.290
 6816SOL    HW221348   6.854   0.889   5.418
 6817SOL     OW21349   2.354   2.676   3.813
 6817SOL    HW121350   2.301   2.752   3.851
 6817SOL    HW221351   2.399   2.706   3.729
 6818SOL     OW21352   1.891   6.281   0.696
 6818SOL    HW121353   1.970   6.337   0.720
 6818SOL    HW221354   1.807   6.331   0.717
 6819SOL     OW21355   4.016   1.450   2.814
 6819SOL    HW121356   3.948   1.519   2.839
 6819SOL    HW221357   3.978   1.390   2.744
 6820SOL     OW21358   1.976   5.843   1.304
 6820SOL    HW121359   1.976   5.871   1.400
 6820SOL    HW221360   2.057   5.879   1.259
 6821SOL     OW21361   3.937   2.613   5.326
 6821SOL    HW121362   4.032   2.596   5.300
 6821SOL    HW221363   3.894   2.527   5.353
 6822SOL     OW21364   5.914   2.160   5.666
 6822SOL    HW121365   5.881   2.155   5.760
 6822SOL    HW221366   5.877   2.241   5.622
 6823SOL     OW21367   5.366   3.879   6.066
 6823SOL    HW121368   5.338   3.971   6.038
 6823SOL    HW221369   5.307   3.812   6.021
 6824SOL     OW21370   1.142   1.522   0.803
 6824SOL    HW121371   1.218   1.541   0.864
 6824SOL    HW221372   1.056   1.522   0.854
 6825SOL     OW21373   5.725   0.351   6.886
 6825SOL    HW121374   5.702   0.448   6.891
 6825SOL    HW221375   5.825   0.340   6.889
 6826SOL     OW21376   1.861   3.642   3.515
 6826SOL    HW121377   1.804   3.585   3.573
 6826SOL    HW221378   1.854   3.611   3.420
 6827SOL     OW21379   5.341   4.978   6.133
 6827SOL    HW121380   5.284   5.018   6.062
 6827SOL    HW221381   5.357   4.881   6.113
 6828SOL     OW21382   3.624   1.481   1.623
 6828SOL    HW121383   3.588   1.439   1.706
 6828SOL    HW221384   3.633   1.580   1.638
 6829SOL     OW21385   5.385   6.037   5.918
 6829SOL    HW121386   5.299   6.057   5.871
 6829SOL    HW221387   5.450   6.110   5.900
 6830SOL     OW21388   5.276   0.561   3.290
 6830SOL    HW121389   5.201   0.538   3.228
 6830SOL    HW221390   5.362   0.560   3.239
 6831SOL     OW21391   1.826   1.355   5.971
 6831SOL    HW121392   1.843   1.448   5.939
 6831SOL    HW221393   1.816   1.294   5.893
 6832SOL     OW21394   2.339   4.256   0.693
 6832SOL    HW121395   2.277   4.212   0.627
 6832SOL    HW221396   2.433   4.246   0.662
 6833SOL     OW21397   2.149   4.876   0.079
 6833SOL    HW121398   2.194   4.891   7.010
 6833SOL    HW221399   2.152   4.778   0.102
 6834SOL     OW21400   6.784   0.082   0.599
 6834SOL    HW121401   6.745   7.016   0.563
 6834SOL    HW221402   6.867   0.104   0.549
 6835SOL     OW21403   4.059   1.204   4.568
 6835SOL    HW121404   4.019   1.234   4.482
 6835SOL    HW221405   4.081   1.283   4.625
 6836SOL     OW21406   3.017   4.662   6.541
 6836SOL    HW121407   3.111   4.696   6.552
 6836SOL    HW221408   2.954   4.722   6.590
 6837SOL     OW21409   0.492   2.477   3.305
 6837SOL    HW121410   0.542   2.396   3.273
 6837SOL    HW221411   0.556   2.553   3.315
 6838SOL     OW21412   3.190   5.896   6.378
 6838SOL    HW121413   3.098   5.859   6.363
 6838SOL    HW221414   3.249   5.825   6.415
 6839SOL     OW21415   5.481   0.901   5.376
 6839SOL    HW121416   5.542   0.958   5.430
 6839SOL    HW221417   5.514   0.896   5.282
 6840SOL     OW21418   3.271   6.879   4.768
 6840SOL    HW121419   3.198   6.881   4.700
 6840SOL    HW221420   3.252   6.808   4.836
 6841SOL     OW21421   3.786   4.781   0.424
 6841SOL    HW121422   3.727   4.708   0.391
 6841SOL    HW221423   3.750   4.815   0.511
 6842SOL     OW21424   2.269   2.915   0.703
 6842SOL    HW121425   2.278   3.010   0.731
 6842SOL    HW221426   2.271   2.856   0.783
 6843SOL     OW21427   5.423   0.144   1.794
 6843SOL    HW121428   5.332   0.109   1.770
 6843SOL    HW221429   5.414   0.220   1.858
 6844SOL     OW21430   5.701   0.002   3.705
 6844SOL    HW121431   5.616   0.054   3.694
 6844SOL    HW221432   5.779   0.059   3.679
 6845SOL     OW21433   5.413   4.974   2.847
 6845SOL    HW121434   5.486   4.906   2.855
 6845SOL    HW221435   5.380   4.975   2.752
 6846SOL     OW21436   4.256   3.327   1.078
 6846SOL    HW121437   4.354   3.332   1.094
 6846SOL    HW221438   4.235   3.244   1.025
 6847SOL     OW21439   6.956   4.906   2.942
 6847SOL    HW121440   0.036   4.891   2.933
 6847SOL    HW221441   6.930   4.896   3.037
 6848SOL     OW21442   3.341   6.523   3.831
 6848SOL    HW121443   3.330   6.470   3.915
 6848SOL    HW221444   3.380   6.612   3.853
 6849SOL     OW21445   3.442   5.364   5.176
 6849SOL    HW121446   3.404   5.329   5.262
 6849SOL    HW221447   3.451   5.289   5.110
 6850SOL     OW21448   5.656   3.674   2.041
 6850SOL    HW121449   5.686   3.587   2.082
 6850SOL    HW221450   5.735   3.731   2.022
 6851SOL     OW21451   1.021   2.795   3.701
 6851SOL    HW121452   1.057   2.874   3.652
 6851SOL    HW221453   0.944   2.756   3.649
 6852SOL     OW21454   1.845   5.086   0.557
 6852SOL    HW121455   1.924   5.042   0.599
 6852SOL    HW221456   1.763   5.066   0.611
 6853SOL     OW21457   6.735   3.860   6.959
 6853SOL    HW121458   6.761   3.912   6.878
 6853SOL    HW221459   6.638   3.839   6.956
 6854SOL     OW21460   4.848   1.970   5.850
 6854SOL    HW121461   4.921   1.908   5.821
 6854SOL    HW221462   4.817   1.945   5.941
 6855SOL     OW21463   3.038   5.617   3.297
 6855SOL    HW121464   3.094   5.560   3.238
 6855SOL    HW221465   3.090   5.640   3.380
 6856SOL     OW21466   4.656   4.267   5.519
 6856SOL    HW121467   4.754   4.275   5.533
 6856SOL    HW221468   4.637   4.190   5.457
 6857SOL     OW21469   3.095   2.407   0.087
 6857SOL    HW121470   3.142   2.388   0.001
 6857SOL    HW221471   3.123   2.340   0.155
 6858SOL     OW21472   3.836   3.628   4.189
 6858SOL    HW121473   3.809   3.592   4.278
 6858SOL    HW221474   3.826   3.727   4.188
 6859SOL     OW21475   0.628   0.699   0.985
 6859SOL    HW121476   0.561   0.708   0.912
 6859SOL    HW221477   0.716   0.670   0.947
 6860SOL     OW21478   6.177   5.134   0.885
 6860SOL    HW121479   6.264   5.085   0.877
 6860SOL    HW221480   6.136   5.115   0.974
 6861SOL     OW21481   5.279   3.857   0.805
 6861SOL    HW121482   5.360   3.826   0.756
 6861SOL    HW221483   5.260   3.796   0.881
 6862SOL     OW21484   1.979   4.660   5.691
 6862SOL    HW121485   2.079   4.661   5.691
 6862SOL    HW221486   1.946   4.651   5.598
 6863SOL     OW21487   5.941   0.999   5.684
 6863SOL    HW121488   5.928   0.919   5.743
 6863SOL    HW221489   5.993   0.973   5.603
 6864SOL     OW21490   2.829   5.735   4.071
 6864SOL    HW121491   2.742   5.736   4.119
 6864SOL    HW221492   2.904   5.729   4.137
 6865SOL     OW21493   0.284   5.958   2.903
 6865SOL    HW121494   0.360   6.013   2.937
 6865SOL    HW221495   0.212   5.954   2.972
 6866SOL     OW21496   6.488   5.002   2.753
 6866SOL    HW121497   6.570   4.947   2.741
 6866SOL    HW221498   6.420   4.950   2.804
 6867SOL     OW21499   1.868   4.622   1.546
 6867SOL    HW121500   1.826   4.542   1.588
 6867SOL    HW221501   1.955   4.596   1.503
 6868SOL     OW21502   0.913   5.297   6.330
 6868SOL    HW121503   0.850   5.241   6.384
 6868SOL    HW221504   1.002   5.253   6.325
 6869SOL     OW21505   5.043   0.305   5.053
 6869SOL    HW121506   4.956   0.354   5.042
 6869SOL    HW221507   5.024   0.211   5.081
 6870SOL     OW21508   6.769   4.835   2.279
 6870SOL    HW121509   6.824   4.916   2.260
 6870SOL    HW221510   6.816   4.753   2.246
 6871SOL     OW21511   6.249   4.832   2.871
 6871SOL    HW121512   6.316   4.808   2.941
 6871SOL    HW221513   6.222   4.749   2.821
 6872SOL     OW21514   0.521   3.198   1.233
 6872SOL    HW121515   0.474   3.180   1.319
 6872SOL    HW221516   0.455   3.193   1.157
 6873SOL     OW21517   6.937   3.866   5.096
 6873SOL    HW121518   6.873   3.938   5.070
 6873SOL    HW221519   6.906   3.778   5.061
 6874SOL     OW21520   0.721   5.951   2.255
 6874SOL    HW121521   0.813   5.954   2.215
 6874SOL    HW221522   0.675   5.866   2.227
 6875SOL     OW21523   1.412   2.358   3.402
 6875SOL    HW121524   1.472   2.386   3.478
 6875SOL    HW221525   1.346   2.431   3.383
 6876SOL     OW21526   3.815   6.289   3.763
 6876SOL    HW121527   3.754   6.314   3.839
 6876SOL    HW221528   3.799   6.350   3.686
 6877SOL     OW21529   2.744   3.581   0.706
 6877SOL    HW121530   2.809   3.531   0.764
 6877SOL    HW221531   2.794   3.645   0.648
 6878SOL     OW21532   3.142   1.623   5.686
 6878SOL    HW121533   3.155   1.665   5.776
 6878SOL    HW221534   3.226   1.630   5.633
 6879SOL     OW21535   1.186   2.185   0.130
 6879SOL    HW121536   1.172   2.263   0.191
 6879SOL    HW221537   1.236   2.113   0.178
 6880SOL     OW21538   2.239   4.116   5.368
 6880SOL    HW121539   2.272   4.064   5.289
 6880SOL    HW221540   2.256   4.214   5.353
 6881SOL     OW21541   1.019   3.566   1.501
 6881SOL    HW121542   1.056   3.537   1.589
 6881SOL    HW221543   1.089   3.552   1.430
 6882SOL     OW21544   3.161   0.438   0.063
 6882SOL    HW121545   3.070   0.428   0.023
 6882SOL    HW221546   3.205   0.348   0.067
 6883SOL     OW21547   4.147   1.592   0.481
 6883SOL    HW121548   4.059   1.610   0.438
 6883SOL    HW221549   4.139   1.606   0.580
 6884SOL     OW21550   1.815   3.975   4.367
 6884SOL    HW121551   1.817   4.068   4.330
 6884SOL    HW221552   1.895   3.960   4.425
 6885SOL     OW21553   3.729   5.968   4.154
 6885SOL    HW121554   3.654   5.905   4.135
 6885SOL    HW221555   3.692   6.050   4.198
 6886SOL     OW21556   6.547   0.633   4.082
 6886SOL    HW121557   6.549   0.683   4.168
 6886SOL    HW221558   6.640   0.614   4.052
 6887SOL     OW21559   5.064   6.012   5.558
 6887SOL    HW121560   4.967   6.033   5.565
 6887SOL    HW221561   5.094   5.964   5.640
 6888SOL     OW21562   5.429   6.152   6.286
 6888SOL    HW121563   5.491   6.207   6.230
 6888SOL    HW221564   5.398   6.073   6.234
 6889SOL     OW21565   2.131   2.015   4.901
 6889SOL    HW121566   2.225   2.005   4.870
 6889SOL    HW221567   2.087   2.090   4.850
 6890SOL     OW21568   4.278   6.373   1.483
 6890SOL    HW121569   4.351   6.427   1.526
 6890SOL    HW221570   4.281   6.280   1.519
 6891SOL     OW21571   1.952   4.752   3.630
 6891SOL    HW121572   2.025   4.685   3.617
 6891SOL    HW221573   1.960   4.793   3.721
 6892SOL     OW21574   3.347   2.118   3.715
 6892SOL    HW121575   3.285   2.048   3.749
 6892SOL    HW221576   3.307   2.163   3.635
 6893SOL     OW21577   4.444   4.437   6.620
 6893SOL    HW121578   4.496   4.514   6.582
 6893SOL    HW221579   4.503   4.383   6.680
 6894SOL     OW21580   6.153   4.656   0.063
 6894SOL    HW121581   6.130   4.750   0.089
 6894SOL    HW221582   6.184   4.654   6.987
 6895SOL     OW21583   2.848   6.076   6.797
 6895SOL    HW121584   2.814   6.057   6.706
 6895SOL    HW221585   2.921   6.011   6.819
 6896SOL     OW21586   1.876   0.028   3.671
 6896SOL    HW121587   1.851   0.122   3.648
 6896SOL    HW221588   1.885   0.019   3.770
 6897SOL     OW21589   3.233   3.469   6.223
 6897SOL    HW121590   3.307   3.423   6.271
 6897SOL    HW221591   3.151   3.412   6.223
 6898SOL     OW21592   4.098   1.562   2.178
 6898SOL    HW121593   4.104   1.661   2.161
 6898SOL    HW221594   4.099   1.513   2.091
 6899SOL     OW21595   6.000   0.037   1.041
 6899SOL    HW121596   5.914   0.001   1.075
 6899SOL    HW221597   6.035   0.106   1.104
 6900SOL     OW21598   6.808   6.664   5.795
 6900SOL    HW121599   6.839   6.755   5.768
 6900SOL    HW221600   6.710   6.665   5.811
 6901SOL     OW21601   0.258   6.701   6.204
 6901SOL    HW121602   0.190   6.709   6.130
 6901SOL    HW221603   0.278   6.604   6.219
 6902SOL     OW21604   5.969   6.343   0.070
 6902SOL    HW121605   5.926   6.254   0.085
 6902SOL    HW221606   6.064   6.339   0.099
 6903SOL     OW21607   3.830   5.648   4.612
 6903SOL    HW121608   3.906   5.585   4.625
 6903SOL    HW221609   3.865   5.741   4.605
 6904SOL     OW21610   6.230   1.237   4.516
 6904SOL    HW121611   6.291   1.184   4.456
 6904SOL    HW221612   6.244   1.208   4.611
 6905SOL     OW21613   6.015   6.262   6.603
 6905SOL    HW121614   5.949   6.331   6.573
 6905SOL    HW221615   6.098   6.307   6.635
 6906SOL     OW21616   4.966   1.288   4.045
 6906SOL    HW121617   4.930   1.343   3.969
 6906SOL    HW221618   4.947   1.334   4.131
 6907SOL     OW21619   5.009   2.513   1.340
 6907SOL    HW121620   5.087   2.573   1.319
 6907SOL    HW221621   4.942   2.563   1.396
 6908SOL     OW21622   0.813   6.046   6.246
 6908SOL    HW121623   0.747   6.088   6.309
 6908SOL    HW221624   0.848   5.961   6.286
 6909SOL     OW21625   6.524   4.726   1.328
 6909SOL    HW121626   6.524   4.639   1.280
 6909SOL    HW221627   6.558   4.713   1.421
 6910SOL     OW21628   6.604   2.959   3.605
 6910SOL    HW121629   6.595   3.016   3.687
 6910SOL    HW221630   6.534   2.986   3.539
 6911SOL     OW21631   4.315   6.138   3.442
 6911SOL    HW121632   4.257   6.169   3.517
 6911SOL    HW221633   4.372   6.063   3.473
 6912SOL     OW21634   3.058   5.260   0.465
 6912SOL    HW121635   3.066   5.337   0.402
 6912SOL    HW221636   3.097   5.285   0.554
 6913SOL     OW21637   4.526   4.781   4.758
 6913SOL    HW121638   4.599   4.730   4.804
 6913SOL    HW221639   4.563   4.865   4.720
 6914SOL     OW21640   5.992   4.067   5.812
 6914SOL    HW121641   5.929   3.990   5.800
 6914SOL    HW221642   5.977   4.109   5.901
 6915SOL     OW21643   6.115   3.846   1.543
 6915SOL    HW121644   6.145   3.863   1.449
 6915SOL    HW221645   6.015   3.857   1.548
 6916SOL     OW21646   6.617   3.193   6.874
 6916SOL    HW121647   6.614   3.139   6.957
 6916SOL    HW221648   6.636   3.289   6.897
 6917SOL     OW21649   2.938   6.037   1.074
 6917SOL    HW121650   2.942   6.104   1.149
 6917SOL    HW221651   3.007   6.060   1.005
 6918SOL     OW21652   6.729   3.087   4.807
 6918SOL    HW121653   6.828   3.084   4.825
 6918SOL    HW221654   6.711   3.053   4.714
 6919SOL     OW21655   0.299   6.204   2.150
 6919SOL    HW121656   0.393   6.234   2.132
 6919SOL    HW221657   0.257   6.174   2.065
 6920SOL     OW21658   4.974   5.063   5.617
 6920SOL    HW121659   5.047   5.086   5.553
 6920SOL    HW221660   5.012   5.014   5.695
 6921SOL     OW21661   5.351   6.138   3.461
 6921SOL    HW121662   5.352   6.238   3.456
 6921SOL    HW221663   5.323   6.100   3.373
 6922SOL     OW21664   2.050   5.788   6.341
 6922SOL    HW121665   2.145   5.816   6.354
 6922SOL    HW221666   2.007   5.776   6.430
 6923SOL     OW21667   4.712   5.456   3.545
 6923SOL    HW121668   4.729   5.552   3.568
 6923SOL    HW221669   4.628   5.426   3.591
 6924SOL     OW21670   1.752   3.732   6.638
 6924SOL    HW121671   1.665   3.687   6.619
 6924SOL    HW221672   1.823   3.663   6.653
 6925SOL     OW21673   4.268   6.151   5.013
 6925SOL    HW121674   4.323   6.147   4.929
 6925SOL    HW221675   4.277   6.064   5.061
 6926SOL     OW21676   3.589   3.126   1.341
 6926SOL    HW121677   3.567   3.178   1.259
 6926SOL    HW221678   3.688   3.108   1.343
 6927SOL     OW21679   5.331   2.970   6.121
 6927SOL    HW121680   5.255   2.931   6.069
 6927SOL    HW221681   5.376   2.897   6.174
 6928SOL     OW21682   6.395   5.805   0.826
 6928SOL    HW121683   6.442   5.725   0.862
 6928SOL    HW221684   6.455   5.854   0.763
 6929SOL     OW21685   5.735   5.129   1.067
 6929SOL    HW121686   5.767   5.045   1.110
 6929SOL    HW221687   5.653   5.111   1.013
 6930SOL     OW21688   0.412   6.515   2.247
 6930SOL    HW121689   0.447   6.510   2.153
 6930SOL    HW221690   0.405   6.422   2.284
 6931SOL     OW21691   1.908   0.417   2.314
 6931SOL    HW121692   1.855   0.459   2.388
 6931SOL    HW221693   1.858   0.339   2.276
 6932SOL     OW21694   3.742   0.052   0.749
 6932SOL    HW121695   3.762   0.010   0.838
 6932SOL    HW221696   3.826   0.054   0.694
 6933SOL     OW21697   2.929   6.652   4.723
 6933SOL    HW121698   2.872   6.629   4.645
 6933SOL    HW221699   3.026   6.645   4.698
 6934SOL     OW21700   4.855   3.361   6.139
 6934SOL    HW121701   4.836   3.378   6.042
 6934SOL    HW221702   4.873   3.448   6.185
 6935SOL     OW21703   3.696   5.062   2.958
 6935SOL    HW121704   3.777   5.074   2.899
 6935SOL    HW221705   3.618   5.110   2.918
 6936SOL     OW21706   6.274   2.374   4.256
 6936SOL    HW121707   6.234   2.439   4.192
 6936SOL    HW221708   6.218   2.370   4.339
 6937SOL     OW21709   0.088   6.579   0.193
 6937SOL    HW121710   0.108   6.557   0.097
 6937SOL    HW221711   0.173   6.594   0.243
 6938SOL     OW21712   5.105   3.476   5.633
 6938SOL    HW121713   5.175   3.496   5.702
 6938SOL    HW221714   5.066   3.561   5.600
 6939SOL     OW21715   0.678   4.387   2.143
 6939SOL    HW121716   0.634   4.327   2.210
 6939SOL    HW221717   0.693   4.477   2.183
 6940SOL     OW21718   4.476   0.672   0.163
 6940SOL    HW121719   4.508   0.578   0.179
 6940SOL    HW221720   4.477   0.722   0.250
 6941SOL     OW21721   3.482   3.040   2.397
 6941SOL    HW121722   3.391   3.058   2.435
 6941SOL    HW221723   3.487   3.078   2.304
 6942SOL     OW21724   5.620   1.730   1.546
 6942SOL    HW121725   5.602   1.656   1.481
 6942SOL    HW221726   5.718   1.747   1.552
 6943SOL     OW21727   4.282   6.028   6.699
 6943SOL    HW121728   4.277   5.949   6.761
 6943SOL    HW221729   4.190   6.064   6.682
 6944SOL     OW21730   1.001   3.229   6.512
 6944SOL    HW121731   1.066   3.202   6.583
 6944SOL    HW221732   1.021   3.323   6.483
 6945SOL     OW21733   6.501   2.733   6.300
 6945SOL    HW121734   6.430   2.664   6.299
 6945SOL    HW221735   6.463   2.821   6.272
 6946SOL     OW21736   6.091   6.394   1.227
 6946SOL    HW121737   6.036   6.323   1.183
 6946SOL    HW221738   6.174   6.411   1.173
 6947SOL     OW21739   3.799   6.273   6.346
 6947SOL    HW121740   3.805   6.329   6.428
 6947SOL    HW221741   3.768   6.329   6.269
 6948SOL     OW21742   6.968   0.676   6.741
 6948SOL    HW121743   7.001   0.606   6.804
 6948SOL    HW221744   6.897   0.637   6.682
 6949SOL     OW21745   5.002   6.566   2.926
 6949SOL    HW121746   5.046   6.634   2.985
 6949SOL    HW221747   5.015   6.591   2.830
 6950SOL     OW21748   2.620   1.329   4.554
 6950SOL    HW121749   2.577   1.291   4.636
 6950SOL    HW221750   2.553   1.332   4.479
 6951SOL     OW21751   6.656   5.861   5.459
 6951SOL    HW121752   6.736   5.818   5.503
 6951SOL    HW221753   6.578   5.799   5.466
 6952SOL     OW21754   0.320   6.048   3.743
 6952SOL    HW121755   0.393   6.005   3.796
 6952SOL    HW221756   0.350   6.058   3.648
 6953SOL     OW21757   5.015   6.093   0.538
 6953SOL    HW121758   5.070   6.172   0.508
 6953SOL    HW221759   5.043   6.068   0.631
 6954SOL     OW21760   6.998   3.732   3.839
 6954SOL    HW121761   6.971   3.808   3.898
 6954SOL    HW221762   6.945   3.650   3.863
 6955SOL     OW21763   6.701   0.791   1.859
 6955SOL    HW121764   6.740   0.844   1.934
 6955SOL    HW221765   6.660   0.707   1.894
 6956SOL     OW21766   4.712   6.427   3.187
 6956SOL    HW121767   4.645   6.372   3.235
 6956SOL    HW221768   4.770   6.474   3.254
 6957SOL     OW21769   6.181   4.793   1.024
 6957SOL    HW121770   6.145   4.807   0.931
 6957SOL    HW221771   6.281   4.800   1.022
 6958SOL     OW21772   2.918   3.552   4.350
 6958SOL    HW121773   2.974   3.477   4.384
 6958SOL    HW221774   2.874   3.524   4.264
 6959SOL     OW21775   1.894   1.523   4.504
 6959SOL    HW121776   1.952   1.546   4.583
 6959SOL    HW221777   1.807   1.572   4.512
 6960SOL     OW21778   2.061   5.720   1.685
 6960SOL    HW121779   1.999   5.711   1.763
 6960SOL    HW221780   2.081   5.630   1.647
 6961SOL     OW21781   5.827   1.906   4.298
 6961SOL    HW121782   5.911   1.933   4.344
 6961SOL    HW221783   5.810   1.809   4.313
 6962SOL     OW21784   5.095   5.955   1.933
 6962SOL    HW121785   5.110   5.995   1.843
 6962SOL    HW221786   5.128   6.017   2.004
 6963SOL     OW21787   6.000   5.957   1.457
 6963SOL    HW121788   6.098   5.956   1.439
 6963SOL    HW221789   5.984   5.953   1.555
 6964SOL     OW21790   3.531   0.243   4.986
 6964SOL    HW121791   3.539   0.333   4.943
 6964SOL    HW221792   3.622   0.209   5.012
 6965SOL     OW21793   0.435   3.520   0.970
 6965SOL    HW121794   0.335   3.521   0.972
 6965SOL    HW221795   0.470   3.544   1.061
 6966SOL     OW21796   0.263   2.277   3.089
 6966SOL    HW121797   0.334   2.245   3.026
 6966SOL    HW221798   0.244   2.374   3.071
 6967SOL     OW21799   2.091   6.627   4.853
 6967SOL    HW121800   2.165   6.562   4.841
 6967SOL    HW221801   2.088   6.689   4.774
 6968SOL     OW21802   4.531   6.369   2.587
 6968SOL    HW121803   4.576   6.279   2.594
 6968SOL    HW221804   4.433   6.358   2.600
 6969SOL     OW21805   2.718   2.442   1.210
 6969SOL    HW121806   2.760   2.514   1.155
 6969SOL    HW221807   2.780   2.415   1.284
 6970SOL     OW21808   3.118   4.433   6.417
 6970SOL    HW121809   3.048   4.382   6.466
 6970SOL    HW221810   3.096   4.530   6.419
 6971SOL     OW21811   6.167   4.678   1.671
 6971SOL    HW121812   6.096   4.655   1.738
 6971SOL    HW221813   6.232   4.742   1.712
 6972SOL     OW21814   4.997   4.181   3.310
 6972SOL    HW121815   4.925   4.116   3.286
 6972SOL    HW221816   4.987   4.263   3.254
 6973SOL     OW21817   0.211   3.604   4.576
 6973SOL    HW121818   0.286   3.573   4.517
 6973SOL    HW221819   0.220   3.561   4.666
 6974SOL     OW21820   3.213   3.720   2.700
 6974SOL    HW121821   3.226   3.814   2.732
 6974SOL    HW221822   3.254   3.656   2.765
 6975SOL     OW21823   2.178   6.511   6.584
 6975SOL    HW121824   2.229   6.425   6.583
 6975SOL    HW221825   2.174   6.546   6.678
 6976SOL     OW21826   4.718   6.233   5.120
 6976SOL    HW121827   4.746   6.306   5.184
 6976SOL    HW221828   4.675   6.159   5.172
 6977SOL     OW21829   4.244   2.434   1.423
 6977SOL    HW121830   4.321   2.376   1.451
 6977SOL    HW221831   4.195   2.391   1.348
 6978SOL     OW21832   4.003   0.987   2.771
 6978SOL    HW121833   3.975   1.080   2.749
 6978SOL    HW221834   3.949   0.922   2.717
 6979SOL     OW21835   1.324   4.128   1.369
 6979SOL    HW121836   1.407   4.075   1.352
 6979SOL    HW221837   1.350   4.224   1.382
 6980SOL     OW21838   1.576   1.242   3.902
 6980SOL    HW121839   1.647   1.308   3.924
 6980SOL    HW221840   1.619   1.156   3.873
 6981SOL     OW21841   3.983   2.587   5.766
 6981SOL    HW121842   4.008   2.638   5.683
 6981SOL    HW221843   4.066   2.554   5.811
 6982SOL     OW21844   1.637   0.515   4.450
 6982SOL    HW121845   1.582   0.524   4.534
 6982SOL    HW221846   1.656   0.418   4.433
 6983SOL     OW21847   3.947   2.140   3.960
 6983SOL    HW121848   3.910   2.126   4.052
 6983SOL    HW221849   4.037   2.182   3.966
 6984SOL     OW21850   2.255   1.881   3.359
 6984SOL    HW121851   2.318   1.827   3.304
 6984SOL    HW221852   2.282   1.876   3.455
 6985SOL     OW21853   4.293   5.173   1.782
 6985SOL    HW121854   4.349   5.199   1.703
 6985SOL    HW221855   4.271   5.255   1.836
 6986SOL     OW21856   1.688   6.848   6.805
 6986SOL    HW121857   1.592   6.855   6.832
 6986SOL    HW221858   1.695   6.793   6.722
 6987SOL     OW21859   6.601   1.268   5.989
 6987SOL    HW121860   6.604   1.170   5.969
 6987SOL    HW221861   6.566   1.281   6.082
 6988SOL     OW21862   0.341   0.368   5.480
 6988SOL    HW121863   0.333   0.373   5.579
 6988SOL    HW221864   0.391   0.448   5.446
 6989SOL     OW21865   0.854   4.430   2.566
 6989SOL    HW121866   0.761   4.406   2.593
 6989SOL    HW221867   0.898   4.350   2.524
 6990SOL     OW21868   4.877   2.911   1.027
 6990SOL    HW121869   4.960   2.962   1.048
 6990SOL    HW221870   4.799   2.953   1.073
 6991SOL     OW21871   3.279   4.853   3.882
 6991SOL    HW121872   3.248   4.778   3.823
 6991SOL    HW221873   3.220   4.859   3.963
 6992SOL     OW21874   5.311   5.926   6.162
 6992SOL    HW121875   5.214   5.908   6.174
 6992SOL    HW221876   5.327   5.968   6.073
 6993SOL     OW21877   6.003   0.757   2.893
 6993SOL    HW121878   6.048   0.814   2.824
 6993SOL    HW221879   6.051   0.670   2.900
 6994SOL     OW21880   0.340   2.378   4.508
 6994SOL    HW121881   0.318   2.319   4.431
 6994SOL    HW221882   0.309   2.471   4.489
 6995SOL     OW21883   6.912   4.641   5.952
 6995SOL    HW121884   6.821   4.646   5.993
 6995SOL    HW221885   6.976   4.602   6.018
 6996SOL     OW21886   1.411   6.882   6.894
 6996SOL    HW121887   1.420   6.941   6.974
 6996SOL    HW221888   1.328   6.826   6.903
 6997SOL     OW21889   6.632   5.837   5.008
 6997SOL    HW121890   6.652   5.829   4.911
 6997SOL    HW221891   6.715   5.816   5.061
 6998SOL     OW21892   1.942   1.409   1.767
 6998SOL    HW121893   1.904   1.501   1.757
 6998SOL    HW221894   2.041   1.413   1.754
 6999SOL     OW21895   2.552   2.554   5.936
 6999SOL    HW121896   2.472   2.523   5.988
 6999SOL    HW221897   2.634   2.507   5.970
 7000SOL     OW21898   5.789   6.210   1.428
 7000SOL    HW121899   5.713   6.181   1.370
 7000SOL    HW221900   5.858   6.137   1.429
 7001SOL     OW21901   1.538   2.438   5.246
 7001SOL    HW121902   1.541   2.445   5.146
 7001SOL    HW221903   1.585   2.517   5.286
 7002SOL     OW21904   2.243   5.470   3.641
 7002SOL    HW121905   2.220   5.461   3.544
 7002SOL    HW221906   2.282   5.561   3.657
 7003SOL     OW21907   3.813   5.256   0.513
 7003SOL    HW121908   3.791   5.175   0.459
 7003SOL    HW221909   3.749   5.263   0.590
 7004SOL     OW21910   1.134   4.795   2.457
 7004SOL    HW121911   1.174   4.705   2.439
 7004SOL    HW221912   1.053   4.786   2.515
 7005SOL     OW21913   1.715   0.378   0.343
 7005SOL    HW121914   1.680   0.422   0.260
 7005SOL    HW221915   1.774   0.301   0.318
 7006SOL     OW21916   4.713   4.851   4.141
 7006SOL    HW121917   4.631   4.794   4.132
 7006SOL    HW221918   4.791   4.804   4.099
 7007SOL     OW21919   5.012   0.096   3.239
 7007SOL    HW121920   5.009   0.183   3.287
 7007SOL    HW221921   5.095   0.047   3.266
 7008SOL     OW21922   0.739   4.036   4.616
 7008SOL    HW121923   0.650   4.037   4.662
 7008SOL    HW221924   0.799   3.970   4.662
 7009SOL     OW21925   5.979   6.344   1.934
 7009SOL    HW121926   5.985   6.414   1.864
 7009SOL    HW221927   6.070   6.316   1.962
 7010SOL     OW21928   4.899   4.675   4.016
 7010SOL    HW121929   4.941   4.586   4.032
 7010SOL    HW221930   4.944   4.744   4.072
 7011SOL     OW21931   3.620   6.617   6.737
 7011SOL    HW121932   3.629   6.554   6.661
 7011SOL    HW221933   3.602   6.709   6.703
 7012SOL     OW21934   1.568   2.489   1.576
 7012SOL    HW121935   1.625   2.499   1.657
 7012SOL    HW221936   1.522   2.576   1.557
 7013SOL     OW21937   0.605   0.326   0.792
 7013SOL    HW121938   0.623   0.341   0.889
 7013SOL    HW221939   0.546   0.246   0.781
 7014SOL     OW21940   4.257   3.562   1.192
 7014SOL    HW121941   4.217   3.626   1.126
 7014SOL    HW221942   4.240   3.468   1.162
 7015SOL     OW21943   5.711   4.738   2.313
 7015SOL    HW121944   5.797   4.764   2.356
 7015SOL    HW221945   5.635   4.783   2.360
 7016SOL     OW21946   3.467   4.676   1.429
 7016SOL    HW121947   3.475   4.775   1.430
 7016SOL    HW221948   3.374   4.650   1.402
 7017SOL     OW21949   2.323   5.152   2.409
 7017SOL    HW121950   2.277   5.086   2.468
 7017SOL    HW221951   2.420   5.158   2.433
 7018SOL     OW21952   5.624   3.837   4.499
 7018SOL    HW121953   5.663   3.881   4.581
 7018SOL    HW221954   5.681   3.859   4.420
 7019SOL     OW21955   3.017   4.019   0.312
 7019SOL    HW121956   3.028   3.988   0.218
 7019SOL    HW221957   2.965   3.951   0.364
 7020SOL     OW21958   6.405   5.845   6.605
 7020SOL    HW121959   6.492   5.892   6.588
 7020SOL    HW221960   6.331   5.895   6.560
 7021SOL     OW21961   1.546   1.294   5.765
 7021SOL    HW121962   1.574   1.384   5.797
 7021SOL    HW221963   1.446   1.286   5.772
 7022SOL     OW21964   4.617   6.531   6.407
 7022SOL    HW121965   4.642   6.466   6.335
 7022SOL    HW221966   4.606   6.622   6.366
 7023SOL     OW21967   0.281   1.547   4.264
 7023SOL    HW121968   0.320   1.548   4.172
 7023SOL    HW221969   0.316   1.625   4.315
 7024SOL     OW21970   2.485   3.831   5.338
 7024SOL    HW121971   2.461   3.905   5.274
 7024SOL    HW221972   2.585   3.826   5.345
 7025SOL     OW21973   2.604   1.234   0.366
 7025SOL    HW121974   2.580   1.137   0.365
 7025SOL    HW221975   2.591   1.273   0.275
 7026SOL     OW21976   3.476   2.038   1.812
 7026SOL    HW121977   3.544   2.098   1.854
 7026SOL    HW221978   3.445   2.079   1.726
 7027SOL     OW21979   2.512   5.285   4.297
 7027SOL    HW121980   2.574   5.213   4.329
 7027SOL    HW221981   2.464   5.325   4.375
 7028SOL     OW21982   4.040   0.562   3.983
 7028SOL    HW121983   4.085   0.637   3.934
 7028SOL    HW221984   4.034   0.584   4.080
 7029SOL     OW21985   5.016   4.908   5.148
 7029SOL    HW121986   5.035   4.923   5.051
 7029SOL    HW221987   5.091   4.857   5.190
 7030SOL     OW21988   1.654   1.208   5.335
 7030SOL    HW121989   1.695   1.203   5.426
 7030SOL    HW221990   1.671   1.122   5.287
 7031SOL     OW21991   2.629   6.060   4.803
 7031SOL    HW121992   2.633   6.152   4.842
 7031SOL    HW221993   2.594   6.064   4.709
 7032SOL     OW21994   3.620   0.799   3.315
 7032SOL    HW121995   3.715   0.782   3.290
 7032SOL    HW221996   3.578   0.861   3.249
 7033SOL     OW21997   1.320   2.541   3.773
 7033SOL    HW121998   1.418   2.522   3.776
 7033SOL    HW221999   1.305   2.640   3.770
 7034SOL     OW22000   5.926   0.457   3.757
 7034SOL    HW122001   5.900   0.418   3.846
 7034SOL    HW222002   5.913   0.388   3.686
 7035SOL     OW22003   1.850   6.947   1.290
 7035SOL    HW122004   1.819   6.895   1.369
 7035SOL    HW222005   1.794   0.010   1.280
 7036SOL     OW22006   0.530   0.760   2.705
 7036SOL    HW122007   0.565   0.836   2.650
 7036SOL    HW222008   0.453   0.791   2.760
 7037SOL     OW22009   2.004   1.549   6.632
 7037SOL    HW122010   1.980   1.461   6.674
 7037SOL    HW222011   2.094   1.577   6.664
 7038SOL     OW22012   2.650   3.350   5.590
 7038SOL    HW122013   2.707   3.431   5.578
 7038SOL    HW222014   2.705   3.268   5.573
 7039SOL     OW22015   2.960   5.068   1.561
 7039SOL    HW122016   2.865   5.074   1.530
 7039SOL    HW222017   2.974   4.983   1.610
 7040SOL     OW22018   6.420   1.499   4.939
 7040SOL    HW122019   6.411   1.578   4.878
 7040SOL    HW222020   6.509   1.457   4.926
 7041SOL     OW22021   6.719   1.951   1.939
 7041SOL    HW122022   6.754   1.864   1.972
 7041SOL    HW222023   6.683   2.004   2.016
 7042SOL     OW22024   4.830   5.101   5.261
 7042SOL    HW122025   4.889   5.026   5.230
 7042SOL    HW222026   4.737   5.067   5.273
 7043SOL     OW22027   1.920   3.848   2.547
 7043SOL    HW122028   1.974   3.813   2.471
 7043SOL    HW222029   1.832   3.801   2.551
 7044SOL     OW22030   4.193   4.825   4.147
 7044SOL    HW122031   4.096   4.824   4.171
 7044SOL    HW222032   4.208   4.891   4.074
 7045SOL     OW22033   5.071   5.748   3.715
 7045SOL    HW122034   5.125   5.686   3.659
 7045SOL    HW222035   5.088   5.842   3.686
 7046SOL     OW22036   3.291   0.635   2.893
 7046SOL    HW122037   3.216   0.616   2.830
 7046SOL    HW222038   3.303   0.734   2.902
 7047SOL     OW22039   6.906   1.951   2.523
 7047SOL    HW122040   6.906   1.880   2.594
 7047SOL    HW222041   6.897   1.907   2.433
 7048SOL     OW22042   5.683   6.297   2.817
 7048SOL    HW122043   5.652   6.327   2.907
 7048SOL    HW222044   5.631   6.217   2.788
 7049SOL     OW22045   3.778   1.473   1.035
 7049SOL    HW122046   3.772   1.568   1.067
 7049SOL    HW222047   3.701   1.453   0.975
 7050SOL     OW22048   4.055   3.653   1.719
 7050SOL    HW122049   4.059   3.610   1.629
 7050SOL    HW222050   3.960   3.660   1.749
 7051SOL     OW22051   6.828   0.144   1.643
 7051SOL    HW122052   6.923   0.123   1.667
 7051SOL    HW222053   6.767   0.083   1.694
 7052SOL     OW22054   5.381   2.719   3.215
 7052SOL    HW122055   5.462   2.770   3.245
 7052SOL    HW222056   5.308   2.784   3.193
 7053SOL     OW22057   0.838   3.282   5.102
 7053SOL    HW122058   0.904   3.233   5.159
 7053SOL    HW222059   0.841   3.380   5.124
 7054SOL     OW22060   0.868   6.627   0.536
 7054SOL    HW122061   0.921   6.630   0.620
 7054SOL    HW222062   0.929   6.637   0.457
 7055SOL     OW22063   2.804   6.903   5.388
 7055SOL    HW122064   2.761   6.814   5.377
 7055SOL    HW222065   2.742   6.964   5.437
 7056SOL     OW22066   6.385   4.828   1.756
 7056SOL    HW122067   6.427   4.738   1.772
 7056SOL    HW222068   6.451   4.888   1.712
 7057SOL     OW22069   1.818   5.512   3.668
 7057SOL    HW122070   1.902   5.481   3.713
 7057SOL    HW222071   1.835   5.526   3.571
 7058SOL     OW22072   6.157   4.705   5.783
 7058SOL    HW122073   6.185   4.661   5.869
 7058SOL    HW222074   6.127   4.798   5.801
 7059SOL     OW22075   6.565   1.172   3.950
 7059SOL    HW122076   6.480   1.216   3.980
 7059SOL    HW222077   6.580   1.089   4.004
 7060SOL     OW22078   3.939   0.209   1.567
 7060SOL    HW122079   3.910   0.113   1.576
 7060SOL    HW222080   3.863   0.269   1.590
 7061SOL     OW22081   0.625   2.731   3.348
 7061SOL    HW122082   0.670   2.707   3.262
 7061SOL    HW222083   0.597   2.827   3.345
 7062SOL     OW22084   4.260   0.856   5.288
 7062SOL    HW122085   4.285   0.760   5.298
 7062SOL    HW222086   4.162   0.867   5.303
 7063SOL     OW22087   1.450   7.002   1.777
 7063SOL    HW122088   1.495   0.029   1.853
 7063SOL    HW222089   1.404   0.050   1.720
 7064SOL     OW22090   3.995   1.941   1.164
 7064SOL    HW122091   4.024   1.857   1.210
 7064SOL    HW222092   4.032   1.942   1.071
 7065SOL     OW22093   4.034   3.938   5.865
 7065SOL    HW122094   4.073   3.907   5.952
 7065SOL    HW222095   4.053   4.035   5.852
 7066SOL     OW22096   4.762   0.609   0.221
 7066SOL    HW122097   4.734   0.644   0.132
 7066SOL    HW222098   4.685   0.562   0.265
 7067SOL     OW22099   2.120   2.598   4.860
 7067SOL    HW122100   2.089   2.546   4.780
 7067SOL    HW222101   2.135   2.535   4.936
 7068SOL     OW22102   6.715   4.456   4.320
 7068SOL    HW122103   6.784   4.410   4.376
 7068SOL    HW222104   6.643   4.493   4.378
 7069SOL     OW22105   5.485   1.027   4.632
 7069SOL    HW122106   5.420   1.100   4.651
 7069SOL    HW222107   5.572   1.047   4.677
 7070SOL     OW22108   0.203   6.065   4.998
 7070SOL    HW122109   0.206   6.151   5.051
 7070SOL    HW222110   0.181   5.989   5.060
 7071SOL     OW22111   3.075   5.552   6.480
 7071SOL    HW122112   3.167   5.554   6.521
 7071SOL    HW222113   3.045   5.646   6.460
 7072SOL     OW22114   1.481   6.075   0.371
 7072SOL    HW122115   1.396   6.077   0.319
 7072SOL    HW222116   1.463   6.038   0.462
 7073SOL     OW22117   4.635   6.634   4.437
 7073SOL    HW122118   4.655   6.626   4.339
 7073SOL    HW222119   4.706   6.688   4.481
 7074SOL     OW22120   4.912   2.337   2.060
 7074SOL    HW122121   4.953   2.422   2.094
 7074SOL    HW222122   4.852   2.359   1.983
 7075SOL     OW22123   2.005   4.157   5.537
 7075SOL    HW122124   2.031   4.243   5.581
 7075SOL    HW222125   2.084   4.121   5.487
 7076SOL     OW22126   6.200   2.082   6.350
 7076SOL    HW122127   6.184   2.050   6.257
 7076SOL    HW222128   6.161   2.016   6.415
 7077SOL     OW22129   2.315   4.880   4.068
 7077SOL    HW122130   2.371   4.803   4.098
 7077SOL    HW222131   2.269   4.857   3.982
 7078SOL     OW22132   0.279   6.907   1.814
 7078SOL    HW122133   0.358   6.853   1.843
 7078SOL    HW222134   0.197   6.852   1.819
 7079SOL     OW22135   6.940   6.177   4.144
 7079SOL    HW122136   6.901   6.233   4.071
 7079SOL    HW222137   7.009   6.230   4.194
 7080SOL     OW22138   3.671   1.351   4.679
 7080SOL    HW122139   3.749   1.397   4.721
 7080SOL    HW222140   3.607   1.420   4.644
 7081SOL     OW22141   2.976   6.810   6.766
 7081SOL    HW122142   2.965   6.820   6.667
 7081SOL    HW222143   2.975   6.713   6.790
 7082SOL     OW22144   6.606   3.588   6.730
 7082SOL    HW122145   6.570   3.536   6.653
 7082SOL    HW222146   6.704   3.604   6.717
 7083SOL     OW22147   2.849   0.208   0.753
 7083SOL    HW122148   2.838   0.111   0.776
 7083SOL    HW222149   2.761   0.254   0.760
 7084SOL     OW22150   0.419   5.446   5.587
 7084SOL    HW122151   0.407   5.373   5.520
 7084SOL    HW222152   0.334   5.499   5.594
 7085SOL     OW22153   0.873   1.646   2.382
 7085SOL    HW122154   0.931   1.571   2.350
 7085SOL    HW222155   0.797   1.610   2.435
 7086SOL     OW22156   5.076   0.074   5.559
 7086SOL    HW122157   5.097   0.046   5.653
 7086SOL    HW222158   5.127   0.157   5.538
 7087SOL     OW22159   6.076   3.872   4.069
 7087SOL    HW122160   6.111   3.963   4.093
 7087SOL    HW222161   6.150   3.818   4.027
 7088SOL     OW22162   5.498   2.605   3.639
 7088SOL    HW122163   5.482   2.555   3.554
 7088SOL    HW222164   5.596   2.607   3.659
 7089SOL     OW22165   2.740   2.121   4.688
 7089SOL    HW122166   2.796   2.106   4.606
 7089SOL    HW222167   2.800   2.144   4.765
 7090SOL     OW22168   2.264   0.472   6.888
 7090SOL    HW122169   2.331   0.511   6.952
 7090SOL    HW222170   2.182   0.530   6.887
 7091SOL     OW22171   0.744   1.955   0.224
 7091SOL    HW122172   0.835   1.963   0.184
 7091SOL    HW222173   0.695   2.042   0.212
 7092SOL     OW22174   3.749   3.264   5.823
 7092SOL    HW122175   3.697   3.179   5.818
 7092SOL    HW222176   3.839   3.250   5.780
 7093SOL     OW22177   2.874   3.624   2.703
 7093SOL    HW122178   2.929   3.605   2.784
 7093SOL    HW222179   2.876   3.545   2.642
 7094SOL     OW22180   6.848   5.958   6.142
 7094SOL    HW122181   6.839   5.916   6.233
 7094SOL    HW222182   6.812   6.051   6.144
 7095SOL     OW22183   3.972   4.200   5.791
 7095SOL    HW122184   4.000   4.220   5.697
 7095SOL    HW222185   3.873   4.210   5.798
 7096SOL     OW22186   6.445   0.746   3.674
 7096SOL    HW122187   6.347   0.760   3.691
 7096SOL    HW222188   6.493   0.834   3.680
 7097SOL     OW22189   6.094   2.221   0.964
 7097SOL    HW122190   6.141   2.142   0.926
 7097SOL    HW222191   6.055   2.275   0.890
 7098SOL     OW22192   1.656   5.575   5.638
 7098SOL    HW122193   1.613   5.515   5.706
 7098SOL    HW222194   1.609   5.564   5.550
 7099SOL     OW22195   4.014   1.281   5.407
 7099SOL    HW122196   4.078   1.220   5.452
 7099SOL    HW222197   4.018   1.267   5.308
 7100SOL     OW22198   5.606   3.122   0.797
 7100SOL    HW122199   5.528   3.126   0.735
 7100SOL    HW222200   5.588   3.179   0.877
 7101SOL     OW22201   2.042   1.164   4.919
 7101SOL    HW122202   2.086   1.103   4.853
 7101SOL    HW222203   1.959   1.120   4.954
 7102SOL     OW22204   5.491   6.445   0.669
 7102SOL    HW122205   5.428   6.493   0.729
 7102SOL    HW222206   5.496   6.494   0.581
 7103SOL     OW22207   4.700   4.696   2.235
 7103SOL    HW122208   4.665   4.603   2.224
 7103SOL    HW222209   4.625   4.761   2.222
 7104SOL     OW22210   0.214   2.923   3.918
 7104SOL    HW122211   0.129   2.960   3.955
 7104SOL    HW222212   0.214   2.934   3.818
 7105SOL     OW22213   3.338   2.954   5.535
 7105SOL    HW122214   3.389   2.870   5.519
 7105SOL    HW222215   3.400   3.032   5.527
 7106SOL     OW22216   3.702   3.644   2.641
 7106SOL    HW122217   3.623   3.582   2.636
 7106SOL    HW222218   3.733   3.649   2.736
 7107SOL     OW22219   4.669   0.988   0.458
 7107SOL    HW122220   4.637   0.957   0.547
 7107SOL    HW222221   4.765   0.962   0.446
 7108SOL     OW22222   3.939   6.172   2.735
 7108SOL    HW122223   3.894   6.101   2.682
 7108SOL    HW222224   3.946   6.143   2.830
 7109SOL     OW22225   2.820   0.367   5.900
 7109SOL    HW122226   2.883   0.289   5.905
 7109SOL    HW222227   2.862   0.439   5.844
 7110SOL     OW22228   3.243   5.546   4.312
 7110SOL    HW122229   3.165   5.484   4.308
 7110SOL    HW222230   3.211   5.640   4.326
 7111SOL     OW22231   1.334   2.734   5.103
 7111SOL    HW122232   1.369   2.642   5.088
 7111SOL    HW222233   1.310   2.776   5.016
 7112SOL     OW22234   1.769   4.448   4.574
 7112SOL    HW122235   1.853   4.500   4.585
 7112SOL    HW222236   1.736   4.419   4.664
 7113SOL     OW22237   3.795   3.950   4.757
 7113SOL    HW122238   3.761   4.021   4.696
 7113SOL    HW222239   3.834   3.992   4.839
 7114SOL     OW22240   5.009   6.136   1.404
 7114SOL    HW122241   4.954   6.219   1.413
 7114SOL    HW222242   4.981   6.086   1.322
 7115SOL     OW22243   5.149   3.159   0.785
 7115SOL    HW122244   5.145   3.111   0.872
 7115SOL    HW222245   5.092   3.112   0.718
 7116SOL     OW22246   6.418   4.309   3.140
 7116SOL    HW122247   6.407   4.385   3.075
 7116SOL    HW222248   6.450   4.345   3.227
 7117SOL     OW22249   0.103   6.113   5.403
 7117SOL    HW122250   0.170   6.179   5.367
 7117SOL    HW222251   0.051   6.156   5.477
 7118SOL     OW22252   3.017   5.053   0.810
 7118SOL    HW122253   3.093   5.051   0.874
 7118SOL    HW222254   2.951   4.982   0.835
 7119SOL     OW22255   4.749   2.330   3.875
 7119SOL    HW122256   4.769   2.350   3.780
 7119SOL    HW222257   4.753   2.414   3.929
 7120SOL     OW22258   3.722   2.026   2.355
 7120SOL    HW122259   3.724   1.947   2.416
 7120SOL    HW222260   3.647   2.015   2.288
 7121SOL     OW22261   1.027   0.122   3.383
 7121SOL    HW122262   0.977   0.038   3.404
 7121SOL    HW222263   0.973   0.179   3.322
 7122SOL     OW22264   1.334   0.156   5.792
 7122SOL    HW122265   1.425   0.169   5.752
 7122SOL    HW222266   1.267   0.142   5.719
 7123SOL     OW22267   1.557   4.301   3.450
 7123SOL    HW122268   1.587   4.337   3.539
 7123SOL    HW222269   1.572   4.371   3.380
 7124SOL     OW22270   6.831   2.163   1.462
 7124SOL    HW122271   6.797   2.099   1.393
 7124SOL    HW222272   6.816   2.125   1.553
 7125SOL     OW22273   0.399   6.880   1.273
 7125SOL    HW122274   0.392   6.906   1.370
 7125SOL    HW222275   0.437   6.957   1.221
 7126SOL     OW22276   3.084   4.992   0.566
 7126SOL    HW122277   3.038   5.017   0.652
 7126SOL    HW222278   3.094   5.074   0.509
 7127SOL     OW22279   2.136   4.876   6.011
 7127SOL    HW122280   2.198   4.826   6.072
 7127SOL    HW222281   2.076   4.812   5.964
 7128SOL     OW22282   2.613   4.944   0.097
 7128SOL    HW122283   2.630   4.934   0.195
 7128SOL    HW222284   2.669   5.018   0.061
 7129SOL     OW22285   2.527   1.830   6.828
 7129SOL    HW122286   2.492   1.736   6.834
 7129SOL    HW222287   2.597   1.836   6.757
 7130SOL     OW22288   4.079   5.229   5.317
 7130SOL    HW122289   3.985   5.250   5.291
 7130SOL    HW222290   4.094   5.256   5.412
 7131SOL     OW22291   2.865   0.642   1.247
 7131SOL    HW122292   2.885   0.599   1.158
 7131SOL    HW222293   2.931   0.611   1.314
 7132SOL     OW22294   4.159   4.387   0.176
 7132SOL    HW122295   4.109   4.414   0.094
 7132SOL    HW222296   4.159   4.287   0.184
 7133SOL     OW22297   5.466   5.340   5.968
 7133SOL    HW122298   5.508   5.269   6.025
 7133SOL    HW222299   5.366   5.334   5.977
 7134SOL     OW22300   5.138   6.795   1.695
 7134SOL    HW122301   5.222   6.772   1.744
 7134SOL    HW222302   5.080   6.851   1.754
 7135SOL     OW22303   1.303   2.752   3.386
 7135SOL    HW122304   1.260   2.662   3.392
 7135SOL    HW222305   1.311   2.792   3.477
 7136SOL     OW22306   2.456   2.057   0.912
 7136SOL    HW122307   2.489   2.140   0.957
 7136SOL    HW222308   2.407   2.001   0.979
 7137SOL     OW22309   4.228   6.992   6.660
 7137SOL    HW122310   4.140   6.960   6.696
 7137SOL    HW222311   4.215   0.009   6.568
 7138SOL     OW22312   2.570   2.027   0.653
 7138SOL    HW122313   2.645   2.089   0.629
 7138SOL    HW222314   2.560   2.024   0.753
 7139SOL     OW22315   6.214   4.042   1.717
 7139SOL    HW122316   6.172   3.976   1.655
 7139SOL    HW222317   6.173   4.132   1.704
 7140SOL     OW22318   6.818   3.753   2.870
 7140SOL    HW122319   6.824   3.703   2.784
 7140SOL    HW222320   6.744   3.714   2.926
 7141SOL     OW22321   3.478   6.426   1.070
 7141SOL    HW122322   3.400   6.421   1.133
 7141SOL    HW222323   3.536   6.345   1.083
 7142SOL     OW22324   4.040   0.016   2.772
 7142SOL    HW122325   4.098   0.043   2.849
 7142SOL    HW222326   3.947   7.018   2.805
 7143SOL     OW22327   1.532   2.825   5.732
 7143SOL    HW122328   1.615   2.861   5.775
 7143SOL    HW222329   1.525   2.727   5.750
 7144SOL     OW22330   1.787   2.240   2.553
 7144SOL    HW122331   1.693   2.263   2.525
 7144SOL    HW222332   1.842   2.323   2.556
 7145SOL     OW22333   4.332   0.201   0.562
 7145SOL    HW122334   4.267   0.168   0.493
 7145SOL    HW222335   4.406   0.251   0.517
 7146SOL     OW22336   1.818   6.856   0.617
 7146SOL    HW122337   1.916   6.845   0.633
 7146SOL    HW222338   1.767   6.798   0.680
 7147SOL     OW22339   6.853   0.226   2.567
 7147SOL    HW122340   6.879   0.209   2.662
 7147SOL    HW222341   6.933   0.218   2.508
 7148SOL     OW22342   0.224   5.860   1.039
 7148SOL    HW122343   0.179   5.889   0.955
 7148SOL    HW222344   0.170   5.888   1.118
 7149SOL     OW22345   6.329   6.943   3.212
 7149SOL    HW122346   6.283   6.862   3.175
 7149SOL    HW222347   6.269   6.988   3.278
 7150SOL     OW22348   3.660   2.637   1.095
 7150SOL    HW122349   3.744   2.642   1.150
 7150SOL    HW222350   3.679   2.667   1.002
 7151SOL     OW22351   2.674   6.150   0.310
 7151SOL    HW122352   2.632   6.225   0.259
 7151SOL    HW222353   2.722   6.187   0.390
 7152SOL     OW22354   0.669   0.606   5.772
 7152SOL    HW122355   0.621   0.578   5.856
 7152SOL    HW222356   0.620   0.681   5.729
 7153SOL     OW22357   4.240   5.416   1.932
 7153SOL    HW122358   4.209   5.451   1.843
 7153SOL    HW222359   4.195   5.467   2.005
 7154SOL     OW22360   4.516   0.033   3.702
 7154SOL    HW122361   4.442   0.098   3.716
 7154SOL    HW222362   4.481   6.971   3.655
 7155SOL     OW22363   1.875   3.367   0.910
 7155SOL    HW122364   1.878   3.431   0.988
 7155SOL    HW222365   1.961   3.375   0.858
 7156SOL     OW22366   6.835   3.280   4.214
 7156SOL    HW122367   6.905   3.221   4.173
 7156SOL    HW222368   6.879   3.353   4.267
 7157SOL     OW22369   0.284   3.472   1.427
 7157SOL    HW122370   0.220   3.437   1.359
 7157SOL    HW222371   0.234   3.522   1.498
 7158SOL     OW22372   1.370   0.160   3.726
 7158SOL    HW122373   1.279   0.148   3.687
 7158SOL    HW222374   1.377   0.109   3.812
 7159SOL     OW22375   0.830   4.694   2.504
 7159SOL    HW122376   0.836   4.595   2.490
 7159SOL    HW222377   0.816   4.712   2.601
 7160SOL     OW22378   5.592   0.451   2.750
 7160SOL    HW122379   5.540   0.421   2.830
 7160SOL    HW222380   5.622   0.545   2.763
 7161SOL     OW22381   3.361   4.163   3.581
 7161SOL    HW122382   3.300   4.221   3.635
 7161SOL    HW222383   3.390   4.085   3.636
 7162SOL     OW22384   0.979   5.585   6.259
 7162SOL    HW122385   0.941   5.492   6.258
 7162SOL    HW222386   1.079   5.580   6.252
 7163SOL     OW22387   2.979   6.390   2.525
 7163SOL    HW122388   3.048   6.459   2.505
 7163SOL    HW222389   2.889   6.433   2.529
 7164SOL     OW22390   2.946   0.318   4.245
 7164SOL    HW122391   2.886   0.396   4.225
 7164SOL    HW222392   2.991   0.333   4.333
 7165SOL     OW22393   6.651   0.812   2.700
 7165SOL    HW122394   6.591   0.879   2.742
 7165SOL    HW222395   6.646   0.820   2.601
 7166SOL     OW22396   5.060   2.125   0.826
 7166SOL    HW122397   5.065   2.139   0.727
 7166SOL    HW222398   5.013   2.039   0.845
 7167SOL     OW22399   5.842   3.520   4.316
 7167SOL    HW122400   5.827   3.433   4.270
 7167SOL    HW222401   5.881   3.504   4.407
 7168SOL     OW22402   1.354   2.715   2.791
 7168SOL    HW122403   1.417   2.677   2.724
 7168SOL    HW222404   1.388   2.697   2.883
 7169SOL     OW22405   0.823   2.690   5.459
 7169SOL    HW122406   0.791   2.760   5.395
 7169SOL    HW222407   0.922   2.698   5.471
 7170SOL     OW22408   4.843   7.003   3.532
 7170SOL    HW122409   4.806   0.027   3.449
 7170SOL    HW222410   4.892   0.053   3.586
 7171SOL     OW22411   6.177   3.872   0.004
 7171SOL    HW122412   6.174   3.777   6.992
 7171SOL    HW222413   6.088   3.915   7.010
 7172SOL     OW22414   1.045   0.014   4.416
 7172SOL    HW122415   1.078   6.957   4.361
 7172SOL    HW222416   1.109   0.031   4.491
 7173SOL     OW22417   6.903   4.376   6.472
 7173SOL    HW122418   6.967   4.343   6.541
 7173SOL    HW222419   6.879   4.302   6.410
 7174SOL     OW22420   1.311   3.724   0.463
 7174SOL    HW122421   1.307   3.650   0.396
 7174SOL    HW222422   1.245   3.795   0.439
 7175SOL     OW22423   5.733   3.232   6.340
 7175SOL    HW122424   5.661   3.165   6.324
 7175SOL    HW222425   5.709   3.290   6.418
 7176SOL     OW22426   6.799   0.567   3.057
 7176SOL    HW122427   6.788   0.552   2.959
 7176SOL    HW222428   6.770   0.660   3.081
 7177SOL     OW22429   1.289   4.900   4.605
 7177SOL    HW122430   1.323   4.984   4.647
 7177SOL    HW222431   1.206   4.870   4.653
 7178SOL     OW22432   0.704   1.492   5.834
 7178SOL    HW122433   0.782   1.489   5.772
 7178SOL    HW222434   0.701   1.580   5.880
 7179SOL     OW22435   2.042   3.643   4.367
 7179SOL    HW122436   1.960   3.587   4.382
 7179SOL    HW222437   2.119   3.583   4.344
 7180SOL     OW22438   2.099   5.355   0.198
 7180SOL    HW122439   2.023   5.306   0.241
 7180SOL    HW222440   2.137   5.298   0.124
 7181SOL     OW22441   2.296   6.678   0.543
 7181SOL    HW122442   2.384   6.639   0.516
 7181SOL    HW222443   2.310   6.768   0.584
 7182SOL     OW22444   0.205   2.799   4.830
 7182SOL    HW122445   0.264   2.804   4.911
 7182SOL    HW222446   0.248   2.848   4.754
 7183SOL     OW22447   1.913   5.555   0.951
 7183SOL    HW122448   1.955   5.464   0.956
 7183SOL    HW222449   1.878   5.580   1.041
 7184SOL     OW22450   6.603   1.310   3.589
 7184SOL    HW122451   6.534   1.336   3.521
 7184SOL    HW222452   6.602   1.375   3.665
 7185SOL     OW22453   5.712   0.326   4.570
 7185SOL    HW122454   5.651   0.276   4.631
 7185SOL    HW222455   5.804   0.288   4.576
 7186SOL     OW22456   6.702   2.023   1.247
 7186SOL    HW122457   6.684   1.924   1.242
 7186SOL    HW222458   6.747   2.052   1.163
 7187SOL     OW22459   4.070   4.273   6.608
 7187SOL    HW122460   4.081   4.369   6.581
 7187SOL    HW222461   3.993   4.233   6.558
 7188SOL     OW22462   5.790   0.637   0.184
 7188SOL    HW122463   5.815   0.540   0.184
 7188SOL    HW222464   5.739   0.659   0.101
 7189SOL     OW22465   6.817   1.070   5.451
 7189SOL    HW122466   6.728   1.112   5.468
 7189SOL    HW222467   6.877   1.085   5.529
 7190SOL     OW22468   0.225   3.738   2.182
 7190SOL    HW122469   0.188   3.645   2.178
 7190SOL    HW222470   0.173   3.797   2.120
 7191SOL     OW22471   1.064   5.408   2.688
 7191SOL    HW122472   1.109   5.350   2.756
 7191SOL    HW222473   0.977   5.441   2.725
 7192SOL     OW22474   2.880   4.352   5.665
 7192SOL    HW122475   2.837   4.378   5.579
 7192SOL    HW222476   2.979   4.358   5.657
 7193SOL     OW22477   0.781   2.782   2.387
 7193SOL    HW122478   0.744   2.698   2.347
 7193SOL    HW222479   0.706   2.845   2.407
 7194SOL     OW22480   2.826   2.845   0.431
 7194SOL    HW122481   2.909   2.826   0.484
 7194SOL    HW222482   2.843   2.920   0.368
 7195SOL     OW22483   0.568   3.660   7.012
 7195SOL    HW122484   0.665   3.681   7.013
 7195SOL    HW222485   0.540   3.637   6.919
 7196SOL     OW22486   2.932   3.756   1.736
 7196SOL    HW122487   2.938   3.667   1.691
 7196SOL    HW222488   2.931   3.829   1.667
 7197SOL     OW22489   0.418   2.266   6.385
 7197SOL    HW122490   0.473   2.337   6.342
 7197SOL    HW222491   0.426   2.274   6.485
 7198SOL     OW22492   6.583   0.756   1.019
 7198SOL    HW122493   6.674   0.794   1.009
 7198SOL    HW222494   6.585   0.683   1.088
 7199SOL     OW22495   1.765   0.800   2.207
 7199SOL    HW122496   1.798   0.855   2.130
 7199SOL    HW222497   1.714   0.858   2.270
 7200SOL     OW22498   2.648   2.445   6.925
 7200SOL    HW122499   2.576   2.402   6.871
 7200SOL    HW222500   2.624   2.439   0.003
 7201SOL     OW22501   0.800   5.267   4.367
 7201SOL    HW122502   0.799   5.353   4.316
 7201SOL    HW222503   0.894   5.237   4.379
 7202SOL     OW22504   5.238   0.123   0.125
 7202SOL    HW122505   5.322   0.164   0.159
 7202SOL    HW222506   5.214   0.044   0.182
 7203SOL     OW22507   0.583   1.684   0.917
 7203SOL    HW122508   0.497   1.728   0.941
 7203SOL    HW222509   0.652   1.755   0.898
 7204SOL     OW22510   0.185   6.956   5.748
 7204SOL    HW122511   0.257   6.986   5.811
 7204SOL    HW222512   0.188   7.013   5.665
 7205SOL     OW22513   0.888   4.227   3.872
 7205SOL    HW122514   0.806   4.198   3.921
 7205SOL    HW222515   0.908   4.323   3.894
 7206SOL     OW22516   1.445   0.506   1.622
 7206SOL    HW122517   1.349   0.518   1.644
 7206SOL    HW222518   1.498   0.500   1.706
 7207SOL     OW22519   3.590   0.770   2.449
 7207SOL    HW122520   3.665   0.827   2.484
 7207SOL    HW222521   3.502   0.811   2.474
 7208SOL     OW22522   3.743   6.987   3.276
 7208SOL    HW122523   3.801   0.027   3.219
 7208SOL    HW222524   3.674   6.944   3.219
 7209SOL     OW22525   3.008   3.495   1.599
 7209SOL    HW122526   3.050   3.405   1.590
 7209SOL    HW222527   2.981   3.528   1.509
 7210SOL     OW22528   4.500   1.129   3.670
 7210SOL    HW122529   4.575   1.169   3.617
 7210SOL    HW222530   4.504   1.163   3.764
 7211SOL     OW22531   3.115   6.929   4.525
 7211SOL    HW122532   3.139   6.995   4.453
 7211SOL    HW222533   3.066   6.852   4.483
 7212SOL     OW22534   0.482   5.858   4.634
 7212SOL    HW122535   0.547   5.877   4.707
 7212SOL    HW222536   0.398   5.820   4.672
 7213SOL     OW22537   5.415   6.164   0.335
 7213SOL    HW122538   5.488   6.218   0.291
 7213SOL    HW222539   5.330   6.216   0.333
 7214SOL     OW22540   6.380   6.505   5.615
 7214SOL    HW122541   6.288   6.495   5.652
 7214SOL    HW222542   6.389   6.594   5.571
 7215SOL     OW22543   6.941   3.729   4.487
 7215SOL    HW122544   0.009   3.777   4.495
 7215SOL    HW222545   6.926   3.702   4.392
 7216SOL     OW22546   3.312   6.895   6.789
 7216SOL    HW122547   3.354   6.938   6.869
 7216SOL    HW222548   3.213   6.897   6.798
 7217SOL     OW22549   1.965   3.940   3.436
 7217SOL    HW122550   1.927   3.883   3.363
 7217SOL    HW222551   2.046   3.988   3.402
 7218SOL     OW22552   5.765   3.275   5.347
 7218SOL    HW122553   5.714   3.261   5.433
 7218SOL    HW222554   5.855   3.313   5.368
 7219SOL     OW22555   4.733   0.067   3.263
 7219SOL    HW122556   4.831   0.060   3.243
 7219SOL    HW222557   4.681   0.045   3.180
 7220SOL     OW22558   1.148   4.701   4.991
 7220SOL    HW122559   1.060   4.712   5.039
 7220SOL    HW222560   1.158   4.607   4.960
 7221SOL     OW22561   3.435   6.152   4.424
 7221SOL    HW122562   3.434   6.053   4.408
 7221SOL    HW222563   3.379   6.173   4.504
 7222SOL     OW22564   5.922   6.894   2.940
 7222SOL    HW122565   5.959   6.919   2.850
 7222SOL    HW222566   5.930   6.795   2.953
 7223SOL     OW22567   2.861   1.234   0.597
 7223SOL    HW122568   2.949   1.194   0.570
 7223SOL    HW222569   2.857   1.240   0.697
 7224SOL     OW22570   5.470   1.510   4.225
 7224SOL    HW122571   5.498   1.591   4.174
 7224SOL    HW222572   5.442   1.438   4.162
 7225SOL     OW22573   1.009   5.208   0.671
 7225SOL    HW122574   1.039   5.291   0.624
 7225SOL    HW222575   1.067   5.193   0.751
 7226SOL     OW22576   7.006   1.610   1.684
 7226SOL    HW122577   7.012   1.665   1.601
 7226SOL    HW222578   6.920   1.559   1.684
 7227SOL     OW22579   1.769   2.041   1.086
 7227SOL    HW122580   1.768   1.942   1.069
 7227SOL    HW222581   1.697   2.064   1.152
 7228SOL     OW22582   0.933   2.063   2.923
 7228SOL    HW122583   0.878   2.144   2.905
 7228SOL    HW222584   1.026   2.078   2.891
 7229SOL     OW22585   1.552   6.210   5.725
 7229SOL    HW122586   1.524   6.254   5.811
 7229SOL    HW222587   1.641   6.247   5.696
 7230SOL     OW22588   3.538   5.184   4.635
 7230SOL    HW122589   3.586   5.104   4.598
 7230SOL    HW222590   3.448   5.192   4.592
 7231SOL     OW22591   4.142   1.021   6.679
 7231SOL    HW122592   4.096   1.062   6.601
 7231SOL    HW222593   4.210   0.955   6.646
 7232SOL     OW22594   5.139   5.963   3.537
 7232SOL    HW122595   5.071   5.940   3.467
 7232SOL    HW222596   5.188   6.045   3.509
 7233SOL     OW22597   1.096   1.537   4.192
 7233SOL    HW122598   1.158   1.458   4.185
 7233SOL    HW222599   1.019   1.524   4.130
 7234SOL     OW22600   5.346   3.405   4.057
 7234SOL    HW122601   5.365   3.389   4.154
 7234SOL    HW222602   5.431   3.401   4.005
 7235SOL     OW22603   0.086   4.659   2.220
 7235SOL    HW122604   0.165   4.615   2.178
 7235SOL    HW222605   0.018   4.679   2.149
 7236SOL     OW22606   1.996   1.778   1.572
 7236SOL    HW122607   2.001   1.866   1.620
 7236SOL    HW222608   1.903   1.765   1.536
 7237SOL     OW22609   4.265   0.589   5.218
 7237SOL    HW122610   4.287   0.638   5.134
 7237SOL    HW222611   4.277   0.491   5.204
 7238SOL     OW22612   3.321   1.719   0.628
 7238SOL    HW122613   3.326   1.691   0.724
 7238SOL    HW222614   3.283   1.645   0.574
 7239SOL     OW22615   1.194   2.494   2.717
 7239SOL    HW122616   1.094   2.488   2.726
 7239SOL    HW222617   1.224   2.585   2.743
 7240SOL     OW22618   1.550   6.637   5.928
 7240SOL    HW122619   1.546   6.582   6.012
 7240SOL    HW222620   1.628   6.608   5.873
 7241SOL     OW22621   1.730   0.771   0.603
 7241SOL    HW122622   1.822   0.785   0.638
 7241SOL    HW222623   1.695   0.683   0.637
 7242SOL     OW22624   6.573   6.298   0.361
 7242SOL    HW122625   6.635   6.296   0.439
 7242SOL    HW222626   6.489   6.347   0.386
 7243SOL     OW22627   6.725   4.579   6.139
 7243SOL    HW122628   6.743   4.585   6.238
 7243SOL    HW222629   6.627   4.570   6.124
 7244SOL     OW22630   5.925   1.361   1.883
 7244SOL    HW122631   6.013   1.396   1.915
 7244SOL    HW222632   5.921   1.262   1.899
 7245SOL     OW22633   1.021   1.886   4.812
 7245SOL    HW122634   1.019   1.857   4.716
 7245SOL    HW222635   0.954   1.958   4.827
 7246SOL     OW22636   0.107   0.108   4.114
 7246SOL    HW122637   0.178   0.062   4.061
 7246SOL    HW222638   0.025   0.051   4.114
 7247SOL     OW22639   2.334   0.818   4.409
 7247SOL    HW122640   2.294   0.788   4.323
 7247SOL    HW222641   2.358   0.915   4.402
 7248SOL     OW22642   2.396   1.502   3.459
 7248SOL    HW122643   2.482   1.470   3.498
 7248SOL    HW222644   2.414   1.577   3.395
 7249SOL     OW22645   6.317   4.926   2.439
 7249SOL    HW122646   6.412   4.945   2.463
 7249SOL    HW222647   6.261   5.007   2.457
 7250SOL     OW22648   4.576   6.753   6.244
 7250SOL    HW122649   4.591   6.765   6.146
 7250SOL    HW222650   4.524   6.831   6.279
 7251SOL     OW22651   0.589   6.564   5.788
 7251SOL    HW122652   0.675   6.531   5.748
 7251SOL    HW222653   0.536   6.487   5.821
 7252SOL     OW22654   3.766   3.541   2.919
 7252SOL    HW122655   3.772   3.640   2.933
 7252SOL    HW222656   3.856   3.504   2.900
 7253SOL     OW22657   2.243   6.252   6.553
 7253SOL    HW122658   2.260   6.184   6.624
 7253SOL    HW222659   2.330   6.290   6.522
 7254SOL     OW22660   4.500   5.293   3.992
 7254SOL    HW122661   4.556   5.320   4.071
 7254SOL    HW222662   4.544   5.218   3.944
 7255SOL     OW22663   3.019   3.710   0.765
 7255SOL    HW122664   3.114   3.689   0.743
 7255SOL    HW222665   2.995   3.799   0.726
 7256SOL     OW22666   3.679   5.032   4.166
 7256SOL    HW122667   3.613   5.107   4.172
 7256SOL    HW222668   3.682   4.982   4.252
 7257SOL     OW22669   5.739   2.731   3.628
 7257SOL    HW122670   5.818   2.669   3.624
 7257SOL    HW222671   5.729   2.779   3.541
 7258SOL     OW22672   4.216   1.719   3.570
 7258SOL    HW122673   4.124   1.743   3.603
 7258SOL    HW222674   4.263   1.803   3.540
 7259SOL     OW22675   2.868   3.596   1.367
 7259SOL    HW122676   2.902   3.530   1.300
 7259SOL    HW222677   2.794   3.649   1.327
 7260SOL     OW22678   3.543   1.823   1.987
 7260SOL    HW122679   3.495   1.737   1.972
 7260SOL    HW222680   3.529   1.884   1.910
 7261SOL     OW22681   1.838   2.536   1.250
 7261SOL    HW122682   1.773   2.477   1.298
 7261SOL    HW222683   1.910   2.564   1.313
 7262SOL     OW22684   5.073   1.791   5.847
 7262SOL    HW122685   5.066   1.731   5.767
 7262SOL    HW222686   5.076   1.735   5.930
 7263SOL     OW22687   0.992   6.964   0.619
 7263SOL    HW122688   0.975   6.987   0.523
 7263SOL    HW222689   0.908   6.975   0.672
 7264SOL     OW22690   5.667   1.278   6.458
 7264SOL    HW122691   5.606   1.313   6.528
 7264SOL    HW222692   5.716   1.198   6.494
 7265SOL     OW22693   5.641   5.046   5.651
 7265SOL    HW122694   5.717   4.980   5.651
 7265SOL    HW222695   5.672   5.132   5.692
 7266SOL     OW22696   5.673   0.229   1.125
 7266SOL    HW122697   5.632   0.189   1.207
 7266SOL    HW222698   5.770   0.245   1.140
 7267SOL     OW22699   6.457   5.671   5.409
 7267SOL    HW122700   6.443   5.708   5.317
 7267SOL    HW222701   6.370   5.667   5.457
 7268SOL     OW22702   5.161   5.317   3.801
 7268SOL    HW122703   5.099   5.334   3.724
 7268SOL    HW222704   5.132   5.235   3.850
 7269SOL     OW22705   0.329   6.583   0.322
 7269SOL    HW122706   0.303   6.537   0.406
 7269SOL    HW222707   0.329   6.682   0.337
 7270SOL     OW22708   1.416   3.393   5.632
 7270SOL    HW122709   1.496   3.349   5.591
 7270SOL    HW222710   1.363   3.325   5.683
 7271SOL     OW22711   0.465   6.145   3.065
 7271SOL    HW122712   0.549   6.110   3.107
 7271SOL    HW222713   0.480   6.239   3.033
 7272SOL     OW22714   5.862   5.239   2.179
 7272SOL    HW122715   5.906   5.270   2.095
 7272SOL    HW222716   5.776   5.288   2.191
 7273SOL     OW22717   5.534   4.481   1.971
 7273SOL    HW122718   5.452   4.430   1.945
 7273SOL    HW222719   5.563   4.454   2.063
 7274SOL     OW22720   0.753   5.644   6.821
 7274SOL    HW122721   0.794   5.700   6.749
 7274SOL    HW222722   0.806   5.655   6.906
 7275SOL     OW22723   6.420   0.145   2.515
 7275SOL    HW122724   6.501   0.090   2.496
 7275SOL    HW222725   6.443   0.242   2.509
 7276SOL     OW22726   3.501   1.798   3.008
 7276SOL    HW122727   3.564   1.738   3.058
 7276SOL    HW222728   3.505   1.890   3.046
 7277SOL     OW22729   4.747   0.491   3.667
 7277SOL    HW122730   4.735   0.399   3.704
 7277SOL    HW222731   4.808   0.543   3.728
 7278SOL     OW22732   3.279   2.755   1.488
 7278SOL    HW122733   3.211   2.697   1.443
 7278SOL    HW222734   3.309   2.827   1.426
 7279SOL     OW22735   3.832   3.693   5.662
 7279SOL    HW122736   3.865   3.632   5.734
 7279SOL    HW222737   3.764   3.645   5.606
 7280SOL     OW22738   0.284   1.943   3.973
 7280SOL    HW122739   0.356   1.996   3.927
 7280SOL    HW222740   0.324   1.860   4.013
 7281SOL     OW22741   1.448   0.962   0.183
 7281SOL    HW122742   1.547   0.963   0.194
 7281SOL    HW222743   1.413   0.871   0.203
 7282SOL     OW22744   5.957   6.459   1.451
 7282SOL    HW122745   5.894   6.382   1.463
 7282SOL    HW222746   6.018   6.441   1.374
 7283SOL     OW22747   3.579   0.842   1.862
 7283SOL    HW122748   3.593   0.743   1.857
 7283SOL    HW222749   3.489   0.865   1.826
 7284SOL     OW22750   6.763   1.977   5.532
 7284SOL    HW122751   6.829   1.914   5.491
 7284SOL    HW222752   6.802   2.019   5.613
 7285SOL     OW22753   5.449   3.572   1.693
 7285SOL    HW122754   5.425   3.479   1.664
 7285SOL    HW222755   5.548   3.584   1.688
 7286SOL     OW22756   0.900   0.783   1.389
 7286SOL    HW122757   0.997   0.757   1.389
 7286SOL    HW222758   0.886   0.855   1.321
 7287SOL     OW22759   6.399   2.882   5.063
 7287SOL    HW122760   6.326   2.888   5.131
 7287SOL    HW222761   6.481   2.844   5.105
 7288SOL     OW22762   1.756   1.989   1.512
 7288SOL    HW122763   1.817   2.066   1.490
 7288SOL    HW222764   1.784   1.909   1.459
 7289SOL     OW22765   5.642   2.619   4.211
 7289SOL    HW122766   5.658   2.556   4.287
 7289SOL    HW222767   5.730   2.650   4.174
 7290SOL     OW22768   2.185   1.492   4.733
 7290SOL    HW122769   2.265   1.506   4.792
 7290SOL    HW222770   2.106   1.539   4.772
 7291SOL     OW22771   1.715   0.100   0.595
 7291SOL    HW122772   1.640   0.131   0.653
 7291SOL    HW222773   1.715   0.000   0.589
 7292SOL     OW22774   3.208   0.432   3.051
 7292SOL    HW122775   3.109   0.415   3.046
 7292SOL    HW222776   3.231   0.509   2.992
 7293SOL     OW22777   0.876   1.590   5.230
 7293SOL    HW122778   0.830   1.522   5.287
 7293SOL    HW222779   0.914   1.661   5.288
 7294SOL     OW22780   3.157   4.849   0.321
 7294SOL    HW122781   3.142   4.751   0.333
 7294SOL    HW222782   3.124   4.898   0.401
 7295SOL     OW22783   6.465   3.901   0.719
 7295SOL    HW122784   6.499   3.878   0.628
 7295SOL    HW222785   6.480   3.998   0.736
 7296SOL     OW22786   4.400   5.752   1.824
 7296SOL    HW122787   4.379   5.846   1.798
 7296SOL    HW222788   4.492   5.748   1.863
 7297SOL     OW22789   3.218   6.477   1.206
 7297SOL    HW122790   3.138   6.496   1.149
 7297SOL    HW222791   3.252   6.562   1.246
 7298SOL     OW22792   4.523   5.036   6.004
 7298SOL    HW122793   4.463   5.116   5.995
 7298SOL    HW222794   4.583   5.031   5.924
 7299SOL     OW22795   1.018   2.311   0.756
 7299SOL    HW122796   1.070   2.342   0.677
 7299SOL    HW222797   1.081   2.285   0.829
 7300SOL     OW22798   0.931   0.029   2.415
 7300SOL    HW122799   0.960   0.062   2.505
 7300SOL    HW222800   0.848   0.077   2.387
 7301SOL     OW22801   5.326   2.567   5.230
 7301SOL    HW122802   5.269   2.585   5.150
 7301SOL    HW222803   5.403   2.630   5.232
 7302SOL     OW22804   0.029   2.245   6.291
 7302SOL    HW122805   0.020   2.284   6.383
 7302SOL    HW222806   0.011   2.316   6.223
 7303SOL     OW22807   3.639   0.898   6.393
 7303SOL    HW122808   3.544   0.883   6.418
 7303SOL    HW222809   3.687   0.811   6.388
 7304SOL     OW22810   2.987   5.326   1.618
 7304SOL    HW122811   2.905   5.378   1.641
 7304SOL    HW222812   2.967   5.228   1.621
 7305SOL     OW22813   5.471   1.959   1.570
 7305SOL    HW122814   5.536   1.882   1.568
 7305SOL    HW222815   5.410   1.950   1.649
 7306SOL     OW22816   3.822   1.967   1.581
 7306SOL    HW122817   3.904   1.929   1.625
 7306SOL    HW222818   3.789   2.045   1.633
 7307SOL     OW22819   3.225   6.278   2.642
 7307SOL    HW122820   3.266   6.188   2.650
 7307SOL    HW222821   3.126   6.271   2.656
 7308SOL     OW22822   6.241   1.725   4.118
 7308SOL    HW122823   6.204   1.692   4.204
 7308SOL    HW222824   6.338   1.700   4.111
 7309SOL     OW22825   4.076   5.777   1.498
 7309SOL    HW122826   4.170   5.766   1.531
 7309SOL    HW222827   4.022   5.821   1.569
 7310SOL     OW22828   2.244   3.572   0.539
 7310SOL    HW122829   2.231   3.628   0.457
 7310SOL    HW222830   2.215   3.478   0.521
 7311SOL     OW22831   1.527   1.590   1.038
 7311SOL    HW122832   1.427   1.584   1.025
 7311SOL    HW222833   1.572   1.539   0.965
 7312SOL     OW22834   1.151   2.500   4.705
 7312SOL    HW122835   1.108   2.575   4.654
 7312SOL    HW222836   1.201   2.441   4.642
 7313SOL     OW22837   2.002   1.414   0.256
 7313SOL    HW122838   2.082   1.455   0.300
 7313SOL    HW222839   1.919   1.455   0.294
 7314SOL     OW22840   0.170   3.800   6.145
 7314SOL    HW122841   0.145   3.716   6.097
 7314SOL    HW222842   0.113   3.875   6.114
 7315SOL     OW22843   5.289   5.796   1.467
 7315SOL    HW122844   5.255   5.890   1.461
 7315SOL    HW222845   5.321   5.767   1.377
 7316SOL     OW22846   2.954   3.208   6.562
 7316SOL    HW122847   2.988   3.118   6.534
 7316SOL    HW222848   2.974   3.274   6.490
 7317SOL     OW22849   4.049   1.805   1.678
 7317SOL    HW122850   4.096   1.793   1.591
 7317SOL    HW222851   4.042   1.717   1.724
 7318SOL     OW22852   2.876   0.139   2.093
 7318SOL    HW122853   2.952   0.129   2.029
 7318SOL    HW222854   2.797   0.088   2.059
 7319SOL     OW22855   6.262   3.306   6.642
 7319SOL    HW122856   6.245   3.257   6.556
 7319SOL    HW222857   6.177   3.351   6.672
 7320SOL     OW22858   0.328   3.739   1.330
 7320SOL    HW122859   0.402   3.784   1.381
 7320SOL    HW222860   0.263   3.699   1.395
 7321SOL     OW22861   2.131   6.607   5.534
 7321SOL    HW122862   2.224   6.643   5.545
 7321SOL    HW222863   2.105   6.557   5.616
 7322SOL     OW22864   6.853   2.811   3.178
 7322SOL    HW122865   6.951   2.790   3.175
 7322SOL    HW222866   6.817   2.810   3.085
 7323SOL     OW22867   2.185   2.920   1.531
 7323SOL    HW122868   2.223   2.900   1.440
 7323SOL    HW222869   2.094   2.960   1.520
 7324SOL     OW22870   5.455   4.749   1.867
 7324SOL    HW122871   5.515   4.750   1.786
 7324SOL    HW222872   5.440   4.654   1.896
 7325SOL     OW22873   3.162   0.408   5.945
 7325SOL    HW122874   3.220   0.469   5.998
 7325SOL    HW222875   3.145   0.449   5.855
 7326SOL     OW22876   3.674   5.880   5.756
 7326SOL    HW122877   3.664   5.782   5.736
 7326SOL    HW222878   3.704   5.891   5.850
 7327SOL     OW22879   5.991   2.662   4.798
 7327SOL    HW122880   6.005   2.635   4.703
 7327SOL    HW222881   6.074   2.708   4.831
 7328SOL     OW22882   4.676   6.734   6.007
 7328SOL    HW122883   4.732   6.664   6.051
 7328SOL    HW222884   4.650   6.703   5.915
 7329SOL     OW22885   0.654   4.087   0.643
 7329SOL    HW122886   0.591   4.029   0.694
 7329SOL    HW222887   0.623   4.182   0.647
 7330SOL     OW22888   2.435   3.022   6.949
 7330SOL    HW122889   2.401   3.115   6.931
 7330SOL    HW222890   2.513   3.027   7.011
 7331SOL     OW22891   5.655   6.338   0.888
 7331SOL    HW122892   5.711   6.271   0.840
 7331SOL    HW222893   5.596   6.385   0.823
 7332SOL     OW22894   3.280   4.962   0.114
 7332SOL    HW122895   3.365   5.001   0.148
 7332SOL    HW222896   3.231   4.918   0.189
 7333SOL     OW22897   6.213   2.667   3.334
 7333SOL    HW122898   6.169   2.579   3.352
 7333SOL    HW222899   6.143   2.737   3.321
 7334SOL     OW22900   2.158   6.664   6.370
 7334SOL    HW122901   2.179   6.612   6.454
 7334SOL    HW222902   2.181   6.760   6.384
 7335SOL     OW22903   0.433   3.083   3.227
 7335SOL    HW122904   0.524   3.069   3.267
 7335SOL    HW222905   0.440   3.144   3.149
 7336SOL     OW22906   2.324   6.646   2.254
 7336SOL    HW122907   2.353   6.698   2.335
 7336SOL    HW222908   2.246   6.692   2.212
 7337SOL     OW22909   1.540   2.943   2.014
 7337SOL    HW122910   1.562   3.001   2.092
 7337SOL    HW222911   1.549   2.995   1.929
 7338SOL     OW22912   5.691   1.802   1.840
 7338SOL    HW122913   5.714   1.709   1.813
 7338SOL    HW222914   5.595   1.807   1.867
 7339SOL     OW22915   6.046   0.223   4.853
 7339SOL    HW122916   5.946   0.225   4.864
 7339SOL    HW222917   6.083   0.146   4.904
 7340SOL     OW22918   3.472   1.524   0.072
 7340SOL    HW122919   3.441   1.596   0.135
 7340SOL    HW222920   3.431   1.437   0.098
 7341SOL     OW22921   0.983   4.730   4.621
 7341SOL    HW122922   0.991   4.656   4.555
 7341SOL    HW222923   0.971   4.692   4.713
 7342SOL     OW22924   0.030   6.657   6.590
 7342SOL    HW122925   6.981   6.618   6.651
 7342SOL    HW222926   7.003   6.695   6.509
 7343SOL     OW22927   5.838   4.511   1.614
 7343SOL    HW122928   5.860   4.440   1.547
 7343SOL    HW222929   5.795   4.469   1.694
 7344SOL     OW22930   1.236   0.634   5.597
 7344SOL    HW122931   1.199   0.544   5.576
 7344SOL    HW222932   1.336   0.633   5.585
 7345SOL     OW22933   4.760   5.612   5.388
 7345SOL    HW122934   4.836   5.576   5.441
 7345SOL    HW222935   4.759   5.712   5.394
 7346SOL     OW22936   4.287   3.851   1.612
 7346SOL    HW122937   4.226   3.874   1.688
 7346SOL    HW222938   4.252   3.891   1.527
 7347SOL     OW22939   0.764   3.213   1.108
 7347SOL    HW122940   0.809   3.135   1.065
 7347SOL    HW222941   0.665   3.201   1.102
 7348SOL     OW22942   1.170   3.600   3.513
 7348SOL    HW122943   1.105   3.633   3.582
 7348SOL    HW222944   1.264   3.613   3.547
 7349SOL     OW22945   4.701   1.977   0.571
 7349SOL    HW122946   4.799   1.957   0.572
 7349SOL    HW222947   4.651   1.904   0.525
 7350SOL     OW22948   1.801   3.011   5.503
 7350SOL    HW122949   1.864   3.089   5.512
 7350SOL    HW222950   1.765   3.009   5.410
 7351SOL     OW22951   4.850   5.919   5.275
 7351SOL    HW122952   4.921   5.878   5.331
 7351SOL    HW222953   4.891   5.973   5.202
 7352SOL     OW22954   1.771   3.132   2.911
 7352SOL    HW122955   1.741   3.160   3.002
 7352SOL    HW222956   1.701   3.155   2.844
 7353SOL     OW22957   0.133   6.715   5.875
 7353SOL    HW122958   0.160   6.797   5.826
 7353SOL    HW222959   0.041   6.726   5.912
 7354SOL     OW22960   0.910   1.991   6.854
 7354SOL    HW122961   0.893   2.084   6.888
 7354SOL    HW222962   0.941   1.933   6.929
 7355SOL     OW22963   1.776   1.634   0.485
 7355SOL    HW122964   1.745   1.719   0.527
 7355SOL    HW222965   1.862   1.605   0.527
 7356SOL     OW22966   3.874   3.531   5.893
 7356SOL    HW122967   3.856   3.438   5.861
 7356SOL    HW222968   3.874   3.533   5.993
 7357SOL     OW22969   4.389   0.199   1.804
 7357SOL    HW122970   4.485   0.187   1.778
 7357SOL    HW222971   4.383   0.261   1.882
 7358SOL     OW22972   0.339   2.798   2.448
 7358SOL    HW122973   0.397   2.730   2.492
 7358SOL    HW222974   0.260   2.818   2.507
 7359SOL     OW22975   2.742   2.816   6.254
 7359SOL    HW122976   2.772   2.720   6.259
 7359SOL    HW222977   2.745   2.846   6.159
 7360SOL     OW22978   3.330   4.362   5.929
 7360SOL    HW122979   3.331   4.287   5.863
 7360SOL    HW222980   3.391   4.340   6.005
 7361SOL     OW22981   4.199   0.325   1.636
 7361SOL    HW122982   4.266   0.289   1.701
 7361SOL    HW222983   4.127   0.257   1.621
 7362SOL     OW22984   1.087   5.388   4.338
 7362SOL    HW122985   1.074   5.419   4.244
 7362SOL    HW222986   1.067   5.463   4.401
 7363SOL     OW22987   4.046   1.508   1.047
 7363SOL    HW122988   4.087   1.431   1.096
 7363SOL    HW222989   3.948   1.493   1.037
 7364SOL     OW22990   4.361   0.964   1.107
 7364SOL    HW122991   4.278   0.913   1.083
 7364SOL    HW222992   4.400   0.926   1.190
 7365SOL     OW22993   1.339   0.184   2.065
 7365SOL    HW122994   1.288   0.220   1.988
 7365SOL    HW222995   1.433   0.165   2.038
 7366SOL     OW22996   2.102   5.799   6.840
 7366SOL    HW122997   2.118   5.742   6.920
 7366SOL    HW222998   2.030   5.866   6.860
 7367SOL     OW22999   4.637   3.675   1.424
 7367SOL    HW123000   4.621   3.722   1.337
 7367SOL    HW223001   4.604   3.581   1.417
 7368SOL     OW23002   3.878   2.966   3.548
 7368SOL    HW123003   3.781   2.969   3.574
 7368SOL    HW223004   3.921   3.054   3.566
 7369SOL     OW23005   4.152   2.654   6.704
 7369SOL    HW123006   4.065   2.609   6.722
 7369SOL    HW223007   4.172   2.652   6.606
 7370SOL     OW23008   3.102   0.855   4.885
 7370SOL    HW123009   3.048   0.883   4.805
 7370SOL    HW223010   3.199   0.857   4.861
 7371SOL     OW23011   1.993   5.909   3.605
 7371SOL    HW123012   1.997   6.008   3.590
 7371SOL    HW223013   2.076   5.867   3.570
 7372SOL     OW23014   3.979   1.641   5.272
 7372SOL    HW123015   4.012   1.571   5.209
 7372SOL    HW223016   4.029   1.726   5.257
 7373SOL     OW23017   6.053   1.474   4.536
 7373SOL    HW123018   5.970   1.425   4.562
 7373SOL    HW223019   6.125   1.409   4.514
 7374SOL     OW23020   3.218   1.308   5.686
 7374SOL    HW123021   3.159   1.386   5.666
 7374SOL    HW223022   3.293   1.339   5.745
 7375SOL     OW23023   2.263   2.978   3.200
 7375SOL    HW123024   2.168   2.947   3.203
 7375SOL    HW223025   2.306   2.944   3.116
 7376SOL     OW23026   3.453   1.782   0.159
 7376SOL    HW123027   3.432   1.858   0.221
 7376SOL    HW223028   3.538   1.801   0.110
 7377SOL     OW23029   5.268   4.592   0.506
 7377SOL    HW123030   5.284   4.576   0.604
 7377SOL    HW223031   5.217   4.677   0.494
 7378SOL     OW23032   0.692   1.147   5.820
 7378SOL    HW123033   0.767   1.210   5.841
 7378SOL    HW223034   0.698   1.067   5.880
 7379SOL     OW23035   3.144   2.115   2.860
 7379SOL    HW123036   3.112   2.157   2.776
 7379SOL    HW223037   3.242   2.095   2.853
 7380SOL     OW23038   0.494   3.489   5.112
 7380SOL    HW123039   0.471   3.568   5.170
 7380SOL    HW223040   0.409   3.449   5.077
 7381SOL     OW23041   4.897   3.685   2.030
 7381SOL    HW123042   4.833   3.755   2.060
 7381SOL    HW223043   4.902   3.684   1.930
 7382SOL     OW23044   0.199   5.498   6.293
 7382SOL    HW123045   0.145   5.581   6.283
 7382SOL    HW223046   0.292   5.514   6.261
 7383SOL     OW23047   0.962   6.801   1.291
 7383SOL    HW123048   1.034   6.804   1.360
 7383SOL    HW223049   0.919   6.892   1.284
 7384SOL     OW23050   5.289   0.959   3.367
 7384SOL    HW123051   5.281   0.895   3.444
 7384SOL    HW223052   5.262   0.913   3.283
 7385SOL     OW23053   4.637   5.962   1.971
 7385SOL    HW123054   4.721   5.989   2.018
 7385SOL    HW223055   4.644   5.866   1.944
 7386SOL     OW23056   0.391   1.962   5.383
 7386SOL    HW123057   0.433   2.006   5.305
 7386SOL    HW223058   0.443   1.880   5.408
 7387SOL     OW23059   4.512   6.348   3.938
 7387SOL    HW123060   4.472   6.369   4.028
 7387SOL    HW223061   4.606   6.317   3.950
 7388SOL     OW23062   0.165   4.836   2.788
 7388SOL    HW123063   0.086   4.798   2.739
 7388SOL    HW223064   0.199   4.768   2.853
 7389SOL     OW23065   0.366   3.136   6.277
 7389SOL    HW123066   0.452   3.106   6.238
 7389SOL    HW223067   0.316   3.191   6.210
 7390SOL     OW23068   2.221   1.679   0.048
 7390SOL    HW123069   2.278   1.610   0.093
 7390SOL    HW223070   2.206   1.755   0.111
 7391SOL     OW23071   4.150   3.826   5.316
 7391SOL    HW123072   4.218   3.885   5.360
 7391SOL    HW223073   4.134   3.745   5.373
 7392SOL     OW23074   2.356   5.989   6.702
 7392SOL    HW123075   2.404   5.920   6.757
 7392SOL    HW223076   2.423   6.049   6.658
 7393SOL     OW23077   5.052   4.685   2.454
 7393SOL    HW123078   4.972   4.646   2.499
 7393SOL    HW223079   5.053   4.657   2.358
 7394SOL     OW23080   2.935   2.111   5.787
 7394SOL    HW123081   2.942   2.208   5.809
 7394SOL    HW223082   2.974   2.095   5.696
 7395SOL     OW23083   2.021   2.095   0.250
 7395SOL    HW123084   2.103   2.074   0.302
 7395SOL    HW223085   2.020   2.191   0.225
 7396SOL     OW23086   1.352   6.682   0.478
 7396SOL    HW123087   1.261   6.688   0.518
 7396SOL    HW223088   1.352   6.723   0.387
 7397SOL     OW23089   4.362   5.219   5.087
 7397SOL    HW123090   4.425   5.287   5.052
 7397SOL    HW223091   4.361   5.222   5.187
 7398SOL     OW23092   2.445   4.831   4.454
 7398SOL    HW123093   2.447   4.760   4.525
 7398SOL    HW223094   2.486   4.795   4.370
 7399SOL     OW23095   0.999   2.087   5.691
 7399SOL    HW123096   1.075   2.028   5.719
 7399SOL    HW223097   0.916   2.032   5.681
 7400SOL     OW23098   3.953   2.955   6.182
 7400SOL    HW123099   3.903   3.027   6.229
 7400SOL    HW223100   4.012   2.995   6.111
 7401SOL     OW23101   1.733   0.753   4.926
 7401SOL    HW123102   1.766   0.712   4.841
 7401SOL    HW223103   1.648   0.802   4.910
 7402SOL     OW23104   3.258   6.217   6.464
 7402SOL    HW123105   3.357   6.206   6.479
 7402SOL    HW223106   3.237   6.314   6.448
 7403SOL     OW23107   2.247   4.100   2.495
 7403SOL    HW123108   2.173   4.143   2.444
 7403SOL    HW223109   2.210   4.055   2.576
 7404SOL     OW23110   2.057   5.025   1.443
 7404SOL    HW123111   2.061   5.085   1.364
 7404SOL    HW223112   1.964   4.987   1.451
 7405SOL     OW23113   3.748   4.919   3.917
 7405SOL    HW123114   3.677   4.920   3.847
 7405SOL    HW223115   3.708   4.947   4.005
 7406SOL     OW23116   0.679   3.049   3.302
 7406SOL    HW123117   0.687   3.132   3.357
 7406SOL    HW223118   0.745   3.052   3.227
 7407SOL     OW23119   0.126   6.272   4.599
 7407SOL    HW123120   0.209   6.324   4.577
 7407SOL    HW223121   0.151   6.179   4.623
 7408SOL     OW23122   2.286   4.234   6.667
 7408SOL    HW123123   2.295   4.157   6.730
 7408SOL    HW223124   2.377   4.264   6.639
 7409SOL     OW23125   0.417   1.677   6.168
 7409SOL    HW123126   0.475   1.602   6.136
 7409SOL    HW223127   0.471   1.761   6.176
 7410SOL     OW23128   6.984   6.580   1.062
 7410SOL    HW123129   0.060   6.574   1.090
 7410SOL    HW223130   6.947   6.669   1.090
 7411SOL     OW23131   3.222   0.323   4.970
 7411SOL    HW123132   3.143   0.331   5.031
 7411SOL    HW223133   3.305   0.308   5.024
 7412SOL     OW23134   4.723   0.517   1.944
 7412SOL    HW123135   4.703   0.439   2.004
 7412SOL    HW223136   4.777   0.585   1.994
 7413SOL     OW23137   4.883   6.019   4.387
 7413SOL    HW123138   4.936   6.011   4.302
 7413SOL    HW223139   4.943   6.050   4.460
 7414SOL     OW23140   0.362   0.386   3.592
 7414SOL    HW123141   0.443   0.330   3.606
 7414SOL    HW223142   0.343   0.438   3.675
 7415SOL     OW23143   1.869   4.201   4.183
 7415SOL    HW123144   1.880   4.199   4.083
 7415SOL    HW223145   1.957   4.225   4.225
 7416SOL     OW23146   2.358   1.894   3.617
 7416SOL    HW123147   2.392   1.805   3.646
 7416SOL    HW223148   2.375   1.961   3.689
 7417SOL     OW23149   1.910   0.691   6.618
 7417SOL    HW123150   1.903   0.664   6.523
 7417SOL    HW223151   1.929   0.789   6.624
 7418SOL     OW23152   3.175   5.792   0.823
 7418SOL    HW123153   3.175   5.815   0.726
 7418SOL    HW223154   3.225   5.862   0.874
 7419SOL     OW23155   5.537   3.401   5.215
 7419SOL    HW123156   5.579   3.334   5.275
 7419SOL    HW223157   5.561   3.380   5.120
 7420SOL     OW23158   0.666   0.047   2.044
 7420SOL    HW123159   0.735   0.068   2.113
 7420SOL    HW223160   0.575   0.049   2.087
 7421SOL     OW23161   3.379   4.003   0.619
 7421SOL    HW123162   3.309   4.064   0.656
 7421SOL    HW223163   3.352   3.974   0.527
 7422SOL     OW23164   0.170   3.245   2.487
 7422SOL    HW123165   0.168   3.338   2.523
 7422SOL    HW223166   0.169   3.180   2.562
 7423SOL     OW23167   6.389   4.428   5.414
 7423SOL    HW123168   6.378   4.482   5.497
 7423SOL    HW223169   6.394   4.331   5.438
 7424SOL     OW23170   6.927   6.791   5.492
 7424SOL    HW123171   6.854   6.733   5.456
 7424SOL    HW223172   6.955   6.856   5.422
 7425SOL     OW23173   4.380   5.523   6.667
 7425SOL    HW123174   4.457   5.564   6.618
 7425SOL    HW223175   4.296   5.536   6.615
 7426SOL     OW23176   2.424   1.160   5.779
 7426SOL    HW123177   2.422   1.104   5.696
 7426SOL    HW223178   2.331   1.183   5.806
 7427SOL     OW23179   3.372   0.233   3.981
 7427SOL    HW123180   3.395   0.280   3.895
 7427SOL    HW223181   3.299   0.283   4.028
 7428SOL     OW23182   4.091   1.089   6.083
 7428SOL    HW123183   4.155   1.132   6.020
 7428SOL    HW223184   4.015   1.049   6.031
 7429SOL     OW23185   7.011   6.967   3.757
 7429SOL    HW123186   6.954   6.999   3.681
 7429SOL    HW223187   0.084   7.005   3.748
 7430SOL     OW23188   0.946   3.146   0.059
 7430SOL    HW123189   0.889   3.102   0.128
 7430SOL    HW223190   0.908   3.128   6.987
 7431SOL     OW23191   0.866   2.883   2.810
 7431SOL    HW123192   0.916   2.912   2.892
 7431SOL    HW223193   0.780   2.934   2.804
 7432SOL     OW23194   0.451   1.126   3.326
 7432SOL    HW123195   0.440   1.055   3.257
 7432SOL    HW223196   0.461   1.215   3.280
 7433SOL     OW23197   4.766   5.436   6.197
 7433SOL    HW123198   4.710   5.453   6.116
 7433SOL    HW223199   4.859   5.411   6.169
 7434SOL     OW23200   5.290   6.412   5.897
 7434SOL    HW123201   5.320   6.502   5.931
 7434SOL    HW223202   5.327   6.398   5.806
 7435SOL     OW23203   3.863   5.645   0.868
 7435SOL    HW123204   3.839   5.742   0.872
 7435SOL    HW223205   3.954   5.635   0.827
 7436SOL     OW23206   5.626   3.775   6.789
 7436SOL    HW123207   5.642   3.844   6.717
 7436SOL    HW223208   5.557   3.809   6.852
 7437SOL     OW23209   1.001   6.365   0.614
 7437SOL    HW123210   0.922   6.314   0.579
 7437SOL    HW223211   0.971   6.455   0.647
 7438SOL     OW23212   1.130   5.500   0.045
 7438SOL    HW123213   1.120   5.515   6.966
 7438SOL    HW223214   1.055   5.442   0.077
 7439SOL     OW23215   1.534   5.539   5.392
 7439SOL    HW123216   1.515   5.635   5.368
 7439SOL    HW223217   1.459   5.482   5.359
 7440SOL     OW23218   0.085   3.674   4.201
 7440SOL    HW123219   0.074   3.769   4.172
 7440SOL    HW223220   0.169   3.637   4.160
 7441SOL     OW23221   5.150   6.331   4.106
 7441SOL    HW123222   5.081   6.349   4.036
 7441SOL    HW223223   5.198   6.416   4.129
 7442SOL     OW23224   6.716   1.001   5.750
 7442SOL    HW123225   6.775   1.000   5.831
 7442SOL    HW223226   6.720   0.912   5.705
 7443SOL     OW23227   0.227   0.216   2.181
 7443SOL    HW123228   0.217   0.284   2.253
 7443SOL    HW223229   0.138   0.201   2.137
 7444SOL     OW23230   6.111   2.935   5.454
 7444SOL    HW123231   6.044   2.998   5.493
 7444SOL    HW223232   6.104   2.846   5.499
 7445SOL     OW23233   3.776   1.108   1.370
 7445SOL    HW123234   3.741   1.130   1.279
 7445SOL    HW223235   3.731   1.166   1.438
 7446SOL     OW23236   5.608   3.734   1.045
 7446SOL    HW123237   5.632   3.741   1.142
 7446SOL    HW223238   5.515   3.699   1.035
 7447SOL     OW23239   0.572   3.362   6.292
 7447SOL    HW123240   0.616   3.343   6.380
 7447SOL    HW223241   0.478   3.393   6.307
 7448SOL     OW23242   6.572   6.374   5.737
 7448SOL    HW123243   6.572   6.395   5.835
 7448SOL    HW223244   6.495   6.421   5.693
 7449SOL     OW23245   6.273   3.409   1.704
 7449SOL    HW123246   6.327   3.488   1.734
 7449SOL    HW223247   6.178   3.437   1.691
 7450SOL     OW23248   5.546   1.834   4.688
 7450SOL    HW123249   5.530   1.774   4.610
 7450SOL    HW223250   5.644   1.841   4.706
 7451SOL     OW23251   0.043   0.160   3.366
 7451SOL    HW123252   6.963   0.172   3.371
 7451SOL    HW223253   0.087   0.250   3.371
 7452SOL     OW23254   0.999   6.186   4.602
 7452SOL    HW123255   1.054   6.112   4.641
 7452SOL    HW223256   0.902   6.161   4.607
 7453SOL     OW23257   4.719   6.619   5.744
 7453SOL    HW123258   4.647   6.552   5.723
 7453SOL    HW223259   4.808   6.573   5.744
 7454SOL     OW23260   0.327   2.493   2.623
 7454SOL    HW123261   0.356   2.398   2.620
 7454SOL    HW223262   0.399   2.551   2.585
 7455SOL     OW23263   6.710   1.696   2.427
 7455SOL    HW123264   6.748   1.696   2.335
 7455SOL    HW223265   6.640   1.767   2.434
 7456SOL     OW23266   0.779   1.614   4.296
 7456SOL    HW123267   0.820   1.526   4.318
 7456SOL    HW223268   0.701   1.631   4.355
 7457SOL     OW23269   3.855   6.858   6.125
 7457SOL    HW123270   3.947   6.889   6.101
 7457SOL    HW223271   3.861   6.793   6.200
 7458SOL     OW23272   1.957   6.803   5.864
 7458SOL    HW123273   1.997   6.836   5.778
 7458SOL    HW223274   1.908   6.878   5.908
 7459SOL     OW23275   5.041   0.646   1.874
 7459SOL    HW123276   4.978   0.639   1.796
 7459SOL    HW223277   4.989   0.670   1.956
 7460SOL     OW23278   1.666   5.354   0.982
 7460SOL    HW123279   1.723   5.437   0.977
 7460SOL    HW223280   1.636   5.329   0.890
 7461SOL     OW23281   6.027   1.397   5.790
 7461SOL    HW123282   6.082   1.438   5.717
 7461SOL    HW223283   5.982   1.468   5.842
 7462SOL     OW23284   1.481   3.968   2.589
 7462SOL    HW123285   1.382   3.959   2.579
 7462SOL    HW223286   1.511   4.053   2.546
 7463SOL     OW23287   2.452   4.912   0.922
 7463SOL    HW123288   2.480   4.948   0.833
 7463SOL    HW223289   2.514   4.838   0.949
 7464SOL     OW23290   4.910   0.060   6.540
 7464SOL    HW123291   4.973   0.009   6.481
 7464SOL    HW223292   4.817   0.025   6.528
 7465SOL     OW23293   0.970   5.784   0.305
 7465SOL    HW123294   1.065   5.783   0.272
 7465SOL    HW223295   0.948   5.876   0.338
 7466SOL     OW23296   0.243   0.428   5.756
 7466SOL    HW123297   0.296   0.430   5.840
 7466SOL    HW223298   0.151   0.392   5.775
 7467SOL     OW23299   0.063   2.026   0.818
 7467SOL    HW123300   0.066   1.927   0.836
 7467SOL    HW223301   0.068   2.076   0.904
 7468SOL     OW23302   5.444   2.749   3.966
 7468SOL    HW123303   5.482   2.659   3.985
 7468SOL    HW223304   5.382   2.743   3.888
 7469SOL     OW23305   6.932   0.836   0.565
 7469SOL    HW123306   6.867   0.910   0.547
 7469SOL    HW223307   7.018   0.875   0.598
 7470SOL     OW23308   6.608   3.399   3.822
 7470SOL    HW123309   6.581   3.335   3.750
 7470SOL    HW223310   6.595   3.355   3.911
 7471SOL     OW23311   6.597   5.811   6.186
 7471SOL    HW123312   6.585   5.713   6.168
 7471SOL    HW223313   6.624   5.858   6.102
 7472SOL     OW23314   6.189   6.794   4.679
 7472SOL    HW123315   6.258   6.780   4.750
 7472SOL    HW223316   6.223   6.756   4.593
 7473SOL     OW23317   6.505   5.144   3.102
 7473SOL    HW123318   6.500   5.171   3.006
 7473SOL    HW223319   6.570   5.202   3.150
 7474SOL     OW23320   1.762   1.374   5.149
 7474SOL    HW123321   1.778   1.346   5.244
 7474SOL    HW223322   1.745   1.294   5.093
 7475SOL     OW23323   4.619   2.199   1.840
 7475SOL    HW123324   4.660   2.290   1.835
 7475SOL    HW223325   4.632   2.162   1.932
 7476SOL     OW23326   3.020   6.018   3.614
 7476SOL    HW123327   2.966   5.987   3.692
 7476SOL    HW223328   2.960   6.059   3.545
 7477SOL     OW23329   0.328   0.795   5.142
 7477SOL    HW123330   0.361   0.714   5.093
 7477SOL    HW223331   0.251   0.835   5.091
 7478SOL     OW23332   4.776   5.484   6.565
 7478SOL    HW123333   4.824   5.443   6.642
 7478SOL    HW223334   4.841   5.533   6.507
 7479SOL     OW23335   4.216   2.644   1.701
 7479SOL    HW123336   4.187   2.740   1.705
 7479SOL    HW223337   4.297   2.636   1.644
 7480SOL     OW23338   0.261   4.287   2.090
 7480SOL    HW123339   0.310   4.374   2.095
 7480SOL    HW223340   0.168   4.298   2.123
 7481SOL     OW23341   6.107   5.046   1.135
 7481SOL    HW123342   6.124   4.947   1.134
 7481SOL    HW223343   6.188   5.094   1.168
 7482SOL     OW23344   4.230   2.313   2.961
 7482SOL    HW123345   4.140   2.292   2.924
 7482SOL    HW223346   4.233   2.287   3.057
 7483SOL     OW23347   4.793   3.043   4.550
 7483SOL    HW123348   4.823   3.133   4.582
 7483SOL    HW223349   4.841   2.972   4.601
 7484SOL     OW23350   1.703   1.056   3.435
 7484SOL    HW123351   1.630   1.003   3.478
 7484SOL    HW223352   1.664   1.115   3.364
 7485SOL     OW23353   3.647   0.554   5.150
 7485SOL    HW123354   3.684   0.644   5.172
 7485SOL    HW223355   3.559   0.565   5.104
 7486SOL     OW23356   2.058   0.080   0.495
 7486SOL    HW123357   2.157   0.085   0.513
 7486SOL    HW223358   2.028   7.005   0.504
 7487SOL     OW23359   2.456   6.530   2.588
 7487SOL    HW123360   2.432   6.623   2.564
 7487SOL    HW223361   2.436   6.514   2.685
 7488SOL     OW23362   2.368   6.844   4.116
 7488SOL    HW123363   2.411   6.755   4.126
 7488SOL    HW223364   2.423   6.901   4.054
 7489SOL     OW23365   5.144   2.825   5.148
 7489SOL    HW123366   5.165   2.915   5.109
 7489SOL    HW223367   5.127   2.760   5.074
 7490SOL     OW23368   1.350   0.570   1.939
 7490SOL    HW123369   1.312   0.601   2.026
 7490SOL    HW223370   1.285   0.508   1.895
 7491SOL     OW23371   6.051   2.492   5.756
 7491SOL    HW123372   6.001   2.572   5.788
 7491SOL    HW223373   6.147   2.515   5.742
 7492SOL     OW23374   2.038   0.570   3.315
 7492SOL    HW123375   2.039   0.645   3.249
 7492SOL    HW223376   2.079   0.489   3.273
 7493SOL     OW23377   0.201   3.574   6.744
 7493SOL    HW123378   0.122   3.565   6.805
 7493SOL    HW223379   0.282   3.533   6.787
 7494SOL     OW23380   4.733   0.778   2.553
 7494SOL    HW123381   4.802   0.824   2.497
 7494SOL    HW223382   4.701   0.840   2.624
 7495SOL     OW23383   1.723   1.216   0.048
 7495SOL    HW123384   1.798   1.279   0.031
 7495SOL    HW223385   1.637   1.257   0.016
 7496SOL     OW23386   6.366   3.665   5.981
 7496SOL    HW123387   6.287   3.693   5.927
 7496SOL    HW223388   6.393   3.739   6.042
 7497SOL     OW23389   2.094   4.165   0.045
 7497SOL    HW123390   2.075   4.214   0.130
 7497SOL    HW223391   2.017   4.177   7.001
 7498SOL     OW23392   2.803   0.924   5.902
 7498SOL    HW123393   2.822   0.980   5.821
 7498SOL    HW223394   2.883   0.868   5.923
 7499SOL     OW23395   3.489   2.061   3.053
 7499SOL    HW123396   3.447   2.122   3.120
 7499SOL    HW223397   3.471   2.097   2.961
 7500SOL     OW23398   2.983   5.496   3.027
 7500SOL    HW123399   3.040   5.525   2.950
 7500SOL    HW223400   3.016   5.408   3.060
 7501SOL     OW23401   5.109   4.381   4.366
 7501SOL    HW123402   5.123   4.313   4.295
 7501SOL    HW223403   5.020   4.368   4.409
 7502SOL     OW23404   1.780   0.283   3.646
 7502SOL    HW123405   1.817   0.335   3.569
 7502SOL    HW223406   1.712   0.339   3.693
 7503SOL     OW23407   3.160   1.163   0.995
 7503SOL    HW123408   3.065   1.132   1.000
 7503SOL    HW223409   3.168   1.235   0.927
 7504SOL     OW23410   1.403   0.326   3.128
 7504SOL    HW123411   1.371   0.294   3.217
 7504SOL    HW223412   1.334   0.306   3.058
 7505SOL     OW23413   1.947   1.634   5.404
 7505SOL    HW123414   1.975   1.538   5.402
 7505SOL    HW223415   1.848   1.640   5.416
 7506SOL     OW23416   5.485   0.560   3.028
 7506SOL    HW123417   5.579   0.526   3.028
 7506SOL    HW223418   5.485   0.659   3.014
 7507SOL     OW23419   0.566   0.678   2.352
 7507SOL    HW123420   0.553   0.611   2.279
 7507SOL    HW223421   0.663   0.687   2.372
 7508SOL     OW23422   0.872   6.830   1.665
 7508SOL    HW123423   0.912   6.916   1.633
 7508SOL    HW223424   0.930   6.753   1.638
 7509SOL     OW23425   5.087   4.068   0.473
 7509SOL    HW123426   5.086   3.974   0.506
 7509SOL    HW223427   5.081   4.068   0.373
 7510SOL     OW23428   3.773   4.089   5.414
 7510SOL    HW123429   3.715   4.164   5.447
 7510SOL    HW223430   3.720   4.031   5.352
 7511SOL     OW23431   2.670   6.875   4.169
 7511SOL    HW123432   2.643   6.851   4.076
 7511SOL    HW223433   2.743   6.943   4.166
 7512SOL     OW23434   2.816   6.464   6.460
 7512SOL    HW123435   2.809   6.367   6.485
 7512SOL    HW223436   2.895   6.477   6.400
 7513SOL     OW23437   2.751   0.899   1.590
 7513SOL    HW123438   2.807   0.907   1.508
 7513SOL    HW223439   2.725   0.991   1.621
 7514SOL     OW23440   2.281   5.932   1.808
 7514SOL    HW123441   2.205   5.867   1.804
 7514SOL    HW223442   2.356   5.899   1.750
 7515SOL     OW23443   6.710   4.848   2.704
 7515SOL    HW123444   6.776   4.865   2.778
 7515SOL    HW223445   6.711   4.752   2.679
 7516SOL     OW23446   6.552   6.521   5.116
 7516SOL    HW123447   6.648   6.500   5.099
 7516SOL    HW223448   6.496   6.440   5.097
 7517SOL     OW23449   0.312   2.910   0.815
 7517SOL    HW123450   0.259   2.992   0.792
 7517SOL    HW223451   0.257   2.829   0.795
 7518SOL     OW23452   4.205   4.959   3.754
 7518SOL    HW123453   4.262   4.878   3.739
 7518SOL    HW223454   4.227   4.998   3.844
 7519SOL     OW23455   0.260   6.668   3.802
 7519SOL    HW123456   0.352   6.692   3.834
 7519SOL    HW223457   0.254   6.686   3.703
 7520SOL     OW23458   2.653   0.208   2.345
 7520SOL    HW123459   2.564   0.202   2.390
 7520SOL    HW223460   2.641   0.230   2.249
 7521SOL     OW23461   4.904   4.372   6.268
 7521SOL    HW123462   4.956   4.377   6.183
 7521SOL    HW223463   4.807   4.388   6.249
 7522SOL     OW23464   1.818   0.679   6.326
 7522SOL    HW123465   1.870   0.594   6.322
 7522SOL    HW223466   1.858   0.745   6.261
 7523SOL     OW23467   5.706   0.064   5.434
 7523SOL    HW123468   5.772   0.138   5.442
 7523SOL    HW223469   5.628   0.094   5.379
 7524SOL     OW23470   1.485   2.115   5.360
 7524SOL    HW123471   1.565   2.124   5.300
 7524SOL    HW223472   1.404   2.146   5.311
 7525SOL     OW23473   3.435   0.590   6.271
 7525SOL    HW123474   3.433   0.671   6.329
 7525SOL    HW223475   3.381   0.607   6.188
 7526SOL     OW23476   2.959   3.310   2.043
 7526SOL    HW123477   2.925   3.388   2.096
 7526SOL    HW223478   2.939   3.225   2.094
 7527SOL     OW23479   3.052   5.956   3.070
 7527SOL    HW123480   3.053   5.926   3.165
 7527SOL    HW223481   3.124   5.909   3.019
 7528SOL     OW23482   5.477   1.800   6.837
 7528SOL    HW123483   5.410   1.871   6.861
 7528SOL    HW223484   5.563   1.819   6.884
 7529SOL     OW23485   4.635   0.732   4.639
 7529SOL    HW123486   4.666   0.787   4.562
 7529SOL    HW223487   4.652   0.782   4.724
 7530SOL     OW23488   0.458   3.201   2.707
 7530SOL    HW123489   0.377   3.144   2.692
 7530SOL    HW223490   0.498   3.226   2.618
 7531SOL     OW23491   5.330   3.302   4.525
 7531SOL    HW123492   5.352   3.290   4.622
 7531SOL    HW223493   5.235   3.332   4.516
 7532SOL     OW23494   5.582   5.583   0.111
 7532SOL    HW123495   5.502   5.620   0.159
 7532SOL    HW223496   5.590   5.485   0.130
 7533SOL     OW23497   2.595   1.878   1.898
 7533SOL    HW123498   2.522   1.945   1.895
 7533SOL    HW223499   2.558   1.787   1.876
 7534SOL     OW23500   4.331   5.854   5.361
 7534SOL    HW123501   4.244   5.843   5.410
 7534SOL    HW223502   4.317   5.912   5.281
 7535SOL     OW23503   1.872   0.114   5.072
 7535SOL    HW123504   1.781   0.154   5.067
 7535SOL    HW223505   1.867   0.016   5.050
 7536SOL     OW23506   4.544   4.463   4.880
 7536SOL    HW123507   4.468   4.508   4.927
 7536SOL    HW223508   4.523   4.457   4.782
 7537SOL     OW23509   3.046   5.852   2.437
 7537SOL    HW123510   2.976   5.922   2.448
 7537SOL    HW223511   3.011   5.778   2.380
 7538SOL     OW23512   2.676   3.206   1.554
 7538SOL    HW123513   2.598   3.175   1.499
 7538SOL    HW223514   2.649   3.287   1.606
 7539SOL     OW23515   1.042   3.630   4.991
 7539SOL    HW123516   1.110   3.698   5.019
 7539SOL    HW223517   1.085   3.563   4.930
 7540SOL     OW23518   4.097   6.992   4.833
 7540SOL    HW123519   4.093   6.892   4.827
 7540SOL    HW223520   4.011   0.012   4.801
 7541SOL     OW23521   0.411   3.929   5.501
 7541SOL    HW123522   0.436   3.840   5.540
 7541SOL    HW223523   0.371   3.987   5.573
 7542SOL     OW23524   1.181   5.237   6.314
 7542SOL    HW123525   1.272   5.218   6.278
 7542SOL    HW223526   1.190   5.276   6.406
 7543SOL     OW23527   3.492   2.257   6.661
 7543SOL    HW123528   3.586   2.252   6.629
 7543SOL    HW223529   3.490   2.263   6.761
 7544SOL     OW23530   0.031   2.779   2.915
 7544SOL    HW123531   0.111   2.832   2.941
 7544SOL    HW223532   0.056   2.713   2.844
 7545SOL     OW23533   6.907   5.780   0.537
 7545SOL    HW123534   6.878   5.769   0.632
 7545SOL    HW223535   6.952   5.696   0.506
 7546SOL     OW23536   3.271   1.903   1.986
 7546SOL    HW123537   3.180   1.938   1.967
 7546SOL    HW223538   3.340   1.968   1.954
 7547SOL     OW23539   5.442   1.052   0.744
 7547SOL    HW123540   5.424   1.107   0.826
 7547SOL    HW223541   5.365   0.989   0.729
 7548SOL     OW23542   4.262   1.337   0.113
 7548SOL    HW123543   4.205   1.256   0.131
 7548SOL    HW223544   4.356   1.308   0.097
 7549SOL     OW23545   4.721   2.374   0.558
 7549SOL    HW123546   4.639   2.348   0.506
 7549SOL    HW223547   4.702   2.366   0.656
 7550SOL     OW23548   2.541   4.936   2.418
 7550SOL    HW123549   2.451   4.892   2.421
 7550SOL    HW223550   2.545   5.006   2.489
 7551SOL     OW23551   5.347   3.647   6.963
 7551SOL    HW123552   5.331   3.600   0.031
 7551SOL    HW223553   5.402   3.729   6.980
 7552SOL     OW23554   1.460   6.094   2.866
 7552SOL    HW123555   1.462   6.186   2.827
 7552SOL    HW223556   1.366   6.060   2.866
 7553SOL     OW23557   4.452   6.108   5.912
 7553SOL    HW123558   4.490   6.150   5.995
 7553SOL    HW223559   4.418   6.180   5.852
 7554SOL     OW23560   4.548   1.033   0.222
 7554SOL    HW123561   4.464   1.068   0.263
 7554SOL    HW223562   4.612   1.005   0.294
 7555SOL     OW23563   2.466   4.926   6.116
 7555SOL    HW123564   2.469   4.942   6.017
 7555SOL    HW223565   2.556   4.896   6.147
 7556SOL     OW23566   1.809   2.943   7.000
 7556SOL    HW123567   1.890   2.923   0.036
 7556SOL    HW223568   1.732   2.888   0.015
 7557SOL     OW23569   4.984   1.372   5.301
 7557SOL    HW123570   5.070   1.324   5.286
 7557SOL    HW223571   4.926   1.362   5.220
 7558SOL     OW23572   1.365   3.027   4.036
 7558SOL    HW123573   1.298   2.973   4.087
 7558SOL    HW223574   1.320   3.104   3.991
 7559SOL     OW23575   5.239   4.027   6.873
 7559SOL    HW123576   5.167   3.963   6.847
 7559SOL    HW223577   5.228   4.113   6.823
 7560SOL     OW23578   4.838   0.002   0.947
 7560SOL    HW123579   4.741   0.017   0.962
 7560SOL    HW223580   4.888   0.088   0.961
 7561SOL     OW23581   0.984   3.625   6.670
 7561SOL    HW123582   0.948   3.579   6.752
 7561SOL    HW223583   0.934   3.594   6.590
 7562SOL     OW23584   0.090   6.463   3.915
 7562SOL    HW123585   7.013   6.436   3.925
 7562SOL    HW223586   0.101   6.518   3.832
 7563SOL     OW23587   3.050   0.402   0.811
 7563SOL    HW123588   2.963   0.352   0.809
 7563SOL    HW223589   3.126   0.337   0.811
 7564SOL     OW23590   4.733   0.365   3.428
 7564SOL    HW123591   4.733   0.410   3.517
 7564SOL    HW223592   4.646   0.317   3.416
 7565SOL     OW23593   5.270   3.361   0.938
 7565SOL    HW123594   5.188   3.377   0.994
 7565SOL    HW223595   5.250   3.292   0.869
 7566SOL     OW23596   5.610   4.772   2.849
 7566SOL    HW123597   5.598   4.713   2.769
 7566SOL    HW223598   5.707   4.774   2.874
 7567SOL     OW23599   1.934   2.269   4.457
 7567SOL    HW123600   1.878   2.201   4.503
 7567SOL    HW223601   1.973   2.229   4.374
 7568SOL     OW23602   5.273   6.074   2.700
 7568SOL    HW123603   5.246   6.155   2.752
 7568SOL    HW223604   5.237   5.992   2.744
 7569SOL     OW23605   3.852   5.294   6.339
 7569SOL    HW123606   3.767   5.293   6.286
 7569SOL    HW223607   3.830   5.301   6.436
 7570SOL     OW23608   5.914   3.357   5.581
 7570SOL    HW123609   5.987   3.403   5.530
 7570SOL    HW223610   5.928   3.258   5.576
 7571SOL     OW23611   4.127   5.543   3.296
 7571SOL    HW123612   4.101   5.590   3.380
 7571SOL    HW223613   4.131   5.445   3.313
 7572SOL     OW23614   4.661   1.146   1.615
 7572SOL    HW123615   4.612   1.072   1.661
 7572SOL    HW223616   4.720   1.192   1.680
 7573SOL     OW23617   0.436   0.189   5.307
 7573SOL    HW123618   0.401   0.267   5.359
 7573SOL    HW223619   0.480   0.221   5.223
 7574SOL     OW23620   5.830   0.605   5.671
 7574SOL    HW123621   5.907   0.618   5.734
 7574SOL    HW223622   5.845   0.521   5.618
 7575SOL     OW23623   4.975   6.703   6.658
 7575SOL    HW123624   4.976   6.783   6.598
 7575SOL    HW223625   4.950   6.732   6.751
 7576SOL     OW23626   5.016   4.407   6.682
 7576SOL    HW123627   4.934   4.381   6.632
 7576SOL    HW223628   5.002   4.497   6.725
 7577SOL     OW23629   0.863   6.877   0.078
 7577SOL    HW123630   0.766   6.892   0.057
 7577SOL    HW223631   0.917   6.884   7.013
 7578SOL     OW23632   1.982   5.281   2.121
 7578SOL    HW123633   1.945   5.325   2.039
 7578SOL    HW223634   2.051   5.214   2.094
 7579SOL     OW23635   6.867   0.585   1.756
 7579SOL    HW123636   6.856   0.493   1.794
 7579SOL    HW223637   6.787   0.641   1.780
 7580SOL     OW23638   0.521   4.018   4.789
 7580SOL    HW123639   0.499   4.005   4.886
 7580SOL    HW223640   0.498   3.935   4.738
 7581SOL     OW23641   6.687   1.274   0.891
 7581SOL    HW123642   6.641   1.214   0.956
 7581SOL    HW223643   6.684   1.368   0.926
 7582SOL     OW23644   4.264   1.163   1.760
 7582SOL    HW123645   4.174   1.133   1.730
 7582SOL    HW223646   4.268   1.263   1.760
 7583SOL     OW23647   6.516   3.264   1.874
 7583SOL    HW123648   6.484   3.220   1.791
 7583SOL    HW223649   6.567   3.347   1.851
 7584SOL     OW23650   3.356   6.962   1.091
 7584SOL    HW123651   3.358   0.043   1.091
 7584SOL    HW223652   3.266   6.931   1.121
 7585SOL     OW23653   1.609   2.627   6.275
 7585SOL    HW123654   1.577   2.637   6.181
 7585SOL    HW223655   1.532   2.608   6.335
 7586SOL     OW23656   2.728   0.986   3.665
 7586SOL    HW123657   2.726   0.886   3.662
 7586SOL    HW223658   2.636   1.019   3.686
 7587SOL     OW23659   2.549   2.464   0.181
 7587SOL    HW123660   2.615   2.514   0.236
 7587SOL    HW223661   2.457   2.501   0.197
 7588SOL     OW23662   1.618   3.202   3.483
 7588SOL    HW123663   1.711   3.221   3.515
 7588SOL    HW223664   1.584   3.119   3.527
 7589SOL     OW23665   0.964   0.510   2.732
 7589SOL    HW123666   0.875   0.550   2.754
 7589SOL    HW223667   1.026   0.520   2.810
 7590SOL     OW23668   4.042   1.463   5.807
 7590SOL    HW123669   4.107   1.514   5.750
 7590SOL    HW223670   4.050   1.493   5.902
 7591SOL     OW23671   0.432   3.740   0.443
 7591SOL    HW123672   0.421   3.726   0.541
 7591SOL    HW223673   0.527   3.724   0.417
 7592SOL     OW23674   6.724   4.757   4.508
 7592SOL    HW123675   6.654   4.828   4.508
 7592SOL    HW223676   6.804   4.789   4.456
 7593SOL     OW23677   6.063   3.433   1.002
 7593SOL    HW123678   6.046   3.453   1.098
 7593SOL    HW223679   6.024   3.506   0.945
 7594SOL     OW23680   1.148   5.596   2.297
 7594SOL    HW123681   1.110   5.511   2.333
 7594SOL    HW223682   1.110   5.674   2.348
 7595SOL     OW23683   6.306   2.701   5.916
 7595SOL    HW123684   6.361   2.627   5.877
 7595SOL    HW223685   6.361   2.784   5.923
 7596SOL     OW23686   4.393   5.586   4.403
 7596SOL    HW123687   4.425   5.609   4.312
 7596SOL    HW223688   4.363   5.491   4.405
 7597SOL     OW23689   2.671   6.992   2.710
 7597SOL    HW123690   2.613   6.961   2.635
 7597SOL    HW223691   2.699   6.914   2.766
 7598SOL     OW23692   0.022   1.697   3.349
 7598SOL    HW123693   0.102   1.639   3.358
 7598SOL    HW223694   6.975   1.675   3.421
 7599SOL     OW23695   5.430   1.893   2.567
 7599SOL    HW123696   5.347   1.839   2.585
 7599SOL    HW223697   5.464   1.872   2.475
 7600SOL     OW23698   1.445   1.509   2.604
 7600SOL    HW123699   1.457   1.543   2.510
 7600SOL    HW223700   1.461   1.584   2.668
 7601SOL     OW23701   1.627   5.603   2.948
 7601SOL    HW123702   1.716   5.569   2.920
 7601SOL    HW223703   1.605   5.687   2.898
 7602SOL     OW23704   2.121   4.300   6.447
 7602SOL    HW123705   2.068   4.226   6.405
 7602SOL    HW223706   2.170   4.264   6.526
 7603SOL     OW23707   1.645   5.767   6.058
 7603SOL    HW123708   1.721   5.741   5.999
 7603SOL    HW223709   1.675   5.764   6.154
 7604SOL     OW23710   2.038   3.871   4.516
 7604SOL    HW123711   2.052   3.780   4.478
 7604SOL    HW223712   2.108   3.891   4.584
 7605SOL     OW23713   1.004   0.403   1.189
 7605SOL    HW123714   1.052   0.320   1.216
 7605SOL    HW223715   0.906   0.393   1.206
 7606SOL     OW23716   5.855   4.054   5.450
 7606SOL    HW123717   5.878   4.131   5.510
 7606SOL    HW223718   5.821   3.978   5.506
 7607SOL     OW23719   2.920   5.094   0.302
 7607SOL    HW123720   2.947   5.146   0.221
 7607SOL    HW223721   2.947   5.144   0.384
 7608SOL     OW23722   4.109   3.614   2.189
 7608SOL    HW123723   4.038   3.648   2.250
 7608SOL    HW223724   4.185   3.576   2.243
 7609SOL     OW23725   0.980   3.509   4.473
 7609SOL    HW123726   0.955   3.419   4.438
 7609SOL    HW223727   0.899   3.568   4.474
 7610SOL     OW23728   4.515   4.817   6.179
 7610SOL    HW123729   4.487   4.741   6.121
 7610SOL    HW223730   4.507   4.903   6.128
 7611SOL     OW23731   6.199   3.008   1.426
 7611SOL    HW123732   6.166   2.914   1.440
 7611SOL    HW223733   6.124   3.065   1.392
 7612SOL     OW23734   4.624   2.610   3.373
 7612SOL    HW123735   4.706   2.633   3.321
 7612SOL    HW223736   4.554   2.574   3.311
 7613SOL     OW23737   6.545   3.011   1.055
 7613SOL    HW123738   6.510   3.027   1.148
 7613SOL    HW223739   6.483   3.052   0.989
 7614SOL     OW23740   4.862   3.039   0.400
 7614SOL    HW123741   4.770   3.001   0.401
 7614SOL    HW223742   4.908   3.018   0.486
 7615SOL     OW23743   3.595   5.446   0.619
 7615SOL    HW123744   3.661   5.504   0.573
 7615SOL    HW223745   3.626   5.426   0.712
 7616SOL     OW23746   6.149   5.979   4.545
 7616SOL    HW123747   6.102   6.036   4.478
 7616SOL    HW223748   6.242   6.012   4.559
 7617SOL     OW23749   3.930   5.326   2.422
 7617SOL    HW123750   3.994   5.385   2.472
 7617SOL    HW223751   3.841   5.371   2.416
 7618SOL     OW23752   0.232   1.141   5.370
 7618SOL    HW123753   0.241   1.042   5.376
 7618SOL    HW223754   0.160   1.164   5.304
 7619SOL     OW23755   5.593   2.753   5.430
 7619SOL    HW123756   5.645   2.731   5.348
 7619SOL    HW223757   5.514   2.810   5.406
 7620SOL     OW23758   4.207   5.907   1.288
 7620SOL    HW123759   4.156   5.974   1.235
 7620SOL    HW223760   4.152   5.879   1.368
 7621SOL     OW23761   6.477   1.663   0.841
 7621SOL    HW123762   6.540   1.621   0.906
 7621SOL    HW223763   6.523   1.675   0.753
 7622SOL     OW23764   4.614   5.315   6.970
 7622SOL    HW123765   4.643   5.408   6.992
 7622SOL    HW223766   4.688   5.251   6.990
 7623SOL     OW23767   4.605   4.130   0.054
 7623SOL    HW123768   4.514   4.143   0.015
 7623SOL    HW223769   4.633   4.213   0.102
 7624SOL     OW23770   6.900   3.757   4.806
 7624SOL    HW123771   6.947   3.764   4.718
 7624SOL    HW223772   6.928   3.673   4.853
 7625SOL     OW23773   4.672   0.649   1.501
 7625SOL    HW123774   4.692   0.553   1.523
 7625SOL    HW223775   4.573   0.660   1.491
 7626SOL     OW23776   6.292   7.011   4.371
 7626SOL    HW123777   6.354   0.023   4.443
 7626SOL    HW223778   6.228   0.065   4.348
 7627SOL     OW23779   4.813   2.882   6.699
 7627SOL    HW123780   4.814   2.831   6.613
 7627SOL    HW223781   4.734   2.944   6.700
 7628SOL     OW23782   3.520   2.027   2.156
 7628SOL    HW123783   3.577   2.100   2.119
 7628SOL    HW223784   3.528   1.946   2.098
 7629SOL     OW23785   0.041   6.236   2.942
 7629SOL    HW123786   0.112   6.277   2.885
 7629SOL    HW223787   0.041   6.280   3.032
 7630SOL     OW23788   6.855   6.711   1.420
 7630SOL    HW123789   6.953   6.724   1.430
 7630SOL    HW223790   6.809   6.738   1.504
 7631SOL     OW23791   0.825   1.091   6.430
 7631SOL    HW123792   0.738   1.136   6.452
 7631SOL    HW223793   0.815   1.038   6.346
 7632SOL     OW23794   3.842   3.177   1.608
 7632SOL    HW123795   3.773   3.206   1.674
 7632SOL    HW223796   3.933   3.182   1.650
 7633SOL     OW23797   5.198   0.553   1.091
 7633SOL    HW123798   5.275   0.549   1.154
 7633SOL    HW223799   5.152   0.642   1.100
 7634SOL     OW23800   1.522   2.179   2.511
 7634SOL    HW123801   1.426   2.188   2.487
 7634SOL    HW223802   1.548   2.083   2.510
 7635SOL     OW23803   3.423   5.211   4.898
 7635SOL    HW123804   3.461   5.259   4.819
 7635SOL    HW223805   3.430   5.112   4.884
 7636SOL     OW23806   1.804   3.227   4.067
 7636SOL    HW123807   1.732   3.170   4.105
 7636SOL    HW223808   1.893   3.200   4.104
 7637SOL     OW23809   2.071   5.276   2.759
 7637SOL    HW123810   2.150   5.227   2.795
 7637SOL    HW223811   2.075   5.276   2.659
 7638SOL     OW23812   2.570   6.255   1.427
 7638SOL    HW123813   2.655   6.257   1.479
 7638SOL    HW223814   2.587   6.217   1.336
 7639SOL     OW23815   0.799   2.153   0.657
 7639SOL    HW123816   0.824   2.101   0.576
 7639SOL    HW223817   0.872   2.219   0.678
 7640SOL     OW23818   3.390   1.087   5.649
 7640SOL    HW123819   3.334   1.169   5.659
 7640SOL    HW223820   3.483   1.106   5.679
 7641SOL     OW23821   1.240   3.919   2.713
 7641SOL    HW123822   1.298   3.911   2.794
 7641SOL    HW223823   1.203   3.829   2.690
 7642SOL     OW23824   3.785   1.089   3.098
 7642SOL    HW123825   3.865   1.087   3.157
 7642SOL    HW223826   3.702   1.089   3.153
 7643SOL     OW23827   4.698   2.771   3.653
 7643SOL    HW123828   4.626   2.758   3.721
 7643SOL    HW223829   4.669   2.731   3.566
 7644SOL     OW23830   5.867   1.770   2.045
 7644SOL    HW123831   5.809   1.800   1.969
 7644SOL    HW223832   5.958   1.810   2.035
 7645SOL     OW23833   4.727   3.461   5.685
 7645SOL    HW123834   4.676   3.547   5.693
 7645SOL    HW223835   4.749   3.444   5.589
 7646SOL     OW23836   1.189   3.769   3.263
 7646SOL    HW123837   1.095   3.798   3.248
 7646SOL    HW223838   1.190   3.688   3.321
 7647SOL     OW23839   6.726   2.664   3.623
 7647SOL    HW123840   6.678   2.752   3.625
 7647SOL    HW223841   6.659   2.590   3.618
 7648SOL     OW23842   3.140   1.973   3.077
 7648SOL    HW123843   3.193   1.888   3.066
 7648SOL    HW223844   3.127   2.016   2.988
 7649SOL     OW23845   0.497   1.218   2.791
 7649SOL    HW123846   0.540   1.152   2.852
 7649SOL    HW223847   0.403   1.190   2.771
 7650SOL     OW23848   4.581   1.508   0.527
 7650SOL    HW123849   4.601   1.413   0.501
 7650SOL    HW223850   4.529   1.509   0.612
 7651SOL     OW23851   2.279   0.778   3.723
 7651SOL    HW123852   2.259   0.722   3.643
 7651SOL    HW223853   2.232   0.740   3.803
 7652SOL     OW23854   6.111   3.722   5.878
 7652SOL    HW123855   6.057   3.792   5.925
 7652SOL    HW223856   6.159   3.764   5.801
 7653SOL     OW23857   1.110   1.648   0.157
 7653SOL    HW123858   1.076   1.742   0.156
 7653SOL    HW223859   1.042   1.587   0.117
 7654SOL     OW23860   4.867   3.216   4.287
 7654SOL    HW123861   4.858   3.173   4.197
 7654SOL    HW223862   4.806   3.170   4.352
 7655SOL     OW23863   4.382   6.929   2.747
 7655SOL    HW123864   4.352   6.947   2.654
 7655SOL    HW223865   4.398   6.830   2.759
 7656SOL     OW23866   2.913   3.977   5.769
 7656SOL    HW123867   2.914   3.878   5.784
 7656SOL    HW223868   2.820   4.011   5.781
 7657SOL     OW23869   1.035   2.668   4.098
 7657SOL    HW123870   1.041   2.612   4.015
 7657SOL    HW223871   1.058   2.612   4.178
 7658SOL     OW23872   4.286   6.719   6.458
 7658SOL    HW123873   4.351   6.788   6.427
 7658SOL    HW223874   4.306   6.631   6.415
 7659SOL     OW23875   6.057   4.935   5.877
 7659SOL    HW123876   6.108   5.007   5.923
 7659SOL    HW223877   6.011   4.877   5.945
 7660SOL     OW23878   0.572   5.990   3.896
 7660SOL    HW123879   0.543   5.939   3.977
 7660SOL    HW223880   0.585   6.087   3.920
 7661SOL     OW23881   5.605   2.468   4.765
 7661SOL    HW123882   5.642   2.541   4.708
 7661SOL    HW223883   5.640   2.476   4.858
 7662SOL     OW23884   1.158   2.987   3.524
 7662SOL    HW123885   1.084   3.051   3.505
 7662SOL    HW223886   1.222   3.029   3.589
 7663SOL     OW23887   0.030   5.070   5.300
 7663SOL    HW123888   0.024   4.973   5.276
 7663SOL    HW223889   6.968   5.119   5.267
 7664SOL     OW23890   3.968   6.843   1.800
 7664SOL    HW123891   3.934   6.749   1.805
 7664SOL    HW223892   3.934   6.887   1.717
 7665SOL     OW23893   6.257   0.124   4.637
 7665SOL    HW123894   6.188   0.052   4.640
 7665SOL    HW223895   6.302   0.132   4.726
 7666SOL     OW23896   0.654   5.348   1.882
 7666SOL    HW123897   0.651   5.270   1.819
 7666SOL    HW223898   0.651   5.315   1.976
 7667SOL     OW23899   4.855   6.743   2.059
 7667SOL    HW123900   4.840   6.694   1.973
 7667SOL    HW223901   4.779   6.724   2.122
 7668SOL     OW23902   3.099   4.583   0.334
 7668SOL    HW123903   3.039   4.516   0.289
 7668SOL    HW223904   3.132   4.546   0.421
 7669SOL     OW23905   4.825   1.436   5.102
 7669SOL    HW123906   4.865   1.460   5.014
 7669SOL    HW223907   4.777   1.515   5.141
 7670SOL     OW23908   1.051   4.583   0.064
 7670SOL    HW123909   1.119   4.620   0.001
 7670SOL    HW223910   1.076   4.489   0.089
 7671SOL     OW23911   4.745   1.393   2.217
 7671SOL    HW123912   4.681   1.459   2.178
 7671SOL    HW223913   4.717   1.371   2.311
 7672SOL     OW23914   0.591   6.712   2.336
 7672SOL    HW123915   0.525   6.640   2.316
 7672SOL    HW223916   0.680   6.687   2.297
 7673SOL     OW23917   1.658   6.409   0.902
 7673SOL    HW123918   1.722   6.380   0.974
 7673SOL    HW223919   1.577   6.351   0.904
 7674SOL     OW23920   5.211   0.825   3.133
 7674SOL    HW123921   5.226   0.727   3.126
 7674SOL    HW223922   5.135   0.852   3.074
 7675SOL     OW23923   6.248   6.538   2.160
 7675SOL    HW123924   6.169   6.478   2.171
 7675SOL    HW223925   6.328   6.498   2.205
 7676SOL     OW23926   2.983   2.275   0.764
 7676SOL    HW123927   2.969   2.373   0.777
 7676SOL    HW223928   3.076   2.250   0.792
 7677SOL     OW23929   0.349   5.102   1.629
 7677SOL    HW123930   0.429   5.068   1.679
 7677SOL    HW223931   0.323   5.191   1.666
 7678SOL     OW23932   1.889   3.267   4.883
 7678SOL    HW123933   1.835   3.251   4.966
 7678SOL    HW223934   1.955   3.193   4.871
 7679SOL     OW23935   2.897   5.826   5.434
 7679SOL    HW123936   2.905   5.748   5.496
 7679SOL    HW223937   2.801   5.852   5.427
 7680SOL     OW23938   1.135   0.913   0.484
 7680SOL    HW123939   1.068   0.850   0.444
 7680SOL    HW223940   1.146   0.992   0.423
 7681SOL     OW23941   2.548   1.371   1.196
 7681SOL    HW123942   2.565   1.393   1.100
 7681SOL    HW223943   2.561   1.453   1.252
 7682SOL     OW23944   3.055   6.985   1.915
 7682SOL    HW123945   3.025   6.900   1.873
 7682SOL    HW223946   3.120   0.012   1.854
 7683SOL     OW23947   5.090   1.692   4.611
 7683SOL    HW123948   5.151   1.766   4.641
 7683SOL    HW223949   5.145   1.615   4.581
 7684SOL     OW23950   3.015   1.964   1.754
 7684SOL    HW123951   2.972   2.054   1.765
 7684SOL    HW223952   3.035   1.949   1.657
 7685SOL     OW23953   2.774   1.928   6.200
 7685SOL    HW123954   2.805   1.873   6.277
 7685SOL    HW223955   2.780   2.025   6.224
 7686SOL     OW23956   6.452   6.435   2.931
 7686SOL    HW123957   6.466   6.386   3.017
 7686SOL    HW223958   6.447   6.533   2.949
 7687SOL     OW23959   5.714   5.401   3.305
 7687SOL    HW123960   5.739   5.484   3.255
 7687SOL    HW223961   5.782   5.330   3.289
 7688SOL     OW23962   0.943   5.775   5.580
 7688SOL    HW123963   1.023   5.720   5.607
 7688SOL    HW223964   0.950   5.866   5.621
 7689SOL     OW23965   5.635   6.461   2.524
 7689SOL    HW123966   5.726   6.428   2.500
 7689SOL    HW223967   5.642   6.546   2.576
 7690SOL     OW23968   5.090   5.466   0.551
 7690SOL    HW123969   5.150   5.543   0.572
 7690SOL    HW223970   5.008   5.499   0.505
 7691SOL     OW23971   5.215   4.104   4.289
 7691SOL    HW123972   5.202   4.071   4.382
 7691SOL    HW223973   5.296   4.060   4.249
 7692SOL     OW23974   0.775   6.307   2.025
 7692SOL    HW123975   0.688   6.321   1.977
 7692SOL    HW223976   0.832   6.243   1.973
 7693SOL     OW23977   3.481   6.559   1.684
 7693SOL    HW123978   3.522   6.534   1.596
 7693SOL    HW223979   3.548   6.546   1.757
 7694SOL     OW23980   6.316   4.090   4.592
 7694SOL    HW123981   6.286   4.150   4.518
 7694SOL    HW223982   6.355   4.007   4.555
 7695SOL     OW23983   5.137   0.368   0.885
 7695SOL    HW123984   5.160   0.431   0.959
 7695SOL    HW223985   5.221   0.338   0.839
 7696SOL     OW23986   0.619   0.490   5.513
 7696SOL    HW123987   0.565   0.545   5.450
 7696SOL    HW223988   0.648   0.547   5.590
 7697SOL     OW23989   2.156   6.712   2.962
 7697SOL    HW123990   2.177   6.647   2.889
 7697SOL    HW223991   2.078   6.768   2.935
 7698SOL     OW23992   5.738   0.809   3.967
 7698SOL    HW123993   5.783   0.752   4.036
 7698SOL    HW223994   5.772   0.785   3.876
 7699SOL     OW23995   3.642   5.459   7.000
 7699SOL    HW123996   3.647   5.475   0.080
 7699SOL    HW223997   3.733   5.467   6.960
 7700SOL     OW23998   4.241   6.103   3.184
 7700SOL    HW123999   4.241   6.125   3.281
 7700SOL    HW224000   4.181   6.167   3.135
 7701SOL     OW24001   6.646   1.699   0.620
 7701SOL    HW124002   6.603   1.782   0.583
 7701SOL    HW224003   6.739   1.692   0.584
 7702SOL     OW24004   3.151   6.585   5.262
 7702SOL    HW124005   3.224   6.601   5.328
 7702SOL    HW224006   3.162   6.495   5.222
 7703SOL     OW24007   6.602   6.103   6.744
 7703SOL    HW124008   6.651   6.081   6.659
 7703SOL    HW224009   6.518   6.153   6.722
 7704SOL     OW24010   5.963   6.510   4.646
 7704SOL    HW124011   6.024   6.471   4.577
 7704SOL    HW224012   5.879   6.542   4.602
 7705SOL     OW24013   2.609   5.839   6.463
 7705SOL    HW124014   2.622   5.743   6.438
 7705SOL    HW224015   2.623   5.850   6.561
 7706SOL     OW24016   4.056   3.416   5.493
 7706SOL    HW124017   3.980   3.411   5.429
 7706SOL    HW224018   4.094   3.509   5.493
 7707SOL     OW24019   6.844   5.245   5.219
 7707SOL    HW124020   6.757   5.213   5.255
 7707SOL    HW224021   6.828   5.318   5.153
 7708SOL     OW24022   0.521   6.775   6.249
 7708SOL    HW124023   0.422   6.767   6.249
 7708SOL    HW224024   0.548   6.862   6.209
 7709SOL     OW24025   6.672   4.161   2.008
 7709SOL    HW124026   6.597   4.113   2.053
 7709SOL    HW224027   6.713   4.102   1.938
 7710SOL     OW24028   3.137   2.090   0.328
 7710SOL    HW124029   3.175   2.061   0.415
 7710SOL    HW224030   3.040   2.111   0.339
 7711SOL     OW24031   5.923   6.524   5.953
 7711SOL    HW124032   5.911   6.431   5.988
 7711SOL    HW224033   5.916   6.524   5.853
 7712SOL     OW24034   6.135   5.266   1.739
 7712SOL    HW124035   6.111   5.171   1.758
 7712SOL    HW224036   6.179   5.307   1.819
 7713SOL     OW24037   2.241   3.987   1.385
 7713SOL    HW124038   2.270   3.978   1.480
 7713SOL    HW224039   2.148   4.023   1.381
 7714SOL     OW24040   0.260   3.380   5.827
 7714SOL    HW124041   0.246   3.441   5.749
 7714SOL    HW224042   0.345   3.403   5.873
 7715SOL     OW24043   3.196   1.493   0.550
 7715SOL    HW124044   3.219   1.537   0.463
 7715SOL    HW224045   3.122   1.543   0.593
 7716SOL     OW24046   6.610   4.409   2.271
 7716SOL    HW124047   6.579   4.410   2.177
 7716SOL    HW224048   6.559   4.477   2.324
 7717SOL     OW24049   2.160   0.999   5.309
 7717SOL    HW124050   2.237   1.043   5.354
 7717SOL    HW224051   2.075   1.026   5.355
 7718SOL     OW24052   0.076   3.907   4.086
 7718SOL    HW124053   0.054   3.961   4.004
 7718SOL    HW224054   0.162   3.941   4.125
 7719SOL     OW24055   6.743   4.221   5.472
 7719SOL    HW124056   6.691   4.244   5.389
 7719SOL    HW224057   6.749   4.302   5.531
 7720SOL     OW24058   0.076   1.232   0.020
 7720SOL    HW124059   0.166   1.236   0.062
 7720SOL    HW224060   0.064   1.310   6.978
 7721SOL     OW24061   0.553   5.308   2.565
 7721SOL    HW124062   0.635   5.360   2.590
 7721SOL    HW224063   0.520   5.257   2.644
 7722SOL     OW24064   1.112   4.403   3.510
 7722SOL    HW124065   1.167   4.332   3.554
 7722SOL    HW224066   1.151   4.425   3.421
 7723SOL     OW24067   4.750   3.399   6.416
 7723SOL    HW124068   4.710   3.358   6.334
 7723SOL    HW224069   4.802   3.480   6.390
 7724SOL     OW24070   2.891   4.021   1.154
 7724SOL    HW124071   2.818   3.955   1.171
 7724SOL    HW224072   2.966   3.976   1.105
 7725SOL     OW24073   6.590   1.530   2.803
 7725SOL    HW124074   6.612   1.606   2.864
 7725SOL    HW224075   6.491   1.520   2.795
 7726SOL     OW24076   1.308   4.897   5.143
 7726SOL    HW124077   1.403   4.890   5.172
 7726SOL    HW224078   1.271   4.805   5.128
 7727SOL     OW24079   0.181   2.041   2.862
 7727SOL    HW124080   0.266   2.091   2.882
 7727SOL    HW224081   0.193   1.944   2.885
 7728SOL     OW24082   1.855   3.634   5.017
 7728SOL    HW124083   1.877   3.564   5.084
 7728SOL    HW224084   1.930   3.700   5.012
 7729SOL     OW24085   5.818   2.200   1.158
 7729SOL    HW124086   5.774   2.149   1.232
 7729SOL    HW224087   5.822   2.143   1.075
 7730SOL     OW24088   6.110   5.742   0.193
 7730SOL    HW124089   6.133   5.817   0.130
 7730SOL    HW224090   6.030   5.693   0.159
 7731SOL     OW24091   0.052   1.558   0.236
 7731SOL    HW124092   0.026   1.469   0.273
 7731SOL    HW224093   6.995   1.622   0.248
 7732SOL     OW24094   5.135   0.012   0.678
 7732SOL    HW124095   5.085   6.965   0.733
 7732SOL    HW224096   5.184   6.984   0.605
 7733SOL     OW24097   4.580   6.505   2.942
 7733SOL    HW124098   4.542   6.415   2.918
 7733SOL    HW224099   4.607   6.504   3.039
 7734SOL     OW24100   1.701   4.934   3.387
 7734SOL    HW124101   1.697   4.874   3.467
 7734SOL    HW224102   1.758   4.892   3.317
 7735SOL     OW24103   4.212   6.468   0.133
 7735SOL    HW124104   4.277   6.484   0.208
 7735SOL    HW224105   4.208   6.370   0.113
 7736SOL     OW24106   3.646   3.189   6.969
 7736SOL    HW124107   3.643   3.287   6.985
 7736SOL    HW224108   3.741   3.157   6.973
 7737SOL     OW24109   3.388   6.707   2.431
 7737SOL    HW124110   3.430   6.616   2.431
 7737SOL    HW224111   3.292   6.699   2.459
 7738SOL     OW24112   2.777   5.880   6.994
 7738SOL    HW124113   2.774   5.789   6.954
 7738SOL    HW224114   2.768   5.949   6.922
 7739SOL     OW24115   0.019   2.475   1.105
 7739SOL    HW124116   0.013   2.381   1.139
 7739SOL    HW224117   7.014   2.539   1.178
 7740SOL     OW24118   2.613   1.738   2.465
 7740SOL    HW124119   2.694   1.686   2.490
 7740SOL    HW224120   2.625   1.776   2.373
 7741SOL     OW24121   0.737   5.101   5.956
 7741SOL    HW124122   0.739   5.083   6.054
 7741SOL    HW224123   0.829   5.091   5.918
 7742SOL     OW24124   4.338   1.968   3.466
 7742SOL    HW124125   4.319   2.066   3.476
 7742SOL    HW224126   4.321   1.940   3.372
 7743SOL     OW24127   5.438   1.669   0.129
 7743SOL    HW124128   5.509   1.721   0.082
 7743SOL    HW224129   5.472   1.577   0.149
 7744SOL     OW24130   0.784   0.002   4.184
 7744SOL    HW124131   0.843   0.011   4.263
 7744SOL    HW224132   0.797   0.080   4.123
 7745SOL     OW24133   4.077   1.115   0.167
 7745SOL    HW124134   4.044   1.082   0.078
 7745SOL    HW224135   4.001   1.156   0.217
 7746SOL     OW24136   1.607   0.559   0.161
 7746SOL    HW124137   1.597   0.620   0.241
 7746SOL    HW224138   1.656   0.607   0.089
 7747SOL     OW24139   5.558   5.981   1.788
 7747SOL    HW124140   5.649   6.019   1.804
 7747SOL    HW224141   5.512   5.968   1.876
 7748SOL     OW24142   2.954   3.832   4.338
 7748SOL    HW124143   2.961   3.734   4.318
 7748SOL    HW224144   2.896   3.846   4.419
 7749SOL     OW24145   3.112   3.377   5.638
 7749SOL    HW124146   3.150   3.420   5.556
 7749SOL    HW224147   3.056   3.442   5.688
 7750SOL     OW24148   0.410   6.306   1.510
 7750SOL    HW124149   0.490   6.362   1.484
 7750SOL    HW224150   0.328   6.362   1.505
 7751SOL     OW24151   2.083   2.851   2.242
 7751SOL    HW124152   2.112   2.824   2.334
 7751SOL    HW224153   2.051   2.946   2.244
 7752SOL     OW24154   5.559   6.243   5.819
 7752SOL    HW124155   5.508   6.209   5.741
 7752SOL    HW224156   5.650   6.273   5.790
 7753SOL     OW24157   2.064   0.737   4.212
 7753SOL    HW124158   2.073   0.641   4.236
 7753SOL    HW224159   2.038   0.790   4.293
 7754SOL     OW24160   3.773   6.885   2.466
 7754SOL    HW124161   3.868   6.908   2.487
 7754SOL    HW224162   3.753   6.793   2.501
 7755SOL     OW24163   1.143   1.805   5.631
 7755SOL    HW124164   1.122   1.814   5.533
 7755SOL    HW224165   1.241   1.791   5.643
 7756SOL     OW24166   2.394   5.954   2.640
 7756SOL    HW124167   2.319   5.996   2.692
 7756SOL    HW224168   2.392   5.855   2.653
 7757SOL     OW24169   6.138   4.908   6.338
 7757SOL    HW124170   6.215   4.880   6.396
 7757SOL    HW224171   6.084   4.978   6.386
 7758SOL     OW24172   1.616   0.375   6.109
 7758SOL    HW124173   1.529   0.334   6.085
 7758SOL    HW224174   1.600   0.458   6.162
 7759SOL     OW24175   1.459   1.497   5.248
 7759SOL    HW124176   1.524   1.423   5.265
 7759SOL    HW224177   1.383   1.490   5.312
 7760SOL     OW24178   6.013   3.338   3.039
 7760SOL    HW124179   6.012   3.427   2.993
 7760SOL    HW224180   5.920   3.317   3.072
 7761SOL     OW24181   0.381   0.538   4.660
 7761SOL    HW124182   0.282   0.548   4.653
 7761SOL    HW224183   0.408   0.446   4.631
 7762SOL     OW24184   3.059   6.663   3.972
 7762SOL    HW124185   3.018   6.578   3.940
 7762SOL    HW224186   3.055   6.731   3.899
 7763SOL     OW24187   1.695   0.936   6.054
 7763SOL    HW124188   1.608   0.897   6.085
 7763SOL    HW224189   1.770   0.882   6.091
 7764SOL     OW24190   3.767   3.133   3.963
 7764SOL    HW124191   3.739   3.040   3.939
 7764SOL    HW224192   3.790   3.184   3.881
 7765SOL     OW24193   6.623   3.402   5.097
 7765SOL    HW124194   6.586   3.362   5.013
 7765SOL    HW224195   6.547   3.439   5.152
 7766SOL     OW24196   0.074   3.354   0.419
 7766SOL    HW124197   0.172   3.373   0.421
 7766SOL    HW224198   0.030   3.411   0.350
 7767SOL     OW24199   4.750   6.510   2.667
 7767SOL    HW124200   4.809   6.431   2.685
 7767SOL    HW224201   4.671   6.481   2.613
 7768SOL     OW24202   4.289   4.799   2.708
 7768SOL    HW124203   4.225   4.764   2.640
 7768SOL    HW224204   4.283   4.899   2.709
 7769SOL     OW24205   3.746   1.940   3.142
 7769SOL    HW124206   3.672   1.908   3.202
 7769SOL    HW224207   3.824   1.878   3.150
 7770SOL     OW24208   1.977   4.509   3.247
 7770SOL    HW124209   2.006   4.422   3.207
 7770SOL    HW224210   2.018   4.518   3.338
 7771SOL     OW24211   3.655   1.844   5.259
 7771SOL    HW124212   3.703   1.900   5.192
 7771SOL    HW224213   3.721   1.805   5.323
 7772SOL     OW24214   4.357   0.270   2.535
 7772SOL    HW124215   4.450   0.244   2.510
 7772SOL    HW224216   4.355   0.295   2.632
 7773SOL     OW24217   2.744   5.864   4.985
 7773SOL    HW124218   2.685   5.943   4.969
 7773SOL    HW224219   2.814   5.859   4.913
 7774SOL     OW24220   5.115   2.290   5.416
 7774SOL    HW124221   5.159   2.359   5.474
 7774SOL    HW224222   5.182   2.219   5.393
 7775SOL     OW24223   4.553   5.533   0.981
 7775SOL    HW124224   4.546   5.589   0.899
 7775SOL    HW224225   4.572   5.438   0.954
 7776SOL     OW24226   0.678   5.549   5.825
 7776SOL    HW124227   0.720   5.592   5.905
 7776SOL    HW224228   0.582   5.527   5.846
 7777SOL     OW24229   6.421   6.275   4.425
 7777SOL    HW124230   6.459   6.323   4.346
 7777SOL    HW224231   6.442   6.177   4.418
 7778SOL     OW24232   5.357   4.041   0.509
 7778SOL    HW124233   5.263   4.064   0.486
 7778SOL    HW224234   5.381   3.952   0.470
 7779SOL     OW24235   2.742   2.527   1.684
 7779SOL    HW124236   2.655   2.486   1.710
 7779SOL    HW224237   2.810   2.511   1.756
 7780SOL     OW24238   0.857   4.906   5.600
 7780SOL    HW124239   0.858   4.960   5.516
 7780SOL    HW224240   0.849   4.966   5.679
 7781SOL     OW24241   2.052   4.893   1.018
 7781SOL    HW124242   2.125   4.902   1.087
 7781SOL    HW224243   2.071   4.814   0.960
 7782SOL     OW24244   5.581   5.119   4.218
 7782SOL    HW124245   5.495   5.156   4.252
 7782SOL    HW224246   5.566   5.072   4.132
 7783SOL     OW24247   1.110   5.915   4.986
 7783SOL    HW124248   1.036   5.966   5.030
 7783SOL    HW224249   1.072   5.849   4.922
 7784SOL     OW24250   3.413   2.404   1.712
 7784SOL    HW124251   3.494   2.380   1.767
 7784SOL    HW224252   3.402   2.503   1.712
 7785SOL     OW24253   1.902   6.036   4.439
 7785SOL    HW124254   1.957   5.958   4.409
 7785SOL    HW224255   1.808   6.005   4.455
 7786SOL     OW24256   3.207   6.361   0.491
 7786SOL    HW124257   3.156   6.334   0.573
 7786SOL    HW224258   3.278   6.293   0.472
 7787SOL     OW24259   2.003   2.304   5.726
 7787SOL    HW124260   1.989   2.402   5.732
 7787SOL    HW224261   2.098   2.282   5.747
 7788SOL     OW24262   2.289   4.722   1.380
 7788SOL    HW124263   2.336   4.779   1.447
 7788SOL    HW224264   2.303   4.759   1.288
 7789SOL     OW24265   1.884   6.609   6.399
 7789SOL    HW124266   1.849   6.658   6.319
 7789SOL    HW224267   1.976   6.641   6.420
 7790SOL     OW24268   5.382   5.813   3.364
 7790SOL    HW124269   5.333   5.734   3.401
 7790SOL    HW224270   5.375   5.889   3.428
 7791SOL     OW24271   3.141   4.865   3.055
 7791SOL    HW124272   3.203   4.888   2.980
 7791SOL    HW224273   3.059   4.822   3.019
 7792SOL     OW24274   1.829   5.149   4.915
 7792SOL    HW124275   1.924   5.173   4.896
 7792SOL    HW224276   1.776   5.232   4.930
 7793SOL     OW24277   3.613   0.958   0.891
 7793SOL    HW124278   3.671   0.878   0.883
 7793SOL    HW224279   3.638   1.025   0.821
 7794SOL     OW24280   6.456   3.837   2.891
 7794SOL    HW124281   6.448   3.925   2.937
 7794SOL    HW224282   6.514   3.777   2.946
 7795SOL     OW24283   1.826   4.140   5.760
 7795SOL    HW124284   1.886   4.089   5.697
 7795SOL    HW224285   1.880   4.208   5.810
 7796SOL     OW24286   4.064   3.158   3.845
 7796SOL    HW124287   4.052   3.177   3.748
 7796SOL    HW224288   4.119   3.074   3.856
 7797SOL     OW24289   1.632   0.466   1.820
 7797SOL    HW124290   1.697   0.391   1.813
 7797SOL    HW224291   1.678   0.545   1.861
 7798SOL     OW24292   1.801   3.584   4.156
 7798SOL    HW124293   1.814   3.543   4.246
 7798SOL    HW224294   1.790   3.683   4.166
 7799SOL     OW24295   2.200   6.134   2.329
 7799SOL    HW124296   2.111   6.096   2.357
 7799SOL    HW224297   2.210   6.226   2.368
 7800SOL     OW24298   1.375   5.690   1.367
 7800SOL    HW124299   1.370   5.676   1.466
 7800SOL    HW224300   1.289   5.729   1.335
 7801SOL     OW24301   2.229   1.740   1.939
 7801SOL    HW124302   2.130   1.736   1.925
 7801SOL    HW224303   2.249   1.797   2.019
 7802SOL     OW24304   5.470   2.984   1.002
 7802SOL    HW124305   5.544   2.917   0.999
 7802SOL    HW224306   5.508   3.076   0.991
 7803SOL     OW24307   4.324   2.337   5.894
 7803SOL    HW124308   4.335   2.404   5.820
 7803SOL    HW224309   4.241   2.284   5.877
 7804SOL     OW24310   4.492   2.052   4.957
 7804SOL    HW124311   4.572   2.101   4.991
 7804SOL    HW224312   4.416   2.062   5.022
 7805SOL     OW24313   5.452   2.781   1.490
 7805SOL    HW124314   5.395   2.845   1.438
 7805SOL    HW224315   5.413   2.770   1.582
 7806SOL     OW24316   6.353   1.959   6.687
 7806SOL    HW124317   6.396   1.879   6.730
 7806SOL    HW224318   6.356   1.949   6.588
 7807SOL     OW24319   1.087   4.870   6.063
 7807SOL    HW124320   1.180   4.834   6.065
 7807SOL    HW224321   1.062   4.896   5.970
 7808SOL     OW24322   6.320   3.394   4.841
 7808SOL    HW124323   6.259   3.407   4.919
 7808SOL    HW224324   6.324   3.297   4.817
 7809SOL     OW24325   3.730   4.923   4.447
 7809SOL    HW124326   3.655   4.887   4.502
 7809SOL    HW224327   3.806   4.950   4.507
 7810SOL     OW24328   3.492   6.859   4.508
 7810SOL    HW124329   3.545   6.944   4.507
 7810SOL    HW224330   3.415   6.868   4.571
 7811SOL     OW24331   1.411   5.862   2.149
 7811SOL    HW124332   1.471   5.901   2.219
 7811SOL    HW224333   1.465   5.835   2.070
 7812SOL     OW24334   0.299   2.212   4.310
 7812SOL    HW124335   0.362   2.156   4.256
 7812SOL    HW224336   0.225   2.244   4.251
 7813SOL     OW24337   4.076   2.173   0.308
 7813SOL    HW124338   4.033   2.085   0.327
 7813SOL    HW224339   4.046   2.241   0.375
 7814SOL     OW24340   0.146   3.788   3.628
 7814SOL    HW124341   0.091   3.741   3.697
 7814SOL    HW224342   0.219   3.727   3.596
 7815SOL     OW24343   6.086   0.971   4.655
 7815SOL    HW124344   6.033   0.889   4.679
 7815SOL    HW224345   6.044   1.051   4.696
 7816SOL     OW24346   1.659   2.207   6.348
 7816SOL    HW124347   1.613   2.243   6.267
 7816SOL    HW224348   1.660   2.277   6.419
 7817SOL     OW24349   4.673   4.256   4.093
 7817SOL    HW124350   4.724   4.173   4.070
 7817SOL    HW224351   4.709   4.295   4.178
 7818SOL     OW24352   4.694   0.326   2.132
 7818SOL    HW124353   4.708   0.344   2.229
 7818SOL    HW224354   4.693   0.227   2.116
 7819SOL     OW24355   0.152   4.240   3.154
 7819SOL    HW124356   0.172   4.312   3.221
 7819SOL    HW224357   0.055   4.241   3.131
 7820SOL     OW24358   1.430   0.994   5.494
 7820SOL    HW124359   1.510   0.948   5.533
 7820SOL    HW224360   1.394   1.060   5.559
 7821SOL     OW24361   5.742   5.445   6.678
 7821SOL    HW124362   5.779   5.438   6.585
 7821SOL    HW224363   5.664   5.507   6.678
 7822SOL     OW24364   0.752   1.330   6.707
 7822SOL    HW124365   0.786   1.243   6.742
 7822SOL    HW224366   0.825   1.378   6.658
 7823SOL     OW24367   2.872   3.235   5.129
 7823SOL    HW124368   2.825   3.193   5.206
 7823SOL    HW224369   2.890   3.331   5.150
 7824SOL     OW24370   5.774   1.092   3.936
 7824SOL    HW124371   5.759   1.102   3.838
 7824SOL    HW224372   5.801   0.998   3.957
 7825SOL     OW24373   1.167   3.352   0.959
 7825SOL    HW124374   1.256   3.397   0.964
 7825SOL    HW224375   1.176   3.257   0.990
 7826SOL     OW24376   5.728   1.436   0.393
 7826SOL    HW124377   5.786   1.511   0.424
 7826SOL    HW224378   5.779   1.350   0.396
 7827SOL     OW24379   3.103   4.824   1.487
 7827SOL    HW124380   3.173   4.895   1.492
 7827SOL    HW224381   3.060   4.827   1.397
 7828SOL     OW24382   0.759   4.797   0.166
 7828SOL    HW124383   0.726   4.829   0.255
 7828SOL    HW224384   0.715   4.849   0.093
 7829SOL     OW24385   2.047   2.917   0.121
 7829SOL    HW124386   2.060   2.963   0.209
 7829SOL    HW224387   2.136   2.891   0.083
 7830SOL     OW24388   3.508   3.829   5.645
 7830SOL    HW124389   3.506   3.732   5.622
 7830SOL    HW224390   3.465   3.882   5.572
 7831SOL     OW24391   1.415   5.779   0.907
 7831SOL    HW124392   1.319   5.783   0.936
 7831SOL    HW224393   1.471   5.829   0.973
 7832SOL     OW24394   4.513   1.280   4.168
 7832SOL    HW124395   4.526   1.379   4.162
 7832SOL    HW224396   4.571   1.243   4.240
 7833SOL     OW24397   0.431   1.083   6.751
 7833SOL    HW124398   0.420   1.124   6.660
 7833SOL    HW224399   0.345   1.041   6.780
 7834SOL     OW24400   6.443   1.113   3.140
 7834SOL    HW124401   6.423   1.105   3.237
 7834SOL    HW224402   6.421   1.027   3.093
 7835SOL     OW24403   2.597   1.679   5.288
 7835SOL    HW124404   2.617   1.679   5.190
 7835SOL    HW224405   2.637   1.761   5.330
 7836SOL     OW24406   3.416   2.780   5.159
 7836SOL    HW124407   3.500   2.759   5.209
 7836SOL    HW224408   3.338   2.739   5.207
 7837SOL     OW24409   6.382   6.048   0.963
 7837SOL    HW124410   6.412   5.972   0.906
 7837SOL    HW224411   6.462   6.097   0.999
 7838SOL     OW24412   4.483   6.731   0.019
 7838SOL    HW124413   4.442   6.778   6.960
 7838SOL    HW224414   4.524   6.798   0.080
 7839SOL     OW24415   6.331   4.252   5.176
 7839SOL    HW124416   6.268   4.194   5.124
 7839SOL    HW224417   6.279   4.305   5.243
 7840SOL     OW24418   5.854   2.718   4.071
 7840SOL    HW124419   5.793   2.783   4.025
 7840SOL    HW224420   5.931   2.768   4.110
 7841SOL     OW24421   4.242   1.734   6.612
 7841SOL    HW124422   4.175   1.712   6.682
 7841SOL    HW224423   4.283   1.649   6.577
 7842SOL     OW24424   1.552   2.532   2.663
 7842SOL    HW124425   1.606   2.480   2.730
 7842SOL    HW224426   1.485   2.471   2.620
 7843SOL     OW24427   5.482   4.895   2.399
 7843SOL    HW124428   5.411   4.874   2.466
 7843SOL    HW224429   5.448   4.966   2.336
 7844SOL     OW24430   4.083   6.785   2.683
 7844SOL    HW124431   4.086   6.880   2.713
 7844SOL    HW224432   4.069   6.725   2.763
 7845SOL     OW24433   5.537   1.950   4.278
 7845SOL    HW124434   5.504   1.931   4.371
 7845SOL    HW224435   5.637   1.961   4.280
 7846SOL     OW24436   0.816   1.209   3.141
 7846SOL    HW124437   0.779   1.297   3.111
 7846SOL    HW224438   0.857   1.219   3.231
 7847SOL     OW24439   6.673   1.553   3.412
 7847SOL    HW124440   6.673   1.492   3.333
 7847SOL    HW224441   6.589   1.607   3.411
 7848SOL     OW24442   3.256   3.200   0.655
 7848SOL    HW124443   3.279   3.112   0.613
 7848SOL    HW224444   3.159   3.202   0.678
 7849SOL     OW24445   5.446   4.026   3.259
 7849SOL    HW124446   5.486   4.085   3.189
 7849SOL    HW224447   5.372   4.075   3.305
 7850SOL     OW24448   0.625   1.754   5.260
 7850SOL    HW124449   0.586   1.671   5.220
 7850SOL    HW224450   0.724   1.754   5.246
 7851SOL     OW24451   6.455   0.883   2.007
 7851SOL    HW124452   6.537   0.859   1.955
 7851SOL    HW224453   6.478   0.950   2.077
 7852SOL     OW24454   2.564   1.300   6.244
 7852SOL    HW124455   2.523   1.368   6.183
 7852SOL    HW224456   2.626   1.241   6.191
 7853SOL     OW24457   4.425   1.998   1.830
 7853SOL    HW124458   4.335   2.021   1.866
 7853SOL    HW224459   4.484   2.078   1.832
 7854SOL     OW24460   3.375   3.544   0.201
 7854SOL    HW124461   3.308   3.617   0.212
 7854SOL    HW224462   3.366   3.503   0.111
 7855SOL     OW24463   3.528   5.861   5.497
 7855SOL    HW124464   3.588   5.940   5.513
 7855SOL    HW224465   3.577   5.778   5.523
 7856SOL     OW24466   6.160   4.412   5.277
 7856SOL    HW124467   6.213   4.434   5.359
 7856SOL    HW224468   6.063   4.404   5.302
 7857SOL     OW24469   6.201   2.290   5.555
 7857SOL    HW124470   6.136   2.270   5.628
 7857SOL    HW224471   6.152   2.322   5.474
 7858SOL     OW24472   5.063   5.441   3.359
 7858SOL    HW124473   5.040   5.371   3.427
 7858SOL    HW224474   4.995   5.438   3.285
 7859SOL     OW24475   5.600   2.921   6.465
 7859SOL    HW124476   5.615   2.993   6.533
 7859SOL    HW224477   5.679   2.916   6.404
 7860SOL     OW24478   4.331   0.401   2.822
 7860SOL    HW124479   4.393   0.441   2.889
 7860SOL    HW224480   4.270   0.337   2.868
 7861SOL     OW24481   3.902   5.524   1.802
 7861SOL    HW124482   3.971   5.587   1.838
 7861SOL    HW224483   3.874   5.555   1.711
 7862SOL     OW24484   3.204   4.217   1.687
 7862SOL    HW124485   3.155   4.190   1.770
 7862SOL    HW224486   3.245   4.136   1.645
 7863SOL     OW24487   0.538   5.647   4.018
 7863SOL    HW124488   0.567   5.557   3.985
 7863SOL    HW224489   0.438   5.651   4.017
 7864SOL     OW24490   0.972   5.425   5.446
 7864SOL    HW124491   1.007   5.464   5.361
 7864SOL    HW224492   0.881   5.462   5.464
 7865SOL     OW24493   5.619   0.097   4.218
 7865SOL    HW124494   5.615   0.003   4.183
 7865SOL    HW224495   5.582   0.100   4.311
 7866SOL     OW24496   1.326   1.813   6.430
 7866SOL    HW124497   1.298   1.857   6.515
 7866SOL    HW224498   1.394   1.870   6.384
 7867SOL     OW24499   4.920   6.909   2.540
 7867SOL    HW124500   4.932   6.955   2.628
 7867SOL    HW224501   5.009   6.883   2.503
 7868SOL     OW24502   5.392   6.803   1.867
 7868SOL    HW124503   5.362   6.718   1.908
 7868SOL    HW224504   5.345   6.880   1.911
 7869SOL     OW24505   5.846   4.099   0.076
 7869SOL    HW124506   5.881   4.038   0.005
 7869SOL    HW224507   5.909   4.099   0.153
 7870SOL     OW24508   3.792   5.251   4.731
 7870SOL    HW124509   3.822   5.167   4.686
 7870SOL    HW224510   3.692   5.255   4.730
 7871SOL     OW24511   5.037   3.148   2.330
 7871SOL    HW124512   4.969   3.084   2.365
 7871SOL    HW224513   5.110   3.159   2.398
 7872SOL     OW24514   2.417   4.336   2.952
 7872SOL    HW124515   2.389   4.365   3.044
 7872SOL    HW224516   2.359   4.260   2.923
 7873SOL     OW24517   5.983   0.474   6.154
 7873SOL    HW124518   6.004   0.564   6.117
 7873SOL    HW224519   5.932   0.421   6.086
 7874SOL     OW24520   5.421   1.937   0.706
 7874SOL    HW124521   5.462   1.961   0.618
 7874SOL    HW224522   5.423   2.016   0.767
 7875SOL     OW24523   5.710   1.997   6.696
 7875SOL    HW124524   5.663   2.043   6.771
 7875SOL    HW224525   5.646   1.934   6.651
 7876SOL     OW24526   0.308   6.340   4.970
 7876SOL    HW124527   0.365   6.418   4.995
 7876SOL    HW224528   0.218   6.373   4.941
 7877SOL     OW24529   0.917   2.484   2.698
 7877SOL    HW124530   0.846   2.554   2.697
 7877SOL    HW224531   0.892   2.411   2.761
 7878SOL     OW24532   5.612   5.474   4.078
 7878SOL    HW124533   5.544   5.522   4.134
 7878SOL    HW224534   5.679   5.430   4.138
 7879SOL     OW24535   4.297   5.767   3.834
 7879SOL    HW124536   4.242   5.803   3.909
 7879SOL    HW224537   4.381   5.727   3.869
 7880SOL     OW24538   2.070   5.037   1.764
 7880SOL    HW124539   2.079   5.024   1.665
 7880SOL    HW224540   2.115   5.122   1.791
 7881SOL     OW24541   5.457   4.114   5.133
 7881SOL    HW124542   5.436   4.102   5.230
 7881SOL    HW224543   5.439   4.209   5.107
 7882SOL     OW24544   0.884   3.080   3.072
 7882SOL    HW124545   0.823   3.107   2.997
 7882SOL    HW224546   0.955   3.149   3.084
 7883SOL     OW24547   1.198   0.177   0.640
 7883SOL    HW124548   1.254   0.106   0.597
 7883SOL    HW224549   1.111   0.137   0.669
 7884SOL     OW24550   2.201   4.256   3.675
 7884SOL    HW124551   2.212   4.160   3.646
 7884SOL    HW224552   2.107   4.284   3.660
 7885SOL     OW24553   6.478   5.558   1.395
 7885SOL    HW124554   6.465   5.639   1.452
 7885SOL    HW224555   6.513   5.483   1.451
 7886SOL     OW24556   3.328   5.559   0.772
 7886SOL    HW124557   3.291   5.649   0.797
 7886SOL    HW224558   3.421   5.570   0.736
 7887SOL     OW24559   3.275   2.580   5.282
 7887SOL    HW124560   3.256   2.491   5.239
 7887SOL    HW224561   3.188   2.624   5.307
 7888SOL     OW24562   6.709   6.689   5.356
 7888SOL    HW124563   6.704   6.767   5.294
 7888SOL    HW224564   6.630   6.689   5.417
 7889SOL     OW24565   1.031   4.468   0.717
 7889SOL    HW124566   0.979   4.553   0.708
 7889SOL    HW224567   1.001   4.420   0.800
 7890SOL     OW24568   0.299   3.006   3.613
 7890SOL    HW124569   0.352   2.923   3.594
 7890SOL    HW224570   0.236   3.023   3.538
 7891SOL     OW24571   1.951   4.278   4.467
 7891SOL    HW124572   1.861   4.319   4.477
 7891SOL    HW224573   2.019   4.350   4.453
 7892SOL     OW24574   2.059   1.832   4.076
 7892SOL    HW124575   2.038   1.759   4.011
 7892SOL    HW224576   2.155   1.826   4.104
 7893SOL     OW24577   6.126   6.084   1.730
 7893SOL    HW124578   6.071   6.167   1.734
 7893SOL    HW224579   6.221   6.108   1.711
 7894SOL     OW24580   3.919   6.474   0.929
 7894SOL    HW124581   3.916   6.458   0.830
 7894SOL    HW224582   3.931   6.387   0.976
 7895SOL     OW24583   5.563   0.357   4.970
 7895SOL    HW124584   5.621   0.276   4.977
 7895SOL    HW224585   5.473   0.330   4.936
 7896SOL     OW24586   3.990   3.431   1.039
 7896SOL    HW124587   3.945   3.415   0.952
 7896SOL    HW224588   4.089   3.440   1.024
 7897SOL     OW24589   3.512   2.856   0.830
 7897SOL    HW124590   3.457   2.802   0.766
 7897SOL    HW224591   3.562   2.926   0.779
 7898SOL     OW24592   3.863   1.044   3.625
 7898SOL    HW124593   3.773   1.014   3.592
 7898SOL    HW224594   3.932   0.978   3.596
 7899SOL     OW24595   5.827   0.334   0.830
 7899SOL    HW124596   5.792   0.425   0.850
 7899SOL    HW224597   5.750   0.269   0.826
 7900SOL     OW24598   1.807   5.387   1.896
 7900SOL    HW124599   1.802   5.354   1.801
 7900SOL    HW224600   1.719   5.372   1.941
 7901SOL     OW24601   4.286   0.867   6.340
 7901SOL    HW124602   4.257   0.782   6.296
 7901SOL    HW224603   4.330   0.925   6.272
 7902SOL     OW24604   6.218   6.936   1.232
 7902SOL    HW124605   6.146   6.909   1.167
 7902SOL    HW224606   6.176   6.969   1.316
 7903SOL     OW24607   4.585   1.570   2.074
 7903SOL    HW124608   4.556   1.643   2.135
 7903SOL    HW224609   4.608   1.608   1.984
 7904SOL     OW24610   5.449   6.711   2.883
 7904SOL    HW124611   5.485   6.723   2.976
 7904SOL    HW224612   5.459   6.615   2.856
 7905SOL     OW24613   5.492   1.968   0.402
 7905SOL    HW124614   5.408   1.968   0.347
 7905SOL    HW224615   5.557   2.032   0.362
 7906SOL     OW24616   0.318   5.190   0.715
 7906SOL    HW124617   0.329   5.123   0.641
 7906SOL    HW224618   0.272   5.271   0.679
 7907SOL     OW24619   5.205   2.230   3.354
 7907SOL    HW124620   5.247   2.156   3.301
 7907SOL    HW224621   5.266   2.256   3.428
 7908SOL     OW24622   1.589   0.795   5.644
 7908SOL    HW124623   1.571   0.697   5.653
 7908SOL    HW224624   1.543   0.844   5.718
 7909SOL     OW24625   4.764   4.712   4.445
 7909SOL    HW124626   4.721   4.798   4.417
 7909SOL    HW224627   4.825   4.729   4.523
 7910SOL     OW24628   3.233   3.594   5.981
 7910SOL    HW124629   3.220   3.560   6.074
 7910SOL    HW224630   3.330   3.616   5.967
 7911SOL     OW24631   1.045   4.036   0.617
 7911SOL    HW124632   0.949   4.009   0.609
 7911SOL    HW224633   1.092   4.019   0.531
 7912SOL     OW24634   6.479   4.671   0.649
 7912SOL    HW124635   6.534   4.624   0.580
 7912SOL    HW224636   6.425   4.743   0.605
 7913SOL     OW24637   1.187   4.689   2.029
 7913SOL    HW124638   1.094   4.698   2.064
 7913SOL    HW224639   1.210   4.592   2.021
 7914SOL     OW24640   0.570   4.569   0.144
 7914SOL    HW124641   0.476   4.537   0.155
 7914SOL    HW224642   0.583   4.651   0.200
 7915SOL     OW24643   4.999   2.072   1.985
 7915SOL    HW124644   4.960   2.163   2.004
 7915SOL    HW224645   5.068   2.080   1.914
 7916SOL     OW24646   0.451   4.835   5.071
 7916SOL    HW124647   0.543   4.800   5.058
 7916SOL    HW224648   0.451   4.935   5.058
 7917SOL     OW24649   3.296   3.262   4.680
 7917SOL    HW124650   3.355   3.210   4.741
 7917SOL    HW224651   3.232   3.201   4.634
 7918SOL     OW24652   0.545   0.985   5.058
 7918SOL    HW124653   0.626   0.982   5.116
 7918SOL    HW224654   0.472   0.929   5.098
 7919SOL     OW24655   2.035   4.262   3.154
 7919SOL    HW124656   2.000   4.202   3.081
 7919SOL    HW224657   2.030   4.214   3.242
 7920SOL     OW24658   0.470   0.107   0.730
 7920SOL    HW124659   0.462   0.014   0.694
 7920SOL    HW224660   0.438   0.172   0.662
 7921SOL     OW24661   5.493   6.018   2.076
 7921SOL    HW124662   5.474   6.105   2.122
 7921SOL    HW224663   5.579   5.981   2.110
 7922SOL     OW24664   0.137   6.264   0.825
 7922SOL    HW124665   0.206   6.299   0.889
 7922SOL    HW224666   0.097   6.340   0.775
 7923SOL     OW24667   3.411   0.561   0.292
 7923SOL    HW124668   3.503   0.601   0.294
 7923SOL    HW224669   3.383   0.547   0.197
 7924SOL     OW24670   4.978   6.933   1.906
 7924SOL    HW124671   4.930   6.868   1.966
 7924SOL    HW224672   4.917   7.008   1.882
 7925SOL     OW24673   0.867   0.956   6.182
 7925SOL    HW124674   0.929   1.032   6.161
 7925SOL    HW224675   0.921   0.874   6.204
 7926SOL     OW24676   4.558   1.425   5.544
 7926SOL    HW124677   4.572   1.400   5.640
 7926SOL    HW224678   4.647   1.441   5.501
 7927SOL     OW24679   4.046   5.611   3.051
 7927SOL    HW124680   3.947   5.621   3.058
 7927SOL    HW224681   4.084   5.589   3.142
 7928SOL     OW24682   1.357   1.394   4.929
 7928SOL    HW124683   1.305   1.447   4.863
 7928SOL    HW224684   1.415   1.454   4.984
 7929SOL     OW24685   4.572   4.265   5.846
 7929SOL    HW124686   4.549   4.235   5.939
 7929SOL    HW224687   4.499   4.237   5.784
 7930SOL     OW24688   4.291   5.560   4.958
 7930SOL    HW124689   4.334   5.648   4.934
 7930SOL    HW224690   4.360   5.497   4.991
 7931SOL     OW24691   3.455   2.999   6.994
 7931SOL    HW124692   3.519   3.075   6.981
 7931SOL    HW224693   3.493   2.934   0.040
 7932SOL     OW24694   1.054   6.499   0.093
 7932SOL    HW124695   1.018   6.484   0.001
 7932SOL    HW224696   1.084   6.412   0.131
 7933SOL     OW24697   0.315   5.815   6.005
 7933SOL    HW124698   0.260   5.751   5.952
 7933SOL    HW224699   0.257   5.888   6.041
 7934SOL     OW24700   1.598   4.701   6.819
 7934SOL    HW124701   1.675   4.737   6.767
 7934SOL    HW224702   1.519   4.688   6.758
 7935SOL     OW24703   5.666   6.460   1.139
 7935SOL    HW124704   5.732   6.533   1.123
 7935SOL    HW224705   5.667   6.397   1.061
 7936SOL     OW24706   3.840   5.934   2.613
 7936SOL    HW124707   3.793   5.963   2.529
 7936SOL    HW224708   3.866   5.838   2.605
 7937SOL     OW24709   6.498   6.557   3.609
 7937SOL    HW124710   6.405   6.549   3.575
 7937SOL    HW224711   6.545   6.469   3.600
 7938SOL     OW24712   6.761   5.561   3.598
 7938SOL    HW124713   6.677   5.615   3.607
 7938SOL    HW224714   6.744   5.468   3.629
 7939SOL     OW24715   1.490   2.635   4.426
 7939SOL    HW124716   1.564   2.621   4.492
 7939SOL    HW224717   1.434   2.552   4.421
 7940SOL     OW24718   1.945   3.110   1.597
 7940SOL    HW124719   1.861   3.136   1.550
 7940SOL    HW224720   2.008   3.188   1.598
 7941SOL     OW24721   5.730   0.679   1.877
 7941SOL    HW124722   5.810   0.637   1.920
 7941SOL    HW224723   5.648   0.626   1.901
 7942SOL     OW24724   6.679   5.808   2.632
 7942SOL    HW124725   6.746   5.881   2.643
 7942SOL    HW224726   6.726   5.720   2.625
 7943SOL     OW24727   5.992   3.480   6.661
 7943SOL    HW124728   5.983   3.551   6.730
 7943SOL    HW224729   5.921   3.491   6.591
 7944SOL     OW24730   0.588   2.494   1.123
 7944SOL    HW124731   0.678   2.459   1.096
 7944SOL    HW224732   0.527   2.417   1.145
 7945SOL     OW24733   6.300   5.268   1.246
 7945SOL    HW124734   6.261   5.360   1.240
 7945SOL    HW224735   6.307   5.241   1.342
 7946SOL     OW24736   2.800   0.685   6.303
 7946SOL    HW124737   2.777   0.589   6.317
 7946SOL    HW224738   2.718   0.735   6.275
 7947SOL     OW24739   4.016   1.823   6.272
 7947SOL    HW124740   3.947   1.882   6.230
 7947SOL    HW224741   4.065   1.875   6.343
 7948SOL     OW24742   1.186   0.153   1.146
 7948SOL    HW124743   1.209   0.058   1.129
 7948SOL    HW224744   1.244   0.212   1.090
 7949SOL     OW24745   4.282   4.773   4.868
 7949SOL    HW124746   4.279   4.704   4.941
 7949SOL    HW224747   4.367   4.763   4.816
 7950SOL     OW24748   4.712   5.318   4.176
 7950SOL    HW124749   4.685   5.353   4.265
 7950SOL    HW224750   4.772   5.239   4.188
 7951SOL     OW24751   2.145   4.159   2.084
 7951SOL    HW124752   2.196   4.164   1.998
 7951SOL    HW224753   2.049   4.183   2.067
 7952SOL     OW24754   0.162   3.602   0.061
 7952SOL    HW124755   0.090   3.572   7.017
 7952SOL    HW224756   0.248   3.558   0.035
 7953SOL     OW24757   3.059   2.177   3.698
 7953SOL    HW124758   3.090   2.107   3.763
 7953SOL    HW224759   2.987   2.232   3.740
 7954SOL     OW24760   3.354   4.460   6.833
 7954SOL    HW124761   3.266   4.484   6.875
 7954SOL    HW224762   3.339   4.390   6.763
 7955SOL     OW24763   1.512   0.297   6.768
 7955SOL    HW124764   1.605   0.303   6.804
 7955SOL    HW224765   1.456   0.369   6.809
 7956SOL     OW24766   3.748   6.634   2.556
 7956SOL    HW124767   3.782   6.543   2.580
 7956SOL    HW224768   3.681   6.663   2.625
 7957SOL     OW24769   1.170   0.829   1.267
 7957SOL    HW124770   1.187   0.835   1.169
 7957SOL    HW224771   1.228   0.895   1.315
 7958SOL     OW24772   3.838   5.147   5.023
 7958SOL    HW124773   3.790   5.232   5.000
 7958SOL    HW224774   3.925   5.143   4.974
 7959SOL     OW24775   4.602   5.885   0.419
 7959SOL    HW124776   4.676   5.952   0.409
 7959SOL    HW224777   4.615   5.812   0.353
 7960SOL     OW24778   3.012   1.420   6.208
 7960SOL    HW124779   3.029   1.373   6.121
 7960SOL    HW224780   2.978   1.353   6.274
 7961SOL     OW24781   6.374   1.362   0.694
 7961SOL    HW124782   6.383   1.433   0.764
 7961SOL    HW224783   6.374   1.272   0.738
 7962SOL     OW24784   0.996   0.704   6.509
 7962SOL    HW124785   0.916   0.736   6.560
 7962SOL    HW224786   1.066   0.673   6.572
 7963SOL     OW24787   6.551   6.169   4.019
 7963SOL    HW124788   6.472   6.141   3.964
 7963SOL    HW224789   6.528   6.250   4.072
 7964SOL     OW24790   0.340   4.555   2.436
 7964SOL    HW124791   0.277   4.498   2.489
 7964SOL    HW224792   0.407   4.497   2.390
 7965SOL     OW24793   4.309   2.785   5.860
 7965SOL    HW124794   4.246   2.844   5.909
 7965SOL    HW224795   4.394   2.777   5.912
 7966SOL     OW24796   1.670   2.391   5.763
 7966SOL    HW124797   1.688   2.327   5.688
 7966SOL    HW224798   1.756   2.429   5.796
 7967SOL     OW24799   2.955   6.593   3.015
 7967SOL    HW124800   2.932   6.528   2.943
 7967SOL    HW224801   3.036   6.646   2.988
 7968SOL     OW24802   1.547   2.980   3.587
 7968SOL    HW124803   1.525   2.917   3.513
 7968SOL    HW224804   1.602   2.934   3.656
 7969SOL     OW24805   3.963   6.099   0.063
 7969SOL    HW124806   3.943   6.182   0.115
 7969SOL    HW224807   3.904   6.096   7.000
 7970SOL     OW24808   6.387   2.988   2.799
 7970SOL    HW124809   6.402   2.959   2.705
 7970SOL    HW224810   6.332   3.072   2.800
 7971SOL     OW24811   3.412   1.997   0.340
 7971SOL    HW124812   3.414   2.092   0.309
 7971SOL    HW224813   3.382   1.994   0.435
 7972SOL     OW24814   2.327   2.860   0.154
 7972SOL    HW124815   2.373   2.890   0.070
 7972SOL    HW224816   2.354   2.920   0.230
 7973SOL     OW24817   4.362   4.760   4.356
 7973SOL    HW124818   4.302   4.772   4.277
 7973SOL    HW224819   4.308   4.766   4.440
 7974SOL     OW24820   6.034   0.834   5.431
 7974SOL    HW124821   5.968   0.898   5.393
 7974SOL    HW224822   6.038   0.752   5.374
 7975SOL     OW24823   6.390   1.622   2.042
 7975SOL    HW124824   6.430   1.659   1.958
 7975SOL    HW224825   6.381   1.695   2.109
 7976SOL     OW24826   0.320   0.260   6.119
 7976SOL    HW124827   0.253   0.220   6.182
 7976SOL    HW224828   0.347   0.192   6.052
 7977SOL     OW24829   4.483   6.092   2.549
 7977SOL    HW124830   4.394   6.088   2.504
 7977SOL    HW224831   4.488   6.022   2.620
 7978SOL     OW24832   5.347   3.762   6.537
 7978SOL    HW124833   5.364   3.856   6.567
 7978SOL    HW224834   5.380   3.751   6.443
 7979SOL     OW24835   4.294   5.906   5.117
 7979SOL    HW124836   4.203   5.872   5.138
 7979SOL    HW224837   4.324   5.869   5.029
 7980SOL     OW24838   2.953   5.701   0.137
 7980SOL    HW124839   2.900   5.621   0.166
 7980SOL    HW224840   2.892   5.770   0.099
 7981SOL     OW24841   0.518   5.203   0.931
 7981SOL    HW124842   0.464   5.176   0.851
 7981SOL    HW224843   0.508   5.301   0.947
 7982SOL     OW24844   1.154   1.375   6.775
 7982SOL    HW124845   1.125   1.460   6.730
 7982SOL    HW224846   1.189   1.395   6.866
 7983SOL     OW24847   5.865   2.256   1.661
 7983SOL    HW124848   5.822   2.167   1.673
 7983SOL    HW224849   5.878   2.275   1.564
 7984SOL     OW24850   1.406   1.228   0.510
 7984SOL    HW124851   1.465   1.148   0.525
 7984SOL    HW224852   1.344   1.239   0.587
 7985SOL     OW24853   2.955   1.197   4.158
 7985SOL    HW124854   2.887   1.126   4.180
 7985SOL    HW224855   3.018   1.207   4.235
 7986SOL     OW24856   3.072   0.985   6.290
 7986SOL    HW124857   3.076   0.970   6.389
 7986SOL    HW224858   3.145   1.048   6.263
 7987SOL     OW24859   1.500   2.720   6.034
 7987SOL    HW124860   1.445   2.798   6.004
 7987SOL    HW224861   1.511   2.656   5.957
 7988SOL     OW24862   0.589   2.554   4.101
 7988SOL    HW124863   0.646   2.636   4.112
 7988SOL    HW224864   0.492   2.581   4.097
 7989SOL     OW24865   3.565   2.462   6.029
 7989SOL    HW124866   3.621   2.428   6.105
 7989SOL    HW224867   3.623   2.476   5.949
 7990SOL     OW24868   0.567   3.619   4.685
 7990SOL    HW124869   0.530   3.665   4.766
 7990SOL    HW224870   0.602   3.529   4.711
 7991SOL     OW24871   5.854   6.741   3.283
 7991SOL    HW124872   5.876   6.826   3.236
 7991SOL    HW224873   5.923   6.723   3.354
 7992SOL     OW24874   1.677   0.439   1.043
 7992SOL    HW124875   1.645   0.391   0.961
 7992SOL    HW224876   1.598   0.474   1.093
 7993SOL     OW24877   0.804   0.140   0.462
 7993SOL    HW124878   0.855   0.121   0.377
 7993SOL    HW224879   0.742   0.216   0.446
 7994SOL     OW24880   4.153   6.893   3.555
 7994SOL    HW124881   4.059   6.916   3.530
 7994SOL    HW224882   4.157   6.872   3.653
 7995SOL     OW24883   4.643   6.005   3.748
 7995SOL    HW124884   4.696   6.087   3.727
 7995SOL    HW224885   4.556   6.031   3.790
 7996SOL     OW24886   2.730   6.703   4.535
 7996SOL    HW124887   2.701   6.722   4.629
 7996SOL    HW224888   2.690   6.770   4.473
 7997SOL     OW24889   6.961   1.307   1.230
 7997SOL    HW124890   0.021   1.344   1.278
 7997SOL    HW224891   6.974   1.210   1.213
 7998SOL     OW24892   2.782   6.382   1.186
 7998SOL    HW124893   2.749   6.288   1.187
 7998SOL    HW224894   2.741   6.431   1.109
 7999SOL     OW24895   0.670   7.010   6.495
 7999SOL    HW124896   0.719   6.931   6.458
 7999SOL    HW224897   0.728   0.038   6.561
 8000SOL     OW24898   4.867   0.122   6.798
 8000SOL    HW124899   4.872   0.098   6.701
 8000SOL    HW224900   4.929   0.064   6.850
 8001SOL     OW24901   4.283   6.282   1.174
 8001SOL    HW124902   4.334   6.352   1.123
 8001SOL    HW224903   4.316   6.280   1.268
 8002SOL     OW24904   0.637   1.865   6.168
 8002SOL    HW124905   0.731   1.832   6.160
 8002SOL    HW224906   0.626   1.912   6.255
 8003SOL     OW24907   2.796   5.563   2.394
 8003SOL    HW124908   2.825   5.606   2.480
 8003SOL    HW224909   2.864   5.581   2.323
 8004SOL     OW24910   2.095   3.532   3.038
 8004SOL    HW124911   2.010   3.539   2.987
 8004SOL    HW224912   2.122   3.436   3.046
 8005SOL     OW24913   3.356   0.888   1.528
 8005SOL    HW124914   3.345   0.986   1.544
 8005SOL    HW224915   3.370   0.871   1.430
 8006SOL     OW24916   1.651   0.023   6.293
 8006SOL    HW124917   1.564   0.056   6.257
 8006SOL    HW224918   1.723   0.089   6.271
 8007SOL     OW24919   6.889   0.359   4.418
 8007SOL    HW124920   6.867   0.457   4.415
 8007SOL    HW224921   6.851   0.314   4.337
 8008SOL     OW24922   4.065   5.476   6.849
 8008SOL    HW124923   3.985   5.435   6.893
 8008SOL    HW224924   4.106   5.411   6.786
 8009SOL     OW24925   5.623   0.652   2.321
 8009SOL    HW124926   5.560   0.715   2.275
 8009SOL    HW224927   5.666   0.699   2.398
 8010SOL     OW24928   0.862   1.359   6.025
 8010SOL    HW124929   0.797   1.413   5.971
 8010SOL    HW224930   0.844   1.373   6.122
 8011SOL     OW24931   3.389   2.775   1.194
 8011SOL    HW124932   3.370   2.706   1.124
 8011SOL    HW224933   3.475   2.821   1.173
 8012SOL     OW24934   1.835   4.355   1.694
 8012SOL    HW124935   1.773   4.318   1.625
 8012SOL    HW224936   1.929   4.327   1.674
 8013SOL     OW24937   1.257   5.388   3.575
 8013SOL    HW124938   1.158   5.376   3.573
 8013SOL    HW224939   1.279   5.484   3.560
 8014SOL     OW24940   1.044   6.620   5.006
 8014SOL    HW124941   1.068   6.661   4.918
 8014SOL    HW224942   0.954   6.654   5.035
 8015SOL     OW24943   2.623   0.565   6.598
 8015SOL    HW124944   2.623   0.663   6.577
 8015SOL    HW224945   2.529   0.533   6.607
 8016SOL     OW24946   5.259   0.002   5.807
 8016SOL    HW124947   5.318   0.004   5.727
 8016SOL    HW224948   5.179   6.965   5.788
 8017SOL     OW24949   5.617   0.107   0.462
 8017SOL    HW124950   5.674   0.190   0.459
 8017SOL    HW224951   5.530   0.129   0.508
 8018SOL     OW24952   3.291   2.080   5.728
 8018SOL    HW124953   3.359   2.082   5.654
 8018SOL    HW224954   3.201   2.066   5.689
 8019SOL     OW24955   2.260   4.015   6.912
 8019SOL    HW124956   2.198   4.063   6.974
 8019SOL    HW224957   2.341   3.984   6.963
 8020SOL     OW24958   5.440   0.810   1.058
 8020SOL    HW124959   5.432   0.711   1.061
 8020SOL    HW224960   5.383   0.850   1.131
 8021SOL     OW24961   0.856   2.506   1.163
 8021SOL    HW124962   0.945   2.463   1.144
 8021SOL    HW224963   0.850   2.530   1.260
 8022SOL     OW24964   4.997   6.959   2.818
 8022SOL    HW124965   5.092   6.938   2.794
 8022SOL    HW224966   4.959   6.883   2.872
 8023SOL     OW24967   5.587   5.243   2.832
 8023SOL    HW124968   5.562   5.192   2.749
 8023SOL    HW224969   5.664   5.196   2.877
 8024SOL     OW24970   1.876   4.748   6.735
 8024SOL    HW124971   1.958   4.769   6.788
 8024SOL    HW224972   1.902   4.700   6.651
 8025SOL     OW24973   1.734   6.482   6.863
 8025SOL    HW124974   1.767   6.471   6.957
 8025SOL    HW224975   1.791   6.549   6.815
 8026SOL     OW24976   0.914   4.122   6.820
 8026SOL    HW124977   0.994   4.068   6.847
 8026SOL    HW224978   0.931   4.218   6.840
 8027SOL     OW24979   4.505   0.864   5.157
 8027SOL    HW124980   4.422   0.849   5.211
 8027SOL    HW224981   4.484   0.928   5.082
 8028SOL     OW24982   3.205   5.390   4.846
 8028SOL    HW124983   3.281   5.340   4.887
 8028SOL    HW224984   3.190   5.356   4.753
 8029SOL     OW24985   4.812   3.003   1.564
 8029SOL    HW124986   4.836   2.977   1.657
 8029SOL    HW224987   4.895   3.031   1.515
 8030SOL     OW24988   4.333   4.397   0.580
 8030SOL    HW124989   4.262   4.392   0.651
 8030SOL    HW224990   4.364   4.492   0.570
 8031SOL     OW24991   6.050   6.843   1.832
 8031SOL    HW124992   5.995   6.799   1.903
 8031SOL    HW224993   5.994   6.858   1.750
 8032SOL     OW24994   6.834   5.173   1.224
 8032SOL    HW124995   6.753   5.114   1.221
 8032SOL    HW224996   6.901   5.136   1.288
 8033SOL     OW24997   5.223   0.853   5.321
 8033SOL    HW124998   5.152   0.923   5.333
 8033SOL    HW224999   5.311   0.890   5.350
 8034SOL     OW25000   5.103   6.863   4.584
 8034SOL    HW125001   5.125   6.912   4.668
 8034SOL    HW225002   5.182   6.863   4.523
 8035SOL     OW25003   4.929   1.802   4.417
 8035SOL    HW125004   4.960   1.802   4.322
 8035SOL    HW225005   4.996   1.755   4.474
 8036SOL     OW25006   6.971   4.077   3.590
 8036SOL    HW125007   6.895   4.012   3.593
 8036SOL    HW225008   0.007   4.061   3.508
 8037SOL     OW25009   1.786   3.541   0.170
 8037SOL    HW125010   1.861   3.480   0.195
 8037SOL    HW225011   1.733   3.500   0.095
 8038SOL     OW25012   3.928   6.701   2.941
 8038SOL    HW125013   3.960   6.782   2.990
 8038SOL    HW225014   3.831   6.711   2.919
 8039SOL     OW25015   0.440   1.814   4.265
 8039SOL    HW125016   0.532   1.778   4.248
 8039SOL    HW225017   0.425   1.895   4.208
 8040SOL     OW25018   1.647   5.522   6.832
 8040SOL    HW125019   1.610   5.457   6.766
 8040SOL    HW225020   1.686   5.473   6.909
 8041SOL     OW25021   2.174   1.620   2.437
 8041SOL    HW125022   2.203   1.701   2.386
 8041SOL    HW225023   2.236   1.544   2.419
 8042SOL     OW25024   3.012   3.197   3.863
 8042SOL    HW125025   2.990   3.268   3.795
 8042SOL    HW225026   3.110   3.197   3.880
 8043SOL     OW25027   3.661   6.811   1.582
 8043SOL    HW125028   3.664   6.853   1.673
 8043SOL    HW225029   3.636   6.714   1.591
 8044SOL     OW25030   4.092   2.144   1.377
 8044SOL    HW125031   4.090   2.091   1.292
 8044SOL    HW225032   4.183   2.183   1.390
 8045SOL     OW25033   5.337   1.588   2.779
 8045SOL    HW125034   5.370   1.556   2.690
 8045SOL    HW225035   5.248   1.632   2.768
 8046SOL     OW25036   0.146   5.158   0.910
 8046SOL    HW125037   0.140   5.231   0.979
 8046SOL    HW225038   0.225   5.174   0.851
 8047SOL     OW25039   4.083   5.982   4.401
 8047SOL    HW125040   4.127   5.918   4.339
 8047SOL    HW225041   4.042   6.057   4.348
 8048SOL     OW25042   5.144   0.867   5.757
 8048SOL    HW125043   5.194   0.856   5.671
 8048SOL    HW225044   5.183   0.805   5.826
 8049SOL     OW25045   0.832   0.549   0.217
 8049SOL    HW125046   0.756   0.527   0.277
 8049SOL    HW225047   0.804   0.535   0.122
 8050SOL     OW25048   1.249   4.603   3.641
 8050SOL    HW125049   1.273   4.659   3.562
 8050SOL    HW225050   1.193   4.525   3.611
 8051SOL     OW25051   4.421   5.913   3.555
 8051SOL    HW125052   4.391   5.827   3.596
 8051SOL    HW225053   4.484   5.960   3.617
 8052SOL     OW25054   4.397   1.138   1.991
 8052SOL    HW125055   4.391   1.124   1.892
 8052SOL    HW225056   4.373   1.233   2.013
 8053SOL     OW25057   2.924   3.629   3.558
 8053SOL    HW125058   3.022   3.628   3.578
 8053SOL    HW225059   2.908   3.685   3.477
 8054SOL     OW25060   5.535   6.909   4.605
 8054SOL    HW125061   5.449   6.898   4.554
 8054SOL    HW225062   5.531   6.855   4.689
 8055SOL     OW25063   0.839   0.317   5.557
 8055SOL    HW125064   0.772   0.383   5.524
 8055SOL    HW225065   0.802   0.225   5.552
 8056SOL     OW25066   2.758   1.513   4.231
 8056SOL    HW125067   2.849   1.486   4.263
 8056SOL    HW225068   2.762   1.606   4.194
 8057SOL     OW25069   2.921   2.154   3.025
 8057SOL    HW125070   2.895   2.246   3.054
 8057SOL    HW225071   3.009   2.157   2.978
 8058SOL     OW25072   3.766   0.051   2.230
 8058SOL    HW125073   3.805   0.139   2.199
 8058SOL    HW225074   3.809   0.025   2.316
 8059SOL     OW25075   3.338   2.099   4.776
 8059SOL    HW125076   3.274   2.146   4.837
 8059SOL    HW225077   3.287   2.043   4.711
 8060SOL     OW25078   6.033   1.983   4.449
 8060SOL    HW125079   6.085   2.017   4.528
 8060SOL    HW225080   6.090   1.990   4.367
 8061SOL     OW25081   0.165   1.059   3.100
 8061SOL    HW125082   0.108   1.055   3.018
 8061SOL    HW225083   0.252   1.013   3.082
 8062SOL     OW25084   3.934   4.947   3.696
 8062SOL    HW125085   4.031   4.951   3.721
 8062SOL    HW225086   3.879   4.928   3.778
 8063SOL     OW25087   1.486   2.260   1.446
 8063SOL    HW125088   1.527   2.344   1.481
 8063SOL    HW225089   1.458   2.202   1.522
 8064SOL     OW25090   0.291   3.795   1.854
 8064SOL    HW125091   0.256   3.815   1.946
 8064SOL    HW225092   0.333   3.704   1.854
 8065SOL     OW25093   2.595   5.329   3.638
 8065SOL    HW125094   2.650   5.341   3.721
 8065SOL    HW225095   2.552   5.416   3.614
 8066SOL     OW25096   0.180   1.814   5.089
 8066SOL    HW125097   0.115   1.740   5.107
 8066SOL    HW225098   0.155   1.895   5.142
 8067SOL     OW25099   4.602   2.768   1.791
 8067SOL    HW125100   4.608   2.866   1.813
 8067SOL    HW225101   4.579   2.757   1.694
 8068SOL     OW25102   6.917   3.578   1.196
 8068SOL    HW125103   6.822   3.595   1.220
 8068SOL    HW225104   6.951   3.653   1.139
 8069SOL     OW25105   2.478   6.312   1.713
 8069SOL    HW125106   2.520   6.264   1.635
 8069SOL    HW225107   2.380   6.294   1.714
 8070SOL     OW25108   4.003   3.457   0.461
 8070SOL    HW125109   4.013   3.394   0.539
 8070SOL    HW225110   3.977   3.405   0.380
 8071SOL     OW25111   2.850   6.205   4.599
 8071SOL    HW125112   2.859   6.273   4.526
 8071SOL    HW225113   2.754   6.198   4.627
 8072SOL     OW25114   3.686   1.161   0.735
 8072SOL    HW125115   3.768   1.158   0.677
 8072SOL    HW225116   3.604   1.165   0.678
 8073SOL     OW25117   2.930   5.123   4.646
 8073SOL    HW125118   2.916   5.094   4.741
 8073SOL    HW225119   2.865   5.195   4.623
 8074SOL     OW25120   3.799   2.526   0.401
 8074SOL    HW125121   3.828   2.602   0.342
 8074SOL    HW225122   3.726   2.556   0.461
 8075SOL     OW25123   0.219   0.562   0.904
 8075SOL    HW125124   0.182   0.610   0.983
 8075SOL    HW225125   0.184   0.469   0.901
 8076SOL     OW25126   6.650   1.377   5.274
 8076SOL    HW125127   6.717   1.370   5.347
 8076SOL    HW225128   6.558   1.364   5.312
 8077SOL     OW25129   2.739   5.888   2.675
 8077SOL    HW125130   2.685   5.939   2.609
 8077SOL    HW225131   2.747   5.940   2.760
 8078SOL     OW25132   0.416   1.365   0.518
 8078SOL    HW125133   0.429   1.463   0.534
 8078SOL    HW225134   0.323   1.339   0.545
 8079SOL     OW25135   4.830   1.693   3.793
 8079SOL    HW125136   4.860   1.773   3.741
 8079SOL    HW225137   4.734   1.703   3.818
 8080SOL     OW25138   0.544   2.211   0.682
 8080SOL    HW125139   0.546   2.290   0.744
 8080SOL    HW225140   0.637   2.190   0.653
 8081SOL     OW25141   6.101   5.999   5.425
 8081SOL    HW125142   6.201   6.003   5.429
 8081SOL    HW225143   6.073   5.963   5.336
 8082SOL     OW25144   4.314   7.006   2.206
 8082SOL    HW125145   4.404   6.976   2.174
 8082SOL    HW225146   4.281   0.062   2.149
 8083SOL     OW25147   4.916   3.700   2.943
 8083SOL    HW125148   4.887   3.604   2.944
 8083SOL    HW225149   4.850   3.754   2.891
 8084SOL     OW25150   4.386   6.918   0.608
 8084SOL    HW125151   4.373   7.017   0.598
 8084SOL    HW225152   4.484   6.898   0.617
 8085SOL     OW25153   6.525   6.501   1.818
 8085SOL    HW125154   6.426   6.515   1.820
 8085SOL    HW225155   6.566   6.544   1.898
 8086SOL     OW25156   5.492   0.806   2.938
 8086SOL    HW125157   5.504   0.892   2.989
 8086SOL    HW225158   5.435   0.823   2.858
 8087SOL     OW25159   2.789   1.457   0.214
 8087SOL    HW125160   2.792   1.555   0.197
 8087SOL    HW225161   2.874   1.429   0.260
 8088SOL     OW25162   5.543   2.245   1.407
 8088SOL    HW125163   5.536   2.340   1.437
 8088SOL    HW225164   5.552   2.184   1.486
 8089SOL     OW25165   5.622   2.451   0.458
 8089SOL    HW125166   5.535   2.470   0.411
 8089SOL    HW225167   5.610   2.463   0.557
 8090SOL     OW25168   4.362   1.646   6.974
 8090SOL    HW125169   4.267   1.661   6.944
 8090SOL    HW225170   4.362   1.618   0.050
 8091SOL     OW25171   2.441   3.301   5.328
 8091SOL    HW125172   2.445   3.399   5.348
 8091SOL    HW225173   2.532   3.261   5.339
 8092SOL     OW25174   5.997   2.108   4.925
 8092SOL    HW125175   6.057   2.029   4.911
 8092SOL    HW225176   6.010   2.144   5.018
 8093SOL     OW25177   3.674   5.363   2.656
 8093SOL    HW125178   3.580   5.385   2.630
 8093SOL    HW225179   3.713   5.440   2.706
 8094SOL     OW25180   1.508   3.656   4.745
 8094SOL    HW125181   1.529   3.668   4.842
 8094SOL    HW225182   1.593   3.643   4.694
 8095SOL     OW25183   0.045   4.594   4.559
 8095SOL    HW125184   6.993   4.594   4.629
 8095SOL    HW225185   0.030   4.671   4.497
 8096SOL     OW25186   2.370   6.491   3.325
 8096SOL    HW125187   2.378   6.535   3.236
 8096SOL    HW225188   2.417   6.545   3.394
 8097SOL     OW25189   4.105   0.095   3.730
 8097SOL    HW125190   4.030   0.123   3.791
 8097SOL    HW225191   4.146   0.011   3.765
 8098SOL     OW25192   1.554   0.290   3.440
 8098SOL    HW125193   1.614   0.362   3.404
 8098SOL    HW225194   1.602   0.241   3.513
 8099SOL     OW25195   3.867   6.903   4.562
 8099SOL    HW125196   3.803   6.979   4.578
 8099SOL    HW225197   3.859   6.837   4.636
 8100SOL     OW25198   5.790   0.993   0.528
 8100SOL    HW125199   5.796   1.059   0.603
 8100SOL    HW225200   5.883   0.969   0.499
 8101SOL     OW25201   1.777   6.538   2.678
 8101SOL    HW125202   1.720   6.470   2.632
 8101SOL    HW225203   1.735   6.563   2.765
 8102SOL     OW25204   0.579   4.373   3.843
 8102SOL    HW125205   0.565   4.344   3.749
 8102SOL    HW225206   0.614   4.466   3.844
 8103SOL     OW25207   3.910   0.094   1.140
 8103SOL    HW125208   3.811   0.089   1.144
 8103SOL    HW225209   3.949   0.002   1.145
 8104SOL     OW25210   3.751   0.099   6.173
 8104SOL    HW125211   3.823   0.169   6.170
 8104SOL    HW225212   3.793   0.008   6.162
 8105SOL     OW25213   0.776   2.638   3.097
 8105SOL    HW125214   0.853   2.699   3.079
 8105SOL    HW225215   0.807   2.558   3.148
 8106SOL     OW25216   2.124   5.623   3.133
 8106SOL    HW125217   2.125   5.706   3.078
 8106SOL    HW225218   2.045   5.566   3.106
 8107SOL     OW25219   0.729   4.650   4.213
 8107SOL    HW125220   0.806   4.676   4.155
 8107SOL    HW225221   0.760   4.587   4.284
 8108SOL     OW25222   6.317   3.106   5.352
 8108SOL    HW125223   6.313   3.194   5.400
 8108SOL    HW225224   6.243   3.047   5.385
 8109SOL     OW25225   1.138   3.529   5.255
 8109SOL    HW125226   1.187   3.459   5.203
 8109SOL    HW225227   1.146   3.617   5.208
 8110SOL     OW25228   2.972   6.149   1.323
 8110SOL    HW125229   3.019   6.219   1.377
 8110SOL    HW225230   2.951   6.070   1.381
 8111SOL     OW25231   4.825   0.365   5.308
 8111SOL    HW125232   4.816   0.267   5.326
 8111SOL    HW225233   4.919   0.393   5.325
 8112SOL     OW25234   2.252   2.249   4.763
 8112SOL    HW125235   2.213   2.195   4.688
 8112SOL    HW225236   2.348   2.223   4.777
 8113SOL     OW25237   2.889   3.241   0.451
 8113SOL    HW125238   2.933   3.323   0.416
 8113SOL    HW225239   2.926   3.219   0.541
 8114SOL     OW25240   1.702   3.754   1.982
 8114SOL    HW125241   1.733   3.671   1.937
 8114SOL    HW225242   1.777   3.819   1.988
 8115SOL     OW25243   3.667   0.673   0.225
 8115SOL    HW125244   3.653   0.741   0.152
 8115SOL    HW225245   3.740   0.610   0.198
 8116SOL     OW25246   5.232   5.066   5.907
 8116SOL    HW125247   5.144   5.019   5.899
 8116SOL    HW225248   5.216   5.162   5.931
 8117SOL     OW25249   1.486   0.935   3.564
 8117SOL    HW125250   1.505   0.870   3.637
 8117SOL    HW225251   1.476   1.027   3.602
 8118SOL     OW25252   5.817   4.343   5.575
 8118SOL    HW125253   5.852   4.381   5.490
 8118SOL    HW225254   5.815   4.414   5.645
 8119SOL     OW25255   5.700   5.514   5.557
 8119SOL    HW125256   5.635   5.508   5.481
 8119SOL    HW225257   5.790   5.482   5.527
 8120SOL     OW25258   2.398   5.335   0.285
 8120SOL    HW125259   2.306   5.373   0.280
 8120SOL    HW225260   2.398   5.254   0.343
 8121SOL     OW25261   0.807   4.730   1.907
 8121SOL    HW125262   0.827   4.655   1.845
 8121SOL    HW225263   0.857   4.812   1.878
 8122SOL     OW25264   0.913   5.956   2.588
 8122SOL    HW125265   0.819   5.923   2.595
 8122SOL    HW225266   0.913   6.056   2.579
 8123SOL     OW25267   6.750   0.592   5.952
 8123SOL    HW125268   6.741   0.691   5.946
 8123SOL    HW225269   6.832   0.562   5.904
 8124SOL     OW25270   6.150   6.899   0.859
 8124SOL    HW125271   6.099   6.909   0.773
 8124SOL    HW225272   6.109   6.957   0.929
 8125SOL     OW25273   1.413   1.197   3.698
 8125SOL    HW125274   1.318   1.168   3.710
 8125SOL    HW225275   1.453   1.218   3.787
 8126SOL     OW25276   4.882   5.052   2.535
 8126SOL    HW125277   4.889   4.976   2.600
 8126SOL    HW225278   4.969   5.065   2.489
 8127SOL     OW25279   3.107   5.010   6.454
 8127SOL    HW125280   3.144   5.079   6.391
 8127SOL    HW225281   3.010   5.030   6.470
 8128SOL     OW25282   2.712   1.781   1.571
 8128SOL    HW125283   2.779   1.761   1.643
 8128SOL    HW225284   2.665   1.866   1.593
 8129SOL     OW25285   4.756   0.457   6.054
 8129SOL    HW125286   4.793   0.442   6.146
 8129SOL    HW225287   4.702   0.541   6.053
 8130SOL     OW25288   0.278   3.003   6.007
 8130SOL    HW125289   0.277   2.904   6.023
 8130SOL    HW225290   0.306   3.022   5.913
 8131SOL     OW25291   3.545   1.920   0.783
 8131SOL    HW125292   3.627   1.964   0.821
 8131SOL    HW225293   3.564   1.890   0.690
 8132SOL     OW25294   5.957   0.004   5.918
 8132SOL    HW125295   5.940   6.983   5.828
 8132SOL    HW225296   6.033   6.975   5.962
 8133SOL     OW25297   2.703   4.691   1.431
 8133SOL    HW125298   2.647   4.644   1.362
 8133SOL    HW225299   2.757   4.623   1.481
 8134SOL     OW25300   0.427   2.830   5.577
 8134SOL    HW125301   0.435   2.764   5.503
 8134SOL    HW225302   0.350   2.891   5.560
 8135SOL     OW25303   2.343   5.852   1.393
 8135SOL    HW125304   2.310   5.936   1.434
 8135SOL    HW225305   2.294   5.773   1.430
 8136SOL     OW25306   4.170   5.352   2.986
 8136SOL    HW125307   4.167   5.289   3.063
 8136SOL    HW225308   4.112   5.431   3.006
 8137SOL     OW25309   3.313   1.461   5.091
 8137SOL    HW125310   3.297   1.384   5.029
 8137SOL    HW225311   3.411   1.470   5.107
 8138SOL     OW25312   5.528   1.426   0.191
 8138SOL    HW125313   5.606   1.424   0.254
 8138SOL    HW225314   5.505   1.332   0.164
 8139SOL     OW25315   0.450   1.348   3.203
 8139SOL    HW125316   0.360   1.380   3.174
 8139SOL    HW225317   0.520   1.403   3.159
 8140SOL     OW25318   4.905   0.259   0.998
 8140SOL    HW125319   4.862   0.347   1.017
 8140SOL    HW225320   5.003   0.272   0.984
 8141SOL     OW25321   4.415   6.305   5.703
 8141SOL    HW125322   4.509   6.324   5.732
 8141SOL    HW225323   4.358   6.385   5.721
 8142SOL     OW25324   1.179   4.302   0.051
 8142SOL    HW125325   1.144   4.210   0.032
 8142SOL    HW225326   1.160   4.361   6.991
 8143SOL     OW25327   0.041   4.588   0.929
 8143SOL    HW125328   7.007   4.672   0.915
 8143SOL    HW225329   0.055   4.573   1.026
 8144SOL     OW25330   6.929   6.572   6.056
 8144SOL    HW125331   6.889   6.582   5.965
 8144SOL    HW225332   6.962   6.661   6.087
 8145SOL     OW25333   5.752   5.596   1.682
 8145SOL    HW125334   5.673   5.638   1.637
 8145SOL    HW225335   5.785   5.520   1.627
 8146SOL     OW25336   4.823   1.056   5.120
 8146SOL    HW125337   4.797   0.990   5.191
 8146SOL    HW225338   4.741   1.091   5.076
 8147SOL     OW25339   6.780   1.692   1.996
 8147SOL    HW125340   6.876   1.667   1.982
 8147SOL    HW225341   6.738   1.628   2.061
 8148SOL     OW25342   5.240   4.152   0.844
 8148SOL    HW125343   5.216   4.173   0.939
 8148SOL    HW225344   5.248   4.053   0.832
 8149SOL     OW25345   2.129   6.081   2.722
 8149SOL    HW125346   2.117   6.171   2.681
 8149SOL    HW225347   2.068   6.015   2.678
 8150SOL     OW25348   2.012   3.832   1.131
 8150SOL    HW125349   1.936   3.886   1.168
 8150SOL    HW225350   2.042   3.765   1.199
 8151SOL     OW25351   5.363   4.467   2.299
 8151SOL    HW125352   5.308   4.417   2.365
 8151SOL    HW225353   5.456   4.430   2.297
 8152SOL     OW25354   6.018   1.886   2.983
 8152SOL    HW125355   5.969   1.875   3.070
 8152SOL    HW225356   5.952   1.900   2.909
 8153SOL     OW25357   1.376   1.077   3.997
 8153SOL    HW125358   1.446   1.149   3.990
 8153SOL    HW225359   1.398   1.017   4.074
 8154SOL     OW25360   3.563   5.252   2.322
 8154SOL    HW125361   3.605   5.284   2.237
 8154SOL    HW225362   3.634   5.225   2.387
 8155SOL     OW25363   1.886   3.128   1.855
 8155SOL    HW125364   1.909   3.105   1.761
 8155SOL    HW225365   1.790   3.107   1.872
 8156SOL     OW25366   5.195   6.302   1.047
 8156SOL    HW125367   5.268   6.352   1.094
 8156SOL    HW225368   5.157   6.233   1.110
 8157SOL     OW25369   6.220   5.114   6.020
 8157SOL    HW125370   6.279   5.114   5.939
 8157SOL    HW225371   6.273   5.143   6.100
 8158SOL     OW25372   5.209   4.396   0.015
 8158SOL    HW125373   5.292   4.339   0.011
 8158SOL    HW225374   5.157   4.373   0.098
 8159SOL     OW25375   2.410   5.803   3.155
 8159SOL    HW125376   2.334   5.842   3.103
 8159SOL    HW225377   2.453   5.730   3.103
 8160SOL     OW25378   4.885   0.655   3.390
 8160SOL    HW125379   4.905   0.634   3.294
 8160SOL    HW225380   4.801   0.608   3.417
 8161SOL     OW25381   5.930   2.517   6.444
 8161SOL    HW125382   5.968   2.448   6.507
 8161SOL    HW225383   5.950   2.608   6.479
 8162SOL     OW25384   5.738   6.899   6.765
 8162SOL    HW125385   5.641   6.879   6.752
 8162SOL    HW225386   5.760   6.891   6.863
 8163SOL     OW25387   3.079   4.150   5.263
 8163SOL    HW125388   2.999   4.105   5.301
 8163SOL    HW225389   3.108   4.104   5.179
 8164SOL     OW25390   4.945   1.973   0.010
 8164SOL    HW125391   4.951   2.045   6.961
 8164SOL    HW225392   4.954   2.013   0.102
 8165SOL     OW25393   0.923   3.864   5.814
 8165SOL    HW125394   0.896   3.850   5.719
 8165SOL    HW225395   0.901   3.958   5.841
 8166SOL     OW25396   1.313   0.892   3.350
 8166SOL    HW125397   1.373   0.906   3.429
 8166SOL    HW225398   1.228   0.849   3.380
 8167SOL     OW25399   0.363   0.211   3.860
 8167SOL    HW125400   0.356   0.166   3.771
 8167SOL    HW225401   0.279   0.262   3.877
 8168SOL     OW25402   2.191   1.559   2.874
 8168SOL    HW125403   2.151   1.650   2.861
 8168SOL    HW225404   2.146   1.514   2.951
 8169SOL     OW25405   4.572   2.161   0.935
 8169SOL    HW125406   4.582   2.159   1.034
 8169SOL    HW225407   4.642   2.104   0.892
 8170SOL     OW25408   1.343   5.205   2.377
 8170SOL    HW125409   1.387   5.116   2.390
 8170SOL    HW225410   1.388   5.254   2.302
 8171SOL     OW25411   1.569   1.686   6.160
 8171SOL    HW125412   1.611   1.606   6.202
 8171SOL    HW225413   1.640   1.752   6.135
 8172SOL     OW25414   0.477   2.304   2.323
 8172SOL    HW125415   0.415   2.381   2.307
 8172SOL    HW225416   0.567   2.326   2.286
 8173SOL     OW25417   5.631   1.371   2.307
 8173SOL    HW125418   5.714   1.410   2.266
 8173SOL    HW225419   5.630   1.272   2.289
 8174SOL     OW25420   6.389   1.901   1.580
 8174SOL    HW125421   6.390   1.981   1.519
 8174SOL    HW225422   6.296   1.864   1.585
 8175SOL     OW25423   0.686   2.750   5.129
 8175SOL    HW125424   0.742   2.667   5.127
 8175SOL    HW225425   0.741   2.827   5.163
 8176SOL     OW25426   2.176   5.258   1.904
 8176SOL    HW125427   2.239   5.335   1.906
 8176SOL    HW225428   2.199   5.193   1.976
 8177SOL     OW25429   3.757   6.953   3.933
 8177SOL    HW125430   3.716   6.966   3.843
 8177SOL    HW225431   3.686   6.932   4.000
 8178SOL     OW25432   2.561   6.267   6.876
 8178SOL    HW125433   2.654   6.304   6.871
 8178SOL    HW225434   2.551   6.193   6.810
 8179SOL     OW25435   4.777   1.509   5.423
 8179SOL    HW125436   4.733   1.559   5.349
 8179SOL    HW225437   4.851   1.452   5.385
 8180SOL     OW25438   6.543   0.035   5.003
 8180SOL    HW125439   6.567   0.005   4.911
 8180SOL    HW225440   6.490   0.120   4.998
 8181SOL     OW25441   2.037   1.526   0.922
 8181SOL    HW125442   1.972   1.472   0.975
 8181SOL    HW225443   2.074   1.470   0.848
 8182SOL     OW25444   3.399   3.561   5.609
 8182SOL    HW125445   3.376   3.483   5.667
 8182SOL    HW225446   3.321   3.582   5.549
 8183SOL     OW25447   6.600   2.054   5.156
 8183SOL    HW125448   6.567   1.960   5.165
 8183SOL    HW225449   6.535   2.116   5.200
 8184SOL     OW25450   6.260   0.933   0.261
 8184SOL    HW125451   6.259   1.026   0.224
 8184SOL    HW225452   6.174   0.916   0.308
 8185SOL     OW25453   2.638   6.916   0.354
 8185SOL    HW125454   2.550   6.872   0.335
 8185SOL    HW225455   2.689   6.927   0.269
 8186SOL     OW25456   3.534   5.371   5.680
 8186SOL    HW125457   3.473   5.292   5.670
 8186SOL    HW225458   3.618   5.355   5.628
 8187SOL     OW25459   1.435   2.023   4.607
 8187SOL    HW125460   1.438   2.119   4.633
 8187SOL    HW225461   1.376   1.973   4.670
 8188SOL     OW25462   6.068   2.806   2.996
 8188SOL    HW125463   6.166   2.821   3.007
 8188SOL    HW225464   6.030   2.877   2.937
 8189SOL     OW25465   4.698   4.642   3.178
 8189SOL    HW125466   4.774   4.681   3.230
 8189SOL    HW225467   4.728   4.627   3.083
 8190SOL     OW25468   4.505   5.206   4.436
 8190SOL    HW125469   4.432   5.254   4.387
 8190SOL    HW225470   4.571   5.273   4.471
 8191SOL     OW25471   3.680   6.522   1.861
 8191SOL    HW125472   3.624   6.565   1.932
 8191SOL    HW225473   3.711   6.433   1.892
 8192SOL     OW25474   4.203   4.852   0.739
 8192SOL    HW125475   4.124   4.794   0.759
 8192SOL    HW225476   4.189   4.899   0.652
 8193SOL     OW25477   6.970   6.465   4.732
 8193SOL    HW125478   6.983   6.485   4.830
 8193SOL    HW225479   0.018   6.397   4.704
 8194SOL     OW25480   5.572   2.537   1.117
 8194SOL    HW125481   5.517   2.453   1.122
 8194SOL    HW225482   5.666   2.513   1.094
 8195SOL     OW25483   1.245   0.281   1.810
 8195SOL    HW125484   1.285   0.247   1.725
 8195SOL    HW225485   1.158   0.326   1.789
 8196SOL     OW25486   3.726   6.129   5.891
 8196SOL    HW125487   3.756   6.040   5.926
 8196SOL    HW225488   3.790   6.160   5.821
 8197SOL     OW25489   4.557   1.830   0.159
 8197SOL    HW125490   4.648   1.798   0.131
 8197SOL    HW225491   4.488   1.785   0.102
 8198SOL     OW25492   3.344   6.908   2.941
 8198SOL    HW125493   3.320   7.005   2.941
 8198SOL    HW225494   3.427   6.894   2.996
 8199SOL     OW25495   5.973   3.170   6.683
 8199SOL    HW125496   5.921   3.155   6.767
 8199SOL    HW225497   5.982   3.269   6.666
 8200SOL     OW25498   5.342   4.131   1.546
 8200SOL    HW125499   5.340   4.041   1.502
 8200SOL    HW225500   5.290   4.195   1.490
 8201SOL     OW25501   5.623   0.299   3.846
 8201SOL    HW125502   5.541   0.272   3.896
 8201SOL    HW225503   5.694   0.327   3.910
 8202SOL     OW25504   0.681   5.522   4.296
 8202SOL    HW125505   0.589   5.539   4.330
 8202SOL    HW225506   0.677   5.492   4.201
 8203SOL     OW25507   4.741   2.241   6.969
 8203SOL    HW125508   4.715   2.201   0.038
 8203SOL    HW225509   4.761   2.338   6.981
 8204SOL     OW25510   2.763   5.187   0.003
 8204SOL    HW125511   2.703   5.266   0.005
 8204SOL    HW225512   2.849   5.209   0.048
 8205SOL     OW25513   0.279   4.563   0.759
 8205SOL    HW125514   0.330   4.648   0.763
 8205SOL    HW225515   0.182   4.581   0.778
 8206SOL     OW25516   5.129   2.737   6.331
 8206SOL    HW125517   5.193   2.707   6.261
 8206SOL    HW225518   5.175   2.799   6.394
 8207SOL     OW25519   3.090   4.086   4.780
 8207SOL    HW125520   3.104   4.034   4.696
 8207SOL    HW225521   3.017   4.153   4.765
 8208SOL     OW25522   2.179   0.254   1.640
 8208SOL    HW125523   2.128   0.284   1.559
 8208SOL    HW225524   2.277   0.272   1.626
 8209SOL     OW25525   0.434   1.240   5.966
 8209SOL    HW125526   0.492   1.183   5.908
 8209SOL    HW225527   0.364   1.183   6.009
 8210SOL     OW25528   2.451   0.784   1.188
 8210SOL    HW125529   2.362   0.737   1.193
 8210SOL    HW225530   2.524   0.717   1.203
 8211SOL     OW25531   3.628   4.146   2.196
 8211SOL    HW125532   3.626   4.095   2.110
 8211SOL    HW225533   3.682   4.229   2.185
 8212SOL     OW25534   2.088   1.742   1.288
 8212SOL    HW125535   2.056   1.736   1.382
 8212SOL    HW225536   2.178   1.699   1.280
 8213SOL     OW25537   6.434   4.769   2.262
 8213SOL    HW125538   6.394   4.833   2.327
 8213SOL    HW225539   6.504   4.816   2.208
 8214SOL     OW25540   6.842   5.572   4.715
 8214SOL    HW125541   6.745   5.600   4.713
 8214SOL    HW225542   6.848   5.473   4.727
 8215SOL     OW25543   2.952   5.426   6.278
 8215SOL    HW125544   2.995   5.425   6.368
 8215SOL    HW225545   2.885   5.353   6.271
 8216SOL     OW25546   4.773   5.813   3.523
 8216SOL    HW125547   4.854   5.799   3.579
 8216SOL    HW225548   4.743   5.908   3.531
 8217SOL     OW25549   2.311   3.983   1.646
 8217SOL    HW125550   2.409   3.967   1.636
 8217SOL    HW225551   2.264   3.896   1.657
 8218SOL     OW25552   1.024   6.464   4.615
 8218SOL    HW125553   1.086   6.481   4.692
 8218SOL    HW225554   1.031   6.368   4.587
 8219SOL     OW25555   4.170   3.148   0.900
 8219SOL    HW125556   4.082   3.108   0.873
 8219SOL    HW225557   4.243   3.108   0.844
 8220SOL     OW25558   3.126   3.942   4.163
 8220SOL    HW125559   3.220   3.919   4.189
 8220SOL    HW225560   3.063   3.912   4.235
 8221SOL     OW25561   6.282   6.114   3.303
 8221SOL    HW125562   6.231   6.095   3.220
 8221SOL    HW225563   6.349   6.042   3.320
 8222SOL     OW25564   5.028   1.397   1.499
 8222SOL    HW125565   5.078   1.476   1.464
 8222SOL    HW225566   5.080   1.314   1.478
 8223SOL     OW25567   1.438   4.123   5.433
 8223SOL    HW125568   1.435   4.203   5.494
 8223SOL    HW225569   1.386   4.048   5.474
 8224SOL     OW25570   5.833   2.565   2.025
 8224SOL    HW125571   5.792   2.518   2.103
 8224SOL    HW225572   5.903   2.629   2.057
 8225SOL     OW25573   4.129   1.447   1.520
 8225SOL    HW125574   4.144   1.531   1.468
 8225SOL    HW225575   4.112   1.371   1.457
 8226SOL     OW25576   3.304   6.520   0.835
 8226SOL    HW125577   3.341   6.547   0.924
 8226SOL    HW225578   3.365   6.554   0.762
 8227SOL     OW25579   6.514   1.378   2.332
 8227SOL    HW125580   6.429   1.430   2.322
 8227SOL    HW225581   6.548   1.389   2.425
 8228SOL     OW25582   0.174   1.763   6.238
 8228SOL    HW125583   0.164   1.740   6.335
 8228SOL    HW225584   0.240   1.701   6.196
 8229SOL     OW25585   4.054   3.866   1.428
 8229SOL    HW125586   4.008   3.853   1.340
 8229SOL    HW225587   4.085   3.778   1.463
 8230SOL     OW25588   3.521   6.231   5.257
 8230SOL    HW125589   3.462   6.150   5.252
 8230SOL    HW225590   3.465   6.314   5.248
 8231SOL     OW25591   2.965   2.850   1.535
 8231SOL    HW125592   2.880   2.836   1.586
 8231SOL    HW225593   3.042   2.819   1.591
 8232SOL     OW25594   5.931   1.966   2.726
 8232SOL    HW125595   6.030   1.955   2.723
 8232SOL    HW225596   5.902   2.030   2.655
 8233SOL     OW25597   1.669   6.737   6.540
 8233SOL    HW125598   1.737   6.676   6.499
 8233SOL    HW225599   1.581   6.724   6.495
 8234SOL     OW25600   2.698   3.912   0.065
 8234SOL    HW125601   2.647   3.857   7.018
 8234SOL    HW225602   2.710   3.859   0.149
 8235SOL     OW25603   0.244   3.988   6.873
 8235SOL    HW125604   0.300   4.070   6.885
 8235SOL    HW225605   0.258   3.926   6.950
 8236SOL     OW25606   6.937   4.917   0.111
 8236SOL    HW125607   6.911   4.872   0.025
 8236SOL    HW225608   7.018   4.973   0.095
 8237SOL     OW25609   4.689   5.767   6.181
 8237SOL    HW125610   4.707   5.774   6.083
 8237SOL    HW225611   4.732   5.684   6.217
 8238SOL     OW25612   0.414   5.540   0.089
 8238SOL    HW125613   0.507   5.545   0.126
 8238SOL    HW225614   0.397   5.448   0.055
 8239SOL     OW25615   0.503   0.786   5.597
 8239SOL    HW125616   0.403   0.778   5.606
 8239SOL    HW225617   0.527   0.881   5.576
 8240SOL     OW25618   3.386   4.019   2.283
 8240SOL    HW125619   3.327   4.009   2.202
 8240SOL    HW225620   3.464   4.077   2.260
 8241SOL     OW25621   2.804   5.045   5.986
 8241SOL    HW125622   2.869   4.985   5.940
 8241SOL    HW225623   2.779   5.006   6.074
 8242SOL     OW25624   0.670   3.828   6.146
 8242SOL    HW125625   0.687   3.771   6.227
 8242SOL    HW225626   0.659   3.923   6.174
 8243SOL     OW25627   6.606   3.769   1.040
 8243SOL    HW125628   6.654   3.817   0.966
 8243SOL    HW225629   6.598   3.672   1.018
 8244SOL     OW25630   0.200   0.651   3.282
 8244SOL    HW125631   0.261   0.638   3.360
 8244SOL    HW225632   0.128   0.716   3.307
 8245SOL     OW25633   3.664   2.105   2.655
 8245SOL    HW125634   3.759   2.125   2.633
 8245SOL    HW225635   3.609   2.111   2.572
 8246SOL     OW25636   0.724   3.631   6.349
 8246SOL    HW125637   0.824   3.633   6.342
 8246SOL    HW225638   0.691   3.540   6.324
 8247SOL     OW25639   2.132   0.873   3.240
 8247SOL    HW125640   2.211   0.934   3.239
 8247SOL    HW225641   2.075   0.890   3.160
 8248SOL     OW25642   0.174   4.348   4.459
 8248SOL    HW125643   0.116   4.429   4.473
 8248SOL    HW225644   0.148   4.277   4.525
 8249SOL     OW25645   2.019   1.400   5.694
 8249SOL    HW125646   2.040   1.497   5.706
 8249SOL    HW225647   2.034   1.374   5.598
 8250SOL     OW25648   2.308   2.518   1.643
 8250SOL    HW125649   2.383   2.555   1.699
 8250SOL    HW225650   2.344   2.494   1.553
 8251SOL     OW25651   5.048   2.986   3.993
 8251SOL    HW125652   5.102   3.064   3.961
 8251SOL    HW225653   5.018   2.931   3.915
 8252SOL     OW25654   3.934   1.717   6.511
 8252SOL    HW125655   3.959   1.736   6.416
 8252SOL    HW225656   3.977   1.630   6.539
 8253SOL     OW25657   3.845   5.575   5.772
 8253SOL    HW125658   3.860   5.516   5.693
 8253SOL    HW225659   3.748   5.595   5.781
 8254SOL     OW25660   4.752   4.677   5.495
 8254SOL    HW125661   4.717   4.727   5.415
 8254SOL    HW225662   4.686   4.606   5.521
 8255SOL     OW25663   1.477   6.036   5.036
 8255SOL    HW125664   1.532   6.111   5.071
 8255SOL    HW225665   1.419   6.068   4.962
 8256SOL     OW25666   6.496   6.625   2.546
 8256SOL    HW125667   6.558   6.600   2.621
 8256SOL    HW225668   6.528   6.584   2.461
 8257SOL     OW25669   5.324   3.891   2.818
 8257SOL    HW125670   5.247   3.858   2.763
 8257SOL    HW225671   5.376   3.813   2.852
 8258SOL     OW25672   4.997   2.634   2.115
 8258SOL    HW125673   4.930   2.682   2.172
 8258SOL    HW225674   5.089   2.650   2.150
 8259SOL     OW25675   3.885   1.962   5.172
 8259SOL    HW125676   3.892   2.038   5.107
 8259SOL    HW225677   3.940   1.885   5.140
 8260SOL     OW25678   2.708   7.009   1.276
 8260SOL    HW125679   2.646   0.036   1.339
 8260SOL    HW225680   2.671   6.919   1.252
 8261SOL     OW25681   4.991   6.335   3.125
 8261SOL    HW125682   4.895   6.311   3.134
 8261SOL    HW225683   5.001   6.410   3.059
 8262SOL     OW25684   1.196   4.001   0.374
 8262SOL    HW125685   1.112   3.978   0.324
 8262SOL    HW225686   1.236   4.084   0.336
 8263SOL     OW25687   0.178   2.910   6.693
 8263SOL    HW125688   0.094   2.960   6.671
 8263SOL    HW225689   0.243   2.973   6.735
 8264SOL     OW25690   1.689   0.162   1.239
 8264SOL    HW125691   1.694   0.244   1.182
 8264SOL    HW225692   1.615   0.173   1.306
 8265SOL     OW25693   5.719   0.348   1.826
 8265SOL    HW125694   5.658   0.427   1.813
 8265SOL    HW225695   5.665   0.269   1.854
 8266SOL     OW25696   2.434   1.342   4.380
 8266SOL    HW125697   2.451   1.374   4.287
 8266SOL    HW225698   2.381   1.410   4.430
 8267SOL     OW25699   1.700   3.715   1.309
 8267SOL    HW125700   1.619   3.708   1.250
 8267SOL    HW225701   1.744   3.803   1.295
 8268SOL     OW25702   3.034   6.269   6.618
 8268SOL    HW125703   3.058   6.340   6.684
 8268SOL    HW225704   3.117   6.235   6.575
 8269SOL     OW25705   4.543   2.366   2.590
 8269SOL    HW125706   4.581   2.431   2.655
 8269SOL    HW225707   4.580   2.275   2.608
 8270SOL     OW25708   2.945   6.317   4.843
 8270SOL    HW125709   2.935   6.250   4.769
 8270SOL    HW225710   3.010   6.388   4.814
 8271SOL     OW25711   6.926   0.159   2.821
 8271SOL    HW125712   6.991   0.122   2.887
 8271SOL    HW225713   6.840   0.107   2.827
 8272SOL     OW25714   6.480   1.955   2.805
 8272SOL    HW125715   6.402   1.910   2.847
 8272SOL    HW225716   6.492   2.046   2.846
 8273SOL     OW25717   2.599   1.434   0.917
 8273SOL    HW125718   2.539   1.364   0.878
 8273SOL    HW225719   2.563   1.525   0.894
 8274SOL     OW25720   4.477   5.656   4.649
 8274SOL    HW125721   4.445   5.642   4.555
 8274SOL    HW225722   4.509   5.569   4.687
 8275SOL     OW25723   5.287   0.356   4.665
 8275SOL    HW125724   5.203   0.392   4.623
 8275SOL    HW225725   5.290   0.383   4.762
 8276SOL     OW25726   0.755   1.460   5.434
 8276SOL    HW125727   0.661   1.476   5.463
 8276SOL    HW225728   0.772   1.362   5.431
 8277SOL     OW25729   1.434   6.245   6.030
 8277SOL    HW125730   1.390   6.191   6.102
 8277SOL    HW225731   1.366   6.267   5.960
 8278SOL     OW25732   3.428   2.028   6.927
 8278SOL    HW125733   3.463   2.121   6.935
 8278SOL    HW225734   3.329   2.031   6.912
 8279SOL     OW25735   0.437   6.522   5.100
 8279SOL    HW125736   0.392   6.571   5.175
 8279SOL    HW225737   0.487   6.587   5.043
 8280SOL     OW25738   3.537   3.019   0.369
 8280SOL    HW125739   3.547   3.109   0.326
 8280SOL    HW225740   3.552   2.948   0.301
 8281SOL     OW25741   2.277   4.329   1.416
 8281SOL    HW125742   2.354   4.347   1.477
 8281SOL    HW225743   2.310   4.284   1.333
 8282SOL     OW25744   3.609   4.472   6.978
 8282SOL    HW125745   3.516   4.492   6.945
 8282SOL    HW225746   3.674   4.480   6.902
 8283SOL     OW25747   1.609   4.557   4.382
 8283SOL    HW125748   1.615   4.477   4.323
 8283SOL    HW225749   1.628   4.531   4.477
 8284SOL     OW25750   1.400   4.000   1.936
 8284SOL    HW125751   1.415   4.010   2.034
 8284SOL    HW225752   1.323   3.938   1.920
 8285SOL     OW25753   3.362   4.116   4.729
 8285SOL    HW125754   3.267   4.142   4.747
 8285SOL    HW225755   3.378   4.023   4.764
 8286SOL     OW25756   5.407   1.588   4.806
 8286SOL    HW125757   5.348   1.612   4.884
 8286SOL    HW225758   5.444   1.672   4.766
 8287SOL     OW25759   0.989   5.119   4.024
 8287SOL    HW125760   0.932   5.196   4.055
 8287SOL    HW225761   0.992   5.049   4.095
 8288SOL     OW25762   2.643   2.444   2.383
 8288SOL    HW125763   2.724   2.474   2.434
 8288SOL    HW225764   2.670   2.373   2.317
 8289SOL     OW25765   6.867   6.356   6.188
 8289SOL    HW125766   6.772   6.334   6.208
 8289SOL    HW225767   6.874   6.451   6.158
 8290SOL     OW25768   5.116   1.617   0.772
 8290SOL    HW125769   5.118   1.695   0.709
 8290SOL    HW225770   5.151   1.646   0.861
 8291SOL     OW25771   5.683   4.982   5.986
 8291SOL    HW125772   5.654   4.972   6.081
 8291SOL    HW225773   5.691   5.080   5.965
 8292SOL     OW25774   3.359   5.685   6.479
 8292SOL    HW125775   3.450   5.719   6.505
 8292SOL    HW225776   3.365   5.589   6.455
 8293SOL     OW25777   2.301   4.874   1.153
 8293SOL    HW125778   2.260   4.962   1.175
 8293SOL    HW225779   2.345   4.879   1.063
 8294SOL     OW25780   6.200   3.609   4.654
 8294SOL    HW125781   6.251   3.560   4.725
 8294SOL    HW225782   6.143   3.545   4.603
 8295SOL     OW25783   4.824   3.865   2.746
 8295SOL    HW125784   4.804   3.787   2.687
 8295SOL    HW225785   4.858   3.942   2.692
 8296SOL     OW25786   2.533   5.737   0.564
 8296SOL    HW125787   2.600   5.773   0.630
 8296SOL    HW225788   2.534   5.793   0.481
 8297SOL     OW25789   6.837   3.542   2.675
 8297SOL    HW125790   6.864   3.487   2.754
 8297SOL    HW225791   6.818   3.482   2.598
 8298SOL     OW25792   6.881   1.340   0.590
 8298SOL    HW125793   6.803   1.379   0.638
 8298SOL    HW225794   6.862   1.336   0.492
 8299SOL     OW25795   0.570   2.957   2.497
 8299SOL    HW125796   0.495   2.893   2.481
 8299SOL    HW225797   0.569   3.029   2.427
 8300SOL     OW25798   0.211   6.559   4.267
 8300SOL    HW125799   0.307   6.536   4.253
 8300SOL    HW225800   0.181   6.622   4.195
 8301SOL     OW25801   4.228   0.906   6.973
 8301SOL    HW125802   4.128   0.913   6.974
 8301SOL    HW225803   4.268   0.997   6.974
 8302SOL     OW25804   5.541   6.293   6.084
 8302SOL    HW125805   5.530   6.281   5.985
 8302SOL    HW225806   5.521   6.387   6.110
 8303SOL     OW25807   5.669   0.525   3.669
 8303SOL    HW125808   5.762   0.521   3.706
 8303SOL    HW225809   5.669   0.492   3.575
 8304SOL     OW25810   5.927   4.411   1.299
 8304SOL    HW125811   5.991   4.472   1.252
 8304SOL    HW225812   5.837   4.419   1.258
 8305SOL     OW25813   4.585   4.932   4.394
 8305SOL    HW125814   4.489   4.902   4.398
 8305SOL    HW225815   4.588   5.026   4.359
 8306SOL     OW25816   5.919   1.436   3.421
 8306SOL    HW125817   5.891   1.364   3.357
 8306SOL    HW225818   5.905   1.526   3.379
 8307SOL     OW25819   3.829   5.653   1.572
 8307SOL    HW125820   3.915   5.685   1.531
 8307SOL    HW225821   3.783   5.592   1.507
 8308SOL     OW25822   2.392   6.108   0.399
 8308SOL    HW125823   2.334   6.028   0.411
 8308SOL    HW225824   2.442   6.100   0.312
 8309SOL     OW25825   6.439   5.885   2.227
 8309SOL    HW125826   6.398   5.928   2.147
 8309SOL    HW225827   6.535   5.912   2.234
 8310SOL     OW25828   1.260   5.285   1.467
 8310SOL    HW125829   1.353   5.250   1.457
 8310SOL    HW225830   1.207   5.223   1.525
 8311SOL     OW25831   6.368   1.404   5.248
 8311SOL    HW125832   6.301   1.447   5.309
 8311SOL    HW225833   6.389   1.466   5.172
 8312SOL     OW25834   5.403   1.185   6.297
 8312SOL    HW125835   5.481   1.196   6.358
 8312SOL    HW225836   5.320   1.220   6.341
 8313SOL     OW25837   5.655   0.387   5.853
 8313SOL    HW125838   5.580   0.360   5.914
 8313SOL    HW225839   5.739   0.341   5.882
 8314SOL     OW25840   6.359   6.759   6.487
 8314SOL    HW125841   6.267   6.750   6.450
 8314SOL    HW225842   6.425   6.763   6.411
 8315SOL     OW25843   4.064   3.122   2.833
 8315SOL    HW125844   4.020   3.059   2.770
 8315SOL    HW225845   4.009   3.130   2.917
 8316SOL     OW25846   1.528   3.075   1.785
 8316SOL    HW125847   1.575   3.021   1.715
 8316SOL    HW225848   1.429   3.063   1.776
 8317SOL     OW25849   1.378   2.285   2.838
 8317SOL    HW125850   1.317   2.335   2.778
 8317SOL    HW225851   1.404   2.343   2.916
 8318SOL     OW25852   4.251   1.244   5.908
 8318SOL    HW125853   4.323   1.307   5.936
 8318SOL    HW225854   4.210   1.276   5.822
 8319SOL     OW25855   1.109   1.185   1.357
 8319SOL    HW125856   1.032   1.146   1.408
 8319SOL    HW225857   1.194   1.139   1.384
 8320SOL     OW25858   3.217   3.986   2.726
 8320SOL    HW125859   3.292   4.049   2.705
 8320SOL    HW225860   3.194   3.993   2.823
 8321SOL     OW25861   6.410   0.347   0.046
 8321SOL    HW125862   6.315   0.351   0.078
 8321SOL    HW225863   6.413   0.368   6.967
 8322SOL     OW25864   5.896   1.028   1.059
 8322SOL    HW125865   5.819   0.990   1.007
 8322SOL    HW225866   5.926   1.113   1.016
 8323SOL     OW25867   4.250   4.701   1.512
 8323SOL    HW125868   4.314   4.768   1.474
 8323SOL    HW225869   4.282   4.608   1.493
 8324SOL     OW25870   5.581   0.227   0.863
 8324SOL    HW125871   5.626   0.194   0.946
 8324SOL    HW225872   5.484   0.202   0.865
 8325SOL     OW25873   1.703   3.452   5.328
 8325SOL    HW125874   1.796   3.478   5.303
 8325SOL    HW225875   1.700   3.426   5.424
 8326SOL     OW25876   4.271   4.443   5.531
 8326SOL    HW125877   4.277   4.366   5.467
 8326SOL    HW225878   4.188   4.433   5.586
 8327SOL     OW25879   0.035   0.835   5.812
 8327SOL    HW125880   0.061   0.769   5.743
 8327SOL    HW225881   0.095   0.826   5.892
 8328SOL     OW25882   2.833   6.096   6.496
 8328SOL    HW125883   2.875   6.173   6.543
 8328SOL    HW225884   2.867   6.092   6.402
 8329SOL     OW25885   0.592   2.443   4.613
 8329SOL    HW125886   0.554   2.520   4.664
 8329SOL    HW225887   0.518   2.380   4.589
 8330SOL     OW25888   3.098   1.150   6.817
 8330SOL    HW125889   3.079   1.080   6.886
 8330SOL    HW225890   3.018   1.163   6.758
 8331SOL     OW25891   3.608   0.467   0.686
 8331SOL    HW125892   3.531   0.517   0.649
 8331SOL    HW225893   3.583   0.371   0.698
 8332SOL     OW25894   5.852   5.652   2.410
 8332SOL    HW125895   5.891   5.563   2.432
 8332SOL    HW225896   5.846   5.663   2.311
 8333SOL     OW25897   1.055   4.925   0.121
 8333SOL    HW125898   1.001   4.843   0.142
 8333SOL    HW225899   1.003   5.007   0.144
 8334SOL     OW25900   3.421   1.921   5.129
 8334SOL    HW125901   3.506   1.902   5.179
 8334SOL    HW225902   3.377   2.002   5.168
 8335SOL     OW25903   4.679   1.262   0.490
 8335SOL    HW125904   4.668   1.165   0.472
 8335SOL    HW225905   4.735   1.274   0.573
 8336SOL     OW25906   0.682   4.139   2.758
 8336SOL    HW125907   0.691   4.058   2.701
 8336SOL    HW225908   0.771   4.185   2.766
 8337SOL     OW25909   0.375   6.409   3.952
 8337SOL    HW125910   0.414   6.483   4.007
 8337SOL    HW225911   0.279   6.429   3.932
 8338SOL     OW25912   3.372   5.569   1.509
 8338SOL    HW125913   3.429   5.531   1.436
 8338SOL    HW225914   3.278   5.537   1.500
 8339SOL     OW25915   6.526   0.293   1.954
 8339SOL    HW125916   6.448   0.292   2.017
 8339SOL    HW225917   6.494   0.273   1.861
 8340SOL     OW25918   4.943   4.044   1.387
 8340SOL    HW125919   4.935   3.973   1.318
 8340SOL    HW225920   4.901   4.013   1.472
 8341SOL     OW25921   2.455   0.341   6.475
 8341SOL    HW125922   2.553   0.363   6.469
 8341SOL    HW225923   2.432   0.273   6.405
 8342SOL     OW25924   4.594   6.843   0.235
 8342SOL    HW125925   4.553   6.896   0.309
 8342SOL    HW225926   4.647   6.903   0.176
 8343SOL     OW25927   0.417   5.947   3.481
 8343SOL    HW125928   0.502   5.999   3.474
 8343SOL    HW225929   0.438   5.849   3.485
 8344SOL     OW25930   6.679   5.850   4.718
 8344SOL    HW125931   6.730   5.855   4.632
 8344SOL    HW225932   6.583   5.833   4.698
 8345SOL     OW25933   3.893   2.138   2.536
 8345SOL    HW125934   3.992   2.127   2.527
 8345SOL    HW225935   3.847   2.080   2.468
 8346SOL     OW25936   3.670   4.723   0.950
 8346SOL    HW125937   3.635   4.738   0.857
 8346SOL    HW225938   3.766   4.694   0.945
 8347SOL     OW25939   2.924   6.771   5.044
 8347SOL    HW125940   2.913   6.730   5.135
 8347SOL    HW225941   2.920   6.700   4.974
 8348SOL     OW25942   2.097   1.120   1.103
 8348SOL    HW125943   2.100   1.033   1.053
 8348SOL    HW225944   2.149   1.112   1.187
 8349SOL     OW25945   1.009   6.681   2.488
 8349SOL    HW125946   1.015   6.586   2.458
 8349SOL    HW225947   0.920   6.697   2.530
 8350SOL     OW25948   2.791   6.645   6.041
 8350SOL    HW125949   2.706   6.602   6.074
 8350SOL    HW225950   2.820   6.715   6.105
 8351SOL     OW25951   4.960   5.625   4.343
 8351SOL    HW125952   4.932   5.674   4.261
 8351SOL    HW225953   4.926   5.672   4.424
 8352SOL     OW25954   0.548   0.162   3.304
 8352SOL    HW125955   0.547   0.119   3.394
 8352SOL    HW225956   0.557   0.261   3.315
 8353SOL     OW25957   0.728   3.982   1.039
 8353SOL    HW125958   0.822   4.015   1.052
 8353SOL    HW225959   0.730   3.884   1.023
 8354SOL     OW25960   3.633   0.067   4.622
 8354SOL    HW125961   3.678   0.156   4.626
 8354SOL    HW225962   3.549   0.069   4.676
 8355SOL     OW25963   2.758   1.321   5.600
 8355SOL    HW125964   2.663   1.351   5.593
 8355SOL    HW225965   2.810   1.355   5.521
 8356SOL     OW25966   1.002   0.430   2.023
 8356SOL    HW125967   1.089   0.417   2.072
 8356SOL    HW225968   0.926   0.417   2.087
 8357SOL     OW25969   3.278   6.674   5.491
 8357SOL    HW125970   3.378   6.670   5.493
 8357SOL    HW225971   3.244   6.719   5.574
 8358SOL     OW25972   2.057   3.842   5.005
 8358SOL    HW125973   2.150   3.873   4.982
 8358SOL    HW225974   2.037   3.865   5.100
 8359SOL     OW25975   3.299   1.183   4.940
 8359SOL    HW125976   3.297   1.094   4.986
 8359SOL    HW225977   3.356   1.177   4.858
 8360SOL     OW25978   3.924   0.227   0.428
 8360SOL    HW125979   3.866   0.146   0.439
 8360SOL    HW225980   3.943   0.267   0.518
 8361SOL     OW25981   3.330   0.494   1.487
 8361SOL    HW125982   3.387   0.546   1.550
 8361SOL    HW225983   3.387   0.448   1.420
 8362SOL     OW25984   4.968   1.489   1.118
 8362SOL    HW125985   5.009   1.418   1.060
 8362SOL    HW225986   4.879   1.458   1.151
 8363SOL     OW25987   4.607   2.676   6.889
 8363SOL    HW125988   4.604   2.593   6.834
 8363SOL    HW225989   4.664   2.744   6.843
 8364SOL     OW25990   0.498   2.042   4.134
 8364SOL    HW125991   0.594   2.013   4.136
 8364SOL    HW225992   0.489   2.128   4.085
 8365SOL     OW25993   1.804   2.820   2.882
 8365SOL    HW125994   1.752   2.905   2.867
 8365SOL    HW225995   1.802   2.765   2.799
 8366SOL     OW25996   2.506   5.534   0.971
 8366SOL    HW125997   2.586   5.507   0.917
 8366SOL    HW225998   2.462   5.613   0.928
 8367SOL     OW25999   3.242   5.822   4.679
 8367SOL    HW126000   3.205   5.760   4.748
 8367SOL    HW226001   3.201   5.800   4.590
 8368SOL     OW26002   1.018   6.577   6.852
 8368SOL    HW126003   1.113   6.604   6.837
 8368SOL    HW226004   0.959   6.624   6.786
 8369SOL     OW26005   0.410   0.086   5.928
 8369SOL    HW126006   0.490   0.031   5.952
 8369SOL    HW226007   0.420   0.122   5.836
 8370SOL     OW26008   2.907   1.638   5.995
 8370SOL    HW126009   2.970   1.715   6.004
 8370SOL    HW226010   2.919   1.576   6.072
 8371SOL     OW26011   2.115   4.341   0.814
 8371SOL    HW126012   2.051   4.401   0.766
 8371SOL    HW226013   2.199   4.332   0.760
 8372SOL     OW26014   1.765   5.324   1.616
 8372SOL    HW126015   1.702   5.401   1.624
 8372SOL    HW226016   1.752   5.279   1.528
 8373SOL     OW26017   1.820   6.153   3.925
 8373SOL    HW126018   1.752   6.156   3.851
 8373SOL    HW226019   1.787   6.209   4.001
 8374SOL     OW26020   0.125   0.289   5.311
 8374SOL    HW126021   0.202   0.337   5.353
 8374SOL    HW226022   0.042   0.306   5.364
 8375SOL     OW26023   3.976   6.018   5.325
 8375SOL    HW126024   3.996   5.985   5.418
 8375SOL    HW226025   4.005   5.949   5.259
 8376SOL     OW26026   0.903   1.340   4.423
 8376SOL    HW126027   0.872   1.297   4.339
 8376SOL    HW226028   0.881   1.281   4.501
 8377SOL     OW26029   5.765   6.105   0.781
 8377SOL    HW126030   5.683   6.113   0.724
 8377SOL    HW226031   5.792   6.009   0.787
 8378SOL     OW26032   3.525   5.181   2.808
 8378SOL    HW126033   3.469   5.115   2.758
 8378SOL    HW226034   3.567   5.245   2.744
 8379SOL     OW26035   5.138   2.771   1.497
 8379SOL    HW126036   5.057   2.719   1.523
 8379SOL    HW226037   5.213   2.749   1.559
 8380SOL     OW26038   0.890   0.526   1.768
 8380SOL    HW126039   0.833   0.444   1.757
 8380SOL    HW226040   0.936   0.523   1.856
 8381SOL     OW26041   0.385   2.791   4.317
 8381SOL    HW126042   0.375   2.792   4.218
 8381SOL    HW226043   0.320   2.727   4.357
 8382SOL     OW26044   2.206   6.938   2.332
 8382SOL    HW126045   2.278   6.986   2.281
 8382SOL    HW226046   2.163   7.001   2.396
 8383SOL     OW26047   2.803   6.894   6.205
 8383SOL    HW126048   2.789   6.953   6.126
 8383SOL    HW226049   2.816   6.950   6.287
 8384SOL     OW26050   6.521   1.716   1.403
 8384SOL    HW126051   6.511   1.789   1.470
 8384SOL    HW226052   6.431   1.690   1.368
 8385SOL     OW26053   4.988   2.612   6.852
 8385SOL    HW126054   4.964   2.670   6.774
 8385SOL    HW226055   5.032   2.668   6.922
 8386SOL     OW26056   1.570   6.572   1.843
 8386SOL    HW126057   1.608   6.659   1.810
 8386SOL    HW226058   1.480   6.589   1.883
 8387SOL     OW26059   1.046   1.300   1.634
 8387SOL    HW126060   0.996   1.214   1.631
 8387SOL    HW226061   1.035   1.348   1.547
 8388SOL     OW26062   2.390   6.894   0.686
 8388SOL    HW126063   2.332   6.877   0.765
 8388SOL    HW226064   2.482   6.858   0.702
 8389SOL     OW26065   6.801   3.828   4.089
 8389SOL    HW126066   6.901   3.830   4.079
 8389SOL    HW226067   6.777   3.767   4.165
 8390SOL     OW26068   4.073   6.528   0.496
 8390SOL    HW126069   4.167   6.553   0.519
 8390SOL    HW226070   4.036   6.594   0.431
 8391SOL     OW26071   5.866   4.932   1.222
 8391SOL    HW126072   5.856   4.951   1.319
 8391SOL    HW226073   5.953   4.970   1.189
 8392SOL     OW26074   0.048   4.785   5.195
 8392SOL    HW126075   0.112   4.734   5.136
 8392SOL    HW226076   0.042   4.740   5.284
 8393SOL     OW26077   0.160   0.320   2.894
 8393SOL    HW126078   0.167   0.418   2.909
 8393SOL    HW226079   0.085   0.301   2.831
 8394SOL     OW26080   0.566   3.156   1.742
 8394SOL    HW126081   0.648   3.193   1.786
 8394SOL    HW226082   0.566   3.057   1.750
 8395SOL     OW26083   1.808   6.327   4.667
 8395SOL    HW126084   1.835   6.230   4.666
 8395SOL    HW226085   1.809   6.363   4.574
 8396SOL     OW26086   4.056   5.303   2.735
 8396SOL    HW126087   4.078   5.314   2.832
 8396SOL    HW226088   4.012   5.215   2.720
 8397SOL     OW26089   2.588   0.949   2.605
 8397SOL    HW126090   2.646   0.969   2.684
 8397SOL    HW226091   2.522   1.023   2.593
 8398SOL     OW26092   4.481   2.244   6.870
 8398SOL    HW126093   4.577   2.234   6.896
 8398SOL    HW226094   4.427   2.173   6.914
 8399SOL     OW26095   6.170   6.614   0.660
 8399SOL    HW126096   6.178   6.607   0.760
 8399SOL    HW226097   6.112   6.540   0.627
 8400SOL     OW26098   1.665   0.690   4.244
 8400SOL    HW126099   1.610   0.665   4.324
 8400SOL    HW226100   1.724   0.768   4.267
 8401SOL     OW26101   3.535   1.870   6.063
 8401SOL    HW126102   3.467   1.922   6.114
 8401SOL    HW226103   3.507   1.864   5.967
 8402SOL     OW26104   3.915   2.242   5.592
 8402SOL    HW126105   4.012   2.239   5.617
 8402SOL    HW226106   3.866   2.168   5.637
 8403SOL     OW26107   1.081   2.467   4.292
 8403SOL    HW126108   1.005   2.476   4.355
 8403SOL    HW226109   1.085   2.373   4.257
 8404SOL     OW26110   4.301   6.736   6.142
 8404SOL    HW126111   4.358   6.760   6.220
 8404SOL    HW226112   4.215   6.787   6.147
 8405SOL     OW26113   2.775   0.276   5.593
 8405SOL    HW126114   2.767   0.221   5.509
 8405SOL    HW226115   2.761   0.217   5.673
 8406SOL     OW26116   5.765   6.912   0.542
 8406SOL    HW126117   5.705   6.833   0.529
 8406SOL    HW226118   5.744   6.983   0.475
 8407SOL     OW26119   3.474   6.246   4.068
 8407SOL    HW126120   3.469   6.210   3.974
 8407SOL    HW226121   3.398   6.308   4.084
 8408SOL     OW26122   5.377   3.611   2.048
 8408SOL    HW126123   5.469   3.648   2.039
 8408SOL    HW226124   5.311   3.686   2.044
 8409SOL     OW26125   5.773   3.069   4.096
 8409SOL    HW126126   5.735   3.007   4.028
 8409SOL    HW226127   5.699   3.112   4.148
 8410SOL     OW26128   4.836   0.386   1.516
 8410SOL    HW126129   4.880   0.471   1.486
 8410SOL    HW226130   4.905   0.314   1.524
 8411SOL     OW26131   0.661   4.980   6.959
 8411SOL    HW126132   0.570   4.971   6.920
 8411SOL    HW226133   0.707   5.059   6.919
 8412SOL     OW26134   3.380   2.147   1.579
 8412SOL    HW126135   3.347   2.227   1.631
 8412SOL    HW226136   3.426   2.179   1.496
 8413SOL     OW26137   4.277   5.664   0.487
 8413SOL    HW126138   4.325   5.576   0.480
 8413SOL    HW226139   4.336   5.731   0.532
 8414SOL     OW26140   3.709   5.437   3.475
 8414SOL    HW126141   3.693   5.344   3.508
 8414SOL    HW226142   3.725   5.435   3.376
 8415SOL     OW26143   6.732   6.104   3.378
 8415SOL    HW126144   6.724   6.005   3.383
 8415SOL    HW226145   6.825   6.132   3.403
 8416SOL     OW26146   5.470   3.693   2.953
 8416SOL    HW126147   5.535   3.651   2.889
 8416SOL    HW226148   5.520   3.733   3.030
 8417SOL     OW26149   1.218   4.937   5.740
 8417SOL    HW126150   1.216   4.840   5.714
 8417SOL    HW226151   1.270   4.989   5.673
 8418SOL     OW26152   5.927   5.244   0.917
 8418SOL    HW126153   6.015   5.198   0.926
 8418SOL    HW226154   5.857   5.193   0.968
 8419SOL     OW26155   5.394   0.318   1.978
 8419SOL    HW126156   5.297   0.312   2.000
 8419SOL    HW226157   5.448   0.314   2.062
 8420SOL     OW26158   4.319   6.531   0.576
 8420SOL    HW126159   4.363   6.458   0.629
 8420SOL    HW226160   4.382   6.565   0.506
 8421SOL     OW26161   2.351   5.698   6.736
 8421SOL    HW126162   2.352   5.650   6.649
 8421SOL    HW226163   2.258   5.730   6.756
 8422SOL     OW26164   4.112   0.846   1.063
 8422SOL    HW126165   4.050   0.920   1.036
 8422SOL    HW226166   4.062   0.780   1.119
 8423SOL     OW26167   3.671   4.722   5.608
 8423SOL    HW126168   3.722   4.638   5.624
 8423SOL    HW226169   3.594   4.726   5.672
 8424SOL     OW26170   1.836   2.587   3.014
 8424SOL    HW126171   1.839   2.678   2.972
 8424SOL    HW226172   1.917   2.574   3.071
 8425SOL     OW26173   4.979   5.671   0.262
 8425SOL    HW126174   5.035   5.655   0.180
 8425SOL    HW226175   5.023   5.738   0.320
 8426SOL     OW26176   3.347   3.585   4.026
 8426SOL    HW126177   3.370   3.650   3.954
 8426SOL    HW226178   3.428   3.530   4.048
 8427SOL     OW26179   3.681   3.293   4.720
 8427SOL    HW126180   3.662   3.387   4.749
 8427SOL    HW226181   3.613   3.265   4.652
 8428SOL     OW26182   0.522   4.862   1.651
 8428SOL    HW126183   0.597   4.815   1.697
 8428SOL    HW226184   0.533   4.854   1.552
 8429SOL     OW26185   1.534   5.105   3.567
 8429SOL    HW126186   1.574   5.053   3.643
 8429SOL    HW226187   1.564   5.065   3.480
 8430SOL     OW26188   3.414   5.119   3.950
 8430SOL    HW126189   3.508   5.137   3.922
 8430SOL    HW226190   3.394   5.021   3.944
 8431SOL     OW26191   2.895   5.327   0.706
 8431SOL    HW126192   2.921   5.236   0.739
 8431SOL    HW226193   2.976   5.383   0.694
 8432SOL     OW26194   5.925   6.870   6.321
 8432SOL    HW126195   5.960   6.802   6.256
 8432SOL    HW226196   5.933   6.835   6.414
 8433SOL     OW26197   5.320   2.462   0.423
 8433SOL    HW126198   5.298   2.384   0.365
 8433SOL    HW226199   5.264   2.459   0.506
 8434SOL     OW26200   2.669   6.772   4.794
 8434SOL    HW126201   2.767   6.758   4.809
 8434SOL    HW226202   2.633   6.833   4.864
 8435SOL     OW26203   5.773   0.914   1.491
 8435SOL    HW126204   5.745   0.987   1.554
 8435SOL    HW226205   5.785   0.829   1.542
 8436SOL     OW26206   3.749   0.307   3.931
 8436SOL    HW126207   3.673   0.371   3.921
 8436SOL    HW226208   3.765   0.261   3.844
 8437SOL     OW26209   2.195   0.015   3.886
 8437SOL    HW126210   2.223   0.109   3.906
 8437SOL    HW226211   2.246   7.000   3.806
 8438SOL     OW26212   2.737   4.712   2.434
 8438SOL    HW126213   2.725   4.656   2.352
 8438SOL    HW226214   2.708   4.806   2.414
 8439SOL     OW26215   6.243   5.210   2.392
 8439SOL    HW126216   6.216   5.289   2.336
 8439SOL    HW226217   6.234   5.234   2.489
 8440SOL     OW26218   0.740   2.348   3.753
 8440SOL    HW126219   0.827   2.319   3.793
 8440SOL    HW226220   0.713   2.436   3.793
 8441SOL     OW26221   5.750   6.691   0.009
 8441SOL    HW126222   5.656   6.693   0.043
 8441SOL    HW226223   5.807   6.749   0.067
 8442SOL     OW26224   2.854   1.573   5.422
 8442SOL    HW126225   2.900   1.646   5.474
 8442SOL    HW226226   2.759   1.599   5.406
 8443SOL     OW26227   1.860   5.537   3.391
 8443SOL    HW126228   1.889   5.626   3.356
 8443SOL    HW226229   1.766   5.520   3.364
 8444SOL     OW26230   2.747   5.601   3.712
 8444SOL    HW126231   2.801   5.664   3.768
 8444SOL    HW226232   2.768   5.507   3.737
 8445SOL     OW26233   3.999   6.317   0.660
 8445SOL    HW126234   4.072   6.254   0.687
 8445SOL    HW226235   4.033   6.378   0.588
 8446SOL     OW26236   4.102   4.980   6.629
 8446SOL    HW126237   4.177   5.000   6.565
 8446SOL    HW226238   4.135   4.921   6.702
 8447SOL     OW26239   4.590   2.094   2.626
 8447SOL    HW126240   4.512   2.087   2.688
 8447SOL    HW226241   4.665   2.038   2.661
 8448SOL     OW26242   4.580   6.197   4.222
 8448SOL    HW126243   4.485   6.227   4.226
 8448SOL    HW226244   4.629   6.231   4.303
 8449SOL     OW26245   6.810   2.351   4.248
 8449SOL    HW126246   6.713   2.346   4.223
 8449SOL    HW226247   6.820   2.401   4.334
 8450SOL     OW26248   1.200   6.228   1.298
 8450SOL    HW126249   1.116   6.193   1.340
 8450SOL    HW226250   1.278   6.205   1.357
 8451SOL     OW26251   4.055   2.250   0.039
 8451SOL    HW126252   4.083   2.346   0.050
 8451SOL    HW226253   4.072   2.200   0.123
 8452SOL     OW26254   6.287   1.227   2.892
 8452SOL    HW126255   6.365   1.260   2.944
 8452SOL    HW226256   6.217   1.298   2.886
 8453SOL     OW26257   0.129   4.172   6.137
 8453SOL    HW126258   0.172   4.212   6.056
 8453SOL    HW226259   0.200   4.146   6.203
 8454SOL     OW26260   0.135   6.843   1.136
 8454SOL    HW126261   0.191   6.901   1.195
 8454SOL    HW226262   0.192   6.774   1.092
 8455SOL     OW26263   6.028   2.798   1.540
 8455SOL    HW126264   5.992   2.738   1.469
 8455SOL    HW226265   5.966   2.799   1.618
 8456SOL     OW26266   4.477   6.255   2.974
 8456SOL    HW126267   4.460   6.253   3.073
 8456SOL    HW226268   4.407   6.200   2.927
 8457SOL     OW26269   6.419   6.809   4.848
 8457SOL    HW126270   6.498   6.749   4.861
 8457SOL    HW226271   6.451   6.900   4.818
 8458SOL     OW26272   3.140   1.653   6.710
 8458SOL    HW126273   3.156   1.680   6.805
 8458SOL    HW226274   3.224   1.615   6.671
 8459SOL     OW26275   3.145   6.584   2.419
 8459SOL    HW126276   3.178   6.562   2.327
 8459SOL    HW226277   3.070   6.651   2.412
 8460SOL     OW26278   4.462   3.659   5.313
 8460SOL    HW126279   4.536   3.631   5.251
 8460SOL    HW226280   4.478   3.752   5.345
 8461SOL     OW26281   6.775   4.433   3.611
 8461SOL    HW126282   6.772   4.392   3.702
 8461SOL    HW226283   6.742   4.527   3.616
 8462SOL     OW26284   3.463   2.536   6.943
 8462SOL    HW126285   3.521   2.609   6.979
 8462SOL    HW226286   3.375   2.575   6.916
 8463SOL     OW26287   6.961   0.024   0.833
 8463SOL    HW126288   0.006   6.994   0.773
 8463SOL    HW226289   6.876   0.041   0.784
 8464SOL     OW26290   5.258   3.704   5.393
 8464SOL    HW126291   5.209   3.789   5.409
 8464SOL    HW226292   5.316   3.684   5.472
 8465SOL     OW26293   1.220   2.856   1.195
 8465SOL    HW126294   1.166   2.842   1.278
 8465SOL    HW226295   1.217   2.774   1.138
 8466SOL     OW26296   0.666   6.962   4.993
 8466SOL    HW126297   0.580   6.972   5.042
 8466SOL    HW226298   0.730   6.910   5.049
 8467SOL     OW26299   4.568   0.106   1.026
 8467SOL    HW126300   4.494   0.049   0.990
 8467SOL    HW226301   4.573   0.095   1.125
 8468SOL     OW26302   4.146   1.947   6.459
 8468SOL    HW126303   4.178   1.863   6.502
 8468SOL    HW226304   4.224   2.002   6.428
 8469SOL     OW26305   3.816   1.256   6.113
 8469SOL    HW126306   3.888   1.206   6.064
 8469SOL    HW226307   3.733   1.201   6.114
 8470SOL     OW26308   1.785   4.248   0.156
 8470SOL    HW126309   1.775   4.246   0.057
 8470SOL    HW226310   1.810   4.157   0.189
 8471SOL     OW26311   3.691   0.901   4.030
 8471SOL    HW126312   3.669   0.986   4.078
 8471SOL    HW226313   3.689   0.825   4.094
 8472SOL     OW26314   6.813   0.481   5.227
 8472SOL    HW126315   6.763   0.409   5.180
 8472SOL    HW226316   6.816   0.563   5.170
 8473SOL     OW26317   6.831   6.207   0.270
 8473SOL    HW126318   6.848   6.112   0.299
 8473SOL    HW226319   6.737   6.232   0.292
 8474SOL     OW26320   3.498   3.196   2.177
 8474SOL    HW126321   3.466   3.131   2.109
 8474SOL    HW226322   3.598   3.196   2.178
 8475SOL     OW26323   6.598   2.753   3.944
 8475SOL    HW126324   6.597   2.838   3.891
 8475SOL    HW226325   6.532   2.760   4.019
 8476SOL     OW26326   6.725   2.290   0.896
 8476SOL    HW126327   6.638   2.284   0.945
 8476SOL    HW226328   6.783   2.212   0.920
 8477SOL     OW26329   5.093   6.803   1.279
 8477SOL    HW126330   5.191   6.791   1.266
 8477SOL    HW226331   5.061   6.741   1.352
 8478SOL     OW26332   1.855   6.950   6.498
 8478SOL    HW126333   1.809   6.883   6.556
 8478SOL    HW226334   1.789   6.989   6.434
 8479SOL     OW26335   0.677   2.868   1.001
 8479SOL    HW126336   0.643   2.821   0.920
 8479SOL    HW226337   0.776   2.881   0.994
 8480SOL     OW26338   4.116   1.725   6.859
 8480SOL    HW126339   4.080   1.817   6.875
 8480SOL    HW226340   4.041   1.661   6.845
 8481SOL     OW26341   4.655   2.686   4.806
 8481SOL    HW126342   4.578   2.626   4.825
 8481SOL    HW226343   4.678   2.681   4.709
 8482SOL     OW26344   4.370   6.020   1.716
 8482SOL    HW126345   4.358   6.030   1.617
 8482SOL    HW226346   4.395   6.108   1.755
 8483SOL     OW26347   4.563   6.477   2.049
 8483SOL    HW126348   4.577   6.380   2.069
 8483SOL    HW226349   4.594   6.532   2.127
 8484SOL     OW26350   0.223   6.415   3.483
 8484SOL    HW126351   0.250   6.401   3.387
 8484SOL    HW226352   0.303   6.443   3.536
 8485SOL     OW26353   3.978   2.643   0.036
 8485SOL    HW126354   4.075   2.664   0.026
 8485SOL    HW226355   3.953   2.570   6.991
 8486SOL     OW26356   2.694   2.039   2.390
 8486SOL    HW126357   2.686   1.984   2.307
 8486SOL    HW226358   2.706   2.135   2.366
 8487SOL     OW26359   5.990   1.218   5.476
 8487SOL    HW126360   6.081   1.193   5.509
 8487SOL    HW226361   5.921   1.184   5.540
 8488SOL     OW26362   5.366   5.910   0.413
 8488SOL    HW126363   5.376   6.001   0.372
 8488SOL    HW226364   5.270   5.883   0.411
 8489SOL     OW26365   6.387   2.139   0.849
 8489SOL    HW126366   6.440   2.073   0.902
 8489SOL    HW226367   6.418   2.232   0.871
 8490SOL     OW26368   4.625   6.584   4.133
 8490SOL    HW126369   4.612   6.493   4.172
 8490SOL    HW226370   4.717   6.591   4.094
 8491SOL     OW26371   3.124   5.887   1.249
 8491SOL    HW126372   3.086   5.912   1.338
 8491SOL    HW226373   3.050   5.861   1.187
 8492SOL     OW26374   4.636   3.825   5.476
 8492SOL    HW126375   4.641   3.832   5.575
 8492SOL    HW226376   4.688   3.745   5.445
 8493SOL     OW26377   2.240   2.877   6.440
 8493SOL    HW126378   2.328   2.854   6.481
 8493SOL    HW226379   2.247   2.965   6.393
 8494SOL     OW26380   3.552   5.783   1.590
 8494SOL    HW126381   3.634   5.739   1.554
 8494SOL    HW226382   3.472   5.724   1.571
 8495SOL     OW26383   5.581   5.136   2.565
 8495SOL    HW126384   5.679   5.120   2.578
 8495SOL    HW226385   5.550   5.087   2.483
 8496SOL     OW26386   1.126   2.544   1.569
 8496SOL    HW126387   1.130   2.494   1.656
 8496SOL    HW226388   1.192   2.619   1.571
 8497SOL     OW26389   6.364   0.988   3.410
 8497SOL    HW126390   6.377   1.019   3.504
 8497SOL    HW226391   6.435   0.921   3.388
 8498SOL     OW26392   6.612   6.868   3.223
 8498SOL    HW126393   6.521   6.909   3.219
 8498SOL    HW226394   6.643   6.863   3.318
 8499SOL     OW26395   1.965   4.586   6.546
 8499SOL    HW126396   2.021   4.513   6.584
 8499SOL    HW226397   2.014   4.630   6.471
 8500SOL     OW26398   1.858   5.873   5.457
 8500SOL    HW126399   1.807   5.887   5.543
 8500SOL    HW226400   1.810   5.919   5.383
 8501SOL     OW26401   0.419   2.452   6.987
 8501SOL    HW126402   0.332   2.453   6.937
 8501SOL    HW226403   0.402   2.437   0.065
 8502SOL     OW26404   1.125   3.478   1.190
 8502SOL    HW126405   1.123   3.448   1.095
 8502SOL    HW226406   1.099   3.574   1.196
 8503SOL     OW26407   1.127   6.453   4.025
 8503SOL    HW126408   1.093   6.362   4.004
 8503SOL    HW226409   1.220   6.446   4.061
 8504SOL     OW26410   2.595   4.918   2.071
 8504SOL    HW126411   2.691   4.926   2.043
 8504SOL    HW226412   2.536   4.923   1.991
 8505SOL     OW26413   5.425   3.481   3.759
 8505SOL    HW126414   5.500   3.431   3.717
 8505SOL    HW226415   5.339   3.461   3.711
 8506SOL     OW26416   0.152   0.723   6.592
 8506SOL    HW126417   0.186   0.643   6.542
 8506SOL    HW226418   0.072   0.697   6.646
 8507SOL     OW26419   3.929   0.628   5.481
 8507SOL    HW126420   3.857   0.590   5.539
 8507SOL    HW226421   4.010   0.569   5.486
 8508SOL     OW26422   6.055   1.645   5.011
 8508SOL    HW126423   6.127   1.648   4.942
 8508SOL    HW226424   6.070   1.718   5.078
 8509SOL     OW26425   4.738   1.602   4.564
 8509SOL    HW126426   4.828   1.645   4.566
 8509SOL    HW226427   4.747   1.505   4.586
 8510SOL     OW26428   6.211   4.599   2.728
 8510SOL    HW126429   6.197   4.616   2.630
 8510SOL    HW226430   6.178   4.508   2.751
 8511SOL     OW26431   5.827   3.368   2.342
 8511SOL    HW126432   5.747   3.426   2.352
 8511SOL    HW226433   5.810   3.279   2.385
 8512SOL     OW26434   2.927   2.219   1.732
 8512SOL    HW126435   2.924   2.267   1.820
 8512SOL    HW226436   2.993   2.264   1.672
 8513SOL     OW26437   5.825   4.674   1.041
 8513SOL    HW126438   5.853   4.748   1.101
 8513SOL    HW226439   5.821   4.707   0.947
 8514SOL     OW26440   2.806   2.333   3.754
 8514SOL    HW126441   2.746   2.313   3.832
 8514SOL    HW226442   2.755   2.385   3.686
 8515SOL     OW26443   5.362   2.272   0.700
 8515SOL    HW126444   5.291   2.212   0.662
 8515SOL    HW226445   5.405   2.228   0.778
 8516SOL     OW26446   5.768   2.011   1.670
 8516SOL    HW126447   5.829   1.998   1.592
 8516SOL    HW226448   5.751   1.923   1.714
 8517SOL     OW26449   1.506   2.327   6.075
 8517SOL    HW126450   1.462   2.375   5.999
 8517SOL    HW226451   1.589   2.281   6.043
 8518SOL     OW26452   4.402   4.405   0.327
 8518SOL    HW126453   4.331   4.407   0.256
 8518SOL    HW226454   4.360   4.386   0.416
 8519SOL     OW26455   1.388   4.257   1.885
 8519SOL    HW126456   1.416   4.162   1.892
 8519SOL    HW226457   1.461   4.311   1.843
 8520SOL     OW26458   3.395   2.280   0.349
 8520SOL    HW126459   3.437   2.338   0.279
 8520SOL    HW226460   3.311   2.323   0.381
 8521SOL     OW26461   2.435   5.280   6.524
 8521SOL    HW126462   2.354   5.304   6.578
 8521SOL    HW226463   2.474   5.195   6.559
 8522SOL     OW26464   1.473   6.494   1.289
 8522SOL    HW126465   1.437   6.404   1.314
 8522SOL    HW226466   1.415   6.535   1.219
 8523SOL     OW26467   2.566   6.694   6.427
 8523SOL    HW126468   2.646   6.752   6.417
 8523SOL    HW226469   2.500   6.738   6.489
 8524SOL     OW26470   0.341   2.398   5.013
 8524SOL    HW126471   0.274   2.332   4.980
 8524SOL    HW226472   0.326   2.414   5.111
 8525SOL     OW26473   6.621   3.996   3.309
 8525SOL    HW126474   6.636   4.094   3.324
 8525SOL    HW226475   6.574   3.957   3.389
 8526SOL     OW26476   3.879   5.563   0.133
 8526SOL    HW126477   3.845   5.645   0.087
 8526SOL    HW226478   3.949   5.589   0.199
 8527SOL     OW26479   3.043   0.715   6.185
 8527SOL    HW126480   2.947   0.687   6.180
 8527SOL    HW226481   3.048   0.807   6.223
 8528SOL     OW26482   4.100   2.078   6.073
 8528SOL    HW126483   4.149   2.124   6.147
 8528SOL    HW226484   4.015   2.039   6.109
 8529SOL     OW26485   0.212   0.181   1.462
 8529SOL    HW126486   0.202   0.253   1.530
 8529SOL    HW226487   0.178   0.212   1.374
 8530SOL     OW26488   3.407   3.219   5.298
 8530SOL    HW126489   3.493   3.218   5.349
 8530SOL    HW226490   3.401   3.303   5.244
 8531SOL     OW26491   6.693   5.278   2.692
 8531SOL    HW126492   6.681   5.204   2.625
 8531SOL    HW226493   6.614   5.281   2.753
 8532SOL     OW26494   4.200   5.255   4.646
 8532SOL    HW126495   4.114   5.303   4.659
 8532SOL    HW226496   4.218   5.195   4.724
 8533SOL     OW26497   1.931   0.233   5.334
 8533SOL    HW126498   1.881   0.174   5.398
 8533SOL    HW226499   1.895   0.218   5.241
 8534SOL     OW26500   6.249   3.205   3.943
 8534SOL    HW126501   6.151   3.204   3.962
 8534SOL    HW226502   6.300   3.219   4.028
 8535SOL     OW26503   6.841   1.466   4.832
 8535SOL    HW126504   6.761   1.432   4.881
 8535SOL    HW226505   6.813   1.502   4.743
 8536SOL     OW26506   5.789   1.941   4.757
 8536SOL    HW126507   5.738   1.957   4.842
 8536SOL    HW226508   5.863   2.007   4.750
 8537SOL     OW26509   5.544   1.834   2.339
 8537SOL    HW126510   5.492   1.806   2.259
 8537SOL    HW226511   5.639   1.848   2.313
 8538SOL     OW26512   0.745   1.438   6.284
 8538SOL    HW126513   0.696   1.368   6.336
 8538SOL    HW226514   0.740   1.525   6.334
 8539SOL     OW26515   5.869   0.897   2.233
 8539SOL    HW126516   5.824   0.900   2.143
 8539SOL    HW226517   5.958   0.852   2.224
 8540SOL     OW26518   4.789   1.426   0.061
 8540SOL    HW126519   4.809   1.496   7.011
 8540SOL    HW226520   4.874   1.379   0.086
 8541SOL     OW26521   2.754   2.200   4.201
 8541SOL    HW126522   2.703   2.270   4.252
 8541SOL    HW226523   2.831   2.168   4.257
 8542SOL     OW26524   2.779   4.381   6.904
 8542SOL    HW126525   2.797   4.461   6.962
 8542SOL    HW226526   2.813   4.299   6.950
 8543SOL     OW26527   3.611   1.271   7.017
 8543SOL    HW126528   3.545   1.340   6.989
 8543SOL    HW226529   3.563   1.187   0.022
 8544SOL     OW26530   5.449   2.835   4.814
 8544SOL    HW126531   5.391   2.807   4.890
 8544SOL    HW226532   5.545   2.830   4.842
 8545SOL     OW26533   4.565   6.842   4.155
 8545SOL    HW126534   4.507   6.876   4.080
 8545SOL    HW226535   4.591   6.747   4.137
 8546SOL     OW26536   0.618   0.359   3.031
 8546SOL    HW126537   0.523   0.364   3.062
 8546SOL    HW226538   0.678   0.396   3.102
 8547SOL     OW26539   1.447   6.460   6.507
 8547SOL    HW126540   1.444   6.468   6.407
 8547SOL    HW226541   1.392   6.533   6.548
 8548SOL     OW26542   6.734   3.145   5.494
 8548SOL    HW126543   6.686   3.153   5.407
 8548SOL    HW226544   6.680   3.188   5.566
 8549SOL     OW26545   1.282   3.119   5.060
 8549SOL    HW126546   1.195   3.071   5.053
 8549SOL    HW226547   1.331   3.113   4.973
 8550SOL     OW26548   1.539   5.292   6.591
 8550SOL    HW126549   1.490   5.207   6.574
 8550SOL    HW226550   1.630   5.287   6.552
 8551SOL     OW26551   2.363   3.208   6.541
 8551SOL    HW126552   2.436   3.148   6.574
 8551SOL    HW226553   2.347   3.190   6.444
 8552SOL     OW26554   2.178   0.028   3.061
 8552SOL    HW126555   2.161   0.107   3.121
 8552SOL    HW226556   2.198   6.967   3.117
 8553SOL     OW26557   4.258   4.326   6.832
 8553SOL    HW126558   4.193   4.401   6.835
 8553SOL    HW226559   4.312   4.333   6.748
 8554SOL     OW26560   0.675   4.948   0.725
 8554SOL    HW126561   0.727   4.940   0.810
 8554SOL    HW226562   0.672   5.043   0.696
 8555SOL     OW26563   2.585   1.022   4.038
 8555SOL    HW126564   2.673   0.982   4.065
 8555SOL    HW226565   2.601   1.103   3.981
 8556SOL     OW26566   1.773   5.435   5.293
 8556SOL    HW126567   1.693   5.481   5.331
 8556SOL    HW226568   1.839   5.503   5.259
 8557SOL     OW26569   6.786   6.790   2.263
 8557SOL    HW126570   6.799   6.884   2.294
 8557SOL    HW226571   6.817   6.726   2.333
 8558SOL     OW26572   2.328   4.656   3.207
 8558SOL    HW126573   2.250   4.703   3.167
 8558SOL    HW226574   2.397   4.723   3.236
 8559SOL     OW26575   1.670   0.459   2.526
 8559SOL    HW126576   1.602   0.451   2.599
 8559SOL    HW226577   1.637   0.523   2.457
 8560SOL     OW26578   0.172   6.461   1.531
 8560SOL    HW126579   0.119   6.493   1.609
 8560SOL    HW226580   0.191   6.539   1.470
 8561SOL     OW26581   3.252   0.702   2.450
 8561SOL    HW126582   3.193   0.761   2.395
 8561SOL    HW226583   3.338   0.686   2.401
 8562SOL     OW26584   4.065   6.410   6.201
 8562SOL    HW126585   3.977   6.438   6.162
 8562SOL    HW226586   4.051   6.331   6.260
 8563SOL     OW26587   1.572   4.675   1.072
 8563SOL    HW126588   1.484   4.721   1.079
 8563SOL    HW226589   1.558   4.576   1.060
 8564SOL     OW26590   3.523   0.218   5.278
 8564SOL    HW126591   3.476   0.130   5.291
 8564SOL    HW226592   3.503   0.253   5.187
 8565SOL     OW26593   3.469   5.589   1.220
 8565SOL    HW126594   3.421   5.516   1.171
 8565SOL    HW226595   3.564   5.592   1.192
 8566SOL     OW26596   1.162   6.844   1.506
 8566SOL    HW126597   1.109   6.920   1.544
 8566SOL    HW226598   1.260   6.866   1.513
 8567SOL     OW26599   0.749   2.136   3.571
 8567SOL    HW126600   0.708   2.195   3.641
 8567SOL    HW226601   0.678   2.109   3.506
 8568SOL     OW26602   5.729   1.426   6.930
 8568SOL    HW126603   5.630   1.420   6.940
 8568SOL    HW226604   5.773   1.354   6.983
 8569SOL     OW26605   4.508   0.850   5.934
 8569SOL    HW126606   4.589   0.850   5.992
 8569SOL    HW226607   4.486   0.756   5.908
 8570SOL     OW26608   1.661   1.690   4.585
 8570SOL    HW126609   1.567   1.664   4.562
 8570SOL    HW226610   1.678   1.783   4.553
 8571SOL     OW26611   0.441   5.758   5.185
 8571SOL    HW126612   0.538   5.737   5.200
 8571SOL    HW226613   0.416   5.840   5.236
 8572SOL     OW26614   2.812   5.059   6.551
 8572SOL    HW126615   2.841   5.129   6.617
 8572SOL    HW226616   2.830   4.968   6.589
 8573SOL     OW26617   3.645   6.091   6.473
 8573SOL    HW126618   3.692   6.169   6.433
 8573SOL    HW226619   3.587   6.048   6.404
 8574SOL     OW26620   0.271   6.523   6.576
 8574SOL    HW126621   0.329   6.512   6.657
 8574SOL    HW226622   0.187   6.570   6.602
 8575SOL     OW26623   2.040   2.652   3.930
 8575SOL    HW126624   2.058   2.602   4.015
 8575SOL    HW226625   2.114   2.719   3.916
 8576SOL     OW26626   1.360   4.432   5.849
 8576SOL    HW126627   1.370   4.422   5.948
 8576SOL    HW226628   1.409   4.358   5.803
 8577SOL     OW26629   1.368   6.790   4.573
 8577SOL    HW126630   1.429   6.771   4.650
 8577SOL    HW226631   1.401   6.741   4.491
 8578SOL     OW26632   6.169   6.579   4.189
 8578SOL    HW126633   6.121   6.609   4.106
 8578SOL    HW226634   6.107   6.586   4.267
 8579SOL     OW26635   2.178   0.701   1.850
 8579SOL    HW126636   2.198   0.784   1.902
 8579SOL    HW226637   2.118   0.642   1.904
 8580SOL     OW26638   2.295   6.132   1.409
 8580SOL    HW126639   2.215   6.124   1.350
 8580SOL    HW226640   2.375   6.152   1.353
 8581SOL     OW26641   3.414   3.816   0.988
 8581SOL    HW126642   3.371   3.744   0.935
 8581SOL    HW226643   3.513   3.801   0.991
 8582SOL     OW26644   4.650   4.283   4.532
 8582SOL    HW126645   4.682   4.316   4.620
 8582SOL    HW226646   4.578   4.345   4.498
 8583SOL     OW26647   4.888   0.427   4.536
 8583SOL    HW126648   4.933   0.516   4.525
 8583SOL    HW226649   4.881   0.382   4.447
 8584SOL     OW26650   0.358   5.280   6.746
 8584SOL    HW126651   0.379   5.196   6.696
 8584SOL    HW226652   0.287   5.331   6.698
 8585SOL     OW26653   0.030   6.824   6.368
 8585SOL    HW126654   0.103   6.769   6.328
 8585SOL    HW226655   0.068   6.905   6.412
 8586SOL     OW26656   3.225   6.697   2.036
 8586SOL    HW126657   3.142   6.751   2.047
 8586SOL    HW226658   3.272   6.724   1.952
 8587SOL     OW26659   1.322   0.410   4.199
 8587SOL    HW126660   1.250   0.477   4.178
 8587SOL    HW226661   1.282   0.318   4.202
 8588SOL     OW26662   3.002   0.532   0.469
 8588SOL    HW126663   3.003   0.432   0.480
 8588SOL    HW226664   2.973   0.555   0.376
 8589SOL     OW26665   5.258   2.523   5.627
 8589SOL    HW126666   5.357   2.513   5.614
 8589SOL    HW226667   5.223   2.447   5.683
 8590SOL     OW26668   0.071   6.621   3.258
 8590SOL    HW126669   0.037   6.658   3.171
 8590SOL    HW226670   0.122   6.692   3.307
 8591SOL     OW26671   0.478   3.923   0.226
 8591SOL    HW126672   0.391   3.917   0.176
 8591SOL    HW226673   0.481   3.851   0.296
 8592SOL     OW26674   6.583   2.586   6.530
 8592SOL    HW126675   6.571   2.648   6.453
 8592SOL    HW226676   6.512   2.604   6.599
 8593SOL     OW26677   2.256   2.074   0.403
 8593SOL    HW126678   2.278   1.987   0.359
 8593SOL    HW226679   2.222   2.057   0.495
 8594SOL     OW26680   4.500   2.554   5.129
 8594SOL    HW126681   4.558   2.633   5.109
 8594SOL    HW226682   4.484   2.501   5.045
 8595SOL     OW26683   0.776   1.767   3.684
 8595SOL    HW126684   0.789   1.844   3.621
 8595SOL    HW226685   0.697   1.785   3.743
 8596SOL     OW26686   1.357   4.999   2.939
 8596SOL    HW126687   1.277   5.032   2.990
 8596SOL    HW226688   1.336   4.996   2.842
 8597SOL     OW26689   4.503   1.742   0.904
 8597SOL    HW126690   4.594   1.720   0.941
 8597SOL    HW226691   4.462   1.815   0.959
 8598SOL     OW26692   6.007   0.198   0.336
 8598SOL    HW126693   5.975   0.214   0.429
 8598SOL    HW226694   6.047   0.107   0.329
 8599SOL     OW26695   1.653   2.615   4.627
 8599SOL    HW126696   1.573   2.601   4.685
 8599SOL    HW226697   1.722   2.547   4.648
 8600SOL     OW26698   5.121   4.502   5.594
 8600SOL    HW126699   5.186   4.578   5.601
 8600SOL    HW226700   5.170   4.419   5.568
 8601SOL     OW26701   1.388   1.647   4.520
 8601SOL    HW126702   1.344   1.716   4.576
 8601SOL    HW226703   1.382   1.673   4.424
 8602SOL     OW26704   3.268   5.933   2.305
 8602SOL    HW126705   3.205   5.875   2.357
 8602SOL    HW226706   3.231   6.026   2.299
 8603SOL     OW26707   4.707   5.642   1.215
 8603SOL    HW126708   4.768   5.589   1.274
 8603SOL    HW226709   4.662   5.580   1.150
 8604SOL     OW26710   0.136   3.111   4.853
 8604SOL    HW126711   0.235   3.119   4.869
 8604SOL    HW226712   0.094   3.064   4.931
 8605SOL     OW26713   2.346   5.573   4.341
 8605SOL    HW126714   2.256   5.613   4.323
 8605SOL    HW226715   2.339   5.508   4.417
 8606SOL     OW26716   1.458   3.279   6.199
 8606SOL    HW126717   1.462   3.233   6.287
 8606SOL    HW226718   1.547   3.273   6.154
 8607SOL     OW26719   3.361   5.428   0.319
 8607SOL    HW126720   3.287   5.474   0.271
 8607SOL    HW226721   3.328   5.342   0.358
 8608SOL     OW26722   3.084   4.850   2.556
 8608SOL    HW126723   3.027   4.931   2.572
 8608SOL    HW226724   3.028   4.778   2.516
 8609SOL     OW26725   5.333   0.870   2.713
 8609SOL    HW126726   5.275   0.951   2.708
 8609SOL    HW226727   5.303   0.803   2.645
 8610SOL     OW26728   1.210   2.071   2.855
 8610SOL    HW126729   1.261   2.156   2.853
 8610SOL    HW226730   1.271   1.996   2.883
 8611SOL     OW26731   3.229   1.924   4.608
 8611SOL    HW126732   3.252   1.939   4.512
 8611SOL    HW226733   3.203   1.828   4.621
 8612SOL     OW26734   2.641   3.311   0.338
 8612SOL    HW126735   2.586   3.377   0.389
 8612SOL    HW226736   2.723   3.289   0.391
 8613SOL     OW26737   2.912   1.828   1.232
 8613SOL    HW126738   2.874   1.905   1.283
 8613SOL    HW226739   2.996   1.797   1.277
 8614SOL     OW26740   1.240   2.961   3.224
 8614SOL    HW126741   1.265   2.877   3.271
 8614SOL    HW226742   1.184   3.018   3.284
 8615SOL     OW26743   4.261   1.224   4.939
 8615SOL    HW126744   4.264   1.165   5.019
 8615SOL    HW226745   4.248   1.169   4.857
 8616SOL     OW26746   3.111   4.587   1.696
 8616SOL    HW126747   3.049   4.554   1.768
 8616SOL    HW226748   3.197   4.617   1.737
 8617SOL     OW26749   6.224   1.612   5.983
 8617SOL    HW126750   6.286   1.536   6.006
 8617SOL    HW226751   6.130   1.584   5.999
 8618SOL     OW26752   6.406   4.543   0.894
 8618SOL    HW126753   6.429   4.587   0.807
 8618SOL    HW226754   6.324   4.487   0.883
 8619SOL     OW26755   3.751   4.922   2.114
 8619SOL    HW126756   3.718   4.849   2.053
 8619SOL    HW226757   3.691   4.928   2.194
 8620SOL     OW26758   1.295   0.283   3.389
 8620SOL    HW126759   1.280   0.186   3.410
 8620SOL    HW226760   1.382   0.312   3.429
 8621SOL     OW26761   5.296   1.801   3.599
 8621SOL    HW126762   5.242   1.784   3.516
 8621SOL    HW226763   5.358   1.878   3.582
 8622SOL     OW26764   5.547   3.267   0.998
 8622SOL    HW126765   5.464   3.316   0.972
 8622SOL    HW226766   5.587   3.309   1.079
 8623SOL     OW26767   0.454   3.817   4.248
 8623SOL    HW126768   0.416   3.888   4.189
 8623SOL    HW226769   0.550   3.802   4.225
 8624SOL     OW26770   1.844   3.911   4.819
 8624SOL    HW126771   1.927   3.886   4.869
 8624SOL    HW226772   1.822   3.839   4.753
 8625SOL     OW26773   4.621   0.397   6.449
 8625SOL    HW126774   4.595   0.480   6.498
 8625SOL    HW226775   4.630   0.321   6.514
 8626SOL     OW26776   3.406   3.102   6.077
 8626SOL    HW126777   3.490   3.157   6.074
 8626SOL    HW226778   3.428   3.009   6.106
 8627SOL     OW26779   1.116   1.783   3.243
 8627SOL    HW126780   1.087   1.793   3.148
 8627SOL    HW226781   1.143   1.873   3.279
 8628SOL     OW26782   6.314   6.412   1.057
 8628SOL    HW126783   6.381   6.463   1.002
 8628SOL    HW226784   6.362   6.357   1.126
 8629SOL     OW26785   1.638   5.329   5.078
 8629SOL    HW126786   1.572   5.261   5.107
 8629SOL    HW226787   1.679   5.374   5.158
 8630SOL     OW26788   5.388   4.629   4.090
 8630SOL    HW126789   5.368   4.686   4.011
 8630SOL    HW226790   5.352   4.537   4.074
 8631SOL     OW26791   0.458   4.973   6.201
 8631SOL    HW126792   0.411   4.985   6.113
 8631SOL    HW226793   0.557   4.979   6.187
 8632SOL     OW26794   4.263   5.083   4.856
 8632SOL    HW126795   4.279   4.985   4.870
 8632SOL    HW226796   4.300   5.135   4.933
 8633SOL     OW26797   5.392   1.900   5.657
 8633SOL    HW126798   5.365   1.834   5.728
 8633SOL    HW226799   5.443   1.975   5.699
 8634SOL     OW26800   4.600   2.935   0.133
 8634SOL    HW126801   4.541   2.881   0.074
 8634SOL    HW226802   4.696   2.920   0.107
 8635SOL     OW26803   5.368   3.161   6.523
 8635SOL    HW126804   5.323   3.217   6.592
 8635SOL    HW226805   5.457   3.130   6.559
 8636SOL     OW26806   6.029   5.884   0.757
 8636SOL    HW126807   6.068   5.953   0.819
 8636SOL    HW226808   5.943   5.852   0.795
 8637SOL     OW26809   2.171   1.041   6.735
 8637SOL    HW126810   2.183   1.046   6.834
 8637SOL    HW226811   2.176   1.134   6.696
 8638SOL     OW26812   3.407   2.190   5.261
 8638SOL    HW126813   3.496   2.208   5.218
 8638SOL    HW226814   3.337   2.245   5.215
 8639SOL     OW26815   5.468   2.652   0.305
 8639SOL    HW126816   5.424   2.727   0.255
 8639SOL    HW226817   5.399   2.603   0.358
 8640SOL     OW26818   4.231   3.701   6.677
 8640SOL    HW126819   4.238   3.763   6.756
 8640SOL    HW226820   4.146   3.720   6.628
 8641SOL     OW26821   4.562   4.808   3.703
 8641SOL    HW126822   4.577   4.864   3.622
 8641SOL    HW226823   4.546   4.713   3.675
 8642SOL     OW26824   1.522   6.156   3.345
 8642SOL    HW126825   1.558   6.192   3.259
 8642SOL    HW226826   1.572   6.073   3.370
 8643SOL     OW26827   2.478   0.488   0.026
 8643SOL    HW126828   2.493   0.410   0.086
 8643SOL    HW226829   2.566   0.525   7.016
 8644SOL     OW26830   5.096   2.613   5.389
 8644SOL    HW126831   5.155   2.626   5.469
 8644SOL    HW226832   5.148   2.633   5.306
 8645SOL     OW26833   4.307   4.021   1.378
 8645SOL    HW126834   4.210   3.997   1.375
 8645SOL    HW226835   4.319   4.114   1.344
 8646SOL     OW26836   6.922   1.713   0.597
 8646SOL    HW126837   6.925   1.812   0.582
 8646SOL    HW226838   7.012   1.674   0.580
 8647SOL     OW26839   2.890   5.399   6.583
 8647SOL    HW126840   2.980   5.444   6.582
 8647SOL    HW226841   2.820   5.464   6.552
 8648SOL     OW26842   6.488   0.418   2.516
 8648SOL    HW126843   6.561   0.400   2.582
 8648SOL    HW226844   6.427   0.488   2.552
 8649SOL     OW26845   5.650   5.295   5.744
 8649SOL    HW126846   5.603   5.324   5.828
 8649SOL    HW226847   5.664   5.375   5.685
 8650SOL     OW26848   2.265   5.061   4.409
 8650SOL    HW126849   2.360   5.077   4.433
 8650SOL    HW226850   2.241   4.966   4.428
 8651SOL     OW26851   4.556   0.432   0.276
 8651SOL    HW126852   4.571   0.370   0.353
 8651SOL    HW226853   4.542   0.379   0.192
 8652SOL     OW26854   2.022   4.989   3.466
 8652SOL    HW126855   1.967   5.031   3.393
 8652SOL    HW226856   1.993   4.894   3.479
 8653SOL     OW26857   6.238   0.376   6.328
 8653SOL    HW126858   6.276   0.457   6.374
 8653SOL    HW226859   6.168   0.405   6.263
 8654SOL     OW26860   1.253   5.090   2.054
 8654SOL    HW126861   1.280   5.074   2.148
 8654SOL    HW226862   1.301   5.026   1.994
 8655SOL     OW26863   6.510   0.766   4.300
 8655SOL    HW126864   6.555   0.844   4.255
 8655SOL    HW226865   6.554   0.749   4.388
 8656SOL     OW26866   6.909   0.193   1.061
 8656SOL    HW126867   6.926   0.106   1.014
 8656SOL    HW226868   6.868   0.174   1.151
 8657SOL     OW26869   4.932   4.832   6.929
 8657SOL    HW126870   4.969   4.742   6.952
 8657SOL    HW226871   4.938   4.892   7.008
 8658SOL     OW26872   6.422   6.168   0.585
 8658SOL    HW126873   6.401   6.221   0.667
 8658SOL    HW226874   6.507   6.201   0.544
 8659SOL     OW26875   4.692   2.039   2.356
 8659SOL    HW126876   4.624   2.021   2.426
 8659SOL    HW226877   4.685   2.135   2.327
 8660SOL     OW26878   6.806   3.947   1.811
 8660SOL    HW126879   6.709   3.935   1.828
 8660SOL    HW226880   6.840   3.875   1.750
 8661SOL     OW26881   6.226   4.070   1.355
 8661SOL    HW126882   6.126   4.061   1.357
 8661SOL    HW226883   6.251   4.165   1.336
 8662SOL     OW26884   4.349   5.575   1.163
 8662SOL    HW126885   4.349   5.671   1.188
 8662SOL    HW226886   4.437   5.551   1.122
 8663SOL     OW26887   2.777   5.935   2.111
 8663SOL    HW126888   2.759   5.900   2.019
 8663SOL    HW226889   2.728   5.880   2.178
 8664SOL     OW26890   1.903   6.480   1.514
 8664SOL    HW126891   1.949   6.426   1.443
 8664SOL    HW226892   1.822   6.524   1.475
 8665SOL     OW26893   5.762   5.711   5.115
 8665SOL    HW126894   5.703   5.669   5.183
 8665SOL    HW226895   5.707   5.768   5.054
 8666SOL     OW26896   5.886   1.332   3.671
 8666SOL    HW126897   5.801   1.282   3.685
 8666SOL    HW226898   5.878   1.390   3.590
 8667SOL     OW26899   3.955   2.006   3.679
 8667SOL    HW126900   3.898   2.038   3.603
 8667SOL    HW226901   3.948   2.070   3.755
 8668SOL     OW26902   4.905   3.292   3.556
 8668SOL    HW126903   4.895   3.286   3.456
 8668SOL    HW226904   4.837   3.233   3.600
 8669SOL     OW26905   1.547   6.463   6.129
 8669SOL    HW126906   1.599   6.415   6.200
 8669SOL    HW226907   1.487   6.397   6.083
 8670SOL     OW26908   4.024   5.055   5.704
 8670SOL    HW126909   4.049   5.133   5.646
 8670SOL    HW226910   3.965   4.993   5.653
 8671SOL     OW26911   5.523   1.689   2.926
 8671SOL    HW126912   5.448   1.647   2.875
 8671SOL    HW226913   5.577   1.745   2.863
 8672SOL     OW26914   0.960   5.456   4.099
 8672SOL    HW126915   1.033   5.487   4.039
 8672SOL    HW226916   0.895   5.531   4.115
 8673SOL     OW26917   5.335   2.870   0.176
 8673SOL    HW126918   5.264   2.906   0.237
 8673SOL    HW226919   5.374   2.945   0.124
 8674SOL     OW26920   4.848   6.307   2.842
 8674SOL    HW126921   4.850   6.261   2.931
 8674SOL    HW226922   4.800   6.395   2.852
 8675SOL     OW26923   3.834   2.053   4.636
 8675SOL    HW126924   3.918   2.108   4.642
 8675SOL    HW226925   3.795   2.043   4.727
 8676SOL     OW26926   5.271   0.056   3.081
 8676SOL    HW126927   5.173   0.073   3.094
 8676SOL    HW226928   5.284   6.998   3.019
 8677SOL     OW26929   2.378   5.481   6.341
 8677SOL    HW126930   2.386   5.401   6.400
 8677SOL    HW226931   2.282   5.493   6.315
 8678SOL     OW26932   0.051   0.183   2.415
 8678SOL    HW126933   0.114   0.258   2.435
 8678SOL    HW226934   0.083   0.100   2.460
 8679SOL     OW26935   0.271   2.128   3.314
 8679SOL    HW126936   0.268   2.186   3.395
 8679SOL    HW226937   0.266   2.184   3.232
 8680SOL     OW26938   0.573   3.338   6.862
 8680SOL    HW126939   0.539   3.384   6.781
 8680SOL    HW226940   0.587   3.241   6.842
 8681SOL     OW26941   4.701   5.063   1.287
 8681SOL    HW126942   4.711   5.133   1.357
 8681SOL    HW226943   4.671   5.104   1.202
 8682SOL     OW26944   5.481   6.200   2.508
 8682SOL    HW126945   5.494   6.145   2.590
 8682SOL    HW226946   5.523   6.290   2.522
 8683SOL     OW26947   1.892   1.732   4.284
 8683SOL    HW126948   1.937   1.678   4.355
 8683SOL    HW226949   1.958   1.754   4.212
 8684SOL     OW26950   6.145   2.587   5.120
 8684SOL    HW126951   6.193   2.582   5.033
 8684SOL    HW226952   6.151   2.681   5.155
 8685SOL     OW26953   0.031   1.990   6.616
 8685SOL    HW126954   0.060   1.911   6.670
 8685SOL    HW226955   6.960   1.972   6.577
 8686SOL     OW26956   0.330   1.346   3.541
 8686SOL    HW126957   0.261   1.299   3.486
 8686SOL    HW226958   0.289   1.425   3.585
 8687SOL     OW26959   4.982   4.900   1.939
 8687SOL    HW126960   5.081   4.895   1.955
 8687SOL    HW226961   4.935   4.914   2.026
 8688SOL     OW26962   1.202   5.367   6.053
 8688SOL    HW126963   1.242   5.308   5.984
 8688SOL    HW226964   1.173   5.312   6.132
 8689SOL     OW26965   3.716   3.774   0.594
 8689SOL    HW126966   3.714   3.708   0.669
 8689SOL    HW226967   3.771   3.737   0.519
 8690SOL     OW26968   1.611   4.146   3.846
 8690SOL    HW126969   1.559   4.120   3.764
 8690SOL    HW226970   1.619   4.066   3.906
 8691SOL     OW26971   3.907   1.738   5.693
 8691SOL    HW126972   3.891   1.765   5.788
 8691SOL    HW226973   3.968   1.659   5.690
 8692SOL     OW26974   2.968   1.332   4.582
 8692SOL    HW126975   2.972   1.432   4.582
 8692SOL    HW226976   3.008   1.297   4.666
 8693SOL     OW26977   5.488   0.412   0.265
 8693SOL    HW126978   5.572   0.366   0.238
 8693SOL    HW226979   5.445   0.454   0.185
 8694SOL     OW26980   4.782   0.760   5.003
 8694SOL    HW126981   4.874   0.746   5.041
 8694SOL    HW226982   4.714   0.746   5.075
 8695SOL     OW26983   3.929   2.884   5.789
 8695SOL    HW126984   3.995   2.916   5.857
 8695SOL    HW226985   3.939   2.785   5.778
 8696SOL     OW26986   2.022   4.775   5.301
 8696SOL    HW126987   2.034   4.867   5.337
 8696SOL    HW226988   2.108   4.725   5.308
 8697SOL     OW26989   0.022   3.354   6.219
 8697SOL    HW126990   0.110   3.321   6.184
 8697SOL    HW226991   6.967   3.317   6.163
 8698SOL     OW26992   4.592   6.012   5.223
 8698SOL    HW126993   4.526   5.964   5.165
 8698SOL    HW226994   4.674   5.957   5.235
 8699SOL     OW26995   1.148   2.529   5.185
 8699SOL    HW126996   1.108   2.458   5.126
 8699SOL    HW226997   1.209   2.486   5.251
 8700SOL     OW26998   1.195   0.957   4.383
 8700SOL    HW126999   1.188   0.980   4.480
 8700SOL    HW227000   1.263   0.884   4.372
 8701SOL     OW27001   1.782   0.803   6.999
 8701SOL    HW127002   1.726   0.857   6.936
 8701SOL    HW227003   1.806   0.716   6.955
 8702SOL     OW27004   5.302   4.911   1.547
 8702SOL    HW127005   5.249   4.972   1.606
 8702SOL    HW227006   5.299   4.946   1.453
 8703SOL     OW27007   2.581   5.394   0.073
 8703SOL    HW127008   2.526   5.412   7.011
 8703SOL    HW227009   2.525   5.351   0.143
 8704SOL     OW27010   0.416   4.152   3.143
 8704SOL    HW127011   0.496   4.194   3.099
 8704SOL    HW227012   0.341   4.218   3.143
 8705SOL     OW27013   5.326   0.857   6.706
 8705SOL    HW127014   5.260   0.845   6.632
 8705SOL    HW227015   5.316   0.949   6.745
 8706SOL     OW27016   5.280   1.956   6.902
 8706SOL    HW127017   5.237   1.893   6.966
 8706SOL    HW227018   5.233   1.951   6.814
 8707SOL     OW27019   6.835   1.417   5.877
 8707SOL    HW127020   6.763   1.387   5.940
 8707SOL    HW227021   6.829   1.516   5.864
 8708SOL     OW27022   4.233   1.266   2.540
 8708SOL    HW127023   4.279   1.352   2.516
 8708SOL    HW227024   4.135   1.282   2.545
 8709SOL     OW27025   0.086   6.894   0.399
 8709SOL    HW127026   7.018   6.902   0.351
 8709SOL    HW227027   0.161   6.910   0.335
 8710SOL     OW27028   2.113   2.926   3.660
 8710SOL    HW127029   2.170   2.936   3.578
 8710SOL    HW227030   2.046   2.853   3.645
 8711SOL     OW27031   1.870   6.861   3.024
 8711SOL    HW127032   1.948   6.846   3.085
 8711SOL    HW227033   1.834   6.773   2.994
 8712SOL     OW27034   4.058   2.222   4.619
 8712SOL    HW127035   4.120   2.268   4.555
 8712SOL    HW227036   4.103   2.215   4.709
 8713SOL     OW27037   6.404   3.284   3.299
 8713SOL    HW127038   6.480   3.230   3.262
 8713SOL    HW227039   6.362   3.337   3.225
 8714SOL     OW27040   0.995   0.212   5.290
 8714SOL    HW127041   0.993   0.128   5.236
 8714SOL    HW227042   1.053   0.199   5.370
 8715SOL     OW27043   4.083   0.454   1.038
 8715SOL    HW127044   4.170   0.443   0.990
 8715SOL    HW227045   4.008   0.453   0.973
 8716SOL     OW27046   0.086   0.299   0.899
 8716SOL    HW127047   0.014   0.268   0.962
 8716SOL    HW227048   0.076   0.251   0.812
 8717SOL     OW27049   2.895   3.553   4.875
 8717SOL    HW127050   2.973   3.493   4.858
 8717SOL    HW227051   2.826   3.504   4.929
 8718SOL     OW27052   1.551   3.178   5.515
 8718SOL    HW127053   1.479   3.177   5.445
 8718SOL    HW227054   1.629   3.125   5.483
 8719SOL     OW27055   4.381   6.775   6.799
 8719SOL    HW127056   4.337   6.860   6.769
 8719SOL    HW227057   4.458   6.755   6.739
 8720SOL     OW27058   6.967   5.189   5.943
 8720SOL    HW127059   6.998   5.095   5.930
 8720SOL    HW227060   7.010   5.248   5.874
 8721SOL     OW27061   6.762   2.721   1.661
 8721SOL    HW127062   6.683   2.780   1.674
 8721SOL    HW227063   6.837   2.752   1.718
 8722SOL     OW27064   3.487   1.071   0.125
 8722SOL    HW127065   3.578   1.055   0.161
 8722SOL    HW227066   3.433   0.986   0.130
 8723SOL     OW27067   4.772   6.526   1.861
 8723SOL    HW127068   4.690   6.491   1.905
 8723SOL    HW227069   4.846   6.459   1.872
 8724SOL     OW27070   5.219   6.542   5.096
 8724SOL    HW127071   5.266   6.494   5.170
 8724SOL    HW227072   5.148   6.482   5.058
 8725SOL     OW27073   1.383   6.146   5.527
 8725SOL    HW127074   1.436   6.189   5.600
 8725SOL    HW227075   1.394   6.047   5.532
 8726SOL     OW27076   0.202   1.553   3.661
 8726SOL    HW127077   0.202   1.651   3.645
 8726SOL    HW227078   0.154   1.533   3.747
 8727SOL     OW27079   4.936   0.195   1.876
 8727SOL    HW127080   4.839   0.217   1.875
 8727SOL    HW227081   4.989   0.277   1.894
 8728SOL     OW27082   6.256   0.982   2.268
 8728SOL    HW127083   6.321   1.005   2.340
 8728SOL    HW227084   6.186   0.921   2.305
 8729SOL     OW27085   3.821   5.290   5.273
 8729SOL    HW127086   3.762   5.365   5.244
 8729SOL    HW227087   3.809   5.212   5.212
 8730SOL     OW27088   5.422   4.385   2.789
 8730SOL    HW127089   5.424   4.285   2.785
 8730SOL    HW227090   5.415   4.414   2.885
 8731SOL     OW27091   1.550   2.740   3.020
 8731SOL    HW127092   1.602   2.784   3.093
 8731SOL    HW227093   1.608   2.731   2.939
 8732SOL     OW27094   5.851   4.781   1.657
 8732SOL    HW127095   5.791   4.812   1.731
 8732SOL    HW227096   5.825   4.688   1.631
 8733SOL     OW27097   2.124   5.575   1.227
 8733SOL    HW127098   2.044   5.635   1.234
 8733SOL    HW227099   2.162   5.559   1.318
 8734SOL     OW27100   1.195   3.778   1.891
 8734SOL    HW127101   1.152   3.734   1.969
 8734SOL    HW227102   1.125   3.807   1.826
 8735SOL     OW27103   0.756   2.759   0.282
 8735SOL    HW127104   0.765   2.749   0.183
 8735SOL    HW227105   0.797   2.679   0.327
 8736SOL     OW27106   0.306   5.322   0.365
 8736SOL    HW127107   0.284   5.385   0.439
 8736SOL    HW227108   0.400   5.337   0.335
 8737SOL     OW27109   1.772   6.320   0.067
 8737SOL    HW127110   1.740   6.334   0.161
 8737SOL    HW227111   1.871   6.303   0.068
 8738SOL     OW27112   3.080   5.346   4.294
 8738SOL    HW127113   2.983   5.324   4.284
 8738SOL    HW227114   3.134   5.284   4.236
 8739SOL     OW27115   6.111   5.804   6.705
 8739SOL    HW127116   6.020   5.772   6.679
 8739SOL    HW227117   6.154   5.851   6.628
 8740SOL     OW27118   4.230   1.070   4.717
 8740SOL    HW127119   4.224   0.972   4.696
 8740SOL    HW227120   4.155   1.119   4.673
 8741SOL     OW27121   2.463   1.184   2.239
 8741SOL    HW127122   2.535   1.115   2.245
 8741SOL    HW227123   2.382   1.143   2.197
 8742SOL     OW27124   4.932   6.301   1.892
 8742SOL    HW127125   5.008   6.260   1.841
 8742SOL    HW227126   4.954   6.298   1.990
 8743SOL     OW27127   1.590   0.078   2.348
 8743SOL    HW127128   1.549   0.136   2.418
 8743SOL    HW227129   1.519   0.035   2.293
 8744SOL     OW27130   3.767   2.842   6.767
 8744SOL    HW127131   3.711   2.888   6.698
 8744SOL    HW227132   3.737   2.747   6.777
 8745SOL     OW27133   6.435   1.853   6.306
 8745SOL    HW127134   6.483   1.925   6.356
 8745SOL    HW227135   6.436   1.873   6.208
 8746SOL     OW27136   4.752   5.716   4.634
 8746SOL    HW127137   4.757   5.762   4.545
 8746SOL    HW227138   4.657   5.700   4.659
 8747SOL     OW27139   0.340   2.342   3.485
 8747SOL    HW127140   0.415   2.381   3.432
 8747SOL    HW227141   0.259   2.400   3.475
 8748SOL     OW27142   0.325   1.324   4.392
 8748SOL    HW127143   0.396   1.264   4.354
 8748SOL    HW227144   0.328   1.412   4.345
 8749SOL     OW27145   2.312   0.433   5.165
 8749SOL    HW127146   2.396   0.396   5.125
 8749SOL    HW227147   2.235   0.372   5.142
 8750SOL     OW27148   2.952   3.800   4.704
 8750SOL    HW127149   3.013   3.748   4.763
 8750SOL    HW227150   2.858   3.770   4.718
 8751SOL     OW27151   6.119   1.885   2.037
 8751SOL    HW127152   6.175   1.935   1.971
 8751SOL    HW227153   6.163   1.886   2.126
 8752SOL     OW27154   3.651   2.782   6.285
 8752SOL    HW127155   3.590   2.761   6.361
 8752SOL    HW227156   3.697   2.869   6.301
 8753SOL     OW27157   3.097   1.340   6.494
 8753SOL    HW127158   3.169   1.391   6.540
 8753SOL    HW227159   3.136   1.283   6.422
 8754SOL     OW27160   1.883   3.658   5.548
 8754SOL    HW127161   1.836   3.718   5.483
 8754SOL    HW227162   1.817   3.593   5.585
 8755SOL     OW27163   2.312   1.439   0.771
 8755SOL    HW127164   2.370   1.386   0.709
 8755SOL    HW227165   2.318   1.536   0.746
 8756SOL     OW27166   1.147   3.383   4.177
 8756SOL    HW127167   1.244   3.401   4.193
 8756SOL    HW227168   1.097   3.470   4.174
 8757SOL     OW27169   3.736   5.597   6.576
 8757SOL    HW127170   3.794   5.516   6.568
 8757SOL    HW227171   3.645   5.570   6.609
 8758SOL     OW27172   4.919   5.927   2.948
 8758SOL    HW127173   4.871   5.878   3.020
 8758SOL    HW227174   4.880   6.019   2.938
 8759SOL     OW27175   4.617   2.704   6.429
 8759SOL    HW127176   4.576   2.635   6.370
 8759SOL    HW227177   4.713   2.715   6.406
 8760SOL     OW27178   2.564   0.645   5.261
 8760SOL    HW127179   2.584   0.586   5.339
 8760SOL    HW227180   2.619   0.728   5.265
 8761SOL     OW27181   6.079   2.390   1.492
 8761SOL    HW127182   6.064   2.300   1.450
 8761SOL    HW227183   5.993   2.441   1.494
 8762SOL     OW27184   1.248   4.488   3.299
 8762SOL    HW127185   1.301   4.551   3.355
 8762SOL    HW227186   1.183   4.539   3.243
 8763SOL     OW27187   6.374   6.507   6.269
 8763SOL    HW127188   6.292   6.536   6.318
 8763SOL    HW227189   6.442   6.581   6.272
 8764SOL     OW27190   5.289   6.842   5.059
 8764SOL    HW127191   5.309   6.881   5.149
 8764SOL    HW227192   5.215   6.775   5.067
 8765SOL     OW27193   5.418   0.057   3.598
 8765SOL    HW127194   5.370   0.137   3.563
 8765SOL    HW227195   5.356   6.998   3.599
 8766SOL     OW27196   4.210   4.769   4.565
 8766SOL    HW127197   4.237   4.783   4.661
 8766SOL    HW227198   4.110   4.777   4.558
 8767SOL     OW27199   5.098   5.695   3.223
 8767SOL    HW127200   5.122   5.612   3.274
 8767SOL    HW227201   5.182   5.742   3.196
 8768SOL     OW27202   1.282   2.494   6.938
 8768SOL    HW127203   1.334   2.579   6.948
 8768SOL    HW227204   1.292   2.440   0.003
 8769SOL     OW27205   0.206   0.894   3.490
 8769SOL    HW127206   0.271   0.970   3.492
 8769SOL    HW227207   0.183   0.867   3.583
 8770SOL     OW27208   4.450   4.606   2.048
 8770SOL    HW127209   4.503   4.523   2.029
 8770SOL    HW227210   4.477   4.678   1.984
 8771SOL     OW27211   1.022   1.510   6.380
 8771SOL    HW127212   0.952   1.550   6.321
 8771SOL    HW227213   0.978   1.463   6.457
 8772SOL     OW27214   4.828   0.380   6.290
 8772SOL    HW127215   4.902   0.317   6.314
 8772SOL    HW227216   4.768   0.393   6.369
 8773SOL     OW27217   5.221   2.411   3.578
 8773SOL    HW127218   5.255   2.374   3.665
 8773SOL    HW227219   5.298   2.449   3.527
 8774SOL     OW27220   1.329   1.065   6.900
 8774SOL    HW127221   1.423   1.035   6.921
 8774SOL    HW227222   1.267   1.031   6.971
 8775SOL     OW27223   5.447   0.028   5.594
 8775SOL    HW127224   5.509   6.975   5.626
 8775SOL    HW227225   5.498   0.114   5.586
 8776SOL     OW27226   4.553   2.882   0.398
 8776SOL    HW127227   4.528   2.790   0.425
 8776SOL    HW227228   4.568   2.885   0.299
 8777SOL     OW27229   6.531   4.370   3.386
 8777SOL    HW127230   6.589   4.328   3.456
 8777SOL    HW227231   6.575   4.453   3.353
 8778SOL     OW27232   5.784   3.560   5.719
 8778SOL    HW127233   5.700   3.544   5.771
 8778SOL    HW227234   5.809   3.475   5.671
 8779SOL     OW27235   2.865   5.252   2.234
 8779SOL    HW127236   2.844   5.157   2.255
 8779SOL    HW227237   2.856   5.308   2.316
 8780SOL     OW27238   0.275   6.671   2.800
 8780SOL    HW127239   0.329   6.645   2.720
 8780SOL    HW227240   0.219   6.751   2.778
 8781SOL     OW27241   5.066   0.798   3.986
 8781SOL    HW127242   5.080   0.894   4.008
 8781SOL    HW227243   5.036   0.788   3.892
 8782SOL     OW27244   6.393   6.726   1.565
 8782SOL    HW127245   6.316   6.662   1.563
 8782SOL    HW227246   6.437   6.728   1.475
 8783SOL     OW27247   6.415   4.770   3.979
 8783SOL    HW127248   6.438   4.735   4.070
 8783SOL    HW227249   6.487   4.745   3.915
 8784SOL     OW27250   6.573   4.888   5.622
 8784SOL    HW127251   6.580   4.868   5.720
 8784SOL    HW227252   6.662   4.917   5.587
 8785SOL     OW27253   5.535   4.391   0.111
 8785SOL    HW127254   5.501   4.297   0.110
 8785SOL    HW227255   5.512   4.434   0.198
 8786SOL     OW27256   2.904   0.985   0.268
 8786SOL    HW127257   2.885   1.036   0.185
 8786SOL    HW227258   2.818   0.958   0.311
 8787SOL     OW27259   3.281   1.498   1.843
 8787SOL    HW127260   3.300   1.534   1.751
 8787SOL    HW227261   3.362   1.508   1.900
 8788SOL     OW27262   6.110   0.423   5.058
 8788SOL    HW127263   6.180   0.493   5.049
 8788SOL    HW227264   6.095   0.378   4.970
 8789SOL     OW27265   6.129   6.143   4.039
 8789SOL    HW127266   6.191   6.095   3.976
 8789SOL    HW227267   6.045   6.166   3.991
 8790SOL     OW27268   6.914   0.092   6.314
 8790SOL    HW127269   6.878   0.114   6.405
 8790SOL    HW227270   6.860   0.139   6.245
 8791SOL     OW27271   5.140   6.133   5.336
 8791SOL    HW127272   5.219   6.086   5.294
 8791SOL    HW227273   5.099   6.074   5.405
 8792SOL     OW27274   2.671   5.937   3.204
 8792SOL    HW127275   2.588   5.882   3.194
 8792SOL    HW227276   2.673   5.979   3.294
 8793SOL     OW27277   1.385   4.483   2.551
 8793SOL    HW127278   1.374   4.430   2.635
 8793SOL    HW227279   1.308   4.465   2.490
 8794SOL     OW27280   4.626   0.212   2.435
 8794SOL    HW127281   4.615   0.127   2.383
 8794SOL    HW227282   4.684   0.194   2.515
 8795SOL     OW27283   1.385   4.360   5.556
 8795SOL    HW127284   1.340   4.428   5.499
 8795SOL    HW227285   1.467   4.400   5.597
 8796SOL     OW27286   4.274   2.282   4.472
 8796SOL    HW127287   4.352   2.337   4.502
 8796SOL    HW227288   4.299   2.186   4.472
 8797SOL     OW27289   0.411   0.499   6.807
 8797SOL    HW127290   0.378   0.481   6.899
 8797SOL    HW227291   0.419   0.598   6.793
 8798SOL     OW27292   5.290   5.785   6.678
 8798SOL    HW127293   5.192   5.800   6.687
 8798SOL    HW227294   5.314   5.773   6.582
 8799SOL     OW27295   2.618   4.599   3.543
 8799SOL    HW127296   2.684   4.628   3.474
 8799SOL    HW227297   2.650   4.626   3.634
 8800SOL     OW27298   6.464   4.560   6.063
 8800SOL    HW127299   6.465   4.536   5.966
 8800SOL    HW227300   6.370   4.572   6.094
 8801SOL     OW27301   6.948   1.219   4.781
 8801SOL    HW127302   0.024   1.228   4.754
 8801SOL    HW227303   6.906   1.310   4.787
 8802SOL     OW27304   2.277   0.221   6.862
 8802SOL    HW127305   2.286   0.318   6.887
 8802SOL    HW227306   2.189   0.207   6.816
 8803SOL     OW27307   0.211   6.533   6.966
 8803SOL    HW127308   0.297   6.570   6.931
 8803SOL    HW227309   0.231   6.450   0.000
 8804SOL     OW27310   2.574   6.655   2.129
 8804SOL    HW127311   2.490   6.671   2.180
 8804SOL    HW227312   2.653   6.673   2.188
 8805SOL     OW27313   3.133   6.531   3.665
 8805SOL    HW127314   3.164   6.468   3.593
 8805SOL    HW227315   3.206   6.544   3.732
 8806SOL     OW27316   3.277   4.767   1.841
 8806SOL    HW127317   3.313   4.849   1.796
 8806SOL    HW227318   3.351   4.701   1.853
 8807SOL     OW27319   5.103   0.333   0.041
 8807SOL    HW127320   5.060   0.309   6.973
 8807SOL    HW227321   5.154   0.255   0.077
 8808SOL     OW27322   5.906   2.580   6.758
 8808SOL    HW127323   5.843   2.657   6.770
 8808SOL    HW227324   5.853   2.495   6.750
 8809SOL     OW27325   4.040   5.296   3.388
 8809SOL    HW127326   4.050   5.285   3.487
 8809SOL    HW227327   4.087   5.221   3.342
 8810SOL     OW27328   6.255   0.630   4.624
 8810SOL    HW127329   6.298   0.714   4.593
 8810SOL    HW227330   6.200   0.648   4.706
 8811SOL     OW27331   3.578   1.386   2.611
 8811SOL    HW127332   3.594   1.452   2.538
 8811SOL    HW227333   3.608   1.424   2.698
 8812SOL     OW27334   2.006   0.799   0.659
 8812SOL    HW127335   2.039   0.710   0.691
 8812SOL    HW227336   2.038   0.871   0.721
 8813SOL     OW27337   2.146   5.353   2.500
 8813SOL    HW127338   2.213   5.427   2.498
 8813SOL    HW227339   2.182   5.275   2.448
 8814SOL     OW27340   6.390   0.144   0.666
 8814SOL    HW127341   6.481   0.184   0.658
 8814SOL    HW227342   6.345   0.147   0.576
 8815SOL     OW27343   5.711   7.001   0.805
 8815SOL    HW127344   5.668   0.071   0.791
 8815SOL    HW227345   5.733   6.960   0.716
 8816SOL     OW27346   1.373   6.514   0.712
 8816SOL    HW127347   1.369   6.581   0.638
 8816SOL    HW227348   1.305   6.538   0.781
 8817SOL     OW27349   0.036   4.976   3.767
 8817SOL    HW127350   7.000   5.033   3.828
 8817SOL    HW227351   0.102   4.924   3.821
 8818SOL     OW27352   1.035   4.529   4.809
 8818SOL    HW127353   1.054   4.449   4.753
 8818SOL    HW227354   1.020   4.500   4.904
 8819SOL     OW27355   5.530   4.918   5.080
 8819SOL    HW127356   5.627   4.908   5.103
 8819SOL    HW227357   5.506   4.851   5.010
 8820SOL     OW27358   2.964   0.705   5.492
 8820SOL    HW127359   2.960   0.800   5.525
 8820SOL    HW227360   2.982   0.704   5.394
 8821SOL     OW27361   1.917   6.144   1.045
 8821SOL    HW127362   1.846   6.148   1.115
 8821SOL    HW227363   1.905   6.061   0.991
 8822SOL     OW27364   0.873   0.431   4.230
 8822SOL    HW127365   0.775   0.443   4.243
 8822SOL    HW227366   0.908   0.366   4.298
 8823SOL     OW27367   2.290   0.990   2.782
 8823SOL    HW127368   2.216   1.055   2.799
 8823SOL    HW227369   2.251   0.904   2.747
 8824SOL     OW27370   1.354   1.941   0.104
 8824SOL    HW127371   1.386   1.903   0.017
 8824SOL    HW227372   1.424   1.927   0.174
 8825SOL     OW27373   2.038   0.892   2.291
 8825SOL    HW127374   1.983   0.857   2.216
 8825SOL    HW227375   1.999   0.978   2.324
 8826SOL     OW27376   0.812   3.883   0.639
 8826SOL    HW127377   0.755   3.961   0.611
 8826SOL    HW227378   0.753   3.805   0.661
 8827SOL     OW27379   4.367   1.406   2.110
 8827SOL    HW127380   4.353   1.442   2.202
 8827SOL    HW227381   4.452   1.444   2.072
 8828SOL     OW27382   4.110   5.490   6.221
 8828SOL    HW127383   4.054   5.432   6.161
 8828SOL    HW227384   4.065   5.579   6.232
 8829SOL     OW27385   5.174   3.036   1.052
 8829SOL    HW127386   5.139   3.024   1.145
 8829SOL    HW227387   5.273   3.022   1.051
 8830SOL     OW27388   1.038   2.101   2.634
 8830SOL    HW127389   1.086   2.062   2.555
 8830SOL    HW227390   1.094   2.090   2.716
 8831SOL     OW27391   4.587   2.613   3.872
 8831SOL    HW127392   4.538   2.565   3.945
 8831SOL    HW227393   4.564   2.572   3.784
 8832SOL     OW27394   0.012   6.750   3.012
 8832SOL    HW127395   6.982   6.825   3.056
 8832SOL    HW227396   0.021   6.768   2.914
 8833SOL     OW27397   2.520   4.902   5.705
 8833SOL    HW127398   2.424   4.904   5.678
 8833SOL    HW227399   2.562   4.817   5.674
 8834SOL     OW27400   5.935   4.153   5.195
 8834SOL    HW127401   5.930   4.118   5.289
 8834SOL    HW227402   5.869   4.104   5.138
 8835SOL     OW27403   4.874   0.889   5.851
 8835SOL    HW127404   4.838   0.800   5.822
 8835SOL    HW227405   4.967   0.900   5.817
 8836SOL     OW27406   5.051   1.610   0.257
 8836SOL    HW127407   5.139   1.617   0.303
 8836SOL    HW227408   5.015   1.517   0.269
 8837SOL     OW27409   6.901   6.332   2.222
 8837SOL    HW127410   6.860   6.277   2.149
 8837SOL    HW227411   6.995   6.302   2.237
 8838SOL     OW27412   2.248   5.168   3.394
 8838SOL    HW127413   2.174   5.105   3.417
 8838SOL    HW227414   2.220   5.262   3.415
 8839SOL     OW27415   5.150   5.709   1.695
 8839SOL    HW127416   5.212   5.736   1.621
 8839SOL    HW227417   5.094   5.787   1.722
 8840SOL     OW27418   7.003   1.902   3.518
 8840SOL    HW127419   6.961   1.924   3.430
 8840SOL    HW227420   6.991   1.805   3.538
 8841SOL     OW27421   0.755   0.660   4.534
 8841SOL    HW127422   0.788   0.709   4.615
 8841SOL    HW227423   0.819   0.675   4.459
 8842SOL     OW27424   3.618   2.872   2.670
 8842SOL    HW127425   3.637   2.902   2.763
 8842SOL    HW227426   3.523   2.842   2.663
 8843SOL     OW27427   2.138   3.274   5.813
 8843SOL    HW127428   2.197   3.295   5.735
 8843SOL    HW227429   2.090   3.357   5.842
 8844SOL     OW27430   0.275   1.414   5.826
 8844SOL    HW127431   0.339   1.360   5.881
 8844SOL    HW227432   0.269   1.376   5.734
 8845SOL     OW27433   3.464   3.742   0.490
 8845SOL    HW127434   3.448   3.808   0.417
 8845SOL    HW227435   3.556   3.757   0.529
 8846SOL     OW27436   3.583   5.285   4.146
 8846SOL    HW127437   3.558   5.330   4.232
 8846SOL    HW227438   3.524   5.319   4.073
 8847SOL     OW27439   2.420   1.757   2.659
 8847SOL    HW127440   2.434   1.686   2.728
 8847SOL    HW227441   2.462   1.728   2.572
 8848SOL     OW27442   2.541   2.117   2.137
 8848SOL    HW127443   2.535   2.190   2.069
 8848SOL    HW227444   2.465   2.126   2.201
 8849SOL     OW27445   2.829   6.175   3.440
 8849SOL    HW127446   2.833   6.267   3.401
 8849SOL    HW227447   2.820   6.108   3.366
 8850SOL     OW27448   1.544   1.951   6.356
 8850SOL    HW127449   1.590   2.039   6.358
 8850SOL    HW227450   1.608   1.879   6.383
 8851SOL     OW27451   1.157   5.801   2.082
 8851SOL    HW127452   1.241   5.841   2.119
 8851SOL    HW227453   1.152   5.705   2.110
 8852SOL     OW27454   4.961   3.703   5.622
 8852SOL    HW127455   4.912   3.727   5.706
 8852SOL    HW227456   4.895   3.687   5.548
 8853SOL     OW27457   2.618   1.288   0.098
 8853SOL    HW127458   2.620   1.283   7.018
 8853SOL    HW227459   2.704   1.326   0.131
 8854SOL     OW27460   3.501   1.154   5.991
 8854SOL    HW127461   3.477   1.246   6.024
 8854SOL    HW227462   3.523   1.158   5.894
 8855SOL     OW27463   0.463   6.056   1.593
 8855SOL    HW127464   0.421   6.041   1.683
 8855SOL    HW227465   0.430   6.142   1.554
 8856SOL     OW27466   0.430   6.527   6.787
 8856SOL    HW127467   0.475   6.445   6.823
 8856SOL    HW227468   0.494   6.579   6.732
 8857SOL     OW27469   6.734   2.046   4.097
 8857SOL    HW127470   6.809   2.012   4.040
 8857SOL    HW227471   6.704   2.135   4.062
 8858SOL     OW27472   0.550   2.186   4.937
 8858SOL    HW127473   0.476   2.246   4.967
 8858SOL    HW227474   0.553   2.105   4.995
 8859SOL     OW27475   6.987   0.606   3.851
 8859SOL    HW127476   6.973   0.565   3.761
 8859SOL    HW227477   0.021   0.690   3.841
 8860SOL     OW27478   0.593   2.919   2.797
 8860SOL    HW127479   0.591   3.015   2.822
 8860SOL    HW227480   0.602   2.911   2.698
 8861SOL     OW27481   4.459   1.403   5.969
 8861SOL    HW127482   4.399   1.438   6.041
 8861SOL    HW227483   4.498   1.479   5.918
 8862SOL     OW27484   5.512   0.931   4.088
 8862SOL    HW127485   5.603   0.894   4.066
 8862SOL    HW227486   5.522   1.005   4.155
 8863SOL     OW27487   1.470   4.914   4.173
 8863SOL    HW127488   1.433   4.841   4.232
 8863SOL    HW227489   1.569   4.915   4.182
 8864SOL     OW27490   3.430   4.794   6.236
 8864SOL    HW127491   3.510   4.759   6.287
 8864SOL    HW227492   3.462   4.846   6.157
 8865SOL     OW27493   3.044   1.167   6.033
 8865SOL    HW127494   3.031   1.124   5.944
 8865SOL    HW227495   3.018   1.103   6.105
 8866SOL     OW27496   5.297   6.914   2.845
 8866SOL    HW127497   5.318   6.818   2.862
 8866SOL    HW227498   5.355   6.948   2.771
 8867SOL     OW27499   6.020   3.379   2.640
 8867SOL    HW127500   6.023   3.356   2.542
 8867SOL    HW227501   6.097   3.438   2.662
 8868SOL     OW27502   6.661   2.712   0.840
 8868SOL    HW127503   6.738   2.650   0.823
 8868SOL    HW227504   6.625   2.695   0.932
 8869SOL     OW27505   3.989   6.237   4.684
 8869SOL    HW127506   3.906   6.233   4.627
 8869SOL    HW227507   4.060   6.180   4.642
 8870SOL     OW27508   3.241   0.298   0.353
 8870SOL    HW127509   3.264   0.394   0.336
 8870SOL    HW227510   3.191   0.290   0.439
 8871SOL     OW27511   2.010   0.875   3.987
 8871SOL    HW127512   2.088   0.932   3.964
 8871SOL    HW227513   2.016   0.844   4.082
 8872SOL     OW27514   1.563   4.040   5.205
 8872SOL    HW127515   1.514   4.041   5.293
 8872SOL    HW227516   1.505   3.999   5.135
 8873SOL     OW27517   1.032   6.591   1.487
 8873SOL    HW127518   1.099   6.660   1.515
 8873SOL    HW227519   1.071   6.534   1.415
 8874SOL     OW27520   1.845   5.948   2.770
 8874SOL    HW127521   1.781   5.919   2.841
 8874SOL    HW227522   1.919   5.882   2.762
 8875SOL     OW27523   0.120   3.428   5.268
 8875SOL    HW127524   0.152   3.523   5.270
 8875SOL    HW227525   0.020   3.427   5.268
 8876SOL     OW27526   1.963   6.923   4.553
 8876SOL    HW127527   2.023   6.845   4.533
 8876SOL    HW227528   1.868   6.892   4.550
 8877SOL     OW27529   3.160   1.320   4.004
 8877SOL    HW127530   3.079   1.286   4.053
 8877SOL    HW227531   3.242   1.277   4.041
 8878SOL     OW27532   6.725   4.961   6.855
 8878SOL    HW127533   6.724   4.926   6.762
 8878SOL    HW227534   6.770   5.050   6.857
 8879SOL     OW27535   4.740   4.686   2.524
 8879SOL    HW127536   4.641   4.675   2.537
 8879SOL    HW227537   4.757   4.731   2.436
 8880SOL     OW27538   5.139   5.722   5.101
 8880SOL    HW127539   5.193   5.638   5.096
 8880SOL    HW227540   5.042   5.699   5.105
 8881SOL     OW27541   5.682   6.842   3.476
 8881SOL    HW127542   5.767   6.830   3.425
 8881SOL    HW227543   5.696   6.909   3.549
 8882SOL     OW27544   5.312   0.972   1.264
 8882SOL    HW127545   5.401   1.007   1.234
 8882SOL    HW227546   5.322   0.929   1.354
 8883SOL     OW27547   1.698   6.313   6.319
 8883SOL    HW127548   1.789   6.334   6.284
 8883SOL    HW227549   1.705   6.245   6.391
 8884SOL     OW27550   6.459   4.306   6.456
 8884SOL    HW127551   6.420   4.390   6.418
 8884SOL    HW227552   6.388   4.255   6.505
 8885SOL     OW27553   6.859   3.246   0.835
 8885SOL    HW127554   6.804   3.163   0.823
 8885SOL    HW227555   6.862   3.270   0.932
 8886SOL     OW27556   3.417   0.081   4.785
 8886SOL    HW127557   3.369   7.012   4.784
 8886SOL    HW227558   3.455   0.097   4.876
 8887SOL     OW27559   3.166   1.315   0.761
 8887SOL    HW127560   3.074   1.276   0.764
 8887SOL    HW227561   3.174   1.378   0.684
 8888SOL     OW27562   1.879   1.625   5.890
 8888SOL    HW127563   1.930   1.661   5.969
 8888SOL    HW227564   1.935   1.632   5.808
 8889SOL     OW27565   6.719   0.210   6.143
 8889SOL    HW127566   6.680   0.159   6.066
 8889SOL    HW227567   6.679   0.302   6.145
 8890SOL     OW27568   6.323   5.589   3.474
 8890SOL    HW127569   6.331   5.495   3.507
 8890SOL    HW227570   6.292   5.589   3.379
 8891SOL     OW27571   4.989   3.309   6.475
 8891SOL    HW127572   5.007   3.211   6.480
 8891SOL    HW227573   4.891   3.325   6.476
 8892SOL     OW27574   3.366   5.794   3.278
 8892SOL    HW127575   3.364   5.747   3.190
 8892SOL    HW227576   3.283   5.774   3.329
 8893SOL     OW27577   0.675   6.122   3.478
 8893SOL    HW127578   0.642   6.208   3.518
 8893SOL    HW227579   0.740   6.079   3.540
 8894SOL     OW27580   3.993   2.440   6.282
 8894SOL    HW127581   3.968   2.522   6.230
 8894SOL    HW227582   4.093   2.436   6.291
 8895SOL     OW27583   6.563   2.544   2.288
 8895SOL    HW127584   6.578   2.621   2.226
 8895SOL    HW227585   6.474   2.554   2.333
 8896SOL     OW27586   2.684   3.109   5.305
 8896SOL    HW127587   2.592   3.086   5.273
 8896SOL    HW227588   2.713   3.043   5.374
 8897SOL     OW27589   2.065   2.480   3.530
 8897SOL    HW127590   2.148   2.425   3.515
 8897SOL    HW227591   2.058   2.549   3.458
 8898SOL     OW27592   5.195   2.993   2.586
 8898SOL    HW127593   5.128   2.942   2.532
 8898SOL    HW227594   5.196   2.958   2.680
 8899SOL     OW27595   1.627   5.841   1.330
 8899SOL    HW127596   1.549   5.779   1.332
 8899SOL    HW227597   1.688   5.821   1.407
 8900SOL     OW27598   6.014   3.029   2.821
 8900SOL    HW127599   5.945   3.098   2.842
 8900SOL    HW227600   6.104   3.072   2.815
 8901SOL     OW27601   2.313   0.707   5.056
 8901SOL    HW127602   2.313   0.790   5.000
 8901SOL    HW227603   2.353   0.632   5.003
 8902SOL     OW27604   2.321   0.099   0.538
 8902SOL    HW127605   2.365   0.046   0.611
 8902SOL    HW227606   2.322   0.196   0.562
 8903SOL     OW27607   0.967   1.580   4.994
 8903SOL    HW127608   0.899   1.615   4.930
 8903SOL    HW227609   0.935   1.594   5.088
 8904SOL     OW27610   5.793   6.910   3.924
 8904SOL    HW127611   5.733   6.841   3.966
 8904SOL    HW227612   5.748   6.946   3.842
 8905SOL     OW27613   0.923   4.485   3.948
 8905SOL    HW127614   0.850   4.551   3.934
 8905SOL    HW227615   1.011   4.533   3.957
 8906SOL     OW27616   0.831   5.810   6.626
 8906SOL    HW127617   0.753   5.871   6.614
 8906SOL    HW227618   0.910   5.862   6.658
 8907SOL     OW27619   2.593   2.178   4.934
 8907SOL    HW127620   2.669   2.149   4.876
 8907SOL    HW227621   2.543   2.252   4.889
 8908SOL     OW27622   1.346   4.668   6.668
 8908SOL    HW127623   1.374   4.574   6.652
 8908SOL    HW227624   1.356   4.721   6.584
 8909SOL     OW27625   2.594   0.789   6.159
 8909SOL    HW127626   2.605   0.853   6.083
 8909SOL    HW227627   2.522   0.822   6.220
 8910SOL     OW27628   6.944   2.873   6.125
 8910SOL    HW127629   6.971   2.959   6.081
 8910SOL    HW227630   6.980   2.796   6.073
 8911SOL     OW27631   4.442   2.460   4.872
 8911SOL    HW127632   4.418   2.422   4.782
 8911SOL    HW227633   4.359   2.483   4.922
 8912SOL     OW27634   3.254   3.489   6.639
 8912SOL    HW127635   3.165   3.487   6.685
 8912SOL    HW227636   3.287   3.396   6.626
 8913SOL     OW27637   5.028   4.892   5.831
 8913SOL    HW127638   4.993   4.824   5.767
 8913SOL    HW227639   5.009   4.863   5.925
 8914SOL     OW27640   4.725   0.039   4.880
 8914SOL    HW127641   4.739   0.138   4.869
 8914SOL    HW227642   4.810   7.016   4.913
 8915SOL     OW27643   0.461   3.209   3.651
 8915SOL    HW127644   0.478   3.203   3.749
 8915SOL    HW227645   0.419   3.123   3.620
 8916SOL     OW27646   6.820   3.667   0.583
 8916SOL    HW127647   6.845   3.600   0.653
 8916SOL    HW227648   6.722   3.683   0.585
 8917SOL     OW27649   6.709   3.419   0.164
 8917SOL    HW127650   6.645   3.456   0.231
 8917SOL    HW227651   6.789   3.479   0.156
 8918SOL     OW27652   6.577   4.205   1.144
 8918SOL    HW127653   6.554   4.287   1.197
 8918SOL    HW227654   6.493   4.167   1.104
 8919SOL     OW27655   3.636   4.058   0.645
 8919SOL    HW127656   3.672   3.990   0.582
 8919SOL    HW227657   3.539   4.040   0.663
 8920SOL     OW27658   0.716   0.512   6.972
 8920SOL    HW127659   0.674   0.599   6.997
 8920SOL    HW227660   0.715   0.502   6.873
 8921SOL     OW27661   2.236   2.348   2.476
 8921SOL    HW127662   2.153   2.390   2.514
 8921SOL    HW227663   2.315   2.405   2.498
 8922SOL     OW27664   3.933   4.842   1.531
 8922SOL    HW127665   3.882   4.759   1.506
 8922SOL    HW227666   3.886   4.888   1.606
 8923SOL     OW27667   1.880   2.492   6.313
 8923SOL    HW127668   1.785   2.519   6.326
 8923SOL    HW227669   1.940   2.568   6.336
 8924SOL     OW27670   3.409   5.578   5.482
 8924SOL    HW127671   3.392   5.480   5.476
 8924SOL    HW227672   3.339   5.621   5.539
 8925SOL     OW27673   0.712   1.712   2.715
 8925SOL    HW127674   0.794   1.661   2.688
 8925SOL    HW227675   0.632   1.669   2.674
 8926SOL     OW27676   6.645   2.946   6.140
 8926SOL    HW127677   6.640   3.034   6.093
 8926SOL    HW227678   6.739   2.915   6.143
 8927SOL     OW27679   6.909   1.171   4.525
 8927SOL    HW127680   6.970   1.244   4.495
 8927SOL    HW227681   6.915   1.161   4.624
 8928SOL     OW27682   0.193   6.999   6.542
 8928SOL    HW127683   0.230   6.924   6.596
 8928SOL    HW227684   0.122   0.027   6.595
 8929SOL     OW27685   5.945   2.515   4.304
 8929SOL    HW127686   5.990   2.513   4.215
 8929SOL    HW227687   5.934   2.421   4.338
 8930SOL     OW27688   1.637   3.896   3.962
 8930SOL    HW127689   1.711   3.873   4.026
 8930SOL    HW227690   1.631   3.824   3.893
 8931SOL     OW27691   2.412   2.992   0.384
 8931SOL    HW127692   2.472   3.068   0.411
 8931SOL    HW227693   2.388   2.939   0.465
 8932SOL     OW27694   6.355   1.408   1.094
 8932SOL    HW127695   6.326   1.362   1.178
 8932SOL    HW227696   6.354   1.344   1.018
 8933SOL     OW27697   2.053   3.003   5.815
 8933SOL    HW127698   2.075   2.990   5.912
 8933SOL    HW227699   2.064   3.100   5.791
 8934SOL     OW27700   3.548   4.892   4.647
 8934SOL    HW127701   3.451   4.886   4.624
 8934SOL    HW227702   3.558   4.901   4.746
 8935SOL     OW27703   6.815   4.135   0.715
 8935SOL    HW127704   6.911   4.154   0.736
 8935SOL    HW227705   6.791   4.044   0.747
 8936SOL     OW27706   1.252   3.005   2.633
 8936SOL    HW127707   1.281   2.943   2.706
 8936SOL    HW227708   1.261   2.960   2.545
 8937SOL     OW27709   0.106   6.725   4.062
 8937SOL    HW127710   0.169   6.801   4.049
 8937SOL    HW227711   0.137   6.646   4.009
 8938SOL     OW27712   0.404   0.733   0.825
 8938SOL    HW127713   0.327   0.675   0.852
 8938SOL    HW227714   0.378   0.829   0.834
 8939SOL     OW27715   6.012   4.835   4.113
 8939SOL    HW127716   6.035   4.882   4.198
 8939SOL    HW227717   5.927   4.872   4.076
 8940SOL     OW27718   6.194   1.429   1.987
 8940SOL    HW127719   6.267   1.494   2.009
 8940SOL    HW227720   6.194   1.355   2.053
 8941SOL     OW27721   5.757   2.593   4.536
 8941SOL    HW127722   5.830   2.569   4.472
 8941SOL    HW227723   5.669   2.562   4.501
 8942SOL     OW27724   6.220   5.592   5.592
 8942SOL    HW127725   6.225   5.496   5.618
 8942SOL    HW227726   6.268   5.647   5.659
 8943SOL     OW27727   4.035   5.318   0.741
 8943SOL    HW127728   3.983   5.386   0.791
 8943SOL    HW227729   3.984   5.289   0.660
 8944SOL     OW27730   5.640   5.552   4.876
 8944SOL    HW127731   5.724   5.603   4.854
 8944SOL    HW227732   5.568   5.617   4.901
 8945SOL     OW27733   1.141   1.219   3.773
 8945SOL    HW127734   1.114   1.227   3.869
 8945SOL    HW227735   1.110   1.300   3.723
 8946SOL     OW27736   2.895   1.318   3.577
 8946SOL    HW127737   2.866   1.234   3.623
 8946SOL    HW227738   2.968   1.362   3.630
 8947SOL     OW27739   2.528   3.513   5.841
 8947SOL    HW127740   2.576   3.588   5.795
 8947SOL    HW227741   2.577   3.491   5.926
 8948SOL     OW27742   6.338   6.033   3.880
 8948SOL    HW127743   6.343   6.046   3.781
 8948SOL    HW227744   6.397   5.955   3.906
 8949SOL     OW27745   3.962   5.971   0.835
 8949SOL    HW127746   4.008   5.967   0.746
 8949SOL    HW227747   4.028   5.999   0.905
 8950SOL     OW27748   4.145   4.570   6.936
 8950SOL    HW127749   4.076   4.582   7.008
 8950SOL    HW227750   4.162   4.657   6.891
 8951SOL     OW27751   2.426   1.067   4.350
 8951SOL    HW127752   2.436   1.036   4.255
 8951SOL    HW227753   2.446   1.165   4.356
 8952SOL     OW27754   0.529   5.277   3.108
 8952SOL    HW127755   0.526   5.242   3.201
 8952SOL    HW227756   0.448   5.333   3.090
 8953SOL     OW27757   1.202   4.269   0.663
 8953SOL    HW127758   1.152   4.353   0.682
 8953SOL    HW227759   1.139   4.202   0.621
 8954SOL     OW27760   6.877   6.730   4.208
 8954SOL    HW127761   6.826   6.796   4.153
 8954SOL    HW227762   6.968   6.716   4.168
 8955SOL     OW27763   7.005   5.636   3.013
 8955SOL    HW127764   0.035   5.713   3.053
 8955SOL    HW227765   7.017   5.636   2.914
 8956SOL     OW27766   1.942   1.655   6.375
 8956SOL    HW127767   1.933   1.642   6.473
 8956SOL    HW227768   1.999   1.734   6.357
 8957SOL     OW27769   1.804   5.085   1.741
 8957SOL    HW127770   1.767   5.152   1.677
 8957SOL    HW227771   1.904   5.091   1.741
 8958SOL     OW27772   6.976   1.805   4.815
 8958SOL    HW127773   0.007   1.783   4.731
 8958SOL    HW227774   0.013   1.782   4.894
 8959SOL     OW27775   1.796   4.454   2.121
 8959SOL    HW127776   1.810   4.547   2.087
 8959SOL    HW227777   1.779   4.456   2.219
 8960SOL     OW27778   4.002   5.843   3.329
 8960SOL    HW127779   4.021   5.837   3.427
 8960SOL    HW227780   4.078   5.888   3.283
 8961SOL     OW27781   3.112   1.413   3.696
 8961SOL    HW127782   3.201   1.393   3.654
 8961SOL    HW227783   3.112   1.383   3.791
 8962SOL     OW27784   6.052   5.566   2.675
 8962SOL    HW127785   6.099   5.622   2.743
 8962SOL    HW227786   5.982   5.511   2.721
 8963SOL     OW27787   3.810   0.331   5.193
 8963SOL    HW127788   3.747   0.402   5.160
 8963SOL    HW227789   3.804   0.325   5.292
 8964SOL     OW27790   5.563   3.013   3.049
 8964SOL    HW127791   5.469   3.046   3.035
 8964SOL    HW227792   5.577   2.993   3.146
 8965SOL     OW27793   2.251   5.635   0.577
 8965SOL    HW127794   2.342   5.609   0.610
 8965SOL    HW227795   2.201   5.553   0.548
 8966SOL     OW27796   6.722   4.310   0.206
 8966SOL    HW127797   6.650   4.371   0.172
 8966SOL    HW227798   6.724   4.313   0.306
 8967SOL     OW27799   3.983   0.674   1.750
 8967SOL    HW127800   4.037   0.624   1.818
 8967SOL    HW227801   4.037   0.687   1.667
 8968SOL     OW27802   4.342   5.823   2.919
 8968SOL    HW127803   4.378   5.892   2.982
 8968SOL    HW227804   4.243   5.831   2.914
 8969SOL     OW27805   6.742   0.388   3.776
 8969SOL    HW127806   6.807   0.343   3.837
 8969SOL    HW227807   6.649   0.365   3.804
 8970SOL     OW27808   2.640   3.323   6.551
 8970SOL    HW127809   2.617   3.298   6.645
 8970SOL    HW227810   2.617   3.247   6.490
 8971SOL     OW27811   5.830   4.984   1.468
 8971SOL    HW127812   5.777   5.064   1.496
 8971SOL    HW227813   5.817   4.911   1.535
 8972SOL     OW27814   4.559   3.330   6.860
 8972SOL    HW127815   4.614   3.291   6.785
 8972SOL    HW227816   4.495   3.262   6.893
 8973SOL     OW27817   0.291   3.652   3.442
 8973SOL    HW127818   0.348   3.663   3.361
 8973SOL    HW227819   0.312   3.564   3.485
 8974SOL     OW27820   1.195   3.660   4.404
 8974SOL    HW127821   1.126   3.597   4.441
 8974SOL    HW227822   1.222   3.725   4.474
 8975SOL     OW27823   1.321   6.044   0.117
 8975SOL    HW127824   1.261   6.124   0.110
 8975SOL    HW227825   1.400   6.057   0.057
 8976SOL     OW27826   0.877   5.372   0.095
 8976SOL    HW127827   0.833   5.332   0.015
 8976SOL    HW227828   0.812   5.432   0.142
 8977SOL     OW27829   6.999   3.258   6.909
 8977SOL    HW127830   6.964   3.204   6.832
 8977SOL    HW227831   0.007   3.196   6.983
 8978SOL     OW27832   5.352   6.790   4.445
 8978SOL    HW127833   5.335   6.784   4.347
 8978SOL    HW227834   5.376   6.699   4.480
 8979SOL     OW27835   1.266   4.196   5.229
 8979SOL    HW127836   1.195   4.129   5.248
 8979SOL    HW227837   1.345   4.180   5.289
 8980SOL     OW27838   4.365   2.959   5.369
 8980SOL    HW127839   4.298   2.885   5.370
 8980SOL    HW227840   4.318   3.047   5.381
 8981SOL     OW27841   4.367   1.477   5.048
 8981SOL    HW127842   4.356   1.379   5.030
 8981SOL    HW227843   4.449   1.510   5.001
 8982SOL     OW27844   1.753   1.670   1.926
 8982SOL    HW127845   1.753   1.747   1.990
 8982SOL    HW227846   1.796   1.590   1.969
 8983SOL     OW27847   1.248   5.536   0.288
 8983SOL    HW127848   1.240   5.518   0.189
 8983SOL    HW227849   1.257   5.634   0.303
 8984SOL     OW27850   6.185   0.297   3.379
 8984SOL    HW127851   6.274   0.322   3.341
 8984SOL    HW227852   6.194   0.285   3.478
 8985SOL     OW27853   2.292   1.670   0.568
 8985SOL    HW127854   2.278   1.767   0.588
 8985SOL    HW227855   2.366   1.660   0.502
 8986SOL     OW27856   3.916   5.235   1.774
 8986SOL    HW127857   3.874   5.325   1.775
 8986SOL    HW227858   4.015   5.244   1.767
 8987SOL     OW27859   5.017   6.443   0.494
 8987SOL    HW127860   5.017   6.449   0.594
 8987SOL    HW227861   4.923   6.452   0.460
 8988SOL     OW27862   1.783   3.704   0.397
 8988SOL    HW127863   1.805   3.638   0.325
 8988SOL    HW227864   1.695   3.747   0.377
 8989SOL     OW27865   4.859   4.444   2.024
 8989SOL    HW127866   4.763   4.442   2.052
 8989SOL    HW227867   4.872   4.515   1.954
 8990SOL     OW27868   2.124   5.979   2.083
 8990SOL    HW127869   2.179   5.971   2.000
 8990SOL    HW227870   2.170   6.041   2.147
 8991SOL     OW27871   1.765   1.988   6.599
 8991SOL    HW127872   1.750   1.893   6.624
 8991SOL    HW227873   1.682   2.042   6.617
 8992SOL     OW27874   6.413   2.181   6.829
 8992SOL    HW127875   6.475   2.244   6.783
 8992SOL    HW227876   6.384   2.110   6.766
 8993SOL     OW27877   4.849   2.627   2.460
 8993SOL    HW127878   4.879   2.722   2.473
 8993SOL    HW227879   4.757   2.626   2.421
 8994SOL     OW27880   0.750   4.805   4.853
 8994SOL    HW127881   0.752   4.856   4.767
 8994SOL    HW227882   0.732   4.709   4.835
 8995SOL     OW27883   1.244   2.573   6.673
 8995SOL    HW127884   1.152   2.571   6.634
 8995SOL    HW227885   1.245   2.522   6.758
 8996SOL     OW27886   6.810   4.980   1.620
 8996SOL    HW127887   6.874   4.986   1.543
 8996SOL    HW227888   6.721   4.950   1.587
 8997SOL     OW27889   4.292   1.388   6.186
 8997SOL    HW127890   4.325   1.301   6.223
 8997SOL    HW227891   4.196   1.400   6.210
 8998SOL     OW27892   6.928   3.568   4.996
 8998SOL    HW127893   6.979   3.486   4.970
 8998SOL    HW227894   6.903   3.562   5.092
 8999SOL     OW27895   5.125   6.932   0.272
 8999SOL    HW127896   5.191   6.858   0.273
 8999SOL    HW227897   5.046   6.908   0.329
 9000SOL     OW27898   2.502   4.661   0.008
 9000SOL    HW127899   2.480   4.746   0.055
 9000SOL    HW227900   2.419   4.607   7.014
 9001SOL     OW27901   0.830   5.683   2.820
 9001SOL    HW127902   0.901   5.659   2.886
 9001SOL    HW227903   0.868   5.746   2.752
 9002SOL     OW27904   6.395   4.971   4.396
 9002SOL    HW127905   6.324   4.910   4.431
 9002SOL    HW227906   6.366   5.010   4.309
 9003SOL     OW27907   5.859   2.528   1.513
 9003SOL    HW127908   5.854   2.573   1.602
 9003SOL    HW227909   5.767   2.506   1.481
 9004SOL     OW27910   5.098   6.643   1.490
 9004SOL    HW127911   5.097   6.710   1.565
 9004SOL    HW227912   5.189   6.603   1.482
 9005SOL     OW27913   4.971   2.121   5.100
 9005SOL    HW127914   5.070   2.110   5.090
 9005SOL    HW227915   4.952   2.205   5.151
 9006SOL     OW27916   2.680   6.177   0.808
 9006SOL    HW127917   2.727   6.159   0.895
 9006SOL    HW227918   2.584   6.197   0.826
 9007SOL     OW27919   4.247   6.924   4.287
 9007SOL    HW127920   4.209   6.922   4.379
 9007SOL    HW227921   4.257   6.831   4.253
 9008SOL     OW27922   0.292   5.602   3.273
 9008SOL    HW127923   0.224   5.602   3.346
 9008SOL    HW227924   0.296   5.692   3.230
 9009SOL     OW27925   2.770   0.737   0.383
 9009SOL    HW127926   2.714   0.715   0.464
 9009SOL    HW227927   2.797   0.653   0.337
 9010SOL     OW27928   0.928   0.291   4.471
 9010SOL    HW127929   1.013   0.343   4.479
 9010SOL    HW227930   0.946   0.194   4.487
 9011SOL     OW27931   4.372   2.154   1.478
 9011SOL    HW127932   4.334   2.070   1.517
 9011SOL    HW227933   4.469   2.141   1.458
 9012SOL     OW27934   3.167   4.510   1.103
 9012SOL    HW127935   3.069   4.529   1.102
 9012SOL    HW227936   3.182   4.411   1.099
 9013SOL     OW27937   0.424   6.181   4.224
 9013SOL    HW127938   0.407   6.115   4.297
 9013SOL    HW227939   0.509   6.157   4.177
 9014SOL     OW27940   0.684   0.906   0.194
 9014SOL    HW127941   0.723   0.957   0.117
 9014SOL    HW227942   0.722   0.941   0.280
 9015SOL     OW27943   6.195   1.944   1.321
 9015SOL    HW127944   6.290   1.974   1.332
 9015SOL    HW227945   6.193   1.845   1.306
 9016SOL     OW27946   0.642   6.229   6.439
 9016SOL    HW127947   0.640   6.326   6.461
 9016SOL    HW227948   0.568   6.208   6.376
 9017SOL     OW27949   4.023   2.441   1.695
 9017SOL    HW127950   3.998   2.394   1.611
 9017SOL    HW227951   4.100   2.502   1.678
 9018SOL     OW27952   4.660   1.290   5.804
 9018SOL    HW127953   4.639   1.194   5.786
 9018SOL    HW227954   4.600   1.323   5.878
 9019SOL     OW27955   0.279   0.788   1.725
 9019SOL    HW127956   0.297   0.808   1.629
 9019SOL    HW227957   0.367   0.779   1.773
 9020SOL     OW27958   1.442   3.181   1.369
 9020SOL    HW127959   1.461   3.134   1.456
 9020SOL    HW227960   1.372   3.131   1.319
 9021SOL     OW27961   6.958   0.269   3.973
 9021SOL    HW127962   7.005   0.302   3.891
 9021SOL    HW227963   0.005   0.223   4.032
 9022SOL     OW27964   2.631   1.782   0.524
 9022SOL    HW127965   2.636   1.838   0.607
 9022SOL    HW227966   2.698   1.708   0.529
 9023SOL     OW27967   3.223   3.462   2.576
 9023SOL    HW127968   3.322   3.451   2.586
 9023SOL    HW227969   3.198   3.558   2.593
 9024SOL     OW27970   0.369   4.969   4.657
 9024SOL    HW127971   0.453   4.994   4.704
 9024SOL    HW227972   0.389   4.899   4.589
 9025SOL     OW27973   0.679   5.530   0.191
 9025SOL    HW127974   0.667   5.623   0.227
 9025SOL    HW227975   0.648   5.464   0.259
 9026SOL     OW27976   4.032   3.427   1.997
 9026SOL    HW127977   4.056   3.474   2.082
 9026SOL    HW227978   4.115   3.409   1.945
 9027SOL     OW27979   1.092   1.731   4.383
 9027SOL    HW127980   1.120   1.665   4.313
 9027SOL    HW227981   1.106   1.824   4.349
 9028SOL     OW27982   2.669   3.971   5.950
 9028SOL    HW127983   2.598   4.040   5.960
 9028SOL    HW227984   2.684   3.927   6.039
 9029SOL     OW27985   3.100   5.330   4.600
 9029SOL    HW127986   3.044   5.248   4.608
 9029SOL    HW227987   3.113   5.352   4.503
 9030SOL     OW27988   2.053   1.955   3.708
 9030SOL    HW127989   2.049   2.030   3.773
 9030SOL    HW227990   2.059   1.868   3.758
 9031SOL     OW27991   4.617   6.005   4.584
 9031SOL    HW127992   4.622   6.060   4.501
 9031SOL    HW227993   4.608   5.909   4.560
 9032SOL     OW27994   3.375   3.611   0.777
 9032SOL    HW127995   3.399   3.514   0.773
 9032SOL    HW227996   3.391   3.652   0.687
 9033SOL     OW27997   1.457   5.434   4.082
 9033SOL    HW127998   1.436   5.343   4.117
 9033SOL    HW227999   1.419   5.503   4.143
 9034SOL     OW28000   3.093   0.322   5.204
 9034SOL    HW128001   2.999   0.330   5.237
 9034SOL    HW228002   3.112   0.227   5.180
 9035SOL     OW28003   1.207   4.670   5.681
 9035SOL    HW128004   1.122   4.652   5.631
 9035SOL    HW228005   1.231   4.590   5.736
 9036SOL     OW28006   1.942   1.057   5.469
 9036SOL    HW128007   1.927   1.000   5.550
 9036SOL    HW228008   1.922   1.152   5.490
 9037SOL     OW28009   1.506   3.521   5.887
 9037SOL    HW128010   1.422   3.557   5.927
 9037SOL    HW228011   1.493   3.508   5.789
 9038SOL     OW28012   5.094   6.275   5.966
 9038SOL    HW128013   5.117   6.183   5.997
 9038SOL    HW228014   5.178   6.325   5.944
 9039SOL     OW28015   2.692   4.834   4.629
 9039SOL    HW128016   2.625   4.906   4.613
 9039SOL    HW228017   2.667   4.783   4.711
 9040SOL     OW28018   3.042   2.221   2.631
 9040SOL    HW128019   2.967   2.272   2.674
 9040SOL    HW228020   3.014   2.192   2.540
 9041SOL     OW28021   1.417   2.011   1.883
 9041SOL    HW128022   1.378   2.082   1.942
 9041SOL    HW228023   1.495   1.969   1.930
 9042SOL     OW28024   2.603   6.859   3.916
 9042SOL    HW128025   2.680   6.857   3.852
 9042SOL    HW228026   2.555   6.772   3.914
 9043SOL     OW28027   2.566   1.516   6.864
 9043SOL    HW128028   2.538   1.502   6.769
 9043SOL    HW228029   2.655   1.561   6.865
 9044SOL     OW28030   5.830   1.501   2.144
 9044SOL    HW128031   5.823   1.472   2.049
 9044SOL    HW228032   5.870   1.593   2.149
 9045SOL     OW28033   2.917   1.385   2.403
 9045SOL    HW128034   3.015   1.369   2.387
 9045SOL    HW228035   2.873   1.298   2.427
 9046SOL     OW28036   3.369   4.136   4.170
 9046SOL    HW128037   3.296   4.192   4.132
 9046SOL    HW228038   3.351   4.119   4.267
 9047SOL     OW28039   1.108   2.978   5.840
 9047SOL    HW128040   1.055   3.023   5.913
 9047SOL    HW228041   1.061   2.992   5.753
 9048SOL     OW28042   6.427   1.976   5.791
 9048SOL    HW128043   6.433   1.992   5.693
 9048SOL    HW228044   6.347   1.919   5.811
 9049SOL     OW28045   3.896   6.977   6.506
 9049SOL    HW128046   3.924   6.951   6.598
 9049SOL    HW228047   3.912   6.901   6.443
 9050SOL     OW28048   6.824   3.718   6.641
 9050SOL    HW128049   6.836   3.817   6.629
 9050SOL    HW228050   6.889   3.669   6.582
 9051SOL     OW28051   4.769   6.554   0.453
 9051SOL    HW128052   4.758   6.623   0.382
 9051SOL    HW228053   4.716   6.579   0.534
 9052SOL     OW28054   1.617   2.392   3.587
 9052SOL    HW128055   1.649   2.457   3.657
 9052SOL    HW228056   1.677   2.312   3.588
 9053SOL     OW28057   1.341   1.861   2.972
 9053SOL    HW128058   1.388   1.819   2.894
 9053SOL    HW228059   1.396   1.850   3.055
 9054SOL     OW28060   1.750   0.234   2.208
 9054SOL    HW128061   1.689   0.286   2.149
 9054SOL    HW228062   1.696   0.169   2.262
 9055SOL     OW28063   6.017   3.386   3.599
 9055SOL    HW128064   6.104   3.401   3.646
 9055SOL    HW228065   5.945   3.371   3.667
 9056SOL     OW28066   6.876   1.316   1.596
 9056SOL    HW128067   6.820   1.268   1.664
 9056SOL    HW228068   6.820   1.384   1.549
 9057SOL     OW28069   5.874   4.948   5.694
 9057SOL    HW128070   5.940   4.975   5.764
 9057SOL    HW228071   5.877   5.014   5.619
 9058SOL     OW28072   1.865   1.865   3.496
 9058SOL    HW128073   1.914   1.919   3.565
 9058SOL    HW228074   1.883   1.903   3.405
 9059SOL     OW28075   1.317   1.145   5.312
 9059SOL    HW128076   1.376   1.076   5.355
 9059SOL    HW228077   1.324   1.138   5.213
 9060SOL     OW28078   6.352   3.007   2.292
 9060SOL    HW128079   6.365   2.999   2.193
 9060SOL    HW228080   6.264   3.050   2.311
 9061SOL     OW28081   2.586   5.592   1.980
 9061SOL    HW128082   2.684   5.600   1.964
 9061SOL    HW228083   2.561   5.641   2.063
 9062SOL     OW28084   1.656   6.056   2.006
 9062SOL    HW128085   1.651   6.125   2.078
 9062SOL    HW228086   1.722   5.986   2.032
 9063SOL     OW28087   2.298   0.132   2.824
 9063SOL    HW128088   2.367   0.201   2.844
 9063SOL    HW228089   2.290   0.070   2.902
 9064SOL     OW28090   6.091   2.332   5.972
 9064SOL    HW128091   6.187   2.302   5.970
 9064SOL    HW228092   6.063   2.363   5.881
 9065SOL     OW28093   3.208   6.502   6.365
 9065SOL    HW128094   3.216   6.575   6.433
 9065SOL    HW228095   3.261   6.528   6.283
 9066SOL     OW28096   5.885   6.519   0.335
 9066SOL    HW128097   5.929   6.433   0.362
 9066SOL    HW228098   5.908   6.539   0.240
 9067SOL     OW28099   6.289   0.380   4.522
 9067SOL    HW128100   6.273   0.458   4.581
 9067SOL    HW228101   6.281   0.295   4.575
 9068SOL     OW28102   2.992   6.985   5.603
 9068SOL    HW128103   2.925   0.026   5.646
 9068SOL    HW228104   2.946   6.927   5.536
 9069SOL     OW28105   2.529   2.476   2.116
 9069SOL    HW128106   2.477   2.535   2.176
 9069SOL    HW228107   2.620   2.460   2.155
 9070SOL     OW28108   1.222   3.576   5.954
 9070SOL    HW128109   1.238   3.665   5.911
 9070SOL    HW228110   1.274   3.570   6.039
 9071SOL     OW28111   5.559   0.504   0.796
 9071SOL    HW128112   5.555   0.407   0.821
 9071SOL    HW228113   5.645   0.543   0.829
 9072SOL     OW28114   6.481   1.187   1.944
 9072SOL    HW128115   6.454   1.265   2.001
 9072SOL    HW228116   6.409   1.167   1.878
 9073SOL     OW28117   3.181   6.630   0.464
 9073SOL    HW128118   3.235   6.695   0.518
 9073SOL    HW228119   3.204   6.537   0.490
 9074SOL     OW28120   2.335   1.505   1.795
 9074SOL    HW128121   2.335   1.425   1.855
 9074SOL    HW228122   2.348   1.587   1.850
 9075SOL     OW28123   1.019   1.210   2.690
 9075SOL    HW128124   1.015   1.197   2.790
 9075SOL    HW228125   1.030   1.121   2.646
 9076SOL     OW28126   5.739   1.976   5.211
 9076SOL    HW128127   5.723   1.904   5.278
 9076SOL    HW228128   5.728   1.939   5.119
 9077SOL     OW28129   5.479   6.915   6.849
 9077SOL    HW128130   5.403   6.935   6.788
 9077SOL    HW228131   5.448   6.854   6.923
 9078SOL     OW28132   4.457   3.587   6.544
 9078SOL    HW128133   4.383   3.630   6.596
 9078SOL    HW228134   4.420   3.512   6.490
 9079SOL     OW28135   2.806   6.649   4.244
 9079SOL    HW128136   2.738   6.717   4.222
 9079SOL    HW228137   2.815   6.584   4.168
 9080SOL     OW28138   5.173   2.417   6.904
 9080SOL    HW128139   5.131   2.331   6.931
 9080SOL    HW228140   5.102   2.485   6.885
 9081SOL     OW28141   3.708   5.996   3.159
 9081SOL    HW128142   3.643   6.061   3.200
 9081SOL    HW228143   3.719   5.918   3.220
 9082SOL     OW28144   2.492   6.813   5.405
 9082SOL    HW128145   2.548   6.747   5.355
 9082SOL    HW228146   2.429   6.858   5.342
 9083SOL     OW28147   3.345   5.369   6.126
 9083SOL    HW128148   3.269   5.402   6.070
 9083SOL    HW228149   3.417   5.438   6.130
 9084SOL     OW28150   3.105   3.222   5.343
 9084SOL    HW128151   3.076   3.231   5.248
 9084SOL    HW228152   3.201   3.252   5.351
 9085SOL     OW28153   2.093   4.545   1.401
 9085SOL    HW128154   2.151   4.467   1.422
 9085SOL    HW228155   2.150   4.626   1.389
 9086SOL     OW28156   0.800   4.388   0.414
 9086SOL    HW128157   0.764   4.324   0.481
 9086SOL    HW228158   0.897   4.406   0.434
 9087SOL     OW28159   4.580   2.594   1.985
 9087SOL    HW128160   4.572   2.657   1.908
 9087SOL    HW228161   4.497   2.538   1.991
 9088SOL     OW28162   5.546   5.762   0.570
 9088SOL    HW128163   5.495   5.836   0.527
 9088SOL    HW228164   5.578   5.792   0.660
 9089SOL     OW28165   4.833   6.133   5.535
 9089SOL    HW128166   4.777   6.172   5.461
 9089SOL    HW228167   4.817   6.184   5.619
 9090SOL     OW28168   0.178   0.394   3.375
 9090SOL    HW128169   0.148   0.488   3.359
 9090SOL    HW228170   0.252   0.394   3.442
 9091SOL     OW28171   3.181   4.635   0.806
 9091SOL    HW128172   3.090   4.604   0.779
 9091SOL    HW228173   3.202   4.604   0.898
 9092SOL     OW28174   0.631   1.469   0.734
 9092SOL    HW128175   0.615   1.510   0.644
 9092SOL    HW228176   0.610   1.536   0.806
 9093SOL     OW28177   1.285   6.615   6.245
 9093SOL    HW128178   1.317   6.703   6.282
 9093SOL    HW228179   1.340   6.590   6.165
 9094SOL     OW28180   6.464   5.283   2.808
 9094SOL    HW128181   6.466   5.184   2.794
 9094SOL    HW228182   6.430   5.327   2.725
 9095SOL     OW28183   4.790   4.425   5.809
 9095SOL    HW128184   4.779   4.525   5.806
 9095SOL    HW228185   4.700   4.382   5.805
 9096SOL     OW28186   5.844   3.851   1.981
 9096SOL    HW128187   5.917   3.835   1.915
 9096SOL    HW228188   5.780   3.919   1.946
 9097SOL     OW28189   1.163   1.932   0.728
 9097SOL    HW128190   1.253   1.912   0.768
 9097SOL    HW228191   1.130   1.852   0.679
 9098SOL     OW28192   3.620   1.535   5.551
 9098SOL    HW128193   3.673   1.451   5.564
 9098SOL    HW228194   3.668   1.596   5.488
 9099SOL     OW28195   2.971   2.365   5.828
 9099SOL    HW128196   2.909   2.422   5.882
 9099SOL    HW228197   3.054   2.416   5.808
 9100SOL     OW28198   0.286   4.036   4.190
 9100SOL    HW128199   0.316   4.081   4.106
 9100SOL    HW228200   0.309   4.093   4.269
 9101SOL     OW28201   2.070   2.508   3.135
 9101SOL    HW128202   2.158   2.555   3.145
 9101SOL    HW228203   2.084   2.410   3.149
 9102SOL     OW28204   2.554   0.295   1.857
 9102SOL    HW128205   2.628   0.272   1.794
 9102SOL    HW228206   2.570   0.386   1.896
 9103SOL     OW28207   6.206   3.006   6.607
 9103SOL    HW128208   6.174   2.980   6.516
 9103SOL    HW228209   6.136   3.059   6.654
 9104SOL     OW28210   0.463   6.969   2.365
 9104SOL    HW128211   0.420   6.965   2.275
 9104SOL    HW228212   0.473   6.876   2.401
 9105SOL     OW28213   1.119   1.605   6.628
 9105SOL    HW128214   1.121   1.553   6.543
 9105SOL    HW228215   1.050   1.677   6.622
 9106SOL     OW28216   0.258   2.617   1.003
 9106SOL    HW128217   0.306   2.680   1.065
 9106SOL    HW228218   0.178   2.580   1.050
 9107SOL     OW28219   3.927   0.355   6.229
 9107SOL    HW128220   3.978   0.390   6.308
 9107SOL    HW228221   3.840   0.404   6.221
 9108SOL     OW28222   4.992   4.366   6.001
 9108SOL    HW128223   5.051   4.286   5.986
 9108SOL    HW228224   4.918   4.365   5.934
 9109SOL     OW28225   6.356   2.950   3.809
 9109SOL    HW128226   6.314   2.925   3.722
 9109SOL    HW228227   6.315   3.035   3.842
 9110SOL     OW28228   1.638   5.124   4.400
 9110SOL    HW128229   1.655   5.061   4.476
 9110SOL    HW228230   1.548   5.104   4.360
 9111SOL     OW28231   5.157   2.124   0.579
 9111SOL    HW128232   5.172   2.170   0.492
 9111SOL    HW228233   5.135   2.028   0.563
 9112SOL     OW28234   0.776   5.410   2.751
 9112SOL    HW128235   0.792   5.374   2.843
 9112SOL    HW228236   0.744   5.505   2.758
 9113SOL     OW28237   4.518   2.109   3.242
 9113SOL    HW128238   4.530   2.087   3.339
 9113SOL    HW228239   4.576   2.186   3.218
 9114SOL     OW28240   1.046   5.057   2.347
 9114SOL    HW128241   1.097   4.979   2.383
 9114SOL    HW228242   1.082   5.142   2.384
 9115SOL     OW28243   0.194   5.716   4.397
 9115SOL    HW128244   0.143   5.631   4.411
 9115SOL    HW228245   0.161   5.762   4.315
 9116SOL     OW28246   6.810   0.944   2.074
 9116SOL    HW128247   6.892   0.999   2.088
 9116SOL    HW228248   6.778   0.909   2.161
 9117SOL     OW28249   4.812   2.488   0.033
 9117SOL    HW128250   4.863   2.549   6.991
 9117SOL    HW228251   4.783   2.540   0.114
 9118SOL     OW28252   6.861   3.364   0.547
 9118SOL    HW128253   6.945   3.379   0.495
 9118SOL    HW228254   6.882   3.308   0.628
 9119SOL     OW28255   3.935   0.860   2.424
 9119SOL    HW128256   3.911   0.863   2.521
 9119SOL    HW228257   3.997   0.784   2.407
 9120SOL     OW28258   6.224   1.811   5.773
 9120SOL    HW128259   6.220   1.745   5.849
 9120SOL    HW228260   6.240   1.761   5.688
 9121SOL     OW28261   4.173   0.164   5.821
 9121SOL    HW128262   4.125   0.229   5.762
 9121SOL    HW228263   4.230   0.104   5.765
 9122SOL     OW28264   2.596   4.634   2.207
 9122SOL    HW128265   2.556   4.724   2.190
 9122SOL    HW228266   2.664   4.615   2.136
 9123SOL     OW28267   2.383   0.861   4.122
 9123SOL    HW128268   2.422   0.768   4.124
 9123SOL    HW228269   2.454   0.926   4.095
 9124SOL     OW28270   5.279   5.666   0.599
 9124SOL    HW128271   5.285   5.668   0.699
 9124SOL    HW228272   5.371   5.680   0.560
 9125SOL     OW28273   4.662   4.343   0.196
 9125SOL    HW128274   4.699   4.423   0.149
 9125SOL    HW228275   4.596   4.372   0.265
 9126SOL     OW28276   5.729   3.355   1.226
 9126SOL    HW128277   5.817   3.327   1.189
 9126SOL    HW228278   5.738   3.443   1.271
 9127SOL     OW28279   6.377   1.334   6.554
 9127SOL    HW128280   6.462   1.282   6.564
 9127SOL    HW228281   6.309   1.299   6.619
 9128SOL     OW28282   5.793   2.368   5.531
 9128SOL    HW128283   5.732   2.435   5.573
 9128SOL    HW228284   5.845   2.412   5.458
 9129SOL     OW28285   0.492   2.853   6.844
 9129SOL    HW128286   0.487   2.793   6.923
 9129SOL    HW228287   0.503   2.948   6.875
 9130SOL     OW28288   0.857   3.063   5.987
 9130SOL    HW128289   0.845   3.158   5.958
 9130SOL    HW228290   0.889   3.061   6.082
 9131SOL     OW28291   5.472   2.368   5.959
 9131SOL    HW128292   5.489   2.285   5.905
 9131SOL    HW228293   5.373   2.378   5.974
 9132SOL     OW28294   0.437   5.516   4.392
 9132SOL    HW128295   0.370   5.586   4.368
 9132SOL    HW228296   0.446   5.510   4.491
 9133SOL     OW28297   4.021   6.327   1.361
 9133SOL    HW128298   4.110   6.346   1.401
 9133SOL    HW228299   3.955   6.395   1.394
 9134SOL     OW28300   3.645   5.497   1.926
 9134SOL    HW128301   3.710   5.554   1.876
 9134SOL    HW228302   3.562   5.485   1.871
 9135SOL     OW28303   7.017   0.636   1.513
 9135SOL    HW128304   6.992   0.577   1.437
 9135SOL    HW228305   6.958   0.615   1.592
 9136SOL     OW28306   5.119   6.351   0.078
 9136SOL    HW128307   5.170   6.282   0.026
 9136SOL    HW228308   5.023   6.350   0.048
 9137SOL     OW28309   4.723   0.983   0.008
 9137SOL    HW128310   4.660   0.987   0.085
 9137SOL    HW228311   4.704   1.060   6.965
 9138SOL     OW28312   0.156   5.411   6.568
 9138SOL    HW128313   0.091   5.335   6.574
 9138SOL    HW228314   0.163   5.440   6.472
 9139SOL     OW28315   1.853   2.260   3.071
 9139SOL    HW128316   1.945   2.221   3.061
 9139SOL    HW228317   1.858   2.343   3.127
 9140SOL     OW28318   6.875   3.534   2.145
 9140SOL    HW128319   6.844   3.469   2.214
 9140SOL    HW228320   6.971   3.517   2.123
 9141SOL     OW28321   5.822   6.896   1.558
 9141SOL    HW128322   5.751   6.884   1.628
 9141SOL    HW228323   5.827   6.813   1.501
 9142SOL     OW28324   0.899   3.244   1.410
 9142SOL    HW128325   0.970   3.231   1.341
 9142SOL    HW228326   0.878   3.341   1.419
 9143SOL     OW28327   6.118   2.531   0.136
 9143SOL    HW128328   6.180   2.594   0.088
 9143SOL    HW228329   6.116   2.443   0.088
 9144SOL     OW28330   2.398   5.036   4.817
 9144SOL    HW128331   2.306   5.014   4.785
 9144SOL    HW228332   2.410   5.002   4.910
 9145SOL     OW28333   0.257   5.881   6.879
 9145SOL    HW128334   0.340   5.832   6.906
 9145SOL    HW228335   0.207   5.827   6.811
 9146SOL     OW28336   5.647   3.117   3.654
 9146SOL    HW128337   5.618   3.108   3.559
 9146SOL    HW228338   5.746   3.113   3.660
 9147SOL     OW28339   5.727   6.693   4.953
 9147SOL    HW128340   5.645   6.728   4.906
 9147SOL    HW228341   5.732   6.594   4.941
 9148SOL     OW28342   4.944   6.225   2.577
 9148SOL    HW128343   4.946   6.235   2.676
 9148SOL    HW228344   4.878   6.154   2.552
 9149SOL     OW28345   5.185   3.623   2.433
 9149SOL    HW128346   5.156   3.670   2.516
 9149SOL    HW228347   5.109   3.616   2.369
 9150SOL     OW28348   2.950   5.352   1.252
 9150SOL    HW128349   2.964   5.274   1.313
 9150SOL    HW228350   2.852   5.365   1.236
 9151SOL     OW28351   1.957   4.390   3.703
 9151SOL    HW128352   1.859   4.400   3.689
 9151SOL    HW228353   1.977   4.396   3.801
 9152SOL     OW28354   2.175   4.019   4.290
 9152SOL    HW128355   2.151   3.977   4.378
 9152SOL    HW228356   2.162   3.952   4.217
 9153SOL     OW28357   0.511   2.726   0.414
 9153SOL    HW128358   0.474   2.633   0.421
 9153SOL    HW228359   0.602   2.723   0.372
 9154SOL     OW28360   5.884   4.399   5.323
 9154SOL    HW128361   5.863   4.309   5.286
 9154SOL    HW228362   5.866   4.470   5.255
 9155SOL     OW28363   1.800   4.147   2.863
 9155SOL    HW128364   1.859   4.071   2.889
 9155SOL    HW228365   1.705   4.118   2.867
 9156SOL     OW28366   0.158   1.985   0.418
 9156SOL    HW128367   0.083   1.976   0.484
 9156SOL    HW228368   0.206   2.072   0.434
 9157SOL     OW28369   2.501   4.284   7.010
 9157SOL    HW128370   2.574   4.291   6.941
 9157SOL    HW228371   2.436   4.359   6.998
 9158SOL     OW28372   6.487   4.394   5.013
 9158SOL    HW128373   6.485   4.344   4.926
 9158SOL    HW228374   6.437   4.342   5.082
 9159SOL     OW28375   1.441   0.616   3.160
 9159SOL    HW128376   1.455   0.620   3.259
 9159SOL    HW228377   1.446   0.521   3.130
 9160SOL     OW28378   0.364   6.345   5.804
 9160SOL    HW128379   0.359   6.254   5.763
 9160SOL    HW228380   0.273   6.386   5.806
 9161SOL     OW28381   5.637   5.585   3.487
 9161SOL    HW128382   5.615   5.668   3.436
 9161SOL    HW228383   5.655   5.511   3.423
 9162SOL     OW28384   3.682   0.534   3.113
 9162SOL    HW128385   3.656   0.557   3.020
 9162SOL    HW228386   3.754   0.597   3.143
 9163SOL     OW28387   0.022   3.098   4.147
 9163SOL    HW128388   0.063   3.040   4.218
 9163SOL    HW228389   0.082   3.176   4.129
 9164SOL     OW28390   2.021   0.640   6.866
 9164SOL    HW128391   1.991   0.658   6.772
 9164SOL    HW228392   2.031   0.727   6.915
 9165SOL     OW28393   5.410   1.564   5.884
 9165SOL    HW128394   5.454   1.570   5.974
 9165SOL    HW228395   5.319   1.524   5.894
 9166SOL     OW28396   4.404   5.395   0.564
 9166SOL    HW128397   4.498   5.363   0.560
 9166SOL    HW228398   4.378   5.413   0.659
 9167SOL     OW28399   1.938   1.897   5.686
 9167SOL    HW128400   1.863   1.915   5.622
 9167SOL    HW228401   1.913   1.929   5.777
 9168SOL     OW28402   6.824   6.299   6.772
 9168SOL    HW128403   6.751   6.234   6.746
 9168SOL    HW228404   6.910   6.269   6.733
 9169SOL     OW28405   6.698   6.848   6.652
 9169SOL    HW128406   6.707   6.869   6.555
 9169SOL    HW228407   6.733   6.926   6.706
 9170SOL     OW28408   2.016   0.116   6.640
 9170SOL    HW128409   2.040   0.071   6.726
 9170SOL    HW228410   1.934   0.073   6.602
 9171SOL     OW28411   3.715   5.895   0.887
 9171SOL    HW128412   3.652   5.971   0.907
 9171SOL    HW228413   3.800   5.932   0.850
 9172SOL     OW28414   4.682   0.779   4.206
 9172SOL    HW128415   4.765   0.725   4.195
 9172SOL    HW228416   4.676   0.846   4.132
 9173SOL     OW28417   6.503   4.049   5.248
 9173SOL    HW128418   6.459   4.129   5.208
 9173SOL    HW228419   6.466   4.033   5.339
 9174SOL     OW28420   0.694   5.482   0.645
 9174SOL    HW128421   0.780   5.527   0.624
 9174SOL    HW228422   0.629   5.549   0.680
 9175SOL     OW28423   1.150   6.620   6.549
 9175SOL    HW128424   1.143   6.568   6.464
 9175SOL    HW228425   1.172   6.716   6.529
 9176SOL     OW28426   2.968   0.509   1.802
 9176SOL    HW128427   2.896   0.523   1.870
 9176SOL    HW228428   2.931   0.526   1.710
 9177SOL     OW28429   0.964   3.231   4.323
 9177SOL    HW128430   0.891   3.241   4.255
 9177SOL    HW228431   1.047   3.274   4.289
 9178SOL     OW28432   2.040   5.217   6.603
 9178SOL    HW128433   2.068   5.166   6.522
 9178SOL    HW228434   2.039   5.156   6.682
 9179SOL     OW28435   1.654   5.245   4.684
 9179SOL    HW128436   1.709   5.166   4.710
 9179SOL    HW228437   1.709   5.308   4.629
 9180SOL     OW28438   5.904   2.476   3.320
 9180SOL    HW128439   5.863   2.467   3.229
 9180SOL    HW228440   5.856   2.416   3.384
 9181SOL     OW28441   5.620   2.217   4.165
 9181SOL    HW128442   5.564   2.134   4.158
 9181SOL    HW228443   5.643   2.250   4.073
 9182SOL     OW28444   2.704   6.869   3.425
 9182SOL    HW128445   2.797   6.882   3.392
 9182SOL    HW228446   2.642   6.933   3.379
 9183SOL     OW28447   4.282   4.741   6.762
 9183SOL    HW128448   4.336   4.661   6.788
 9183SOL    HW228449   4.327   4.823   6.796
 9184SOL     OW28450   4.277   2.153   1.148
 9184SOL    HW128451   4.264   2.165   1.050
 9184SOL    HW228452   4.330   2.229   1.185
 9185SOL     OW28453   0.118   6.732   4.852
 9185SOL    HW128454   0.028   6.774   4.860
 9185SOL    HW228455   0.179   6.794   4.802
 9186SOL     OW28456   5.270   0.410   4.969
 9186SOL    HW128457   5.186   0.365   4.998
 9186SOL    HW228458   5.315   0.452   5.048
 9187SOL     OW28459   4.015   1.982   6.886
 9187SOL    HW128460   3.990   2.019   6.796
 9187SOL    HW228461   3.979   2.042   6.957
 9188SOL     OW28462   2.119   0.786   1.263
 9188SOL    HW128463   2.156   0.796   1.171
 9188SOL    HW228464   2.039   0.846   1.273
 9189SOL     OW28465   3.726   6.091   2.422
 9189SOL    HW128466   3.641   6.049   2.453
 9189SOL    HW228467   3.709   6.143   2.338
 9190SOL     OW28468   0.514   3.297   5.586
 9190SOL    HW128469   0.538   3.311   5.490
 9190SOL    HW228470   0.569   3.222   5.623
 9191SOL     OW28471   5.678   0.980   6.582
 9191SOL    HW128472   5.622   0.900   6.562
 9191SOL    HW228473   5.651   1.019   6.670
 9192SOL     OW28474   6.574   2.063   6.420
 9192SOL    HW128475   6.622   2.122   6.354
 9192SOL    HW228476   6.521   2.119   6.483
 9193SOL     OW28477   3.970   3.483   4.433
 9193SOL    HW128478   3.966   3.485   4.533
 9193SOL    HW228479   4.037   3.415   4.404
 9194SOL     OW28480   2.986   6.816   2.467
 9194SOL    HW128481   2.971   6.812   2.565
 9194SOL    HW228482   3.002   6.912   2.440
 9195SOL     OW28483   1.890   3.543   2.865
 9195SOL    HW128484   1.885   3.493   2.778
 9195SOL    HW228485   1.815   3.515   2.924
 9196SOL     OW28486   5.004   6.552   3.553
 9196SOL    HW128487   5.002   6.487   3.629
 9196SOL    HW228488   5.048   6.510   3.473
 9197SOL     OW28489   3.101   5.292   0.970
 9197SOL    HW128490   3.039   5.214   0.983
 9197SOL    HW228491   3.083   5.361   1.039
 9198SOL     OW28492   6.414   4.325   6.817
 9198SOL    HW128493   6.321   4.317   6.850
 9198SOL    HW228494   6.435   4.420   6.797
 9199SOL     OW28495   0.743   2.814   5.955
 9199SOL    HW128496   0.740   2.786   6.051
 9199SOL    HW228497   0.765   2.911   5.950
 9200SOL     OW28498   2.499   5.985   5.629
 9200SOL    HW128499   2.502   6.072   5.677
 9200SOL    HW228500   2.491   6.001   5.531
 9201SOL     OW28501   0.556   2.762   0.783
 9201SOL    HW128502   0.474   2.817   0.797
 9201SOL    HW228503   0.532   2.676   0.738
 9202SOL     OW28504   0.589   5.721   3.573
 9202SOL    HW128505   0.577   5.625   3.596
 9202SOL    HW228506   0.668   5.758   3.622
 9203SOL     OW28507   5.886   3.257   5.973
 9203SOL    HW128508   5.972   3.207   5.977
 9203SOL    HW228509   5.825   3.213   5.906
 9204SOL     OW28510   4.976   3.707   4.072
 9204SOL    HW128511   5.020   3.619   4.061
 9204SOL    HW228512   4.927   3.709   4.159
 9205SOL     OW28513   4.939   5.907   3.302
 9205SOL    HW128514   4.986   5.822   3.275
 9205SOL    HW228515   4.842   5.888   3.314
 9206SOL     OW28516   3.326   6.724   3.535
 9206SOL    HW128517   3.257   6.725   3.606
 9206SOL    HW228518   3.301   6.658   3.464
 9207SOL     OW28519   3.748   5.057   0.310
 9207SOL    HW128520   3.781   4.969   0.345
 9207SOL    HW228521   3.780   5.069   0.216
 9208SOL     OW28522   5.510   3.910   2.009
 9208SOL    HW128523   5.570   3.984   1.978
 9208SOL    HW228524   5.566   3.830   2.031
 9209SOL     OW28525   4.437   0.498   1.360
 9209SOL    HW128526   4.351   0.537   1.392
 9209SOL    HW228527   4.423   0.454   1.271
 9210SOL     OW28528   0.720   0.625   1.521
 9210SOL    HW128529   0.782   0.682   1.468
 9210SOL    HW228530   0.761   0.604   1.610
 9211SOL     OW28531   5.662   3.353   6.610
 9211SOL    HW128532   5.701   3.434   6.567
 9211SOL    HW228533   5.616   3.379   6.695
 9212SOL     OW28534   5.031   4.517   4.784
 9212SOL    HW128535   4.973   4.471   4.851
 9212SOL    HW228536   4.976   4.585   4.735
 9213SOL     OW28537   4.801   6.067   4.855
 9213SOL    HW128538   4.820   6.153   4.903
 9213SOL    HW228539   4.872   6.052   4.786
 9214SOL     OW28540   6.902   2.516   5.198
 9214SOL    HW128541   6.907   2.583   5.124
 9214SOL    HW228542   6.879   2.427   5.160
 9215SOL     OW28543   1.433   4.743   2.547
 9215SOL    HW128544   1.405   4.647   2.554
 9215SOL    HW228545   1.500   4.753   2.474
 9216SOL     OW28546   2.352   6.592   3.791
 9216SOL    HW128547   2.451   6.598   3.777
 9216SOL    HW228548   2.334   6.549   3.880
 9217SOL     OW28549   6.047   2.426   0.402
 9217SOL    HW128550   6.105   2.373   0.341
 9217SOL    HW228551   5.975   2.472   0.349
 9218SOL     OW28552   4.351   0.174   6.847
 9218SOL    HW128553   4.304   0.248   6.800
 9218SOL    HW228554   4.331   0.087   6.801
 9219SOL     OW28555   4.360   3.567   6.070
 9219SOL    HW128556   4.436   3.616   6.110
 9219SOL    HW228557   4.357   3.585   5.972
 9220SOL     OW28558   1.353   6.661   2.016
 9220SOL    HW128559   1.304   6.579   2.047
 9220SOL    HW228560   1.428   6.680   2.079
 9221SOL     OW28561   2.779   0.118   4.173
 9221SOL    HW128562   2.840   0.196   4.185
 9221SOL    HW228563   2.684   0.150   4.167
 9222SOL     OW28564   2.854   5.859   4.581
 9222SOL    HW128565   2.888   5.896   4.667
 9222SOL    HW228566   2.767   5.904   4.557
 9223SOL     OW28567   1.162   3.200   3.936
 9223SOL    HW128568   1.086   3.141   3.909
 9223SOL    HW228569   1.131   3.265   4.005
 9224SOL     OW28570   1.428   4.685   3.440
 9224SOL    HW128571   1.506   4.685   3.503
 9224SOL    HW228572   1.452   4.736   3.358
 9225SOL     OW28573   3.534   6.160   5.663
 9225SOL    HW128574   3.594   6.241   5.662
 9225SOL    HW228575   3.585   6.082   5.698
 9226SOL     OW28576   0.316   6.651   1.395
 9226SOL    HW128577   0.398   6.623   1.444
 9226SOL    HW228578   0.338   6.727   1.334
 9227SOL     OW28579   1.791   6.382   1.744
 9227SOL    HW128580   1.715   6.442   1.768
 9227SOL    HW228581   1.838   6.419   1.664
 9228SOL     OW28582   2.052   2.360   0.190
 9228SOL    HW128583   2.089   2.372   0.097
 9228SOL    HW228584   2.020   2.448   0.224
 9229SOL     OW28585   0.911   4.692   5.761
 9229SOL    HW128586   0.983   4.693   5.831
 9229SOL    HW228587   0.918   4.774   5.705
 9230SOL     OW28588   4.856   3.310   3.282
 9230SOL    HW128589   4.831   3.357   3.197
 9230SOL    HW228590   4.859   3.212   3.265
 9231SOL     OW28591   1.222   2.867   5.309
 9231SOL    HW128592   1.264   2.956   5.320
 9231SOL    HW228593   1.256   2.823   5.226
 9232SOL     OW28594   2.807   5.487   0.189
 9232SOL    HW128595   2.710   5.474   0.167
 9232SOL    HW228596   2.823   5.459   0.284
 9233SOL     OW28597   0.124   6.518   0.686
 9233SOL    HW128598   0.222   6.497   0.680
 9233SOL    HW228599   0.087   6.529   0.594
 9234SOL     OW28600   2.763   5.492   0.890
 9234SOL    HW128601   2.795   5.551   0.964
 9234SOL    HW228602   2.833   5.487   0.819
 9235SOL     OW28603   1.700   2.928   3.170
 9235SOL    HW128604   1.646   2.882   3.241
 9235SOL    HW228605   1.684   3.026   3.175
 9236SOL     OW28606   1.819   3.983   0.271
 9236SOL    HW128607   1.803   3.956   0.177
 9236SOL    HW228608   1.752   3.939   0.331
 9237SOL     OW28609   0.079   5.621   3.456
 9237SOL    HW128610   0.027   5.538   3.438
 9237SOL    HW228611   0.046   5.664   3.540
 9238SOL     OW28612   2.731   2.952   6.020
 9238SOL    HW128613   2.760   2.995   5.935
 9238SOL    HW228614   2.690   3.021   6.080
 9239SOL     OW28615   0.218   4.373   6.553
 9239SOL    HW128616   0.166   4.288   6.555
 9239SOL    HW228617   0.278   4.374   6.473
 9240SOL     OW28618   4.913   2.904   1.802
 9240SOL    HW128619   4.820   2.930   1.829
 9240SOL    HW228620   4.978   2.972   1.836
 9241SOL     OW28621   0.248   5.503   0.557
 9241SOL    HW128622   0.284   5.580   0.504
 9241SOL    HW228623   0.171   5.534   0.612
 9242SOL     OW28624   1.508   4.051   1.125
 9242SOL    HW128625   1.443   3.978   1.105
 9242SOL    HW228626   1.471   4.138   1.092
 9243SOL     OW28627   6.581   0.747   1.412
 9243SOL    HW128628   6.598   0.799   1.496
 9243SOL    HW228629   6.528   0.665   1.433
 9244SOL     OW28630   2.814   5.667   6.143
 9244SOL    HW128631   2.850   5.619   6.223
 9244SOL    HW228632   2.890   5.701   6.087
 9245SOL     OW28633   0.784   4.905   3.707
 9245SOL    HW128634   0.823   4.956   3.630
 9245SOL    HW228635   0.858   4.864   3.761
 9246SOL     OW28636   5.821   0.226   2.785
 9246SOL    HW128637   5.850   0.233   2.690
 9246SOL    HW228638   5.732   0.271   2.796
 9247SOL     OW28639   2.554   6.296   2.978
 9247SOL    HW128640   2.608   6.230   2.927
 9247SOL    HW228641   2.525   6.257   3.065
 9248SOL     OW28642   2.911   1.869   4.374
 9248SOL    HW128643   2.968   1.814   4.313
 9248SOL    HW228644   2.946   1.963   4.376
 9249SOL     OW28645   4.331   4.869   1.238
 9249SOL    HW128646   4.379   4.884   1.324
 9249SOL    HW228647   4.239   4.905   1.244
 9250SOL     OW28648   6.123   3.150   4.516
 9250SOL    HW128649   6.198   3.205   4.480
 9250SOL    HW228650   6.142   3.127   4.612
 9251SOL     OW28651   4.326   1.522   2.356
 9251SOL    HW128652   4.236   1.529   2.312
 9251SOL    HW228653   4.368   1.613   2.360
 9252SOL     OW28654   5.234   0.693   4.918
 9252SOL    HW128655   5.235   0.593   4.924
 9252SOL    HW228656   5.181   0.731   4.994
 9253SOL     OW28657   5.277   4.732   5.656
 9253SOL    HW128658   5.310   4.711   5.748
 9253SOL    HW228659   5.277   4.831   5.642
 9254SOL     OW28660   4.479   4.951   3.301
 9254SOL    HW128661   4.475   4.852   3.295
 9254SOL    HW228662   4.398   4.986   3.349
 9255SOL     OW28663   4.941   3.518   6.652
 9255SOL    HW128664   4.845   3.523   6.627
 9255SOL    HW228665   4.988   3.453   6.592
 9256SOL     OW28666   2.805   0.658   2.344
 9256SOL    HW128667   2.720   0.654   2.293
 9256SOL    HW228668   2.819   0.571   2.392
 9257SOL     OW28669   6.341   5.089   3.313
 9257SOL    HW128670   6.409   5.104   3.240
 9257SOL    HW228671   6.312   4.994   3.312
 9258SOL     OW28672   4.131   3.200   1.656
 9258SOL    HW128673   4.163   3.108   1.677
 9258SOL    HW228674   4.156   3.262   1.731
 9259SOL     OW28675   1.236   1.601   1.061
 9259SOL    HW128676   1.145   1.644   1.059
 9259SOL    HW228677   1.242   1.540   1.140
 9260SOL     OW28678   6.032   1.911   5.616
 9260SOL    HW128679   5.977   1.990   5.645
 9260SOL    HW228680   6.097   1.888   5.688
 9261SOL     OW28681   3.975   1.399   0.341
 9261SOL    HW128682   3.997   1.473   0.277
 9261SOL    HW228683   3.918   1.331   0.295
 9262SOL     OW28684   0.211   5.657   5.252
 9262SOL    HW128685   0.304   5.677   5.221
 9262SOL    HW228686   0.213   5.632   5.349
 9263SOL     OW28687   3.340   6.467   2.794
 9263SOL    HW128688   3.278   6.434   2.724
 9263SOL    HW228689   3.397   6.392   2.827
 9264SOL     OW28690   4.736   4.251   0.660
 9264SOL    HW128691   4.829   4.248   0.697
 9264SOL    HW228692   4.735   4.212   0.568
 9265SOL     OW28693   3.401   2.580   0.219
 9265SOL    HW128694   3.379   2.584   0.122
 9265SOL    HW228695   3.336   2.637   0.270
 9266SOL     OW28696   1.201   6.067   0.789
 9266SOL    HW128697   1.292   6.108   0.791
 9266SOL    HW228698   1.182   6.032   0.698
 9267SOL     OW28699   6.756   1.934   4.725
 9267SOL    HW128700   6.723   1.883   4.645
 9267SOL    HW228701   6.837   1.889   4.762
 9268SOL     OW28702   1.804   6.949   2.467
 9268SOL    HW128703   1.776   6.854   2.450
 9268SOL    HW228704   1.735   7.011   2.429
 9269SOL     OW28705   4.355   1.112   6.196
 9269SOL    HW128706   4.264   1.100   6.158
 9269SOL    HW228707   4.423   1.099   6.123
 9270SOL     OW28708   4.287   6.491   6.058
 9270SOL    HW128709   4.297   6.585   6.091
 9270SOL    HW228710   4.210   6.448   6.104
 9271SOL     OW28711   6.104   6.959   0.356
 9271SOL    HW128712   6.196   6.920   0.367
 9271SOL    HW228713   6.050   6.941   0.438
 9272SOL     OW28714   1.339   5.261   5.837
 9272SOL    HW128715   1.413   5.321   5.808
 9272SOL    HW228716   1.263   5.269   5.774
 9273SOL     OW28717   5.613   6.301   3.199
 9273SOL    HW128718   5.549   6.362   3.244
 9273SOL    HW228719   5.655   6.240   3.267
 9274SOL     OW28720   6.851   1.716   0.246
 9274SOL    HW128721   6.818   1.811   0.247
 9274SOL    HW228722   6.783   1.656   0.286
 9275SOL     OW28723   6.552   0.641   6.915
 9275SOL    HW128724   6.514   0.685   6.996
 9275SOL    HW228725   6.625   0.578   6.942
 9276SOL     OW28726   1.912   4.530   0.920
 9276SOL    HW128727   1.815   4.513   0.902
 9276SOL    HW228728   1.921   4.573   1.011
 9277SOL     OW28729   4.544   4.387   1.686
 9277SOL    HW128730   4.548   4.480   1.722
 9277SOL    HW228731   4.521   4.324   1.760
 9278SOL     OW28732   1.782   0.088   5.495
 9278SOL    HW128733   1.755   0.038   5.577
 9278SOL    HW228734   1.712   0.074   5.424
 9279SOL     OW28735   2.813   0.326   1.428
 9279SOL    HW128736   2.818   0.274   1.513
 9279SOL    HW228737   2.798   0.423   1.448
 9280SOL     OW28738   2.338   1.793   2.331
 9280SOL    HW128739   2.380   1.882   2.347
 9280SOL    HW228740   2.410   1.724   2.322
 9281SOL     OW28741   3.151   4.197   6.758
 9281SOL    HW128742   3.091   4.209   6.680
 9281SOL    HW228743   3.218   4.126   6.738
 9282SOL     OW28744   5.202   1.193   3.666
 9282SOL    HW128745   5.212   1.270   3.729
 9282SOL    HW228746   5.268   1.122   3.690
 9283SOL     OW28747   4.583   0.218   4.215
 9283SOL    HW128748   4.630   0.140   4.256
 9283SOL    HW228749   4.484   0.207   4.227
 9284SOL     OW28750   3.012   2.662   5.315
 9284SOL    HW128751   3.017   2.760   5.292
 9284SOL    HW228752   2.918   2.631   5.306
 9285SOL     OW28753   5.147   3.496   1.488
 9285SOL    HW128754   5.179   3.587   1.463
 9285SOL    HW228755   5.130   3.493   1.587
 9286SOL     OW28756   5.907   5.641   1.184
 9286SOL    HW128757   5.997   5.679   1.163
 9286SOL    HW228758   5.866   5.691   1.260
 9287SOL     OW28759   3.634   4.819   6.806
 9287SOL    HW128760   3.570   4.777   6.741
 9287SOL    HW228761   3.620   4.779   6.896
 9288SOL     OW28762   4.639   1.193   2.725
 9288SOL    HW128763   4.541   1.190   2.742
 9288SOL    HW228764   4.681   1.262   2.784
 9289SOL     OW28765   4.561   0.047   1.288
 9289SOL    HW128766   4.523   0.111   1.356
 9289SOL    HW228767   4.657   0.030   1.309
 9290SOL     OW28768   5.294   0.790   3.694
 9290SOL    HW128769   5.366   0.738   3.649
 9290SOL    HW228770   5.333   0.847   3.766
 9291SOL     OW28771   1.323   5.150   5.539
 9291SOL    HW128772   1.288   5.243   5.548
 9291SOL    HW228773   1.423   5.151   5.545
 9292SOL     OW28774   2.411   2.512   6.285
 9292SOL    HW128775   2.411   2.592   6.223
 9292SOL    HW228776   2.330   2.515   6.343
 9293SOL     OW28777   6.315   3.873   6.477
 9293SOL    HW128778   6.282   3.964   6.499
 9293SOL    HW228779   6.362   3.834   6.556
 9294SOL     OW28780   5.364   0.803   5.930
 9294SOL    HW128781   5.314   0.851   6.003
 9294SOL    HW228782   5.435   0.863   5.894
 9295SOL     OW28783   4.826   0.316   5.679
 9295SOL    HW128784   4.878   0.401   5.693
 9295SOL    HW228785   4.774   0.323   5.595
 9296SOL     OW28786   1.892   5.465   7.013
 9296SOL    HW128787   1.937   5.437   0.079
 9296SOL    HW228788   1.886   5.564   7.010
 9297SOL     OW28789   0.926   6.844   2.816
 9297SOL    HW128790   0.906   6.758   2.862
 9297SOL    HW228791   0.993   6.829   2.743
 9298SOL     OW28792   0.674   6.499   6.484
 9298SOL    HW128793   0.707   6.544   6.401
 9298SOL    HW228794   0.751   6.460   6.534
 9299SOL     OW28795   0.743   1.999   4.204
 9299SOL    HW128796   0.822   2.027   4.149
 9299SOL    HW228797   0.775   1.965   4.293
 9300SOL     OW28798   0.634   4.633   5.742
 9300SOL    HW128799   0.732   4.648   5.755
 9300SOL    HW228800   0.583   4.695   5.801
 9301SOL     OW28801   5.482   5.681   4.527
 9301SOL    HW128802   5.421   5.703   4.602
 9301SOL    HW228803   5.538   5.602   4.551
 9302SOL     OW28804   2.055   3.484   4.060
 9302SOL    HW128805   1.974   3.531   4.095
 9302SOL    HW228806   2.080   3.410   4.123
 9303SOL     OW28807   2.833   3.823   0.420
 9303SOL    HW128808   2.842   3.747   0.356
 9303SOL    HW228809   2.742   3.864   0.411
 9304SOL     OW28810   4.440   4.617   0.730
 9304SOL    HW128811   4.366   4.672   0.769
 9304SOL    HW228812   4.511   4.678   0.694
 9305SOL     OW28813   3.894   1.060   0.570
 9305SOL    HW128814   3.975   1.004   0.588
 9305SOL    HW228815   3.820   1.002   0.536
 9306SOL     OW28816   1.297   3.593   5.467
 9306SOL    HW128817   1.335   3.506   5.500
 9306SOL    HW228818   1.250   3.578   5.380
 9307SOL     OW28819   1.318   3.841   1.021
 9307SOL    HW128820   1.285   3.914   0.962
 9307SOL    HW228821   1.247   3.770   1.030
 9308SOL     OW28822   1.577   3.356   1.862
 9308SOL    HW128823   1.557   3.259   1.875
 9308SOL    HW228824   1.492   3.408   1.858
 9309SOL     OW28825   2.950   5.770   5.798
 9309SOL    HW128826   2.852   5.786   5.801
 9309SOL    HW228827   2.994   5.816   5.875
 9310SOL     OW28828   5.498   5.611   5.700
 9310SOL    HW128829   5.507   5.654   5.790
 9310SOL    HW228830   5.588   5.586   5.665
 9311SOL     OW28831   4.870   4.661   1.115
 9311SOL    HW128832   4.807   4.671   1.038
 9311SOL    HW228833   4.951   4.611   1.086
 9312SOL     OW28834   1.839   2.934   1.045
 9312SOL    HW128835   1.746   2.969   1.048
 9312SOL    HW228836   1.838   2.836   1.025
 9313SOL     OW28837   0.249   0.664   1.405
 9313SOL    HW128838   0.153   0.655   1.433
 9313SOL    HW228839   0.289   0.743   1.451
 9314SOL     OW28840   6.722   3.428   6.495
 9314SOL    HW128841   6.701   3.444   6.399
 9314SOL    HW228842   6.649   3.375   6.537
 9315SOL     OW28843   6.913   6.910   5.745
 9315SOL    HW128844   7.011   6.917   5.762
 9315SOL    HW228845   6.897   6.894   5.648
 9316SOL     OW28846   6.104   6.402   5.250
 9316SOL    HW128847   6.090   6.349   5.333
 9316SOL    HW228848   6.195   6.381   5.213
 9317SOL     OW28849   4.508   5.672   4.155
 9317SOL    HW128850   4.528   5.770   4.150
 9317SOL    HW228851   4.511   5.632   4.064
 9318SOL     OW28852   6.423   0.350   6.657
 9318SOL    HW128853   6.408   0.448   6.667
 9318SOL    HW228854   6.460   0.331   6.566
 9319SOL     OW28855   2.799   3.122   1.151
 9319SOL    HW128856   2.774   3.038   1.103
 9319SOL    HW228857   2.717   3.168   1.183
 9320SOL     OW28858   4.176   0.491   5.479
 9320SOL    HW128859   4.217   0.534   5.399
 9320SOL    HW228860   4.181   0.392   5.470
 9321SOL     OW28861   1.182   0.735   4.642
 9321SOL    HW128862   1.124   0.679   4.702
 9321SOL    HW228863   1.155   0.831   4.649
 9322SOL     OW28864   0.416   4.215   6.887
 9322SOL    HW128865   0.510   4.203   6.917
 9322SOL    HW228866   0.415   4.256   6.796
 9323SOL     OW28867   1.101   0.991   4.635
 9323SOL    HW128868   1.008   1.009   4.601
 9323SOL    HW228869   1.137   1.073   4.679
 9324SOL     OW28870   1.971   4.072   2.414
 9324SOL    HW128871   1.934   4.085   2.322
 9324SOL    HW228872   1.931   3.990   2.455
 9325SOL     OW28873   6.939   0.112   0.085
 9325SOL    HW128874   6.941   0.018   0.118
 9325SOL    HW228875   0.005   0.158   0.112
 9326SOL     OW28876   2.442   5.083   0.394
 9326SOL    HW128877   2.387   5.003   0.369
 9326SOL    HW228878   2.538   5.065   0.374
 9327SOL     OW28879   4.317   0.004   2.473
 9327SOL    HW128880   4.317   7.013   2.374
 9327SOL    HW228881   4.319   0.101   2.496
 9328SOL     OW28882   2.305   0.897   4.852
 9328SOL    HW128883   2.380   0.849   4.806
 9328SOL    HW228884   2.329   0.993   4.865
 9329SOL     OW28885   6.079   4.062   1.033
 9329SOL    HW128886   6.042   3.983   0.983
 9329SOL    HW228887   6.031   4.145   1.006
 9330SOL     OW28888   6.609   0.353   5.693
 9330SOL    HW128889   6.590   0.349   5.594
 9330SOL    HW228890   6.682   0.420   5.710
 9331SOL     OW28891   2.371   0.866   6.329
 9331SOL    HW128892   2.327   0.956   6.326
 9331SOL    HW228893   2.303   0.795   6.307
 9332SOL     OW28894   3.437   5.241   0.504
 9332SOL    HW128895   3.490   5.324   0.520
 9332SOL    HW228896   3.372   5.228   0.580
 9333SOL     OW28897   3.539   5.356   6.715
 9333SOL    HW128898   3.555   5.400   6.804
 9333SOL    HW228899   3.447   5.316   6.714
 9334SOL     OW28900   4.342   6.374   5.160
 9334SOL    HW128901   4.324   6.299   5.097
 9334SOL    HW228902   4.328   6.343   5.254
 9335SOL     OW28903   1.587   1.481   6.883
 9335SOL    HW128904   1.660   1.540   6.917
 9335SOL    HW228905   1.500   1.530   6.886
 9336SOL     OW28906   4.408   6.904   4.661
 9336SOL    HW128907   4.381   6.976   4.726
 9336SOL    HW228908   4.496   6.866   4.688
 9337SOL     OW28909   4.740   0.878   5.369
 9337SOL    HW128910   4.706   0.785   5.380
 9337SOL    HW228911   4.664   0.943   5.375
 9338SOL     OW28912   5.952   0.259   1.187
 9338SOL    HW128913   6.001   0.282   1.272
 9338SOL    HW228914   5.993   0.310   1.111
 9339SOL     OW28915   6.318   6.217   0.035
 9339SOL    HW128916   6.406   6.219   7.007
 9339SOL    HW228917   6.297   6.308   0.070
 9340SOL     OW28918   3.614   4.885   3.138
 9340SOL    HW128919   3.640   4.973   3.097
 9340SOL    HW228920   3.654   4.810   3.085
 9341SOL     OW28921   5.565   4.875   1.281
 9341SOL    HW128922   5.664   4.882   1.266
 9341SOL    HW228923   5.523   4.827   1.205
 9342SOL     OW28924   2.433   0.228   4.952
 9342SOL    HW128925   2.514   0.212   5.009
 9342SOL    HW228926   2.365   0.157   4.970
 9343SOL     OW28927   4.625   4.412   2.165
 9343SOL    HW128928   4.627   4.402   2.264
 9343SOL    HW228929   4.543   4.369   2.128
 9344SOL     OW28930   5.407   6.167   1.658
 9344SOL    HW128931   5.453   6.081   1.682
 9344SOL    HW228932   5.351   6.153   1.577
 9345SOL     OW28933   6.603   4.946   1.189
 9345SOL    HW128934   6.552   4.901   1.262
 9345SOL    HW228935   6.555   5.029   1.160
 9346SOL     OW28936   4.395   0.529   1.734
 9346SOL    HW128937   4.331   0.461   1.701
 9346SOL    HW228938   4.471   0.484   1.782
 9347SOL     OW28939   3.394   5.813   0.570
 9347SOL    HW128940   3.491   5.826   0.550
 9347SOL    HW228941   3.358   5.895   0.615
 9348SOL     OW28942   2.879   5.671   2.619
 9348SOL    HW128943   2.831   5.759   2.622
 9348SOL    HW228944   2.968   5.681   2.663
 9349SOL     OW28945   6.600   5.227   1.984
 9349SOL    HW128946   6.639   5.284   2.056
 9349SOL    HW228947   6.626   5.263   1.895
 9350SOL     OW28948   6.469   1.655   4.728
 9350SOL    HW128949   6.372   1.631   4.732
 9350SOL    HW228950   6.487   1.708   4.645
 9351SOL     OW28951   3.610   0.010   6.376
 9351SOL    HW128952   3.655   0.016   6.465
 9351SOL    HW228953   3.659   0.065   6.309
 9352SOL     OW28954   3.714   2.218   6.503
 9352SOL    HW128955   3.701   2.141   6.440
 9352SOL    HW228956   3.809   2.219   6.536
 9353SOL     OW28957   1.120   4.667   1.289
 9353SOL    HW128958   1.086   4.597   1.352
 9353SOL    HW228959   1.106   4.757   1.329
 9354SOL     OW28960   0.067   1.725   5.988
 9354SOL    HW128961   0.156   1.698   5.952
 9354SOL    HW228962   0.066   1.713   6.087
 9355SOL     OW28963   0.036   1.356   4.414
 9355SOL    HW128964   0.135   1.359   4.398
 9355SOL    HW228965   7.007   1.353   4.326
 9356SOL     OW28966   4.769   5.845   2.323
 9356SOL    HW128967   4.840   5.791   2.369
 9356SOL    HW228968   4.804   5.879   2.236
 9357SOL     OW28969   2.677   3.494   6.255
 9357SOL    HW128970   2.747   3.493   6.327
 9357SOL    HW228971   2.593   3.453   6.289
 9358SOL     OW28972   6.060   2.852   2.380
 9358SOL    HW128973   6.004   2.823   2.457
 9358SOL    HW228974   6.073   2.951   2.382
 9359SOL     OW28975   1.080   3.425   5.743
 9359SOL    HW128976   1.153   3.463   5.799
 9359SOL    HW228977   1.018   3.498   5.714
 9360SOL     OW28978   1.627   6.005   6.419
 9360SOL    HW128979   1.545   6.039   6.466
 9360SOL    HW228980   1.708   6.034   6.470
 9361SOL     OW28981   1.426   6.563   3.282
 9361SOL    HW128982   1.514   6.610   3.274
 9361SOL    HW228983   1.352   6.625   3.257
 9362SOL     OW28984   2.247   2.933   2.882
 9362SOL    HW128985   2.169   2.986   2.917
 9362SOL    HW228986   2.263   2.958   2.787
 9363SOL     OW28987   3.927   6.614   2.179
 9363SOL    HW128988   3.972   6.703   2.181
 9363SOL    HW228989   3.966   6.559   2.105
 9364SOL     OW28990   3.899   2.684   6.209
 9364SOL    HW128991   3.811   2.712   6.248
 9364SOL    HW228992   3.949   2.765   6.179
 9365SOL     OW28993   2.310   1.931   4.720
 9365SOL    HW128994   2.371   2.004   4.691
 9365SOL    HW228995   2.269   1.888   4.639
 9366SOL     OW28996   3.283   6.227   0.124
 9366SOL    HW128997   3.227   6.180   0.193
 9366SOL    HW228998   3.251   6.322   0.115
 9367SOL     OW28999   6.721   6.368   2.434
 9367SOL    HW129000   6.802   6.320   2.400
 9367SOL    HW229001   6.696   6.332   2.524
 9368SOL     OW29002   3.065   1.501   3.396
 9368SOL    HW129003   2.980   1.538   3.359
 9368SOL    HW229004   3.045   1.429   3.462
 9369SOL     OW29005   6.773   6.804   4.645
 9369SOL    HW129006   6.850   6.852   4.685
 9369SOL    HW229007   6.725   6.753   4.717
 9370SOL     OW29008   4.794   0.608   2.315
 9370SOL    HW129009   4.742   0.589   2.397
 9370SOL    HW229010   4.844   0.525   2.287
 9371SOL     OW29011   2.083   4.987   0.695
 9371SOL    HW129012   2.042   5.036   0.772
 9371SOL    HW229013   2.048   4.893   0.693
 9372SOL     OW29014   5.373   5.821   2.612
 9372SOL    HW129015   5.355   5.777   2.701
 9372SOL    HW229016   5.348   5.918   2.618
 9373SOL     OW29017   4.536   1.801   2.844
 9373SOL    HW129018   4.577   1.732   2.904
 9373SOL    HW229019   4.532   1.765   2.750
 9374SOL     OW29020   0.650   3.683   0.716
 9374SOL    HW129021   0.646   3.637   0.805
 9374SOL    HW229022   0.664   3.616   0.644
 9375SOL     OW29023   6.946   1.439   2.964
 9375SOL    HW129024   0.020   1.468   2.942
 9375SOL    HW229025   6.915   1.487   3.046
 9376SOL     OW29026   2.572   4.541   1.261
 9376SOL    HW129027   2.492   4.577   1.213
 9376SOL    HW229028   2.596   4.451   1.223
 9377SOL     OW29029   2.106   5.276   4.248
 9377SOL    HW129030   2.010   5.273   4.277
 9377SOL    HW229031   2.160   5.213   4.303
 9378SOL     OW29032   1.891   1.372   4.840
 9378SOL    HW129033   1.943   1.304   4.892
 9378SOL    HW229034   1.865   1.332   4.751
 9379SOL     OW29035   4.126   5.821   5.580
 9379SOL    HW129036   4.032   5.841   5.610
 9379SOL    HW229037   4.191   5.866   5.641
 9380SOL     OW29038   5.299   5.039   4.474
 9380SOL    HW129039   5.297   5.109   4.403
 9380SOL    HW229040   5.355   4.962   4.444
 9381SOL     OW29041   3.833   2.232   6.009
 9381SOL    HW129042   3.904   2.302   6.005
 9381SOL    HW229043   3.787   2.226   5.920
 9382SOL     OW29044   3.638   0.905   3.579
 9382SOL    HW129045   3.641   0.858   3.667
 9382SOL    HW229046   3.610   0.841   3.508
 9383SOL     OW29047   1.201   6.017   4.730
 9383SOL    HW129048   1.235   5.923   4.727
 9383SOL    HW229049   1.279   6.080   4.731
 9384SOL     OW29050   3.921   0.296   1.939
 9384SOL    HW129051   3.851   0.314   2.009
 9384SOL    HW229052   3.987   0.371   1.938
 9385SOL     OW29053   4.412   0.909   3.788
 9385SOL    HW129054   4.424   0.987   3.726
 9385SOL    HW229055   4.466   0.832   3.755
 9386SOL     OW29056   1.855   5.759   4.885
 9386SOL    HW129057   1.764   5.782   4.851
 9386SOL    HW229058   1.893   5.837   4.935
 9387SOL     OW29059   2.828   1.588   6.814
 9387SOL    HW129060   2.847   1.552   6.723
 9387SOL    HW229061   2.915   1.608   6.860
 9388SOL     OW29062   2.543   5.764   2.180
 9388SOL    HW129063   2.532   5.740   2.277
 9388SOL    HW229064   2.493   5.849   2.161
 9389SOL     OW29065   1.954   6.939   3.952
 9389SOL    HW129066   2.042   6.967   3.913
 9389SOL    HW229067   1.949   6.966   4.048
 9390SOL     OW29068   4.767   4.725   5.203
 9390SOL    HW129069   4.725   4.805   5.246
 9390SOL    HW229070   4.734   4.716   5.109
 9391SOL     OW29071   2.774   1.487   4.832
 9391SOL    HW129072   2.854   1.495   4.890
 9391SOL    HW229073   2.780   1.555   4.758
 9392SOL     OW29074   6.636   6.902   5.213
 9392SOL    HW129075   6.602   6.972   5.151
 9392SOL    HW229076   6.563   6.836   5.232
 9393SOL     OW29077   3.507   6.451   6.521
 9393SOL    HW129078   3.521   6.449   6.422
 9393SOL    HW229079   3.447   6.529   6.544
 9394SOL     OW29080   6.987   1.484   2.195
 9394SOL    HW129081   0.004   1.536   2.118
 9394SOL    HW229082   6.974   1.545   2.274
 9395SOL     OW29083   2.746   1.660   1.116
 9395SOL    HW129084   2.795   1.599   1.054
 9395SOL    HW229085   2.811   1.713   1.170
 9396SOL     OW29086   1.959   5.072   3.718
 9396SOL    HW129087   1.978   5.170   3.722
 9396SOL    HW229088   1.978   5.037   3.627
 9397SOL     OW29089   5.038   6.871   6.423
 9397SOL    HW129090   5.129   6.878   6.383
 9397SOL    HW229091   4.974   6.835   6.355
 9398SOL     OW29092   6.574   0.736   4.884
 9398SOL    HW129093   6.674   0.741   4.889
 9398SOL    HW229094   6.535   0.786   4.961
 9399SOL     OW29095   0.443   1.874   5.764
 9399SOL    HW129096   0.428   1.869   5.665
 9399SOL    HW229097   0.399   1.795   5.808
 9400SOL     OW29098   4.338   0.785   1.745
 9400SOL    HW129099   4.368   0.691   1.732
 9400SOL    HW229100   4.268   0.808   1.677
 9401SOL     OW29101   5.863   0.729   3.414
 9401SOL    HW129102   5.935   0.661   3.401
 9401SOL    HW229103   5.863   0.793   3.337
 9402SOL     OW29104   1.091   5.299   3.220
 9402SOL    HW129105   1.184   5.276   3.250
 9402SOL    HW229106   1.084   5.398   3.209
 9403SOL     OW29107   6.159   1.460   2.983
 9403SOL    HW129108   6.064   1.485   2.966
 9403SOL    HW229109   6.200   1.527   3.045
 9404SOL     OW29110   1.770   3.185   0.122
 9404SOL    HW129111   1.674   3.209   0.111
 9404SOL    HW229112   1.790   3.101   0.072
 9405SOL     OW29113   1.806   4.809   3.165
 9405SOL    HW129114   1.871   4.734   3.155
 9405SOL    HW229115   1.805   4.864   3.082
 9406SOL     OW29116   6.623   3.200   6.030
 9406SOL    HW129117   6.538   3.251   6.045
 9406SOL    HW229118   6.675   3.242   5.956
 9407SOL     OW29119   2.700   5.292   3.086
 9407SOL    HW129120   2.795   5.275   3.057
 9407SOL    HW229121   2.700   5.357   3.162
 9408SOL     OW29122   6.107   2.612   6.083
 9408SOL    HW129123   6.088   2.515   6.098
 9408SOL    HW229124   6.179   2.621   6.014
 9409SOL     OW29125   6.028   6.100   0.219
 9409SOL    HW129126   6.085   6.067   0.294
 9409SOL    HW229127   6.058   6.058   0.133
 9410SOL     OW29128   3.034   0.282   1.217
 9410SOL    HW129129   3.052   0.362   1.274
 9410SOL    HW229130   2.936   0.275   1.199
 9411SOL     OW29131   3.251   2.899   2.139
 9411SOL    HW129132   3.218   2.902   2.044
 9411SOL    HW229133   3.334   2.844   2.144
 9412SOL     OW29134   6.918   1.943   3.028
 9412SOL    HW129135   6.954   1.973   2.939
 9412SOL    HW229136   6.984   1.965   3.099
 9413SOL     OW29137   3.631   5.732   3.418
 9413SOL    HW129138   3.606   5.636   3.403
 9413SOL    HW229139   3.551   5.789   3.402
 9414SOL     OW29140   2.858   0.625   3.206
 9414SOL    HW129141   2.957   0.642   3.205
 9414SOL    HW229142   2.823   0.642   3.298
 9415SOL     OW29143   2.842   6.767   1.635
 9415SOL    HW129144   2.811   6.736   1.545
 9415SOL    HW229145   2.775   6.740   1.704
 9416SOL     OW29146   0.435   2.478   0.496
 9416SOL    HW129147   0.423   2.379   0.490
 9416SOL    HW229148   0.391   2.512   0.580
 9417SOL     OW29149   4.904   0.830   0.405
 9417SOL    HW129150   4.856   0.758   0.355
 9417SOL    HW229151   4.968   0.877   0.344
 9418SOL     OW29152   4.364   6.938   1.043
 9418SOL    HW129153   4.309   6.868   0.997
 9418SOL    HW229154   4.312   6.975   1.120
 9419SOL     OW29155   3.164   5.192   6.261
 9419SOL    HW129156   3.252   5.217   6.221
 9419SOL    HW229157   3.102   5.270   6.256
 9420SOL     OW29158   6.808   3.885   5.944
 9420SOL    HW129159   6.824   3.869   6.041
 9420SOL    HW229160   6.818   3.983   5.924
 9421SOL     OW29161   2.134   6.299   4.256
 9421SOL    HW129162   2.097   6.295   4.349
 9421SOL    HW229163   2.128   6.209   4.214
 9422SOL     OW29164   3.252   5.412   3.281
 9422SOL    HW129165   3.310   5.338   3.248
 9422SOL    HW229166   3.288   5.500   3.248
 9423SOL     OW29167   2.775   6.824   3.719
 9423SOL    HW129168   2.784   6.899   3.654
 9423SOL    HW229169   2.808   6.739   3.678
 9424SOL     OW29170   5.093   1.244   4.514
 9424SOL    HW129171   5.066   1.244   4.610
 9424SOL    HW229172   5.069   1.156   4.473
 9425SOL     OW29173   6.115   3.076   0.506
 9425SOL    HW129174   6.095   2.993   0.558
 9425SOL    HW229175   6.061   3.152   0.543
 9426SOL     OW29176   3.974   1.604   6.045
 9426SOL    HW129177   4.018   1.686   6.080
 9426SOL    HW229178   3.875   1.620   6.039
 9427SOL     OW29179   2.566   4.554   3.123
 9427SOL    HW129180   2.475   4.565   3.163
 9427SOL    HW229181   2.580   4.458   3.097
 9428SOL     OW29182   6.544   1.165   1.119
 9428SOL    HW129183   6.594   1.238   1.166
 9428SOL    HW229184   6.564   1.077   1.162
 9429SOL     OW29185   2.174   3.705   2.750
 9429SOL    HW129186   2.185   3.673   2.844
 9429SOL    HW229187   2.178   3.626   2.688
 9430SOL     OW29188   0.516   4.046   3.377
 9430SOL    HW129189   0.610   4.078   3.380
 9430SOL    HW229190   0.471   4.080   3.294
 9431SOL     OW29191   6.310   3.749   0.911
 9431SOL    HW129192   6.306   3.772   1.008
 9431SOL    HW229193   6.372   3.812   0.864
 9432SOL     OW29194   5.277   0.296   3.476
 9432SOL    HW129195   5.178   0.287   3.477
 9432SOL    HW229196   5.306   0.356   3.551
 9433SOL     OW29197   2.747   6.032   2.913
 9433SOL    HW129198   2.828   6.089   2.924
 9433SOL    HW229199   2.733   5.979   2.996
 9434SOL     OW29200   4.857   5.293   2.896
 9434SOL    HW129201   4.852   5.307   2.797
 9434SOL    HW229202   4.951   5.270   2.922
 9435SOL     OW29203   0.150   2.277   5.235
 9435SOL    HW129204   0.089   2.238   5.303
 9435SOL    HW229205   0.120   2.251   5.144
 9436SOL     OW29206   1.465   2.691   1.239
 9436SOL    HW129207   1.456   2.601   1.196
 9436SOL    HW229208   1.446   2.762   1.171
 9437SOL     OW29209   0.811   6.180   2.940
 9437SOL    HW129210   0.836   6.241   2.865
 9437SOL    HW229211   0.880   6.186   3.012
 9438SOL     OW29212   0.062   0.092   1.696
 9438SOL    HW129213   0.114   0.149   1.632
 9438SOL    HW229214   0.116   0.076   1.778
 9439SOL     OW29215   0.603   3.572   1.177
 9439SOL    HW129216   0.563   3.575   1.269
 9439SOL    HW229217   0.696   3.535   1.183
 9440SOL     OW29218   4.098   4.971   3.289
 9440SOL    HW129219   4.119   4.889   3.235
 9440SOL    HW229220   4.010   4.960   3.334
 9441SOL     OW29221   6.653   3.775   5.637
 9441SOL    HW129222   6.581   3.836   5.669
 9441SOL    HW229223   6.738   3.826   5.624
 9442SOL     OW29224   4.833   3.336   1.078
 9442SOL    HW129225   4.890   3.419   1.073
 9442SOL    HW229226   4.873   3.264   1.022
 9443SOL     OW29227   2.311   5.374   0.790
 9443SOL    HW129228   2.401   5.401   0.758
 9443SOL    HW229229   2.268   5.315   0.722
 9444SOL     OW29230   1.508   3.103   0.350
 9444SOL    HW129231   1.513   3.193   0.393
 9444SOL    HW229232   1.445   3.045   0.401
 9445SOL     OW29233   6.102   3.120   3.244
 9445SOL    HW129234   6.005   3.145   3.246
 9445SOL    HW229235   6.156   3.198   3.209
 9446SOL     OW29236   5.952   5.663   3.573
 9446SOL    HW129237   5.992   5.606   3.501
 9446SOL    HW229238   5.908   5.605   3.641
 9447SOL     OW29239   6.069   4.092   3.472
 9447SOL    HW129240   6.114   4.142   3.397
 9447SOL    HW229241   6.057   4.154   3.550
 9448SOL     OW29242   0.783   0.241   6.918
 9448SOL    HW129243   0.717   0.177   6.958
 9448SOL    HW229244   0.754   0.335   6.936
 9449SOL     OW29245   6.377   6.470   0.441
 9449SOL    HW129246   6.366   6.567   0.419
 9449SOL    HW229247   6.367   6.457   0.540
 9450SOL     OW29248   1.983   5.497   4.844
 9450SOL    HW129249   1.970   5.461   4.937
 9450SOL    HW229250   1.930   5.581   4.833
 9451SOL     OW29251   4.084   6.924   6.009
 9451SOL    HW129252   4.062   6.912   5.912
 9451SOL    HW229253   4.077   0.001   6.034
 9452SOL     OW29254   1.652   3.892   0.665
 9452SOL    HW129255   1.626   3.796   0.678
 9452SOL    HW229256   1.613   3.948   0.738
 9453SOL     OW29257   2.495   4.826   3.321
 9453SOL    HW129258   2.501   4.865   3.413
 9453SOL    HW229259   2.556   4.875   3.259
 9454SOL     OW29260   3.464   3.516   6.419
 9454SOL    HW129261   3.551   3.529   6.467
 9454SOL    HW229262   3.388   3.529   6.482
 9455SOL     OW29263   2.826   1.663   3.544
 9455SOL    HW129264   2.804   1.617   3.458
 9455SOL    HW229265   2.822   1.597   3.619
 9456SOL     OW29266   0.152   3.476   0.925
 9456SOL    HW129267   0.142   3.378   0.940
 9456SOL    HW229268   0.070   3.513   0.881
 9457SOL     OW29269   1.960   3.481   5.271
 9457SOL    HW129270   2.026   3.500   5.344
 9457SOL    HW229271   2.002   3.423   5.201
 9458SOL     OW29272   1.355   2.861   0.348
 9458SOL    HW129273   1.274   2.899   0.304
 9458SOL    HW229274   1.434   2.870   0.287
 9459SOL     OW29275   5.276   4.477   3.770
 9459SOL    HW129276   5.219   4.408   3.815
 9459SOL    HW229277   5.365   4.436   3.746
 9460SOL     OW29278   1.340   3.489   3.927
 9460SOL    HW129279   1.348   3.577   3.973
 9460SOL    HW229280   1.243   3.467   3.914
 9461SOL     OW29281   7.015   1.699   1.423
 9461SOL    HW129282   0.084   1.745   1.429
 9461SOL    HW229283   6.977   1.711   1.331
 9462SOL     OW29284   2.204   3.926   3.113
 9462SOL    HW129285   2.108   3.915   3.086
 9462SOL    HW229286   2.231   3.851   3.174
 9463SOL     OW29287   6.322   0.563   1.721
 9463SOL    HW129288   6.281   0.512   1.796
 9463SOL    HW229289   6.250   0.597   1.661
 9464SOL     OW29290   6.133   0.479   0.431
 9464SOL    HW129291   6.205   0.515   0.490
 9464SOL    HW229292   6.122   0.381   0.449
 9465SOL     OW29293   1.711   4.449   2.394
 9465SOL    HW129294   1.681   4.354   2.389
 9465SOL    HW229295   1.691   4.486   2.485
 9466SOL     OW29296   3.784   4.457   5.621
 9466SOL    HW129297   3.703   4.410   5.588
 9466SOL    HW229298   3.851   4.465   5.547
 9467SOL     OW29299   1.521   2.426   2.279
 9467SOL    HW129300   1.526   2.519   2.315
 9467SOL    HW229301   1.538   2.360   2.353
 9468SOL     OW29302   5.507   3.755   6.256
 9468SOL    HW129303   5.442   3.794   6.191
 9468SOL    HW229304   5.550   3.829   6.308
 9469SOL     OW29305   6.699   5.406   1.773
 9469SOL    HW129306   6.662   5.354   1.696
 9469SOL    HW229307   6.684   5.504   1.758
 9470SOL     OW29308   5.334   3.179   5.932
 9470SOL    HW129309   5.301   3.269   5.961
 9470SOL    HW229310   5.318   3.112   6.004
 9471SOL     OW29311   6.559   1.926   4.300
 9471SOL    HW129312   6.619   1.963   4.230
 9471SOL    HW229313   6.467   1.962   4.288
 9472SOL     OW29314   6.809   2.974   5.195
 9472SOL    HW129315   6.725   3.021   5.221
 9472SOL    HW229316   6.853   2.937   5.277
 9473SOL     OW29317   2.276   4.919   6.843
 9473SOL    HW129318   2.190   4.963   6.816
 9473SOL    HW229319   2.287   4.834   6.792
 9474SOL     OW29320   0.474   2.708   0.040
 9474SOL    HW129321   0.407   2.719   0.114
 9474SOL    HW229322   0.474   2.612   0.010
 9475SOL     OW29323   3.579   3.275   6.671
 9475SOL    HW129324   3.489   3.246   6.638
 9475SOL    HW229325   3.592   3.243   6.764
 9476SOL     OW29326   3.633   4.196   4.698
 9476SOL    HW129327   3.621   4.272   4.762
 9476SOL    HW229328   3.552   4.138   4.700
 9477SOL     OW29329   0.539   3.414   1.386
 9477SOL    HW129330   0.533   3.345   1.314
 9477SOL    HW229331   0.446   3.440   1.414
 9478SOL     OW29332   4.866   2.866   0.137
 9478SOL    HW129333   4.931   2.853   0.063
 9478SOL    HW229334   4.907   2.919   0.210
 9479SOL     OW29335   4.045   6.153   6.593
 9479SOL    HW129336   4.070   6.156   6.496
 9479SOL    HW229337   3.961   6.100   6.605
 9480SOL     OW29338   5.540   4.263   0.452
 9480SOL    HW129339   5.588   4.185   0.414
 9480SOL    HW229340   5.453   4.233   0.492
 9481SOL     OW29341   4.786   2.926   2.246
 9481SOL    HW129342   4.734   2.840   2.242
 9481SOL    HW229343   4.775   2.976   2.160
 9482SOL     OW29344   0.531   1.738   3.535
 9482SOL    HW129345   0.516   1.775   3.627
 9482SOL    HW229346   0.549   1.640   3.541
 9483SOL     OW29347   2.140   1.547   1.577
 9483SOL    HW129348   2.204   1.544   1.654
 9483SOL    HW229349   2.095   1.636   1.575
 9484SOL     OW29350   4.425   0.364   3.896
 9484SOL    HW129351   4.510   0.357   3.948
 9484SOL    HW229352   4.352   0.317   3.946
 9485SOL     OW29353   0.308   0.919   0.609
 9485SOL    HW129354   0.400   0.954   0.627
 9485SOL    HW229355   0.252   0.992   0.569
 9486SOL     OW29356   3.746   6.775   1.275
 9486SOL    HW129357   3.687   6.725   1.339
 9486SOL    HW229358   3.744   6.730   1.186
 9487SOL     OW29359   3.740   3.584   3.880
 9487SOL    HW129360   3.815   3.644   3.906
 9487SOL    HW229361   3.709   3.533   3.961
 9488SOL     OW29362   2.330   6.619   1.128
 9488SOL    HW129363   2.253   6.673   1.162
 9488SOL    HW229364   2.377   6.577   1.206
 9489SOL     OW29365   4.741   4.297   1.520
 9489SOL    HW129366   4.660   4.316   1.576
 9489SOL    HW229367   4.781   4.383   1.488
 9490SOL     OW29368   6.530   4.968   2.060
 9490SOL    HW129369   6.613   4.916   2.078
 9490SOL    HW229370   6.553   5.064   2.044
 9491SOL     OW29371   5.771   4.949   4.083
 9491SOL    HW129372   5.738   4.912   4.170
 9491SOL    HW229373   5.779   5.048   4.089
 9492SOL     OW29374   3.609   2.953   3.669
 9492SOL    HW129375   3.529   2.901   3.639
 9492SOL    HW229376   3.652   2.907   3.747
 9493SOL     OW29377   3.374   5.591   4.046
 9493SOL    HW129378   3.332   5.595   4.136
 9493SOL    HW229379   3.355   5.503   4.004
 9494SOL     OW29380   4.953   3.506   2.201
 9494SOL    HW129381   4.935   3.410   2.180
 9494SOL    HW229382   4.948   3.560   2.116
 9495SOL     OW29383   6.602   2.093   3.557
 9495SOL    HW129384   6.519   2.078   3.611
 9495SOL    HW229385   6.670   2.023   3.581
 9496SOL     OW29386   6.439   3.882   1.573
 9496SOL    HW129387   6.505   3.917   1.506
 9496SOL    HW229388   6.354   3.934   1.566
 9497SOL     OW29389   5.860   6.270   6.101
 9497SOL    HW129390   5.815   6.226   6.179
 9497SOL    HW229391   5.800   6.264   6.021
 9498SOL     OW29392   4.083   6.725   4.786
 9498SOL    HW129393   4.102   6.627   4.794
 9498SOL    HW229394   3.987   6.738   4.762
 9499SOL     OW29395   2.618   5.484   6.563
 9499SOL    HW129396   2.628   5.532   6.476
 9499SOL    HW229397   2.545   5.416   6.555
 9500SOL     OW29398   5.301   0.134   0.855
 9500SOL    HW129399   5.289   0.161   0.951
 9500SOL    HW229400   5.228   0.071   0.829
 9501SOL     OW29401   3.151   1.223   4.394
 9501SOL    HW129402   3.237   1.272   4.409
 9501SOL    HW229403   3.083   1.251   4.462
 9502SOL     OW29404   5.226   3.061   5.006
 9502SOL    HW129405   5.163   3.124   5.052
 9502SOL    HW229406   5.229   3.082   4.908
 9503SOL     OW29407   0.456   1.547   1.449
 9503SOL    HW129408   0.522   1.619   1.430
 9503SOL    HW229409   0.474   1.510   1.540
 9504SOL     OW29410   0.304   2.541   0.733
 9504SOL    HW129411   0.287   2.565   0.828
 9504SOL    HW229412   0.249   2.598   0.673
 9505SOL     OW29413   4.768   4.744   3.493
 9505SOL    HW129414   4.786   4.734   3.590
 9505SOL    HW229415   4.694   4.682   3.466
 9506SOL     OW29416   0.985   1.950   6.429
 9506SOL    HW129417   0.904   2.008   6.427
 9506SOL    HW229418   1.058   1.993   6.375
 9507SOL     OW29419   1.158   2.030   3.368
 9507SOL    HW129420   1.107   2.096   3.313
 9507SOL    HW229421   1.256   2.052   3.364
 9508SOL     OW29422   6.381   2.561   0.815
 9508SOL    HW129423   6.315   2.490   0.789
 9508SOL    HW229424   6.336   2.650   0.816
 9509SOL     OW29425   0.793   1.164   3.970
 9509SOL    HW129426   0.755   1.084   3.924
 9509SOL    HW229427   0.816   1.141   4.064
 9510SOL     OW29428   1.467   3.791   3.243
 9510SOL    HW129429   1.369   3.811   3.249
 9510SOL    HW229430   1.500   3.809   3.151
 9511SOL     OW29431   1.083   0.392   0.477
 9511SOL    HW129432   1.117   0.318   0.536
 9511SOL    HW229433   1.035   0.460   0.532
 9512SOL     OW29434   6.151   1.667   1.835
 9512SOL    HW129435   6.168   1.593   1.899
 9512SOL    HW229436   6.152   1.754   1.883
 9513SOL     OW29437   2.165   3.941   6.681
 9513SOL    HW129438   2.186   3.973   6.774
 9513SOL    HW229439   2.237   3.880   6.650
 9514SOL     OW29440   2.551   5.101   5.903
 9514SOL    HW129441   2.642   5.090   5.942
 9514SOL    HW229442   2.537   5.033   5.830
 9515SOL     OW29443   2.143   5.757   0.993
 9515SOL    HW129444   2.230   5.805   0.988
 9515SOL    HW229445   2.149   5.684   1.062
 9516SOL     OW29446   5.341   4.312   5.520
 9516SOL    HW129447   5.434   4.306   5.557
 9516SOL    HW229448   5.345   4.337   5.423
 9517SOL     OW29449   1.812   5.059   1.032
 9517SOL    HW129450   1.848   5.153   1.031
 9517SOL    HW229451   1.888   4.995   1.021
 9518SOL     OW29452   2.279   2.366   6.898
 9518SOL    HW129453   2.190   2.323   6.881
 9518SOL    HW229454   2.351   2.299   6.882
 9519SOL     OW29455   3.979   3.671   4.785
 9519SOL    HW129456   4.010   3.703   4.875
 9519SOL    HW229457   3.967   3.750   4.724
 9520SOL     OW29458   1.836   1.433   3.415
 9520SOL    HW129459   1.791   1.377   3.346
 9520SOL    HW229460   1.804   1.405   3.506
 9521SOL     OW29461   5.101   5.340   1.534
 9521SOL    HW129462   5.077   5.373   1.625
 9521SOL    HW229463   5.039   5.266   1.508
 9522SOL     OW29464   3.127   5.459   1.435
 9522SOL    HW129465   3.055   5.406   1.481
 9522SOL    HW229466   3.110   5.460   1.337
 9523SOL     OW29467   2.622   4.655   5.235
 9523SOL    HW129468   2.692   4.588   5.211
 9523SOL    HW229469   2.653   4.746   5.209
 9524SOL     OW29470   3.696   3.188   0.880
 9524SOL    HW129471   3.742   3.277   0.880
 9524SOL    HW229472   3.653   3.173   0.970
 9525SOL     OW29473   2.446   2.537   5.499
 9525SOL    HW129474   2.468   2.596   5.421
 9525SOL    HW229475   2.405   2.452   5.465
 9526SOL     OW29476   6.018   4.982   1.752
 9526SOL    HW129477   5.992   4.900   1.702
 9526SOL    HW229478   6.099   4.963   1.808
 9527SOL     OW29479   0.527   0.475   4.180
 9527SOL    HW129480   0.517   0.421   4.264
 9527SOL    HW229481   0.555   0.414   4.105
 9528SOL     OW29482   6.554   1.393   0.484
 9528SOL    HW129483   6.497   1.367   0.562
 9528SOL    HW229484   6.629   1.327   0.475
 9529SOL     OW29485   6.191   3.421   6.175
 9529SOL    HW129486   6.190   3.513   6.213
 9529SOL    HW229487   6.192   3.425   6.076
 9530SOL     OW29488   1.592   4.198   2.399
 9530SOL    HW129489   1.672   4.162   2.351
 9530SOL    HW229490   1.532   4.244   2.333
 9531SOL     OW29491   4.235   5.058   2.740
 9531SOL    HW129492   4.286   5.067   2.825
 9531SOL    HW229493   4.277   5.116   2.670
 9532SOL     OW29494   6.172   0.127   1.791
 9532SOL    HW129495   6.073   0.128   1.779
 9532SOL    HW229496   6.202   0.033   1.807
 9533SOL     OW29497   0.048   5.988   5.813
 9533SOL    HW129498   6.974   5.994   5.850
 9533SOL    HW229499   0.114   5.983   5.887
 9534SOL     OW29500   0.333   4.180   4.902
 9534SOL    HW129501   0.401   4.123   4.856
 9534SOL    HW229502   0.326   4.268   4.856
 9535SOL     OW29503   2.025   1.152   6.220
 9535SOL    HW129504   2.124   1.169   6.223
 9535SOL    HW229505   1.991   1.170   6.128
 9536SOL     OW29506   2.773   4.116   5.425
 9536SOL    HW129507   2.764   4.108   5.524
 9536SOL    HW229508   2.771   4.025   5.384
 9537SOL     OW29509   2.829   6.547   3.342
 9537SOL    HW129510   2.809   6.640   3.311
 9537SOL    HW229511   2.806   6.482   3.270
 9538SOL     OW29512   5.813   2.295   3.499
 9538SOL    HW129513   5.829   2.209   3.450
 9538SOL    HW229514   5.887   2.311   3.564
 9539SOL     OW29515   2.751   3.811   5.351
 9539SOL    HW129516   2.784   3.758   5.429
 9539SOL    HW229517   2.777   3.764   5.266
 9540SOL     OW29518   5.857   4.035   4.189
 9540SOL    HW129519   5.905   4.041   4.277
 9540SOL    HW229520   5.920   4.004   4.119
 9541SOL     OW29521   4.028   0.377   5.701
 9541SOL    HW129522   4.047   0.434   5.781
 9541SOL    HW229523   4.095   0.397   5.629
 9542SOL     OW29524   5.337   4.302   4.499
 9542SOL    HW129525   5.280   4.322   4.419
 9542SOL    HW229526   5.278   4.284   4.577
 9543SOL     OW29527   3.739   0.855   5.110
 9543SOL    HW129528   3.838   0.864   5.102
 9543SOL    HW229529   3.699   0.942   5.139
 9544SOL     OW29530   6.726   1.494   3.834
 9544SOL    HW129531   6.769   1.420   3.782
 9544SOL    HW229532   6.786   1.524   3.908
 9545SOL     OW29533   5.847   5.371   4.231
 9545SOL    HW129534   5.833   5.304   4.304
 9545SOL    HW229535   5.944   5.372   4.205
 9546SOL     OW29536   3.784   2.385   5.393
 9546SOL    HW129537   3.698   2.425   5.424
 9546SOL    HW229538   3.840   2.362   5.472
 9547SOL     OW29539   2.040   6.317   4.502
 9547SOL    HW129540   2.098   6.337   4.581
 9547SOL    HW229541   1.978   6.242   4.525
 9548SOL     OW29542   6.503   5.550   6.215
 9548SOL    HW129543   6.413   5.578   6.183
 9548SOL    HW229544   6.494   5.498   6.300
 9549SOL     OW29545   2.536   2.975   1.062
 9549SOL    HW129546   2.562   3.071   1.051
 9549SOL    HW229547   2.438   2.969   1.084
 9550SOL     OW29548   0.533   1.335   0.252
 9550SOL    HW129549   0.631   1.336   0.234
 9550SOL    HW229550   0.516   1.348   0.350
 9551SOL     OW29551   5.795   1.028   4.652
 9551SOL    HW129552   5.820   1.039   4.556
 9551SOL    HW229553   5.817   0.935   4.682
 9552SOL     OW29554   1.663   6.738   3.287
 9552SOL    HW129555   1.707   6.649   3.295
 9552SOL    HW229556   1.696   6.799   3.360
 9553SOL     OW29557   6.205   4.149   6.635
 9553SOL    HW129558   6.207   4.219   6.706
 9553SOL    HW229559   6.119   4.155   6.584
 9554SOL     OW29560   2.093   0.313   1.384
 9554SOL    HW129561   2.112   0.248   1.310
 9554SOL    HW229562   2.037   0.388   1.349
 9555SOL     OW29563   0.998   1.103   2.936
 9555SOL    HW129564   0.958   1.141   3.020
 9555SOL    HW229565   1.034   1.012   2.956
 9556SOL     OW29566   1.870   2.711   1.645
 9556SOL    HW129567   1.942   2.677   1.706
 9556SOL    HW229568   1.788   2.730   1.699
 9557SOL     OW29569   0.361   0.391   3.125
 9557SOL    HW129570   0.295   0.369   3.054
 9557SOL    HW229571   0.316   0.395   3.214
 9558SOL     OW29572   6.185   6.419   4.446
 9558SOL    HW129573   6.267   6.361   4.439
 9558SOL    HW229574   6.114   6.384   4.385
 9559SOL     OW29575   0.563   4.207   0.935
 9559SOL    HW129576   0.611   4.135   0.985
 9559SOL    HW229577   0.604   4.219   0.845
 9560SOL     OW29578   1.642   1.774   3.673
 9560SOL    HW129579   1.562   1.716   3.658
 9560SOL    HW229580   1.690   1.789   3.587
 9561SOL     OW29581   1.716   6.322   0.335
 9561SOL    HW129582   1.737   6.229   0.363
 9561SOL    HW229583   1.761   6.387   0.396
 9562SOL     OW29584   3.388   0.239   5.900
 9562SOL    HW129585   3.436   0.244   5.988
 9562SOL    HW229586   3.297   0.279   5.910
 9563SOL     OW29587   6.329   0.204   0.924
 9563SOL    HW129588   6.343   0.176   0.829
 9563SOL    HW229589   6.370   0.136   0.985
 9564SOL     OW29590   2.798   0.194   0.096
 9564SOL    HW129591   2.806   0.152   0.187
 9564SOL    HW229592   2.828   0.129   0.027
 9565SOL     OW29593   4.108   6.450   4.787
 9565SOL    HW129594   4.123   6.449   4.886
 9565SOL    HW229595   4.051   6.372   4.762
 9566SOL     OW29596   1.900   4.913   0.179
 9566SOL    HW129597   1.840   4.914   0.099
 9566SOL    HW229598   1.995   4.917   0.148
 9567SOL     OW29599   5.733   4.573   6.842
 9567SOL    HW129600   5.801   4.640   6.870
 9567SOL    HW229601   5.746   4.488   6.894
 9568SOL     OW29602   4.717   2.195   6.517
 9568SOL    HW129603   4.676   2.212   6.427
 9568SOL    HW229604   4.646   2.168   6.582
 9569SOL     OW29605   0.037   1.037   2.868
 9569SOL    HW129606   0.092   1.089   2.802
 9569SOL    HW229607   6.970   1.010   2.825
 9570SOL     OW29608   1.240   3.146   2.267
 9570SOL    HW129609   1.285   3.184   2.186
 9570SOL    HW229610   1.155   3.195   2.284
 9571SOL     OW29611   2.665   3.926   6.616
 9571SOL    HW129612   2.592   3.940   6.549
 9571SOL    HW229613   2.752   3.916   6.568
 9572SOL     OW29614   1.834   5.881   2.093
 9572SOL    HW129615   1.922   5.927   2.082
 9572SOL    HW229616   1.843   5.808   2.160
 9573SOL     OW29617   1.495   0.685   6.688
 9573SOL    HW129618   1.479   0.634   6.604
 9573SOL    HW229619   1.471   0.781   6.674
 9574SOL     OW29620   4.032   3.208   4.126
 9574SOL    HW129621   4.023   3.306   4.108
 9574SOL    HW229622   3.981   3.157   4.057
 9575SOL     OW29623   6.281   1.689   1.225
 9575SOL    HW129624   6.267   1.711   1.128
 9575SOL    HW229625   6.235   1.604   1.247
 9576SOL     OW29626   2.378   0.286   2.179
 9576SOL    HW129627   2.312   0.338   2.233
 9576SOL    HW229628   2.380   0.322   2.086
 9577SOL     OW29629   1.371   0.616   4.507
 9577SOL    HW129630   1.304   0.662   4.566
 9577SOL    HW229631   1.449   0.676   4.491
 9578SOL     OW29632   0.776   3.872   3.386
 9578SOL    HW129633   0.681   3.866   3.414
 9578SOL    HW229634   0.804   3.968   3.386
 9579SOL     OW29635   1.856   5.081   2.942
 9579SOL    HW129636   1.874   5.172   2.981
 9579SOL    HW229637   1.939   5.026   2.944
 9580SOL     OW29638   4.209   2.868   0.851
 9580SOL    HW129639   4.281   2.811   0.891
 9580SOL    HW229640   4.205   2.852   0.752
 9581SOL     OW29641   0.929   5.462   6.587
 9581SOL    HW129642   0.933   5.418   6.498
 9581SOL    HW229643   0.846   5.518   6.593
 9582SOL     OW29644   4.752   4.687   4.899
 9582SOL    HW129645   4.815   4.706   4.824
 9582SOL    HW229646   4.730   4.590   4.900
 9583SOL     OW29647   3.453   4.935   1.292
 9583SOL    HW129648   3.427   4.926   1.195
 9583SOL    HW229649   3.553   4.935   1.299
 9584SOL     OW29650   6.833   6.561   0.306
 9584SOL    HW129651   6.790   6.487   0.255
 9584SOL    HW229652   6.923   6.580   0.267
 9585SOL     OW29653   6.213   0.421   3.807
 9585SOL    HW129654   6.130   0.467   3.774
 9585SOL    HW229655   6.246   0.467   3.889
 9586SOL     OW29656   5.747   3.910   2.841
 9586SOL    HW129657   5.746   3.821   2.795
 9586SOL    HW229658   5.716   3.981   2.778
 9587SOL     OW29659   6.788   1.264   2.410
 9587SOL    HW129660   6.728   1.311   2.475
 9587SOL    HW229661   6.739   1.247   2.325
 9588SOL     OW29662   0.250   1.835   2.625
 9588SOL    HW129663   0.190   1.911   2.646
 9588SOL    HW229664   0.340   1.851   2.665
 9589SOL     OW29665   2.550   5.172   5.587
 9589SOL    HW129666   2.471   5.234   5.588
 9589SOL    HW229667   2.523   5.083   5.623
 9590SOL     OW29668   0.654   4.083   2.292
 9590SOL    HW129669   0.568   4.097   2.243
 9590SOL    HW229670   0.637   4.085   2.390
 9591SOL     OW29671   3.129   6.074   0.285
 9591SOL    HW129672   3.038   6.096   0.247
 9591SOL    HW229673   3.169   6.000   0.232
 9592SOL     OW29674   3.452   4.270   1.171
 9592SOL    HW129675   3.435   4.216   1.088
 9592SOL    HW229676   3.466   4.366   1.145
 9593SOL     OW29677   6.914   6.945   4.402
 9593SOL    HW129678   6.856   6.923   4.480
 9593SOL    HW229679   6.920   6.865   4.342
 9594SOL     OW29680   1.607   6.360   3.157
 9594SOL    HW129681   1.676   6.408   3.211
 9594SOL    HW229682   1.517   6.401   3.173
 9595SOL     OW29683   1.995   4.413   5.202
 9595SOL    HW129684   2.037   4.502   5.185
 9595SOL    HW229685   2.043   4.343   5.149
 9596SOL     OW29686   0.302   6.265   0.365
 9596SOL    HW129687   0.327   6.295   0.273
 9596SOL    HW229688   0.227   6.198   0.358
 9597SOL     OW29689   0.439   4.793   0.751
 9597SOL    HW129690   0.413   4.765   0.658
 9597SOL    HW229691   0.512   4.862   0.745
 9598SOL     OW29692   0.863   3.526   5.351
 9598SOL    HW129693   0.861   3.544   5.449
 9598SOL    HW229694   0.958   3.524   5.320
 9599SOL     OW29695   3.550   0.583   5.411
 9599SOL    HW129696   3.595   0.546   5.330
 9599SOL    HW229697   3.607   0.566   5.491
 9600SOL     OW29698   2.669   6.831   0.642
 9600SOL    HW129699   2.768   6.841   0.635
 9600SOL    HW229700   2.625   6.869   0.561
 9601SOL     OW29701   6.417   4.017   6.814
 9601SOL    HW129702   6.406   4.038   6.911
 9601SOL    HW229703   6.384   4.095   6.760
 9602SOL     OW29704   6.750   4.840   6.615
 9602SOL    HW129705   6.680   4.777   6.583
 9602SOL    HW229706   6.828   4.788   6.651
 9603SOL     OW29707   3.466   1.151   4.707
 9603SOL    HW129708   3.450   1.130   4.610
 9603SOL    HW229709   3.528   1.229   4.714
 9604SOL     OW29710   4.767   0.520   0.631
 9604SOL    HW129711   4.820   0.487   0.710
 9604SOL    HW229712   4.821   0.510   0.548
 9605SOL     OW29713   0.855   4.980   4.421
 9605SOL    HW129714   0.923   4.965   4.350
 9605SOL    HW229715   0.817   4.892   4.450
 9606SOL     OW29716   1.681   6.013   5.306
 9606SOL    HW129717   1.648   6.100   5.342
 9606SOL    HW229718   1.709   6.024   5.211
 9607SOL     OW29719   1.301   2.210   2.044
 9607SOL    HW129720   1.298   2.287   2.108
 9607SOL    HW229721   1.237   2.227   1.969
 9608SOL     OW29722   6.415   6.194   1.749
 9608SOL    HW129723   6.431   6.221   1.844
 9608SOL    HW229724   6.349   6.256   1.708
 9609SOL     OW29725   2.066   4.008   5.890
 9609SOL    HW129726   2.057   3.949   5.970
 9609SOL    HW229727   2.059   3.953   5.806
 9610SOL     OW29728   1.659   4.782   3.913
 9610SOL    HW129729   1.671   4.839   3.995
 9610SOL    HW229730   1.698   4.692   3.930
 9611SOL     OW29731   0.647   0.175   0.192
 9611SOL    HW129732   0.739   0.138   0.208
 9611SOL    HW229733   0.612   0.140   0.105
 9612SOL     OW29734   6.411   3.152   1.551
 9612SOL    HW129735   6.415   3.237   1.498
 9612SOL    HW229736   6.341   3.092   1.513
 9613SOL     OW29737   3.842   6.498   3.591
 9613SOL    HW129738   3.848   6.545   3.679
 9613SOL    HW229739   3.751   6.511   3.552
 9614SOL     OW29740   3.990   2.568   0.980
 9614SOL    HW129741   3.942   2.631   0.920
 9614SOL    HW229742   4.024   2.490   0.928
 9615SOL     OW29743   0.958   0.097   2.148
 9615SOL    HW129744   0.989   0.024   2.087
 9615SOL    HW229745   0.951   0.062   2.241
 9616SOL     OW29746   4.441   3.240   0.589
 9616SOL    HW129747   4.512   3.229   0.520
 9616SOL    HW229748   4.398   3.330   0.580
 9617SOL     OW29749   0.881   3.867   4.458
 9617SOL    HW129750   0.960   3.897   4.513
 9617SOL    HW229751   0.801   3.922   4.482
 9618SOL     OW29752   4.624   0.138   6.217
 9618SOL    HW129753   4.629   0.238   6.217
 9618SOL    HW229754   4.705   0.100   6.261
 9619SOL     OW29755   1.048   0.378   0.224
 9619SOL    HW129756   0.957   0.420   0.221
 9619SOL    HW229757   1.083   0.383   0.317
 9620SOL     OW29758   5.732   1.632   6.704
 9620SOL    HW129759   5.804   1.647   6.771
 9620SOL    HW229760   5.648   1.679   6.733
 9621SOL     OW29761   1.528   1.510   3.024
 9621SOL    HW129762   1.448   1.453   3.045
 9621SOL    HW229763   1.608   1.475   3.072
 9622SOL     OW29764   6.016   1.141   6.928
 9622SOL    HW129765   5.940   1.166   6.988
 9622SOL    HW229766   6.036   1.043   6.939
 9623SOL     OW29767   3.797   5.337   5.559
 9623SOL    HW129768   3.785   5.353   5.461
 9623SOL    HW229769   3.863   5.263   5.573
 9624SOL     OW29770   5.751   4.185   3.647
 9624SOL    HW129771   5.689   4.112   3.622
 9624SOL    HW229772   5.792   4.165   3.736
 9625SOL     OW29773   5.246   5.209   7.003
 9625SOL    HW129774   5.166   5.206   0.045
 9625SOL    HW229775   5.311   5.139   0.011
 9626SOL     OW29776   2.319   5.926   5.954
 9626SOL    HW129777   2.343   6.022   5.968
 9626SOL    HW229778   2.385   5.885   5.890
 9627SOL     OW29779   6.846   4.302   4.527
 9627SOL    HW129780   6.913   4.241   4.485
 9627SOL    HW229781   6.847   4.288   4.627
 9628SOL     OW29782   6.081   4.343   0.348
 9628SOL    HW129783   6.146   4.398   0.400
 9628SOL    HW229784   6.013   4.403   0.306
 9629SOL     OW29785   6.325   6.173   2.612
 9629SOL    HW129786   6.408   6.122   2.635
 9629SOL    HW229787   6.245   6.120   2.641
 9630SOL     OW29788   6.647   6.090   5.316
 9630SOL    HW129789   6.663   6.002   5.360
 9630SOL    HW229790   6.649   6.162   5.386
 9631SOL     OW29791   5.201   1.844   0.539
 9631SOL    HW129792   5.281   1.876   0.590
 9631SOL    HW229793   5.231   1.777   0.470
 9632SOL     OW29794   2.280   5.554   1.467
 9632SOL    HW129795   2.225   5.501   1.531
 9632SOL    HW229796   2.374   5.517   1.467
 9633SOL     OW29797   4.102   4.140   0.289
 9633SOL    HW129798   4.117   4.192   0.373
 9633SOL    HW229799   4.010   4.158   0.255
 9634SOL     OW29800   6.852   6.209   3.745
 9634SOL    HW129801   6.829   6.265   3.824
 9634SOL    HW229802   6.948   6.181   3.751
 9635SOL     OW29803   2.290   4.396   5.386
 9635SOL    HW129804   2.240   4.469   5.341
 9635SOL    HW229805   2.354   4.354   5.322
 9636SOL     OW29806   4.496   1.619   6.265
 9636SOL    HW129807   4.438   1.538   6.263
 9636SOL    HW229808   4.575   1.605   6.205
 9637SOL     OW29809   3.698   2.320   0.180
 9637SOL    HW129810   3.753   2.358   0.106
 9637SOL    HW229811   3.735   2.352   0.268
 9638SOL     OW29812   0.209   2.986   5.512
 9638SOL    HW129813   0.242   3.062   5.456
 9638SOL    HW229814   0.189   3.018   5.604
 9639SOL     OW29815   4.431   2.192   2.151
 9639SOL    HW129816   4.522   2.157   2.128
 9639SOL    HW229817   4.440   2.268   2.215
 9640SOL     OW29818   3.073   0.646   2.673
 9640SOL    HW129819   3.037   0.553   2.664
 9640SOL    HW229820   3.137   0.664   2.598
 9641SOL     OW29821   5.716   5.205   1.552
 9641SOL    HW129822   5.756   5.184   1.641
 9641SOL    HW229823   5.620   5.229   1.563
 9642SOL     OW29824   1.272   5.630   4.297
 9642SOL    HW129825   1.254   5.716   4.345
 9642SOL    HW229826   1.364   5.599   4.318
 9643SOL     OW29827   4.945   4.310   3.566
 9643SOL    HW129828   4.936   4.259   3.481
 9643SOL    HW229829   4.923   4.406   3.550
 9644SOL     OW29830   1.193   5.398   5.622
 9644SOL    HW129831   1.117   5.391   5.558
 9644SOL    HW229832   1.194   5.488   5.664
 9645SOL     OW29833   3.141   4.894   4.113
 9645SOL    HW129834   3.151   4.820   4.180
 9645SOL    HW229835   3.046   4.896   4.081
 9646SOL     OW29836   2.458   4.876   1.823
 9646SOL    HW129837   2.376   4.860   1.769
 9646SOL    HW229838   2.521   4.936   1.773
 9647SOL     OW29839   0.122   6.220   2.334
 9647SOL    HW129840   0.194   6.215   2.265
 9647SOL    HW229841   0.138   6.298   2.394
 9648SOL     OW29842   3.911   2.538   6.756
 9648SOL    HW129843   3.818   2.561   6.727
 9648SOL    HW229844   3.957   2.485   6.685
 9649SOL     OW29845   1.891   4.203   6.887
 9649SOL    HW129846   1.826   4.278   6.875
 9649SOL    HW229847   1.875   4.133   6.817
 9650SOL     OW29848   4.647   5.146   3.243
 9650SOL    HW129849   4.586   5.068   3.255
 9650SOL    HW229850   4.593   5.229   3.230
 9651SOL     OW29851   5.336   1.674   1.308
 9651SOL    HW129852   5.369   1.767   1.325
 9651SOL    HW229853   5.254   1.657   1.362
 9652SOL     OW29854   1.587   4.671   1.808
 9652SOL    HW129855   1.581   4.653   1.710
 9652SOL    HW229856   1.656   4.741   1.825
 9653SOL     OW29857   5.453   5.441   4.710
 9653SOL    HW129858   5.530   5.464   4.771
 9653SOL    HW229859   5.429   5.344   4.723
 9654SOL     OW29860   3.392   3.218   2.991
 9654SOL    HW129861   3.305   3.232   3.039
 9654SOL    HW229862   3.436   3.306   2.975
 9655SOL     OW29863   0.306   1.622   0.297
 9655SOL    HW129864   0.214   1.588   0.278
 9655SOL    HW229865   0.305   1.722   0.296
 9656SOL     OW29866   4.307   2.257   0.863
 9656SOL    HW129867   4.404   2.235   0.856
 9656SOL    HW229868   4.254   2.189   0.813
 9657SOL     OW29869   5.277   3.433   2.632
 9657SOL    HW129870   5.240   3.480   2.552
 9657SOL    HW229871   5.376   3.446   2.635
 9658SOL     OW29872   5.255   1.664   2.483
 9658SOL    HW129873   5.296   1.611   2.409
 9658SOL    HW229874   5.207   1.743   2.445
 9659SOL     OW29875   0.386   3.465   7.015
 9659SOL    HW129876   0.448   3.531   0.038
 9659SOL    HW229877   0.439   3.393   6.970
 9660SOL     OW29878   0.678   6.908   2.913
 9660SOL    HW129879   0.767   6.900   2.868
 9660SOL    HW229880   0.671   6.839   2.985
 9661SOL     OW29881   3.608   6.022   1.422
 9661SOL    HW129882   3.608   6.046   1.519
 9661SOL    HW229883   3.566   5.932   1.410
 9662SOL     OW29884   3.663   3.007   5.829
 9662SOL    HW129885   3.606   2.951   5.889
 9662SOL    HW229886   3.757   2.975   5.833
 9663SOL     OW29887   6.302   6.297   2.369
 9663SOL    HW129888   6.376   6.361   2.349
 9663SOL    HW229889   6.304   6.271   2.465
 9664SOL     OW29890   5.813   5.106   4.369
 9664SOL    HW129891   5.789   5.108   4.466
 9664SOL    HW229892   5.731   5.119   4.314
 9665SOL     OW29893   6.194   5.964   6.469
 9665SOL    HW129894   6.117   5.953   6.406
 9665SOL    HW229895   6.216   6.062   6.478
 9666SOL     OW29896   6.646   3.961   2.268
 9666SOL    HW129897   6.571   3.981   2.205
 9666SOL    HW229898   6.692   4.046   2.292
 9667SOL     OW29899   4.261   3.036   6.733
 9667SOL    HW129900   4.283   2.946   6.772
 9667SOL    HW229901   4.164   3.039   6.711
 9668SOL     OW29902   0.077   0.706   6.250
 9668SOL    HW129903   0.105   0.781   6.310
 9668SOL    HW229904   0.085   0.734   6.155
 9669SOL     OW29905   2.089   6.961   1.946
 9669SOL    HW129906   2.150   6.896   1.991
 9669SOL    HW229907   2.065   0.015   2.011
 9670SOL     OW29908   6.913   4.962   5.615
 9670SOL    HW129909   6.942   4.965   5.710
 9670SOL    HW229910   6.884   5.053   5.585
 9671SOL     OW29911   7.012   4.107   6.840
 9671SOL    HW129912   7.009   4.183   6.904
 9671SOL    HW229913   0.058   4.038   6.873
 9672SOL     OW29914   1.557   5.388   3.177
 9672SOL    HW129915   1.543   5.439   3.261
 9672SOL    HW229916   1.545   5.291   3.194
 9673SOL     OW29917   4.514   3.822   1.220
 9673SOL    HW129918   4.475   3.908   1.255
 9673SOL    HW229919   4.440   3.761   1.194
 9674SOL     OW29920   3.212   6.804   3.194
 9674SOL    HW129921   3.227   6.707   3.174
 9674SOL    HW229922   3.245   6.859   3.118
 9675SOL     OW29923   5.526   2.734   6.796
 9675SOL    HW129924   5.615   2.776   6.777
 9675SOL    HW229925   5.538   2.659   6.861
 9676SOL     OW29926   1.741   3.393   5.627
 9676SOL    HW129927   1.717   3.362   5.719
 9676SOL    HW229928   1.822   3.344   5.596
 9677SOL     OW29929   6.994   5.712   4.877
 9677SOL    HW129930   0.040   5.755   4.816
 9677SOL    HW229931   6.928   5.658   4.824
 9678SOL     OW29932   2.943   3.854   3.700
 9678SOL    HW129933   2.952   3.847   3.800
 9678SOL    HW229934   2.915   3.765   3.663
 9679SOL     OW29935   3.268   1.015   3.111
 9679SOL    HW129936   3.257   1.072   3.193
 9679SOL    HW229937   3.181   0.969   3.091
 9680SOL     OW29938   4.487   0.954   3.202
 9680SOL    HW129939   4.576   0.982   3.166
 9680SOL    HW229940   4.417   1.020   3.173
 9681SOL     OW29941   3.021   1.862   0.959
 9681SOL    HW129942   2.990   1.901   1.045
 9681SOL    HW229943   3.089   1.791   0.977
 9682SOL     OW29944   4.799   4.321   3.834
 9682SOL    HW129945   4.791   4.376   3.751
 9682SOL    HW229946   4.716   4.333   3.890
 9683SOL     OW29947   3.255   5.979   1.947
 9683SOL    HW129948   3.267   5.931   1.860
 9683SOL    HW229949   3.338   5.969   2.002
 9684SOL     OW29950   0.713   3.290   6.540
 9684SOL    HW129951   0.809   3.260   6.539
 9684SOL    HW229952   0.656   3.217   6.578
 9685SOL     OW29953   3.768   4.370   1.101
 9685SOL    HW129954   3.763   4.310   1.181
 9685SOL    HW229955   3.693   4.435   1.104
 9686SOL     OW29956   0.736   2.722   6.812
 9686SOL    HW129957   0.814   2.779   6.787
 9686SOL    HW229958   0.651   2.774   6.800
 9687SOL     OW29959   1.325   0.725   4.224
 9687SOL    HW129960   1.243   0.688   4.181
 9687SOL    HW229961   1.344   0.675   4.309
 9688SOL     OW29962   1.070   2.841   1.419
 9688SOL    HW129963   1.125   2.880   1.492
 9688SOL    HW229964   0.975   2.869   1.430
 9689SOL     OW29965   1.043   4.607   6.314
 9689SOL    HW129966   1.017   4.540   6.244
 9689SOL    HW229967   1.100   4.563   6.383
 9690SOL     OW29968   6.023   5.343   6.764
 9690SOL    HW129969   6.047   5.438   6.785
 9690SOL    HW229970   5.988   5.298   6.846
 9691SOL     OW29971   3.177   5.042   1.297
 9691SOL    HW129972   3.129   5.046   1.385
 9691SOL    HW229973   3.259   4.985   1.306
 9692SOL     OW29974   3.977   6.002   2.318
 9692SOL    HW129975   3.937   5.924   2.271
 9692SOL    HW229976   3.916   6.033   2.390
 9693SOL     OW29977   5.642   4.037   2.604
 9693SOL    HW129978   5.625   3.966   2.535
 9693SOL    HW229979   5.736   4.070   2.595
 9694SOL     OW29980   2.879   1.274   0.857
 9694SOL    HW129981   2.781   1.288   0.876
 9694SOL    HW229982   2.933   1.319   0.927
 9695SOL     OW29983   7.001   3.120   3.020
 9695SOL    HW129984   6.926   3.121   3.087
 9695SOL    HW229985   0.061   3.074   3.059
 9696SOL     OW29986   5.366   3.215   1.244
 9696SOL    HW129987   5.351   3.215   1.145
 9696SOL    HW229988   5.441   3.153   1.265
 9697SOL     OW29989   0.397   4.901   6.872
 9697SOL    HW129990   0.400   4.931   6.776
 9697SOL    HW229991   0.384   4.802   6.874
 9698SOL     OW29992   5.009   1.882   6.260
 9698SOL    HW129993   4.947   1.855   6.334
 9698SOL    HW229994   4.977   1.966   6.218
 9699SOL     OW29995   6.285   5.594   6.529
 9699SOL    HW129996   6.225   5.567   6.604
 9699SOL    HW229997   6.320   5.687   6.545
 9700SOL     OW29998   4.961   5.633   4.798
 9700SOL    HW129999   4.891   5.650   4.728
 9700SOL    HW230000   4.929   5.669   4.886
 9701SOL     OW30001   4.062   4.519   5.898
 9701SOL    HW130002   4.077   4.588   5.828
 9701SOL    HW230003   4.145   4.510   5.954
 9702SOL     OW30004   4.551   0.633   6.612
 9702SOL    HW130005   4.619   0.591   6.673
 9702SOL    HW230006   4.466   0.647   6.661
 9703SOL     OW30007   4.877   4.011   3.927
 9703SOL    HW130008   4.827   3.932   3.963
 9703SOL    HW230009   4.966   4.017   3.971
 9704SOL     OW30010   3.702   6.892   1.858
 9704SOL    HW130011   3.663   6.941   1.936
 9704SOL    HW230012   3.799   6.874   1.875
 9705SOL     OW30013   5.564   4.365   5.688
 9705SOL    HW130014   5.648   4.340   5.735
 9705SOL    HW230015   5.497   4.398   5.755
 9706SOL     OW30016   2.257   3.177   0.755
 9706SOL    HW130017   2.166   3.164   0.796
 9706SOL    HW230018   2.322   3.205   0.825
 9707SOL     OW30019   6.162   4.585   2.231
 9707SOL    HW130020   6.148   4.608   2.328
 9707SOL    HW230021   6.240   4.636   2.196
 9708SOL     OW30022   1.395   1.887   4.037
 9708SOL    HW130023   1.352   1.838   3.962
 9708SOL    HW230024   1.410   1.824   4.114
 9709SOL     OW30025   5.151   6.145   2.971
 9709SOL    HW130026   5.093   6.070   2.942
 9709SOL    HW230027   5.095   6.219   3.007
 9710SOL     OW30028   6.972   1.505   1.027
 9710SOL    HW130029   6.972   1.600   1.059
 9710SOL    HW230030   6.960   1.443   1.105
 9711SOL     OW30031   3.615   5.368   6.252
 9711SOL    HW130032   3.540   5.378   6.318
 9711SOL    HW230033   3.635   5.456   6.210
 9712SOL     OW30034   5.199   3.968   6.305
 9712SOL    HW130035   5.155   4.014   6.381
 9712SOL    HW230036   5.294   3.999   6.298
 9713SOL     OW30037   1.563   4.645   3.045
 9713SOL    HW130038   1.550   4.671   2.949
 9713SOL    HW230039   1.537   4.721   3.104
 9714SOL     OW30040   4.455   6.357   6.818
 9714SOL    HW130041   4.426   6.282   6.877
 9714SOL    HW230042   4.380   6.381   6.756
 9715SOL     OW30043   5.783   4.382   0.011
 9715SOL    HW130044   5.821   4.292   0.031
 9715SOL    HW230045   5.685   4.383   0.031
 9716SOL     OW30046   3.489   4.633   6.660
 9716SOL    HW130047   3.547   4.560   6.624
 9716SOL    HW230048   3.435   4.598   6.736
 9717SOL     OW30049   5.823   6.248   5.718
 9717SOL    HW130050   5.789   6.154   5.709
 9717SOL    HW230051   5.889   6.266   5.645
 9718SOL     OW30052   4.721   3.380   0.446
 9718SOL    HW130053   4.713   3.448   0.373
 9718SOL    HW230054   4.679   3.294   0.416
 9719SOL     OW30055   6.562   1.161   5.552
 9719SOL    HW130056   6.481   1.201   5.596
 9719SOL    HW230057   6.621   1.120   5.621
 9720SOL     OW30058   0.330   5.265   2.049
 9720SOL    HW130059   0.321   5.278   2.148
 9720SOL    HW230060   0.382   5.181   2.032
 9721SOL     OW30061   0.370   1.907   0.240
 9721SOL    HW130062   0.301   1.959   0.289
 9721SOL    HW230063   0.437   1.871   0.305
 9722SOL     OW30064   4.347   0.689   4.422
 9722SOL    HW130065   4.363   0.772   4.369
 9722SOL    HW230066   4.434   0.656   4.459
 9723SOL     OW30067   2.727   6.704   3.134
 9723SOL    HW130068   2.799   6.641   3.107
 9723SOL    HW230069   2.742   6.793   3.091
 9724SOL     OW30070   1.298   4.275   0.283
 9724SOL    HW130071   1.259   4.294   0.193
 9724SOL    HW230072   1.316   4.361   0.330
 9725SOL     OW30073   4.909   5.171   5.909
 9725SOL    HW130074   4.855   5.090   5.887
 9725SOL    HW230075   4.889   5.244   5.844
 9726SOL     OW30076   5.394   1.309   4.054
 9726SOL    HW130077   5.346   1.266   4.131
 9726SOL    HW230078   5.486   1.271   4.047
 9727SOL     OW30079   1.078   2.854   7.000
 9727SOL    HW130080   1.116   2.913   0.052
 9727SOL    HW230081   1.150   2.827   6.936
 9728SOL     OW30082   1.256   0.184   5.516
 9728SOL    HW130083   1.251   0.084   5.512
 9728SOL    HW230084   1.344   0.214   5.477
 9729SOL     OW30085   1.015   4.608   3.134
 9729SOL    HW130086   1.089   4.641   3.076
 9729SOL    HW230087   1.001   4.510   3.119
 9730SOL     OW30088   1.190   4.164   3.630
 9730SOL    HW130089   1.121   4.108   3.677
 9730SOL    HW230090   1.281   4.139   3.664
 9731SOL     OW30091   5.027   4.467   1.276
 9731SOL    HW130092   4.946   4.450   1.220
 9731SOL    HW230093   5.044   4.388   1.335
 9732SOL     OW30094   6.898   5.448   2.369
 9732SOL    HW130095   6.951   5.527   2.336
 9732SOL    HW230096   6.844   5.476   2.449
 9733SOL     OW30097   5.639   5.340   0.215
 9733SOL    HW130098   5.563   5.287   0.177
 9733SOL    HW230099   5.696   5.280   0.271
 9734SOL     OW30100   6.644   1.754   1.164
 9734SOL    HW130101   6.633   1.671   1.110
 9734SOL    HW230102   6.609   1.739   1.256
 9735SOL     OW30103   2.111   3.700   3.875
 9735SOL    HW130104   2.091   3.609   3.912
 9735SOL    HW230105   2.028   3.737   3.833
 9736SOL     OW30106   6.055   1.887   6.479
 9736SOL    HW130107   6.059   1.839   6.391
 9736SOL    HW230108   6.071   1.822   6.553
 9737SOL     OW30109   5.535   2.938   3.314
 9737SOL    HW130110   5.622   2.928   3.362
 9737SOL    HW230111   5.503   3.033   3.322
 9738SOL     OW30112   1.918   0.546   0.344
 9738SOL    HW130113   1.824   0.516   0.358
 9738SOL    HW230114   1.919   0.645   0.330
 9739SOL     OW30115   5.863   5.425   1.476
 9739SOL    HW130116   5.886   5.433   1.379
 9739SOL    HW230117   5.809   5.343   1.491
 9740SOL     OW30118   6.895   1.620   3.557
 9740SOL    HW130119   6.799   1.606   3.533
 9740SOL    HW230120   6.925   1.547   3.618
 9741SOL     OW30121   3.916   1.276   2.638
 9741SOL    HW130122   3.907   1.274   2.539
 9741SOL    HW230123   3.826   1.266   2.680
 9742SOL     OW30124   4.539   0.925   0.679
 9742SOL    HW130125   4.506   1.007   0.725
 9742SOL    HW230126   4.571   0.860   0.748
 9743SOL     OW30127   6.978   2.997   4.648
 9743SOL    HW130128   6.967   2.900   4.673
 9743SOL    HW230129   0.032   3.037   4.702
 9744SOL     OW30130   1.780   6.930   2.155
 9744SOL    HW130131   1.847   7.002   2.142
 9744SOL    HW230132   1.820   6.842   2.129
 9745SOL     OW30133   5.499   2.657   6.481
 9745SOL    HW130134   5.525   2.753   6.469
 9745SOL    HW230135   5.541   2.622   6.564
 9746SOL     OW30136   6.447   0.452   5.229
 9746SOL    HW130137   6.442   0.544   5.191
 9746SOL    HW230138   6.412   0.386   5.162
 9747SOL     OW30139   2.741   1.238   1.579
 9747SOL    HW130140   2.653   1.240   1.530
 9747SOL    HW230141   2.813   1.273   1.519
 9748SOL     OW30142   0.017   0.914   3.288
 9748SOL    HW130143   0.068   0.915   3.374
 9748SOL    HW230144   0.068   0.967   3.219
 9749SOL     OW30145   2.700   0.393   4.535
 9749SOL    HW130146   2.776   0.454   4.516
 9749SOL    HW230147   2.687   0.385   4.633
 9750SOL     OW30148   6.063   4.007   3.074
 9750SOL    HW130149   6.076   3.999   2.975
 9750SOL    HW230150   5.976   3.967   3.099
 9751SOL     OW30151   2.176   1.148   0.380
 9751SOL    HW130152   2.115   1.163   0.302
 9751SOL    HW230153   2.139   1.191   0.462
 9752SOL     OW30154   4.636   2.300   5.031
 9752SOL    HW130155   4.725   2.333   5.000
 9752SOL    HW230156   4.570   2.308   4.957
 9753SOL     OW30157   6.745   5.512   5.975
 9753SOL    HW130158   6.762   5.499   5.877
 9753SOL    HW230159   6.775   5.604   6.002
 9754SOL     OW30160   1.911   0.470   0.047
 9754SOL    HW130161   1.957   0.520   6.993
 9754SOL    HW230162   1.970   0.467   0.127
 9755SOL     OW30163   3.411   3.820   4.164
 9755SOL    HW130164   3.415   3.730   4.122
 9755SOL    HW230165   3.452   3.888   4.103
 9756SOL     OW30166   6.036   3.428   0.038
 9756SOL    HW130167   6.058   3.389   0.127
 9756SOL    HW230168   6.112   3.485   0.006
 9757SOL     OW30169   5.727   3.812   3.674
 9757SOL    HW130170   5.799   3.786   3.739
 9757SOL    HW230171   5.769   3.860   3.596
 9758SOL     OW30172   2.502   0.032   6.907
 9758SOL    HW130173   2.442   0.110   6.891
 9758SOL    HW230174   2.526   0.027   7.004
 9759SOL     OW30175   1.413   0.147   0.400
 9759SOL    HW130176   1.336   0.156   0.337
 9759SOL    HW230177   1.495   0.119   0.349
 9760SOL     OW30178   5.253   2.830   5.586
 9760SOL    HW130179   5.191   2.876   5.649
 9760SOL    HW230180   5.293   2.750   5.631
 9761SOL     OW30181   6.632   1.494   2.130
 9761SOL    HW130182   6.618   1.438   2.211
 9761SOL    HW230183   6.543   1.525   2.096
 9762SOL     OW30184   3.585   1.318   4.156
 9762SOL    HW130185   3.592   1.314   4.256
 9762SOL    HW230186   3.664   1.367   4.119
 9763SOL     OW30187   4.888   1.722   2.123
 9763SOL    HW130188   4.793   1.693   2.138
 9763SOL    HW230189   4.923   1.764   2.207
 9764SOL     OW30190   0.159   2.723   3.206
 9764SOL    HW130191   0.252   2.737   3.172
 9764SOL    HW230192   0.138   2.626   3.207
 9765SOL     OW30193   6.769   0.226   3.489
 9765SOL    HW130194   6.676   0.197   3.510
 9765SOL    HW230195   6.767   0.319   3.450
 9766SOL     OW30196   3.026   6.847   2.143
 9766SOL    HW130197   3.001   6.887   2.231
 9766SOL    HW230198   3.046   6.920   2.078
 9767SOL     OW30199   4.009   0.913   5.084
 9767SOL    HW130200   3.997   0.886   5.180
 9767SOL    HW230201   4.083   0.859   5.044
 9768SOL     OW30202   6.001   1.356   2.348
 9768SOL    HW130203   5.967   1.433   2.294
 9768SOL    HW230204   5.928   1.290   2.362
 9769SOL     OW30205   4.114   1.299   3.351
 9769SOL    HW130206   4.191   1.297   3.415
 9769SOL    HW230207   4.128   1.371   3.283
 9770SOL     OW30208   4.801   0.753   6.488
 9770SOL    HW130209   4.869   0.702   6.540
 9770SOL    HW230210   4.711   0.741   6.529
 9771SOL     OW30211   2.450   6.188   0.136
 9771SOL    HW130212   2.370   6.135   0.107
 9771SOL    HW230213   2.500   6.219   0.055
 9772SOL     OW30214   2.048   6.190   1.725
 9772SOL    HW130215   1.959   6.235   1.725
 9772SOL    HW230216   2.120   6.258   1.711
 9773SOL     OW30217   4.925   5.734   4.109
 9773SOL    HW130218   4.971   5.656   4.065
 9773SOL    HW230219   4.871   5.783   4.042
 9774SOL     OW30220   0.470   5.032   1.990
 9774SOL    HW130221   0.545   5.028   1.924
 9774SOL    HW230222   0.500   4.994   2.078
 9775SOL     OW30223   2.671   0.677   3.434
 9775SOL    HW130224   2.587   0.688   3.488
 9775SOL    HW230225   2.724   0.601   3.472
 9776SOL     OW30226   1.189   4.025   4.954
 9776SOL    HW130227   1.178   4.025   4.854
 9776SOL    HW230228   1.197   4.120   4.986
 9777SOL     OW30229   6.903   6.144   0.007
 9777SOL    HW130230   6.888   6.204   6.947
 9777SOL    HW230231   6.860   6.184   0.088
 9778SOL     OW30232   0.160   1.047   4.088
 9778SOL    HW130233   0.068   1.076   4.061
 9778SOL    HW230234   0.156   0.957   4.130
 9779SOL     OW30235   1.122   1.240   4.052
 9779SOL    HW130236   1.086   1.150   4.076
 9779SOL    HW230237   1.222   1.239   4.057
 9780SOL     OW30238   2.484   2.417   1.443
 9780SOL    HW130239   2.546   2.480   1.397
 9780SOL    HW230240   2.416   2.384   1.378
 9781SOL     OW30241   2.127   3.803   4.135
 9781SOL    HW130242   2.104   3.736   4.206
 9781SOL    HW230243   2.119   3.761   4.045
 9782SOL     OW30244   0.185   1.378   1.101
 9782SOL    HW130245   0.197   1.281   1.081
 9782SOL    HW230246   0.102   1.412   1.057
 9783SOL     OW30247   4.033   2.157   2.829
 9783SOL    HW130248   3.957   2.132   2.888
 9783SOL    HW230249   4.007   2.143   2.733
 9784SOL     OW30250   3.468   1.591   4.621
 9784SOL    HW130251   3.499   1.686   4.623
 9784SOL    HW230252   3.377   1.585   4.662
 9785SOL     OW30253   0.693   2.700   6.211
 9785SOL    HW130254   0.717   2.725   6.305
 9785SOL    HW230255   0.668   2.604   6.208
 9786SOL     OW30256   2.107   4.269   0.295
 9786SOL    HW130257   2.198   4.229   0.301
 9786SOL    HW230258   2.059   4.256   0.382
 9787SOL     OW30259   4.158   4.005   1.808
 9787SOL    HW130260   4.165   3.959   1.897
 9787SOL    HW230261   4.236   4.065   1.795
 9788SOL     OW30262   0.725   0.923   3.872
 9788SOL    HW130263   0.711   0.833   3.913
 9788SOL    HW230264   0.675   0.928   3.785
 9789SOL     OW30265   1.577   5.341   0.730
 9789SOL    HW130266   1.541   5.324   0.639
 9789SOL    HW230267   1.554   5.435   0.758
 9790SOL     OW30268   6.475   4.587   6.790
 9790SOL    HW130269   6.379   4.601   6.813
 9790SOL    HW230270   6.491   4.617   6.696
 9791SOL     OW30271   0.492   1.501   2.229
 9791SOL    HW130272   0.564   1.439   2.196
 9791SOL    HW230273   0.471   1.568   2.157
 9792SOL     OW30274   4.602   4.840   0.703
 9792SOL    HW130275   4.551   4.887   0.631
 9792SOL    HW230276   4.569   4.871   0.793
 9793SOL     OW30277   4.278   6.391   2.695
 9793SOL    HW130278   4.286   6.309   2.751
 9793SOL    HW230279   4.226   6.461   2.746
 9794SOL     OW30280   0.120   4.523   0.008
 9794SOL    HW130281   0.023   4.510   0.029
 9794SOL    HW230282   0.168   4.435   0.016
 9795SOL     OW30283   2.161   1.622   4.361
 9795SOL    HW130284   2.139   1.546   4.299
 9795SOL    HW230285   2.236   1.594   4.421
 9796SOL     OW30286   3.661   2.600   1.453
 9796SOL    HW130287   3.685   2.610   1.550
 9796SOL    HW230288   3.603   2.520   1.441
 9797SOL     OW30289   2.300   5.435   6.983
 9797SOL    HW130290   2.274   5.524   0.001
 9797SOL    HW230291   2.265   5.362   0.023
 9798SOL     OW30292   2.776   0.767   1.859
 9798SOL    HW130293   2.854   0.810   1.905
 9798SOL    HW230294   2.783   0.784   1.760
 9799SOL     OW30295   3.341   2.902   4.485
 9799SOL    HW130296   3.351   2.912   4.584
 9799SOL    HW230297   3.428   2.923   4.441
 9800SOL     OW30298   3.613   5.861   5.056
 9800SOL    HW130299   3.548   5.909   5.115
 9800SOL    HW230300   3.575   5.772   5.031
 9801SOL     OW30301   4.662   3.908   6.910
 9801SOL    HW130302   4.675   4.003   6.938
 9801SOL    HW230303   4.570   3.877   6.935
 9802SOL     OW30304   6.983   3.795   1.085
 9802SOL    HW130305   7.017   3.780   0.992
 9802SOL    HW230306   6.985   3.893   1.106
 9803SOL     OW30307   1.064   2.345   6.803
 9803SOL    HW130308   1.112   2.403   6.869
 9803SOL    HW230309   0.979   2.311   6.843
 9804SOL     OW30310   1.791   6.663   2.442
 9804SOL    HW130311   1.807   6.621   2.531
 9804SOL    HW230312   1.731   6.605   2.388
 9805SOL     OW30313   1.667   0.062   4.089
 9805SOL    HW130314   1.663   0.161   4.089
 9805SOL    HW230315   1.762   0.032   4.077
 9806SOL     OW30316   1.153   0.942   0.088
 9806SOL    HW130317   1.216   0.864   0.095
 9806SOL    HW230318   1.171   1.007   0.162
 9807SOL     OW30319   2.504   4.616   0.336
 9807SOL    HW130320   2.507   4.544   0.267
 9807SOL    HW230321   2.589   4.668   0.334
 9808SOL     OW30322   4.214   0.218   5.463
 9808SOL    HW130323   4.134   0.173   5.424
 9808SOL    HW230324   4.294   0.200   5.406
 9809SOL     OW30325   1.005   2.309   6.332
 9809SOL    HW130326   0.983   2.274   6.423
 9809SOL    HW230327   0.998   2.234   6.266
 9810SOL     OW30328   2.061   3.091   3.857
 9810SOL    HW130329   1.967   3.081   3.888
 9810SOL    HW230330   2.077   3.030   3.780
 9811SOL     OW30331   5.173   4.628   3.267
 9811SOL    HW130332   5.207   4.535   3.251
 9811SOL    HW230333   5.199   4.658   3.359
 9812SOL     OW30334   3.593   2.272   5.661
 9812SOL    HW130335   3.556   2.276   5.568
 9812SOL    HW230336   3.640   2.184   5.674
 9813SOL     OW30337   5.283   1.419   0.774
 9813SOL    HW130338   5.276   1.364   0.857
 9813SOL    HW230339   5.210   1.488   0.773
 9814SOL     OW30340   0.039   0.454   6.875
 9814SOL    HW130341   0.112   0.457   6.944
 9814SOL    HW230342   0.051   0.372   6.818
 9815SOL     OW30343   5.509   4.355   3.670
 9815SOL    HW130344   5.594   4.308   3.696
 9815SOL    HW230345   5.531   4.434   3.614
 9816SOL     OW30346   6.838   0.865   5.980
 9816SOL    HW130347   6.864   0.892   6.073
 9816SOL    HW230348   6.919   0.871   5.921
 9817SOL     OW30349   3.032   0.026   2.860
 9817SOL    HW130350   3.119   0.077   2.859
 9817SOL    HW230351   2.984   0.043   2.774
 9818SOL     OW30352   1.600   1.199   4.738
 9818SOL    HW130353   1.695   1.184   4.714
 9818SOL    HW230354   1.562   1.272   4.682
 9819SOL     OW30355   4.823   3.014   3.624
 9819SOL    HW130356   4.777   2.925   3.626
 9819SOL    HW230357   4.816   3.057   3.714
 9820SOL     OW30358   4.335   3.384   6.395
 9820SOL    HW130359   4.311   3.395   6.299
 9820SOL    HW230360   4.396   3.305   6.405
 9821SOL     OW30361   5.174   0.688   6.941
 9821SOL    HW130362   5.120   0.684   0.005
 9821SOL    HW230363   5.113   0.692   6.861
 9822SOL     OW30364   2.538   6.248   3.832
 9822SOL    HW130365   2.454   6.276   3.785
 9822SOL    HW230366   2.516   6.220   3.925
 9823SOL     OW30367   2.534   0.973   6.819
 9823SOL    HW130368   2.533   0.971   6.919
 9823SOL    HW230369   2.488   1.056   6.787
 9824SOL     OW30370   2.059   4.832   4.456
 9824SOL    HW130371   2.047   4.734   4.444
 9824SOL    HW230372   2.022   4.881   4.377
 9825SOL     OW30373   5.357   5.864   4.705
 9825SOL    HW130374   5.265   5.827   4.692
 9825SOL    HW230375   5.381   5.923   4.627
 9826SOL     OW30376   4.121   5.276   5.597
 9826SOL    HW130377   4.096   5.369   5.624
 9826SOL    HW230378   4.206   5.250   5.643
 9827SOL     OW30379   1.662   4.380   3.712
 9827SOL    HW130380   1.601   4.448   3.751
 9827SOL    HW230381   1.648   4.292   3.758
 9828SOL     OW30382   2.645   2.236   5.409
 9828SOL    HW130383   2.619   2.264   5.317
 9828SOL    HW230384   2.699   2.309   5.452
 9829SOL     OW30385   4.303   5.093   6.483
 9829SOL    HW130386   4.283   5.190   6.486
 9829SOL    HW230387   4.392   5.078   6.439
 9830SOL     OW30388   5.256   1.599   1.730
 9830SOL    HW130389   5.344   1.568   1.765
 9830SOL    HW230390   5.184   1.576   1.795
 9831SOL     OW30391   1.379   4.920   2.255
 9831SOL    HW130392   1.403   4.905   2.159
 9831SOL    HW230393   1.330   4.841   2.290
 9832SOL     OW30394   4.789   5.309   2.614
 9832SOL    HW130395   4.824   5.217   2.595
 9832SOL    HW230396   4.696   5.302   2.650
 9833SOL     OW30397   3.255   3.337   4.178
 9833SOL    HW130398   3.214   3.251   4.207
 9833SOL    HW230399   3.278   3.331   4.081
 9834SOL     OW30400   2.447   4.288   5.201
 9834SOL    HW130401   2.531   4.296   5.255
 9834SOL    HW230402   2.429   4.192   5.181
 9835SOL     OW30403   4.007   3.792   5.028
 9835SOL    HW130404   3.955   3.877   5.040
 9835SOL    HW230405   4.057   3.772   5.112
 9836SOL     OW30406   6.806   4.245   3.409
 9836SOL    HW130407   6.802   4.157   3.456
 9836SOL    HW230408   6.802   4.319   3.477
 9837SOL     OW30409   3.490   0.281   1.930
 9837SOL    HW130410   3.465   0.185   1.944
 9837SOL    HW230411   3.409   0.338   1.943
 9838SOL     OW30412   1.774   6.650   0.822
 9838SOL    HW130413   1.725   6.575   0.867
 9838SOL    HW230414   1.786   6.725   0.886
 9839SOL     OW30415   5.163   6.926   3.581
 9839SOL    HW130416   5.066   6.932   3.559
 9839SOL    HW230417   5.175   6.886   3.671
 9840SOL     OW30418   5.673   1.867   1.155
 9840SOL    HW130419   5.663   1.770   1.133
 9840SOL    HW230420   5.746   1.879   1.222
 9841SOL     OW30421   1.697   4.263   5.537
 9841SOL    HW130422   1.657   4.228   5.452
 9841SOL    HW230423   1.757   4.194   5.577
 9842SOL     OW30424   3.561   2.898   1.518
 9842SOL    HW130425   3.554   2.980   1.461
 9842SOL    HW230426   3.576   2.818   1.460
 9843SOL     OW30427   7.016   0.378   2.047
 9843SOL    HW130428   6.989   0.382   2.143
 9843SOL    HW230429   6.945   0.330   1.995
 9844SOL     OW30430   6.534   1.375   3.045
 9844SOL    HW130431   6.615   1.416   3.087
 9844SOL    HW230432   6.497   1.304   3.106
 9845SOL     OW30433   1.954   2.718   3.662
 9845SOL    HW130434   2.015   2.647   3.628
 9845SOL    HW230435   1.958   2.720   3.762
 9846SOL     OW30436   3.547   2.286   1.397
 9846SOL    HW130437   3.627   2.239   1.360
 9846SOL    HW230438   3.513   2.352   1.330
 9847SOL     OW30439   3.828   2.948   3.285
 9847SOL    HW130440   3.729   2.932   3.291
 9847SOL    HW230441   3.868   2.942   3.376
 9848SOL     OW30442   3.662   3.550   4.808
 9848SOL    HW130443   3.564   3.529   4.804
 9848SOL    HW230444   3.684   3.623   4.743
 9849SOL     OW30445   0.617   6.935   5.969
 9849SOL    HW130446   0.700   6.885   5.993
 9849SOL    HW230447   0.559   6.880   5.910
 9850SOL     OW30448   6.223   7.010   3.889
 9850SOL    HW130449   6.238   6.950   3.968
 9850SOL    HW230450   6.308   0.039   3.868
 9851SOL     OW30451   0.256   6.807   4.436
 9851SOL    HW130452   0.170   6.773   4.475
 9851SOL    HW230453   0.294   6.738   4.374
 9852SOL     OW30454   3.378   1.356   4.466
 9852SOL    HW130455   3.407   1.441   4.510
 9852SOL    HW230456   3.450   1.322   4.406
 9853SOL     OW30457   5.102   4.173   4.934
 9853SOL    HW130458   5.155   4.245   4.979
 9853SOL    HW230459   5.109   4.089   4.987
 9854SOL     OW30460   6.908   5.926   4.522
 9854SOL    HW130461   6.884   5.999   4.587
 9854SOL    HW230462   7.006   5.911   4.525
 9855SOL     OW30463   1.950   3.295   1.305
 9855SOL    HW130464   1.862   3.249   1.320
 9855SOL    HW230465   2.013   3.274   1.380
 9856SOL     OW30466   4.642   4.280   5.045
 9856SOL    HW130467   4.606   4.187   5.036
 9856SOL    HW230468   4.593   4.340   4.982
 9857SOL     OW30469   4.857   3.451   2.861
 9857SOL    HW130470   4.870   3.363   2.907
 9857SOL    HW230471   4.868   3.438   2.762
 9858SOL     OW30472   6.450   0.036   1.124
 9858SOL    HW130473   6.376   0.008   1.186
 9858SOL    HW230474   6.494   0.118   1.161
 9859SOL     OW30475   5.983   6.209   2.814
 9859SOL    HW130476   5.889   6.219   2.783
 9859SOL    HW230477   6.037   6.287   2.782
 9860SOL     OW30478   1.630   2.270   3.920
 9860SOL    HW130479   1.657   2.222   3.837
 9860SOL    HW230480   1.696   2.343   3.939
 9861SOL     OW30481   2.795   0.267   2.894
 9861SOL    HW130482   2.745   0.333   2.837
 9861SOL    HW230483   2.872   0.229   2.843
 9862SOL     OW30484   2.807   2.771   6.852
 9862SOL    HW130485   2.815   2.699   6.782
 9862SOL    HW230486   2.721   2.820   6.839
 9863SOL     OW30487   3.531   6.604   2.041
 9863SOL    HW130488   3.467   6.668   1.998
 9863SOL    HW230489   3.580   6.651   2.115
 9864SOL     OW30490   3.018   0.211   3.814
 9864SOL    HW130491   2.927   0.199   3.775
 9864SOL    HW230492   3.061   0.292   3.776
 9865SOL     OW30493   1.506   6.722   4.788
 9865SOL    HW130494   1.475   6.738   4.882
 9865SOL    HW230495   1.569   6.644   4.786
 9866SOL     OW30496   5.525   4.648   6.307
 9866SOL    HW130497   5.591   4.718   6.332
 9866SOL    HW230498   5.470   4.681   6.229
 9867SOL     OW30499   0.027   1.774   0.895
 9867SOL    HW130500   7.002   1.718   0.824
 9867SOL    HW230501   0.110   1.729   0.927
 9868SOL     OW30502   0.362   3.455   4.409
 9868SOL    HW130503   0.455   3.427   4.436
 9868SOL    HW230504   0.364   3.487   4.315
 9869SOL     OW30505   0.448   2.305   1.284
 9869SOL    HW130506   0.537   2.270   1.311
 9869SOL    HW230507   0.402   2.344   1.363
 9870SOL     OW30508   4.350   5.527   2.865
 9870SOL    HW130509   4.316   5.471   2.940
 9870SOL    HW230510   4.330   5.623   2.884
 9871SOL     OW30511   6.333   4.654   5.579
 9871SOL    HW130512   6.347   4.712   5.499
 9871SOL    HW230513   6.279   4.702   5.647
 9872SOL     OW30514   3.094   5.702   5.127
 9872SOL    HW130515   3.184   5.691   5.170
 9872SOL    HW230516   3.043   5.772   5.176
 9873SOL     OW30517   2.666   2.378   0.785
 9873SOL    HW130518   2.642   2.349   0.878
 9873SOL    HW230519   2.613   2.325   0.719
 9874SOL     OW30520   6.301   3.353   5.533
 9874SOL    HW130521   6.300   3.327   5.630
 9874SOL    HW230522   6.368   3.425   5.519
 9875SOL     OW30523   6.007   5.764   1.957
 9875SOL    HW130524   5.933   5.735   2.018
 9875SOL    HW230525   5.969   5.786   1.867
 9876SOL     OW30526   5.169   0.354   4.132
 9876SOL    HW130527   5.195   0.440   4.088
 9876SOL    HW230528   5.249   0.295   4.140
 9877SOL     OW30529   6.369   4.640   4.263
 9877SOL    HW130530   6.455   4.616   4.309
 9877SOL    HW230531   6.315   4.700   4.323
 9878SOL     OW30532   2.967   3.595   5.800
 9878SOL    HW130533   2.924   3.586   5.889
 9878SOL    HW230534   3.052   3.646   5.809
 9879SOL     OW30535   5.151   5.736   5.506
 9879SOL    HW130536   5.245   5.760   5.531
 9879SOL    HW230537   5.111   5.811   5.453
 9880SOL     OW30538   3.080   1.089   0.471
 9880SOL    HW130539   3.165   1.138   0.451
 9880SOL    HW230540   3.030   1.073   0.387
 9881SOL     OW30541   0.290   1.456   4.987
 9881SOL    HW130542   0.234   1.497   4.914
 9881SOL    HW230543   0.231   1.432   5.064
 9882SOL     OW30544   2.135   3.534   5.487
 9882SOL    HW130545   2.050   3.550   5.537
 9882SOL    HW230546   2.201   3.489   5.546
 9883SOL     OW30547   0.892   6.388   1.022
 9883SOL    HW130548   0.885   6.477   1.068
 9883SOL    HW230549   0.978   6.383   0.972
 9884SOL     OW30550   4.708   1.351   0.917
 9884SOL    HW130551   4.749   1.403   0.842
 9884SOL    HW230552   4.617   1.320   0.891
 9885SOL     OW30553   0.275   2.915   4.606
 9885SOL    HW130554   0.270   3.008   4.570
 9885SOL    HW230555   0.371   2.891   4.621
 9886SOL     OW30556   1.370   5.409   0.959
 9886SOL    HW130557   1.336   5.463   0.882
 9886SOL    HW230558   1.467   5.427   0.972
 9887SOL     OW30559   4.251   6.795   0.401
 9887SOL    HW130560   4.298   6.725   0.346
 9887SOL    HW230561   4.318   6.844   0.456
 9888SOL     OW30562   5.145   5.347   2.943
 9888SOL    HW130563   5.111   5.385   3.030
 9888SOL    HW230564   5.244   5.333   2.949
 9889SOL     OW30565   6.504   4.501   1.136
 9889SOL    HW130566   6.466   4.509   1.044
 9889SOL    HW230567   6.600   4.529   1.135
 9890SOL     OW30568   0.801   2.259   1.356
 9890SOL    HW130569   0.899   2.244   1.351
 9890SOL    HW230570   0.783   2.353   1.387
 9891SOL     OW30571   6.035   3.470   1.254
 9891SOL    HW130572   6.122   3.515   1.272
 9891SOL    HW230573   5.961   3.522   1.297
 9892SOL     OW30574   1.004   5.576   3.006
 9892SOL    HW130575   0.972   5.483   3.025
 9892SOL    HW230576   1.098   5.586   3.039
 9893SOL     OW30577   6.383   0.340   2.186
 9893SOL    HW130578   6.371   0.438   2.172
 9893SOL    HW230579   6.338   0.313   2.272
 9894SOL     OW30580   2.762   2.196   6.552
 9894SOL    HW130581   2.836   2.261   6.569
 9894SOL    HW230582   2.675   2.245   6.548
 9895SOL     OW30583   5.384   3.346   5.447
 9895SOL    HW130584   5.301   3.290   5.453
 9895SOL    HW230585   5.395   3.381   5.354
 9896SOL     OW30586   4.909   1.248   0.674
 9896SOL    HW130587   5.003   1.232   0.643
 9896SOL    HW230588   4.896   1.345   0.693
 9897SOL     OW30589   5.129   6.846   2.385
 9897SOL    HW130590   5.206   6.909   2.392
 9897SOL    HW230591   5.142   6.788   2.304
 9898SOL     OW30592   0.762   4.520   5.522
 9898SOL    HW130593   0.694   4.555   5.587
 9898SOL    HW230594   0.715   4.488   5.439
 9899SOL     OW30595   0.391   5.601   2.665
 9899SOL    HW130596   0.391   5.650   2.577
 9899SOL    HW230597   0.341   5.515   2.655
 9900SOL     OW30598   2.099   3.555   2.543
 9900SOL    HW130599   2.106   3.637   2.485
 9900SOL    HW230600   2.004   3.524   2.545
 9901SOL     OW30601   2.651   0.812   0.043
 9901SOL    HW130602   2.705   0.834   0.125
 9901SOL    HW230603   2.554   0.822   0.064
 9902SOL     OW30604   4.073   4.137   1.215
 9902SOL    HW130605   4.132   4.094   1.146
 9902SOL    HW230606   3.977   4.130   1.185
 9903SOL     OW30607   5.322   1.204   1.629
 9903SOL    HW130608   5.254   1.150   1.679
 9903SOL    HW230609   5.290   1.217   1.535
 9904SOL     OW30610   0.432   3.427   6.652
 9904SOL    HW130611   0.445   3.514   6.604
 9904SOL    HW230612   0.376   3.367   6.595
 9905SOL     OW30613   1.421   0.503   6.467
 9905SOL    HW130614   1.443   0.407   6.485
 9905SOL    HW230615   1.484   0.539   6.398
 9906SOL     OW30616   2.092   3.837   0.174
 9906SOL    HW130617   1.996   3.858   0.193
 9906SOL    HW230618   2.120   3.884   0.091
 9907SOL     OW30619   1.374   0.802   2.433
 9907SOL    HW130620   1.468   0.803   2.467
 9907SOL    HW230621   1.371   0.840   2.341
 9908SOL     OW30622   0.947   2.603   6.015
 9908SOL    HW130623   0.871   2.662   5.988
 9908SOL    HW230624   1.022   2.614   5.950
 9909SOL     OW30625   3.770   0.838   2.683
 9909SOL    HW130626   3.732   0.746   2.694
 9909SOL    HW230627   3.699   0.906   2.700
 9910SOL     OW30628   1.483   5.145   1.493
 9910SOL    HW130629   1.487   5.111   1.587
 9910SOL    HW230630   1.575   5.146   1.455
 9911SOL     OW30631   3.711   5.494   2.373
 9911SOL    HW130632   3.717   5.457   2.280
 9911SOL    HW230633   3.621   5.473   2.411
 9912SOL     OW30634   4.974   1.341   2.036
 9912SOL    HW130635   4.877   1.353   2.054
 9912SOL    HW230636   5.017   1.430   2.020
 9913SOL     OW30637   5.955   2.768   1.275
 9913SOL    HW130638   5.900   2.737   1.198
 9913SOL    HW230639   6.037   2.814   1.242
 9914SOL     OW30640   0.434   6.967   5.152
 9914SOL    HW130641   0.440   0.017   5.225
 9914SOL    HW230642   0.339   6.938   5.142
 9915SOL     OW30643   5.524   2.490   4.006
 9915SOL    HW130644   5.603   2.473   3.947
 9915SOL    HW230645   5.554   2.530   4.092
 9916SOL     OW30646   1.649   2.109   3.697
 9916SOL    HW130647   1.705   2.075   3.621
 9916SOL    HW230648   1.645   2.039   3.769
 9917SOL     OW30649   3.166   3.696   4.830
 9917SOL    HW130650   3.123   3.606   4.839
 9917SOL    HW230651   3.211   3.703   4.741
 9918SOL     OW30652   0.910   2.697   2.009
 9918SOL    HW130653   0.956   2.767   2.064
 9918SOL    HW230654   0.893   2.734   1.917
 9919SOL     OW30655   2.493   6.115   2.257
 9919SOL    HW130656   2.396   6.126   2.277
 9919SOL    HW230657   2.504   6.072   2.167
 9920SOL     OW30658   3.991   0.524   2.723
 9920SOL    HW130659   4.012   0.502   2.818
 9920SOL    HW230660   4.044   0.604   2.695
 9921SOL     OW30661   4.470   0.072   5.022
 9921SOL    HW130662   4.405   0.110   4.956
 9921SOL    HW230663   4.552   0.041   4.973
 9922SOL     OW30664   4.883   4.548   1.513
 9922SOL    HW130665   4.926   4.547   1.422
 9922SOL    HW230666   4.946   4.509   1.580
 9923SOL     OW30667   6.271   3.125   0.150
 9923SOL    HW130668   6.360   3.106   0.109
 9923SOL    HW230669   6.222   3.039   0.164
 9924SOL     OW30670   4.643   1.622   3.032
 9924SOL    HW130671   4.680   1.535   3.000
 9924SOL    HW230672   4.547   1.610   3.058
 9925SOL     OW30673   1.164   4.992   3.405
 9925SOL    HW130674   1.197   4.925   3.471
 9925SOL    HW230675   1.235   5.060   3.388
 9926SOL     OW30676   3.849   2.791   0.623
 9926SOL    HW130677   3.851   2.735   0.706
 9926SOL    HW230678   3.769   2.850   0.624
 9927SOL     OW30679   1.273   1.371   1.248
 9927SOL    HW130680   1.203   1.303   1.272
 9927SOL    HW230681   1.364   1.333   1.265
 9928SOL     OW30682   5.397   3.612   3.294
 9928SOL    HW130683   5.401   3.530   3.237
 9928SOL    HW230684   5.302   3.632   3.317
 9929SOL     OW30685   3.096   3.944   4.525
 9929SOL    HW130686   3.065   3.920   4.433
 9929SOL    HW230687   3.058   3.878   4.590
 9930SOL     OW30688   0.595   0.373   6.175
 9930SOL    HW130689   0.501   0.342   6.195
 9930SOL    HW230690   0.649   0.296   6.141
 9931SOL     OW30691   0.101   5.886   4.202
 9931SOL    HW130692   0.035   5.945   4.248
 9931SOL    HW230693   0.071   5.869   4.108
 9932SOL     OW30694   2.665   1.761   6.038
 9932SOL    HW130695   2.693   1.840   6.092
 9932SOL    HW230696   2.745   1.706   6.015
 9933SOL     OW30697   1.577   0.371   3.832
 9933SOL    HW130698   1.504   0.303   3.820
 9933SOL    HW230699   1.583   0.396   3.929
 9934SOL     OW30700   5.951   1.924   0.054
 9934SOL    HW130701   5.932   1.848   7.012
 9934SOL    HW230702   6.014   1.988   0.010
 9935SOL     OW30703   3.410   0.596   0.565
 9935SOL    HW130704   3.327   0.619   0.615
 9935SOL    HW230705   3.388   0.589   0.467
 9936SOL     OW30706   6.383   4.915   0.551
 9936SOL    HW130707   6.285   4.900   0.565
 9936SOL    HW230708   6.422   4.958   0.633
 9937SOL     OW30709   1.062   1.447   2.328
 9937SOL    HW130710   1.087   1.482   2.238
 9937SOL    HW230711   1.101   1.356   2.341
 9938SOL     OW30712   5.852   6.521   4.289
 9938SOL    HW130713   5.885   6.426   4.287
 9938SOL    HW230714   5.806   6.538   4.376
 9939SOL     OW30715   3.330   2.947   0.530
 9939SOL    HW130716   3.288   2.934   0.440
 9939SOL    HW230717   3.428   2.963   0.519
 9940SOL     OW30718   1.380   0.425   2.704
 9940SOL    HW130719   1.311   0.440   2.632
 9940SOL    HW230720   1.334   0.405   2.790
 9941SOL     OW30721   2.871   5.593   5.602
 9941SOL    HW130722   2.778   5.564   5.621
 9941SOL    HW230723   2.907   5.645   5.679
 9942SOL     OW30724   4.174   5.910   2.656
 9942SOL    HW130725   4.261   5.863   2.672
 9942SOL    HW230726   4.182   5.968   2.575
 9943SOL     OW30727   1.154   4.452   6.493
 9943SOL    HW130728   1.172   4.357   6.467
 9943SOL    HW230729   1.116   4.454   6.586
 9944SOL     OW30730   0.819   4.749   6.343
 9944SOL    HW130731   0.899   4.690   6.329
 9944SOL    HW230732   0.849   4.842   6.362
 9945SOL     OW30733   5.100   4.746   6.598
 9945SOL    HW130734   5.096   4.811   6.674
 9945SOL    HW230735   5.176   4.683   6.612
 9946SOL     OW30736   6.420   0.270   3.228
 9946SOL    HW130737   6.351   0.228   3.170
 9946SOL    HW230738   6.489   0.314   3.171
 9947SOL     OW30739   3.024   2.218   4.658
 9947SOL    HW130740   3.075   2.135   4.680
 9947SOL    HW230741   3.055   2.293   4.716
 9948SOL     OW30742   6.590   5.327   4.933
 9948SOL    HW130743   6.675   5.322   4.880
 9948SOL    HW230744   6.586   5.250   4.997
 9949SOL     OW30745   6.754   5.096   3.582
 9949SOL    HW130746   6.749   5.189   3.618
 9949SOL    HW230747   6.849   5.074   3.559
 9950SOL     OW30748   6.343   5.803   6.878
 9950SOL    HW130749   6.280   5.862   6.929
 9950SOL    HW230750   6.328   5.814   6.780
 9951SOL     OW30751   1.160   2.499   3.357
 9951SOL    HW130752   1.066   2.509   3.390
 9951SOL    HW230753   1.159   2.456   3.267
 9952SOL     OW30754   2.138   3.468   0.806
 9952SOL    HW130755   2.177   3.498   0.893
 9952SOL    HW230756   2.187   3.512   0.731
 9953SOL     OW30757   5.760   2.542   3.864
 9953SOL    HW130758   5.799   2.590   3.943
 9953SOL    HW230759   5.828   2.538   3.791
 9954SOL     OW30760   1.240   0.031   4.603
 9954SOL    HW130761   1.296   6.981   4.558
 9954SOL    HW230762   1.299   0.098   4.648
 9955SOL     OW30763   3.687   3.547   6.590
 9955SOL    HW130764   3.737   3.624   6.629
 9955SOL    HW230765   3.660   3.485   6.664
 9956SOL     OW30766   0.790   4.158   3.339
 9956SOL    HW130767   0.806   4.179   3.243
 9956SOL    HW230768   0.861   4.201   3.395
 9957SOL     OW30769   6.300   0.616   2.620
 9957SOL    HW130770   6.253   0.703   2.634
 9957SOL    HW230771   6.234   0.541   2.631
 9958SOL     OW30772   2.577   6.147   6.628
 9958SOL    HW130773   2.653   6.106   6.578
 9958SOL    HW230774   2.548   6.231   6.582
 9959SOL     OW30775   4.079   3.627   3.396
 9959SOL    HW130776   3.995   3.680   3.399
 9959SOL    HW230777   4.109   3.616   3.301
 9960SOL     OW30778   1.048   6.859   1.998
 9960SOL    HW130779   1.121   6.872   1.931
 9960SOL    HW230780   0.984   6.790   1.963
 9961SOL     OW30781   1.316   5.274   3.819
 9961SOL    HW130782   1.321   5.290   3.721
 9961SOL    HW230783   1.405   5.291   3.861
 9962SOL     OW30784   3.816   0.369   2.407
 9962SOL    HW130785   3.736   0.314   2.384
 9962SOL    HW230786   3.845   0.348   2.501
 9963SOL     OW30787   2.853   2.729   5.649
 9963SOL    HW130788   2.940   2.778   5.649
 9963SOL    HW230789   2.834   2.695   5.741
 9964SOL     OW30790   4.299   5.218   6.035
 9964SOL    HW130791   4.235   5.169   6.095
 9964SOL    HW230792   4.295   5.316   6.055
 9965SOL     OW30793   3.397   4.874   5.156
 9965SOL    HW130794   3.342   4.930   5.218
 9965SOL    HW230795   3.405   4.782   5.194
 9966SOL     OW30796   1.911   5.378   2.358
 9966SOL    HW130797   1.999   5.371   2.405
 9966SOL    HW230798   1.921   5.348   2.264
 9967SOL     OW30799   5.116   5.738   2.102
 9967SOL    HW130800   5.176   5.751   2.181
 9967SOL    HW230801   5.131   5.812   2.036
 9968SOL     OW30802   3.248   5.611   6.799
 9968SOL    HW130803   3.188   5.690   6.788
 9968SOL    HW230804   3.343   5.639   6.793
 9969SOL     OW30805   0.966   3.042   3.875
 9969SOL    HW130806   0.874   3.069   3.905
 9969SOL    HW230807   0.959   2.960   3.817
 9970SOL     OW30808   6.980   4.207   2.151
 9970SOL    HW130809   6.968   4.182   2.055
 9970SOL    HW230810   6.896   4.189   2.201
 9971SOL     OW30811   2.717   4.070   0.318
 9971SOL    HW130812   2.783   4.138   0.352
 9971SOL    HW230813   2.724   4.065   0.218
 9972SOL     OW30814   3.641   4.389   0.596
 9972SOL    HW130815   3.551   4.357   0.626
 9972SOL    HW230816   3.698   4.310   0.573
 9973SOL     OW30817   4.093   1.813   5.026
 9973SOL    HW130818   4.005   1.821   4.979
 9973SOL    HW230819   4.162   1.778   4.963
 9974SOL     OW30820   6.605   3.633   3.524
 9974SOL    HW130821   6.558   3.700   3.581
 9974SOL    HW230822   6.704   3.643   3.537
 9975SOL     OW30823   0.294   4.638   6.824
 9975SOL    HW130824   0.225   4.597   6.884
 9975SOL    HW230825   0.249   4.695   6.756
 9976SOL     OW30826   6.240   5.206   5.382
 9976SOL    HW130827   6.283   5.116   5.372
 9976SOL    HW230828   6.310   5.277   5.382
 9977SOL     OW30829   6.613   5.191   5.385
 9977SOL    HW130830   6.550   5.260   5.420
 9977SOL    HW230831   6.574   5.100   5.397
 9978SOL     OW30832   6.465   1.571   4.353
 9978SOL    HW130833   6.480   1.581   4.254
 9978SOL    HW230834   6.371   1.543   4.370
 9979SOL     OW30835   6.756   4.840   6.121
 9979SOL    HW130836   6.854   4.859   6.118
 9979SOL    HW230837   6.742   4.741   6.123
 9980SOL     OW30838   1.723   0.587   6.789
 9980SOL    HW130839   1.786   0.591   6.712
 9980SOL    HW230840   1.630   0.609   6.756
 9981SOL     OW30841   2.349   2.226   1.215
 9981SOL    HW130842   2.253   2.218   1.190
 9981SOL    HW230843   2.404   2.247   1.134
 9982SOL     OW30844   1.068   1.787   2.967
 9982SOL    HW130845   1.162   1.822   2.970
 9982SOL    HW230846   1.009   1.854   2.922
 9983SOL     OW30847   1.133   1.497   1.815
 9983SOL    HW130848   1.105   1.428   1.748
 9983SOL    HW230849   1.158   1.582   1.767
 9984SOL     OW30850   0.583   0.396   1.060
 9984SOL    HW130851   0.488   0.367   1.060
 9984SOL    HW230852   0.588   0.495   1.043
 9985SOL     OW30853   3.247   0.645   1.113
 9985SOL    HW130854   3.304   0.631   1.032
 9985SOL    HW230855   3.190   0.726   1.099
 9986SOL     OW30856   4.461   4.273   6.397
 9986SOL    HW130857   4.452   4.344   6.467
 9986SOL    HW230858   4.441   4.184   6.437
 9987SOL     OW30859   5.369   2.129   2.405
 9987SOL    HW130860   5.427   2.141   2.324
 9987SOL    HW230861   5.407   2.056   2.462
 9988SOL     OW30862   0.258   5.442   4.813
 9988SOL    HW130863   0.229   5.362   4.761
 9988SOL    HW230864   0.220   5.437   4.906
 9989SOL     OW30865   5.186   3.568   3.031
 9989SOL    HW130866   5.100   3.620   3.038
 9989SOL    HW230867   5.256   3.625   2.988
 9990SOL     OW30868   2.282   6.861   3.232
 9990SOL    HW130869   2.378   6.875   3.207
 9990SOL    HW230870   2.269   6.886   3.328
 9991SOL     OW30871   1.176   3.044   4.593
 9991SOL    HW130872   1.100   3.093   4.550
 9991SOL    HW230873   1.240   3.012   4.523
 9992SOL     OW30874   4.699   3.847   0.427
 9992SOL    HW130875   4.660   3.779   0.490
 9992SOL    HW230876   4.628   3.878   0.363
 9993SOL     OW30877   4.000   6.452   2.404
 9993SOL    HW130878   3.958   6.421   2.319
 9993SOL    HW230879   3.936   6.439   2.480
 9994SOL     OW30880   6.468   4.169   4.047
 9994SOL    HW130881   6.551   4.173   4.104
 9994SOL    HW230882   6.422   4.257   4.049
 9995SOL     OW30883   3.293   0.155   2.964
 9995SOL    HW130884   3.230   0.219   3.008
 9995SOL    HW230885   3.387   0.176   2.993
 9996SOL     OW30886   3.247   2.549   1.085
 9996SOL    HW130887   3.185   2.562   1.162
 9996SOL    HW230888   3.208   2.589   1.002
 9997SOL     OW30889   4.746   1.684   1.017
 9997SOL    HW130890   4.812   1.726   1.079
 9997SOL    HW230891   4.690   1.618   1.068
 9998SOL     OW30892   6.095   3.404   2.268
 9998SOL    HW130893   6.155   3.411   2.348
 9998SOL    HW230894   6.001   3.389   2.298
 9999SOL     OW30895   6.287   4.758   4.559
 9999SOL    HW130896   6.199   4.796   4.588
 9999SOL    HW230897   6.312   4.682   4.619
10000SOL     OW30898   6.331   1.588   6.631
10000SOL    HW130899   6.342   1.490   6.614
10000SOL    HW230900   6.320   1.636   6.544
10001SOL     OW30901   5.300   0.782   1.894
10001SOL    HW130902   5.218   0.725   1.892
10001SOL    HW230903   5.285   0.861   1.953
10002SOL     OW30904   1.361   1.058   1.456
10002SOL    HW130905   1.399   1.137   1.503
10002SOL    HW230906   1.378   0.976   1.510
10003SOL     OW30907   3.851   2.103   3.428
10003SOL    HW130908   3.829   2.039   3.355
10003SOL    HW230909   3.912   2.175   3.392
10004SOL     OW30910   5.603   3.368   4.945
10004SOL    HW130911   5.600   3.458   4.902
10004SOL    HW230912   5.582   3.298   4.876
10005SOL     OW30913   4.744   5.765   3.080
10005SOL    HW130914   4.729   5.666   3.088
10005SOL    HW230915   4.687   5.812   3.147
10006SOL     OW30916   5.036   0.996   4.420
10006SOL    HW130917   5.070   0.939   4.494
10006SOL    HW230918   4.969   0.945   4.367
10007SOL     OW30919   0.934   4.174   4.853
10007SOL    HW130920   0.902   4.080   4.847
10007SOL    HW230921   0.938   4.202   4.949
10008SOL     OW30922   4.333   1.271   3.503
10008SOL    HW130923   4.373   1.204   3.565
10008SOL    HW230924   4.402   1.302   3.438
10009SOL     OW30925   1.626   3.178   2.169
10009SOL    HW130926   1.538   3.221   2.150
10009SOL    HW230927   1.692   3.247   2.197
10010SOL     OW30928   2.099   6.458   0.662
10010SOL    HW130929   2.128   6.552   0.643
10010SOL    HW230930   2.161   6.395   0.615
10011SOL     OW30931   0.569   2.348   5.454
10011SOL    HW130932   0.595   2.430   5.506
10011SOL    HW230933   0.651   2.300   5.424
10012SOL     OW30934   4.933   0.047   2.265
10012SOL    HW130935   4.973   0.029   2.175
10012SOL    HW230936   4.988   0.002   2.336
10013SOL     OW30937   1.902   1.841   4.921
10013SOL    HW130938   1.871   1.848   5.016
10013SOL    HW230939   1.994   1.880   4.914
10014SOL     OW30940   6.913   2.001   0.599
10014SOL    HW130941   6.829   2.055   0.603
10014SOL    HW230942   6.960   2.007   0.686
10015SOL     OW30943   2.931   4.578   0.694
10015SOL    HW130944   2.874   4.533   0.624
10015SOL    HW230945   2.896   4.670   0.711
10016SOL     OW30946   2.126   0.076   4.846
10016SOL    HW130947   2.037   0.038   4.873
10016SOL    HW230948   2.115   0.129   4.762
10017SOL     OW30949   1.905   1.981   2.462
10017SOL    HW130950   1.991   1.946   2.500
10017SOL    HW230951   1.869   2.053   2.522
10018SOL     OW30952   5.823   5.345   6.196
10018SOL    HW130953   5.816   5.275   6.126
10018SOL    HW230954   5.825   5.435   6.153
10019SOL     OW30955   0.945   2.373   3.470
10019SOL    HW130956   0.867   2.313   3.487
10019SOL    HW230957   1.022   2.343   3.527
10020SOL     OW30958   0.250   1.617   0.941
10020SOL    HW130959   0.268   1.530   0.896
10020SOL    HW230960   0.227   1.601   1.037
10021SOL     OW30961   0.958   2.812   1.755
10021SOL    HW130962   0.989   2.731   1.706
10021SOL    HW230963   0.960   2.892   1.694
10022SOL     OW30964   3.428   6.894   0.832
10022SOL    HW130965   3.392   6.903   0.924
10022SOL    HW230966   3.524   6.866   0.836
10023SOL     OW30967   2.089   5.444   5.735
10023SOL    HW130968   2.059   5.519   5.677
10023SOL    HW230969   2.149   5.479   5.807
10024SOL     OW30970   2.344   0.048   1.808
10024SOL    HW130971   2.290   0.114   1.756
10024SOL    HW230972   2.285   6.994   1.841
10025SOL     OW30973   1.622   1.427   1.298
10025SOL    HW130974   1.604   1.478   1.214
10025SOL    HW230975   1.560   1.348   1.304
10026SOL     OW30976   4.419   6.337   3.676
10026SOL    HW130977   4.452   6.329   3.770
10026SOL    HW230978   4.343   6.274   3.662
10027SOL     OW30979   0.995   4.468   5.094
10027SOL    HW130980   0.941   4.552   5.094
10027SOL    HW230981   0.940   4.393   5.129
10028SOL     OW30982   1.481   1.596   1.851
10028SOL    HW130983   1.569   1.628   1.886
10028SOL    HW230984   1.474   1.617   1.754
10029SOL     OW30985   3.152   1.921   3.790
10029SOL    HW130986   3.112   1.898   3.702
10029SOL    HW230987   3.204   1.843   3.825
10030SOL     OW30988   2.583   6.891   4.411
10030SOL    HW130989   2.612   6.871   4.317
10030SOL    HW230990   2.604   6.986   4.433
10031SOL     OW30991   5.804   4.835   3.448
10031SOL    HW130992   5.864   4.844   3.368
10031SOL    HW230993   5.722   4.890   3.435
10032SOL     OW30994   3.404   0.953   5.104
10032SOL    HW130995   3.468   1.027   5.127
10032SOL    HW230996   3.395   0.892   5.182
10033SOL     OW30997   4.954   2.241   4.339
10033SOL    HW130998   4.932   2.255   4.435
10033SOL    HW230999   5.028   2.303   4.312
10034SOL     OW31000   3.283   6.978   3.981
10034SOL    HW131001   3.347   0.036   3.987
10034SOL    HW231002   3.191   7.008   4.005
10035SOL     OW31003   0.338   4.566   2.150
10035SOL    HW131004   0.423   4.606   2.114
10035SOL    HW231005   0.339   4.569   2.250
10036SOL     OW31006   5.592   1.055   1.228
10036SOL    HW131007   5.654   1.097   1.294
10036SOL    HW231008   5.634   1.054   1.138
10037SOL     OW31009   6.076   1.479   1.245
10037SOL    HW131010   6.034   1.440   1.327
10037SOL    HW231011   6.065   1.416   1.169
10038SOL     OW31012   4.272   1.232   6.464
10038SOL    HW131013   4.310   1.156   6.411
10038SOL    HW231014   4.175   1.214   6.484
10039SOL     OW31015   3.109   0.297   4.518
10039SOL    HW131016   3.160   0.277   4.601
10039SOL    HW231017   3.124   0.224   4.451
10040SOL     OW31018   4.054   5.757   6.363
10040SOL    HW131019   4.149   5.790   6.367
10040SOL    HW231020   3.997   5.825   6.318
10041SOL     OW31021   4.398   5.829   6.190
10041SOL    HW131022   4.493   5.813   6.163
10041SOL    HW231023   4.390   5.819   6.290
10042SOL     OW31024   1.041   1.550   4.565
10042SOL    HW131025   1.038   1.469   4.507
10042SOL    HW231026   1.043   1.632   4.508
10043SOL     OW31027   6.215   1.877   4.853
10043SOL    HW131028   6.252   1.945   4.791
10043SOL    HW231029   6.236   1.902   4.947
10044SOL     OW31030   3.061   1.438   5.189
10044SOL    HW131031   3.034   1.500   5.263
10044SOL    HW231032   3.158   1.449   5.170
10045SOL     OW31033   3.866   6.864   3.505
10045SOL    HW131034   3.821   6.902   3.586
10045SOL    HW231035   3.829   6.907   3.423
10046SOL     OW31036   2.447   3.972   0.837
10046SOL    HW131037   2.377   3.912   0.876
10046SOL    HW231038   2.437   4.064   0.875
10047SOL     OW31039   0.083   3.806   5.514
10047SOL    HW131040   7.014   3.836   5.478
10047SOL    HW231041   0.135   3.885   5.547
10048SOL     OW31042   6.202   0.913   2.677
10048SOL    HW131043   6.204   0.944   2.772
10048SOL    HW231044   6.178   0.990   2.617
10049SOL     OW31045   0.211   1.415   6.835
10049SOL    HW131046   0.169   1.350   6.771
10049SOL    HW231047   0.301   1.443   6.799
10050SOL     OW31048   5.532   3.667   5.275
10050SOL    HW131049   5.540   3.573   5.242
10050SOL    HW231050   5.436   3.696   5.269
10051SOL     OW31051   5.595   3.750   5.930
10051SOL    HW131052   5.525   3.818   5.951
10051SOL    HW231053   5.554   3.659   5.928
10052SOL     OW31054   1.600   2.151   3.077
10052SOL    HW131055   1.687   2.197   3.091
10052SOL    HW231056   1.577   2.151   2.980
10053SOL     OW31057   3.813   5.704   3.159
10053SOL    HW131058   3.869   5.736   3.235
10053SOL    HW231059   3.761   5.623   3.187
10054SOL     OW31060   5.818   5.727   6.698
10054SOL    HW131061   5.830   5.631   6.673
10054SOL    HW231062   5.731   5.739   6.745
10055SOL     OW31063   5.676   1.541   4.826
10055SOL    HW131064   5.577   1.543   4.807
10055SOL    HW231065   5.696   1.600   4.904
10056SOL     OW31066   5.182   4.333   3.033
10056SOL    HW131067   5.238   4.359   3.111
10056SOL    HW231068   5.176   4.410   2.969
10057SOL     OW31069   4.426   2.622   5.463
10057SOL    HW131070   4.520   2.642   5.436
10057SOL    HW231071   4.372   2.706   5.463
10058SOL     OW31072   0.289   3.337   5.044
10058SOL    HW131073   0.229   3.375   5.115
10058SOL    HW231074   0.308   3.242   5.065
10059SOL     OW31075   6.456   0.973   0.922
10059SOL    HW131076   6.443   1.059   0.971
10059SOL    HW231077   6.493   0.904   0.983
10060SOL     OW31078   1.932   2.686   2.095
10060SOL    HW131079   1.954   2.672   1.998
10060SOL    HW231080   2.000   2.747   2.136
10061SOL     OW31081   4.593   0.974   4.018
10061SOL    HW131082   4.531   1.050   4.037
10061SOL    HW231083   4.605   0.965   3.919
10062SOL     OW31084   5.846   0.754   3.701
10062SOL    HW131085   5.903   0.673   3.714
10062SOL    HW231086   5.855   0.785   3.606
10063SOL     OW31087   2.778   0.934   4.186
10063SOL    HW131088   2.852   0.882   4.144
10063SOL    HW231089   2.721   0.873   4.240
10064SOL     OW31090   4.901   6.745   0.128
10064SOL    HW131091   4.873   6.700   0.213
10064SOL    HW231092   4.907   6.844   0.143
10065SOL     OW31093   3.315   0.413   2.670
10065SOL    HW131094   3.368   0.468   2.606
10065SOL    HW231095   3.350   0.426   2.762
10066SOL     OW31096   0.222   2.657   4.476
10066SOL    HW131097   0.220   2.737   4.536
10066SOL    HW231098   0.133   2.645   4.432
10067SOL     OW31099   0.504   3.955   5.256
10067SOL    HW131100   0.455   3.957   5.343
10067SOL    HW231101   0.518   4.048   5.223
10068SOL     OW31102   0.311   3.435   3.593
10068SOL    HW131103   0.373   3.358   3.580
10068SOL    HW231104   0.251   3.417   3.671
10069SOL     OW31105   3.157   5.432   2.248
10069SOL    HW131106   3.183   5.346   2.292
10069SOL    HW231107   3.207   5.442   2.162
10070SOL     OW31108   0.393   5.992   5.327
10070SOL    HW131109   0.376   6.078   5.278
10070SOL    HW231110   0.470   6.005   5.390
10071SOL     OW31111   6.518   6.313   4.684
10071SOL    HW131112   6.603   6.364   4.671
10071SOL    HW231113   6.470   6.305   4.597
10072SOL     OW31114   6.591   6.376   4.203
10072SOL    HW131115   6.554   6.458   4.158
10072SOL    HW231116   6.674   6.401   4.254
10073SOL     OW31117   6.059   5.272   3.950
10073SOL    HW131118   6.014   5.239   4.034
10073SOL    HW231119   5.990   5.287   3.880
10074SOL     OW31120   2.151   0.332   5.470
10074SOL    HW131121   2.071   0.293   5.424
10074SOL    HW231122   2.228   0.269   5.463
10075SOL     OW31123   1.824   2.667   2.672
10075SOL    HW131124   1.832   2.691   2.576
10075SOL    HW231125   1.754   2.596   2.683
10076SOL     OW31126   6.014   6.440   3.760
10076SOL    HW131127   5.983   6.369   3.822
10076SOL    HW231128   6.011   6.529   3.806
10077SOL     OW31129   4.345   3.111   6.980
10077SOL    HW131130   4.317   3.093   6.886
10077SOL    HW231131   4.346   3.026   0.013
10078SOL     OW31132   6.962   5.741   3.682
10078SOL    HW131133   6.922   5.833   3.688
10078SOL    HW231134   6.890   5.673   3.687
10079SOL     OW31135   5.787   2.904   3.437
10079SOL    HW131136   5.864   2.872   3.381
10079SOL    HW231137   5.820   2.964   3.509
10080SOL     OW31138   4.975   0.556   5.671
10080SOL    HW131139   4.997   0.561   5.769
10080SOL    HW231140   5.037   0.614   5.620
10081SOL     OW31141   6.941   1.084   0.169
10081SOL    HW131142   7.014   1.116   0.109
10081SOL    HW231143   6.959   0.990   0.197
10082SOL     OW31144   0.454   5.383   1.511
10082SOL    HW131145   0.538   5.330   1.498
10082SOL    HW231146   0.423   5.419   1.424
10083SOL     OW31147   4.146   0.373   3.422
10083SOL    HW131148   4.221   0.347   3.482
10083SOL    HW231149   4.181   0.434   3.350
10084SOL     OW31150   2.004   0.176   6.053
10084SOL    HW131151   2.073   0.119   6.008
10084SOL    HW231152   1.993   0.261   6.002
10085SOL     OW31153   3.146   6.122   0.904
10085SOL    HW131154   3.207   6.109   0.982
10085SOL    HW231155   3.119   6.218   0.898
10086SOL     OW31156   5.390   6.284   2.257
10086SOL    HW131157   5.420   6.252   2.347
10086SOL    HW231158   5.469   6.320   2.207
10087SOL     OW31159   6.410   5.700   4.001
10087SOL    HW131160   6.310   5.702   4.006
10087SOL    HW231161   6.439   5.624   3.943
10088SOL     OW31162   0.020   6.857   2.146
10088SOL    HW131163   0.085   6.809   2.206
10088SOL    HW231164   6.947   6.823   2.163
10089SOL     OW31165   2.460   2.121   3.389
10089SOL    HW131166   2.464   2.045   3.454
10089SOL    HW231167   2.489   2.088   3.298
10090SOL     OW31168   0.728   5.063   1.824
10090SOL    HW131169   0.781   5.071   1.739
10090SOL    HW231170   0.786   5.029   1.897
10091SOL     OW31171   6.774   5.450   6.274
10091SOL    HW131172   6.770   5.457   6.174
10091SOL    HW231173   6.682   5.459   6.311
10092SOL     OW31174   2.694   2.935   5.517
10092SOL    HW131175   2.759   2.865   5.547
10092SOL    HW231176   2.608   2.891   5.492
10093SOL     OW31177   4.772   3.348   5.425
10093SOL    HW131178   4.854   3.299   5.455
10093SOL    HW231179   4.746   3.317   5.333
10094SOL     OW31180   3.013   5.690   1.591
10094SOL    HW131181   3.019   5.786   1.564
10094SOL    HW231182   3.091   5.640   1.554
10095SOL     OW31183   5.769   1.651   4.344
10095SOL    HW131184   5.787   1.676   4.439
10095SOL    HW231185   5.769   1.552   4.334
10096SOL     OW31186   3.591   5.691   2.978
10096SOL    HW131187   3.646   5.709   3.060
10096SOL    HW231188   3.648   5.642   2.912
10097SOL     OW31189   1.655   1.927   6.963
10097SOL    HW131190   1.677   1.840   7.007
10097SOL    HW231191   1.579   1.913   6.898
10098SOL     OW31192   3.366   0.002   5.315
10098SOL    HW131193   3.290   6.956   5.319
10098SOL    HW231194   3.357   0.068   5.390
10099SOL     OW31195   1.230   5.142   1.719
10099SOL    HW131196   1.327   5.129   1.737
10099SOL    HW231197   1.186   5.053   1.708
10100SOL     OW31198   5.128   5.971   5.848
10100SOL    HW131199   5.143   5.874   5.867
10100SOL    HW231200   5.055   6.007   5.906
10101SOL     OW31201   6.436   3.033   2.012
10101SOL    HW131202   6.454   3.119   1.964
10101SOL    HW231203   6.439   2.957   1.947
10102SOL     OW31204   6.820   1.333   2.025
10102SOL    HW131205   6.740   1.389   2.045
10102SOL    HW231206   6.903   1.381   2.054
10103SOL     OW31207   2.982   0.499   5.661
10103SOL    HW131208   2.946   0.410   5.633
10103SOL    HW231209   2.966   0.566   5.589
10104SOL     OW31210   1.325   2.182   5.142
10104SOL    HW131211   1.414   2.199   5.101
10104SOL    HW231212   1.283   2.102   5.100
10105SOL     OW31213   2.234   0.537   6.218
10105SOL    HW131214   2.192   0.600   6.284
10105SOL    HW231215   2.192   0.447   6.227
10106SOL     OW31216   4.036   6.728   0.932
10106SOL    HW131217   3.961   6.665   0.916
10106SOL    HW231218   4.117   6.699   0.880
10107SOL     OW31219   5.284   1.499   5.470
10107SOL    HW131220   5.291   1.399   5.466
10107SOL    HW231221   5.211   1.525   5.533
10108SOL     OW31222   6.568   0.787   0.431
10108SOL    HW131223   6.559   0.733   0.347
10108SOL    HW231224   6.605   0.729   0.504
10109SOL     OW31225   6.878   1.333   0.298
10109SOL    HW131226   6.939   1.262   0.262
10109SOL    HW231227   6.805   1.351   0.233
10110SOL     OW31228   5.146   4.948   3.862
10110SOL    HW131229   5.072   4.938   3.795
10110SOL    HW231230   5.197   4.863   3.869
10111SOL     OW31231   6.219   3.625   3.903
10111SOL    HW131232   6.276   3.645   3.983
10111SOL    HW231233   6.271   3.569   3.838
10112SOL     OW31234   6.104   3.615   3.420
10112SOL    HW131235   6.118   3.534   3.477
10112SOL    HW231236   6.047   3.591   3.342
10113SOL     OW31237   4.168   6.914   7.018
10113SOL    HW131238   4.093   6.942   0.060
10113SOL    HW231239   4.178   6.815   0.002
10114SOL     OW31240   4.159   2.115   2.297
10114SOL    HW131241   4.075   2.121   2.243
10114SOL    HW231242   4.235   2.154   2.244
10115SOL     OW31243   4.744   2.015   5.282
10115SOL    HW131244   4.651   1.989   5.256
10115SOL    HW231245   4.787   2.066   5.207
10116SOL     OW31246   1.114   0.553   0.018
10116SOL    HW131247   1.105   0.486   0.092
10116SOL    HW231248   1.028   0.602   0.006
10117SOL     OW31249   6.428   6.406   5.997
10117SOL    HW131250   6.395   6.313   5.980
10117SOL    HW231251   6.402   6.434   6.089
10118SOL     OW31252   2.288   4.526   3.741
10118SOL    HW131253   2.278   4.427   3.744
10118SOL    HW231254   2.302   4.555   3.646
10119SOL     OW31255   6.494   5.294   4.083
10119SOL    HW131256   6.540   5.378   4.054
10119SOL    HW231257   6.499   5.287   4.183
10120SOL     OW31258   1.837   3.464   4.404
10120SOL    HW131259   1.845   3.381   4.348
10120SOL    HW231260   1.812   3.439   4.497
10121SOL     OW31261   5.380   4.031   6.596
10121SOL    HW131262   5.454   4.024   6.530
10121SOL    HW231263   5.380   4.121   6.639
10122SOL     OW31264   5.512   2.495   3.091
10122SOL    HW131265   5.453   2.576   3.085
10122SOL    HW231266   5.455   2.413   3.092
10123SOL     OW31267   5.843   5.795   0.912
10123SOL    HW131268   5.763   5.844   0.949
10123SOL    HW231269   5.828   5.696   0.921
10124SOL     OW31270   1.547   4.641   0.567
10124SOL    HW131271   1.479   4.639   0.641
10124SOL    HW231272   1.549   4.732   0.526
10125SOL     OW31273   1.897   1.619   1.155
10125SOL    HW131274   1.979   1.657   1.198
10125SOL    HW231275   1.906   1.520   1.148
10126SOL     OW31276   0.357   0.276   0.544
10126SOL    HW131277   0.270   0.282   0.593
10126SOL    HW231278   0.343   0.230   0.456
10127SOL     OW31279   2.113   3.550   0.289
10127SOL    HW131280   2.039   3.492   0.323
10127SOL    HW231281   2.075   3.634   0.251
10128SOL     OW31282   3.353   0.834   6.428
10128SOL    HW131283   3.268   0.863   6.472
10128SOL    HW231284   3.356   0.869   6.335
10129SOL     OW31285   6.320   1.524   2.747
10129SOL    HW131286   6.284   1.449   2.692
10129SOL    HW231287   6.262   1.537   2.828
10130SOL     OW31288   1.141   3.205   1.275
10130SOL    HW131289   1.163   3.167   1.185
10130SOL    HW231290   1.157   3.304   1.274
10131SOL     OW31291   2.225   0.018   4.311
10131SOL    HW131292   2.283   0.038   4.390
10131SOL    HW231293   2.265   6.962   4.258
10132SOL     OW31294   2.363   0.517   3.515
10132SOL    HW131295   2.295   0.537   3.445
10132SOL    HW231296   2.435   0.460   3.476
10133SOL     OW31297   4.821   6.679   0.802
10133SOL    HW131298   4.910   6.722   0.817
10133SOL    HW231299   4.821   6.587   0.842
10134SOL     OW31300   6.087   1.406   2.616
10134SOL    HW131301   6.024   1.481   2.634
10134SOL    HW231302   6.092   1.389   2.518
10135SOL     OW31303   5.151   2.808   3.513
10135SOL    HW131304   5.189   2.786   3.603
10135SOL    HW231305   5.125   2.905   3.511
10136SOL     OW31306   5.145   1.916   2.402
10136SOL    HW131307   5.214   1.987   2.413
10136SOL    HW231308   5.058   1.948   2.440
10137SOL     OW31309   0.524   4.541   4.945
10137SOL    HW131310   0.485   4.570   4.857
10137SOL    HW231311   0.453   4.539   5.015
10138SOL     OW31312   5.009   3.582   0.732
10138SOL    HW131313   5.018   3.613   0.826
10138SOL    HW231314   4.934   3.516   0.725
10139SOL     OW31315   2.909   3.340   4.091
10139SOL    HW131316   2.910   3.290   4.005
10139SOL    HW231317   2.905   3.275   4.167
10140SOL     OW31318   0.393   6.375   0.110
10140SOL    HW131319   0.484   6.363   0.070
10140SOL    HW231320   0.386   6.466   0.151
10141SOL     OW31321   4.530   1.215   5.340
10141SOL    HW131322   4.516   1.301   5.389
10141SOL    HW231323   4.521   1.139   5.404
10142SOL     OW31324   6.112   6.585   5.659
10142SOL    HW131325   6.015   6.564   5.672
10142SOL    HW231326   6.123   6.680   5.629
10143SOL     OW31327   5.436   2.298   1.140
10143SOL    HW131328   5.356   2.240   1.131
10143SOL    HW231329   5.490   2.269   1.219
10144SOL     OW31330   4.416   6.953   6.342
10144SOL    HW131331   4.323   6.972   6.373
10144SOL    HW231332   4.470   0.018   6.343
10145SOL     OW31333   3.216   5.795   2.880
10145SOL    HW131334   3.231   5.735   2.959
10145SOL    HW231335   3.151   5.753   2.817
10146SOL     OW31336   5.708   4.378   4.290
10146SOL    HW131337   5.668   4.296   4.250
10146SOL    HW231338   5.691   4.456   4.230
10147SOL     OW31339   4.718   3.813   6.583
10147SOL    HW131340   4.710   3.755   6.664
10147SOL    HW231341   4.702   3.759   6.501
10148SOL     OW31342   5.911   5.163   6.966
10148SOL    HW131343   5.895   5.204   0.037
10148SOL    HW231344   5.824   5.134   6.927
10149SOL     OW31345   5.569   3.817   1.344
10149SOL    HW131346   5.469   3.823   1.343
10149SOL    HW231347   5.600   3.791   1.435
10150SOL     OW31348   4.136   2.922   1.728
10150SOL    HW131349   4.063   2.950   1.791
10150SOL    HW231350   4.223   2.959   1.759
10151SOL     OW31351   0.995   6.695   0.251
10151SOL    HW131352   0.951   6.752   0.181
10151SOL    HW231353   1.011   6.603   0.214
10152SOL     OW31354   7.019   6.251   3.436
10152SOL    HW131355   0.009   6.152   3.424
10152SOL    HW231356   0.089   6.291   3.459
10153SOL     OW31357   5.054   6.258   3.667
10153SOL    HW131358   5.055   6.166   3.708
10153SOL    HW231359   5.057   6.326   3.740
10154SOL     OW31360   3.749   6.356   5.110
10154SOL    HW131361   3.661   6.314   5.131
10154SOL    HW231362   3.822   6.289   5.124
10155SOL     OW31363   4.995   2.134   6.146
10155SOL    HW131364   5.074   2.137   6.085
10155SOL    HW231365   5.000   2.211   6.210
10156SOL     OW31366   5.955   0.569   2.007
10156SOL    HW131367   6.002   0.488   1.972
10156SOL    HW231368   6.022   0.639   2.029
10157SOL     OW31369   6.960   2.390   0.459
10157SOL    HW131370   6.889   2.329   0.493
10157SOL    HW231371   0.024   2.378   0.512
10158SOL     OW31372   6.223   6.110   1.197
10158SOL    HW131373   6.212   6.059   1.282
10158SOL    HW231374   6.285   6.061   1.136
10159SOL     OW31375   3.625   2.824   1.773
10159SOL    HW131376   3.663   2.734   1.752
10159SOL    HW231377   3.592   2.866   1.689
10160SOL     OW31378   1.333   3.367   3.168
10160SOL    HW131379   1.270   3.443   3.153
10160SOL    HW231380   1.366   3.370   3.263
10161SOL     OW31381   3.601   4.275   0.144
10161SOL    HW131382   3.629   4.341   0.074
10161SOL    HW231383   3.509   4.298   0.176
10162SOL     OW31384   2.818   5.470   0.482
10162SOL    HW131385   2.865   5.406   0.543
10162SOL    HW231386   2.720   5.470   0.504
10163SOL     OW31387   0.682   4.004   6.861
10163SOL    HW131388   0.676   3.911   6.824
10163SOL    HW231389   0.776   4.037   6.852
10164SOL     OW31390   6.160   3.464   5.121
10164SOL    HW131391   6.207   3.378   5.139
10164SOL    HW231392   6.071   3.445   5.079
10165SOL     OW31393   6.345   1.886   3.351
10165SOL    HW131394   6.266   1.922   3.302
10165SOL    HW231395   6.411   1.848   3.286
10166SOL     OW31396   2.285   1.909   1.609
10166SOL    HW131397   2.330   1.819   1.609
10166SOL    HW231398   2.301   1.954   1.521
10167SOL     OW31399   0.591   5.369   0.383
10167SOL    HW131400   0.628   5.276   0.387
10167SOL    HW231401   0.594   5.411   0.474
10168SOL     OW31402   0.057   2.669   5.969
10168SOL    HW131403   0.079   2.628   5.881
10168SOL    HW231404   0.128   2.735   5.994
10169SOL     OW31405   0.308   3.917   3.789
10169SOL    HW131406   0.239   3.872   3.732
10169SOL    HW231407   0.397   3.910   3.745
10170SOL     OW31408   6.598   4.983   6.315
10170SOL    HW131409   6.655   4.960   6.236
10170SOL    HW231410   6.650   5.043   6.376
10171SOL     OW31411   0.814   2.664   4.779
10171SOL    HW131412   0.816   2.629   4.686
10171SOL    HW231413   0.817   2.764   4.778
10172SOL     OW31414   0.814   6.372   4.232
10172SOL    HW131415   0.792   6.280   4.199
10172SOL    HW231416   0.741   6.404   4.292
10173SOL     OW31417   2.193   3.303   0.529
10173SOL    HW131418   2.218   3.242   0.604
10173SOL    HW231419   2.095   3.321   0.532
10174SOL     OW31420   5.058   4.763   3.623
10174SOL    HW131421   5.155   4.747   3.601
10174SOL    HW231422   5.025   4.842   3.571
10175SOL     OW31423   5.087   2.599   3.367
10175SOL    HW131424   5.109   2.685   3.413
10175SOL    HW231425   5.103   2.523   3.430
10176SOL     OW31426   6.752   2.859   5.572
10176SOL    HW131427   6.847   2.835   5.590
10176SOL    HW231428   6.744   2.958   5.561
10177SOL     OW31429   1.941   0.821   0.347
10177SOL    HW131430   1.956   0.823   0.446
10177SOL    HW231431   1.860   0.876   0.325
10178SOL     OW31432   0.638   0.768   0.509
10178SOL    HW131433   0.689   0.709   0.446
10178SOL    HW231434   0.619   0.717   0.593
10179SOL     OW31435   0.637   3.081   6.693
10179SOL    HW131436   0.671   3.038   6.610
10179SOL    HW231437   0.553   3.036   6.723
10180SOL     OW31438   4.898   0.452   0.399
10180SOL    HW131439   4.847   0.466   0.314
10180SOL    HW231440   4.981   0.399   0.380
10181SOL     OW31441   0.342   2.202   1.028
10181SOL    HW131442   0.355   2.259   0.946
10181SOL    HW231443   0.379   2.249   1.108
10182SOL     OW31444   5.155   0.831   0.255
10182SOL    HW131445   5.140   0.737   0.224
10182SOL    HW231446   5.223   0.832   0.328
10183SOL     OW31447   5.867   2.806   5.580
10183SOL    HW131448   5.800   2.755   5.634
10183SOL    HW231449   5.862   2.777   5.484
10184SOL     OW31450   4.260   2.230   6.609
10184SOL    HW131451   4.245   2.216   6.707
10184SOL    HW231452   4.334   2.171   6.577
10185SOL     OW31453   6.095   5.976   2.114
10185SOL    HW131454   6.046   5.917   2.051
10185SOL    HW231455   6.104   5.930   2.203
10186SOL     OW31456   5.158   4.017   4.549
10186SOL    HW131457   5.160   4.116   4.562
10186SOL    HW231458   5.248   3.979   4.571
10187SOL     OW31459   1.141   3.795   6.810
10187SOL    HW131460   1.077   3.732   6.767
10187SOL    HW231461   1.223   3.804   6.752
10188SOL     OW31462   2.871   5.184   6.771
10188SOL    HW131463   2.848   5.170   6.867
10188SOL    HW231464   2.826   5.267   6.738
10189SOL     OW31465   0.709   0.794   6.016
10189SOL    HW131466   0.729   0.862   6.087
10189SOL    HW231467   0.610   0.780   6.011
10190SOL     OW31468   4.132   2.689   1.403
10190SOL    HW131469   4.205   2.622   1.405
10190SOL    HW231470   4.066   2.669   1.475
10191SOL     OW31471   5.014   5.346   6.691
10191SOL    HW131472   4.968   5.266   6.652
10191SOL    HW231473   5.110   5.324   6.709
10192SOL     OW31474   3.755   1.331   5.025
10192SOL    HW131475   3.840   1.300   5.067
10192SOL    HW231476   3.771   1.355   4.929
10193SOL     OW31477   2.971   3.369   2.630
10193SOL    HW131478   2.952   3.322   2.544
10193SOL    HW231479   3.067   3.398   2.631
10194SOL     OW31480   4.780   0.396   4.975
10194SOL    HW131481   4.690   0.385   5.018
10194SOL    HW231482   4.771   0.451   4.892
10195SOL     OW31483   6.420   6.852   0.931
10195SOL    HW131484   6.326   6.867   0.901
10195SOL    HW231485   6.443   6.915   1.005
10196SOL     OW31486   4.860   2.072   3.971
10196SOL    HW131487   4.832   2.167   3.957
10196SOL    HW231488   4.854   2.023   3.884
10197SOL     OW31489   5.165   2.405   4.267
10197SOL    HW131490   5.158   2.463   4.186
10197SOL    HW231491   5.221   2.325   4.247
10198SOL     OW31492   3.680   0.298   1.493
10198SOL    HW131493   3.630   0.215   1.467
10198SOL    HW231494   3.668   0.314   1.591
10199SOL     OW31495   1.020   1.923   0.147
10199SOL    HW131496   1.031   1.892   0.242
10199SOL    HW231497   1.078   2.002   0.131
10200SOL     OW31498   5.006   3.255   5.520
10200SOL    HW131499   5.087   3.210   5.484
10200SOL    HW231500   5.029   3.349   5.547
10201SOL     OW31501   0.631   6.480   0.637
10201SOL    HW131502   0.620   6.480   0.737
10201SOL    HW231503   0.707   6.541   0.613
10202SOL     OW31504   2.282   4.492   7.010
10202SOL    HW131505   2.229   4.543   6.943
10202SOL    HW231506   2.221   4.448   0.056
10203SOL     OW31507   0.392   2.723   1.745
10203SOL    HW131508   0.333   2.803   1.757
10203SOL    HW231509   0.396   2.672   1.831
10204SOL     OW31510   3.765   5.780   0.043
10204SOL    HW131511   3.720   5.862   0.077
10204SOL    HW231512   3.763   5.780   6.962
10205SOL     OW31513   3.191   1.250   2.184
10205SOL    HW131514   3.195   1.308   2.266
10205SOL    HW231515   3.095   1.241   2.155
10206SOL     OW31516   5.930   6.812   6.594
10206SOL    HW131517   5.980   6.894   6.565
10206SOL    HW231518   5.861   6.838   6.661
10207SOL     OW31519   1.917   1.267   6.696
10207SOL    HW131520   1.849   1.264   6.770
10207SOL    HW231521   1.882   1.218   6.616
10208SOL     OW31522   6.295   4.355   3.522
10208SOL    HW131523   6.323   4.409   3.601
10208SOL    HW231524   6.376   4.324   3.472
10209SOL     OW31525   0.163   0.118   6.302
10209SOL    HW131526   0.069   0.118   6.270
10209SOL    HW231527   0.169   0.065   6.387
10210SOL     OW31528   5.388   6.485   1.111
10210SOL    HW131529   5.484   6.462   1.125
10210SOL    HW231530   5.380   6.573   1.066
10211SOL     OW31531   3.932   6.147   4.987
10211SOL    HW131532   3.926   6.047   4.981
10211SOL    HW231533   3.923   6.187   4.896
10212SOL     OW31534   0.013   6.989   5.290
10212SOL    HW131535   6.956   7.014   5.229
10212SOL    HW231536   0.090   6.958   5.234
10213SOL     OW31537   5.269   3.226   2.473
10213SOL    HW131538   5.258   3.298   2.541
10213SOL    HW231539   5.265   3.137   2.518
10214SOL     OW31540   1.017   1.914   2.300
10214SOL    HW131541   0.957   1.838   2.326
10214SOL    HW231542   1.100   1.911   2.355
10215SOL     OW31543   3.169   2.975   3.791
10215SOL    HW131544   3.186   3.025   3.705
10215SOL    HW231545   3.083   3.006   3.831
10216SOL     OW31546   0.795   0.006   1.196
10216SOL    HW131547   0.697   0.024   1.187
10216SOL    HW231548   0.839   0.017   1.107
10217SOL     OW31549   2.154   2.124   3.496
10217SOL    HW131550   2.099   2.064   3.554
10217SOL    HW231551   2.217   2.069   3.441
10218SOL     OW31552   1.541   0.799   1.928
10218SOL    HW131553   1.488   0.714   1.929
10218SOL    HW231554   1.638   0.776   1.919
10219SOL     OW31555   0.222   3.253   2.217
10219SOL    HW131556   0.198   3.258   2.314
10219SOL    HW231557   0.236   3.157   2.191
10220SOL     OW31558   4.202   1.705   1.179
10220SOL    HW131559   4.174   1.646   1.104
10220SOL    HW231560   4.273   1.768   1.148
10221SOL     OW31561   1.782   3.715   4.601
10221SOL    HW131562   1.817   3.750   4.514
10221SOL    HW231563   1.842   3.643   4.634
10222SOL     OW31564   2.825   3.549   5.533
10222SOL    HW131565   2.870   3.510   5.453
10222SOL    HW231566   2.882   3.536   5.613
10223SOL     OW31567   2.111   5.992   6.575
10223SOL    HW131568   2.111   5.946   6.664
10223SOL    HW231569   2.185   5.955   6.518
10224SOL     OW31570   6.898   1.445   5.116
10224SOL    HW131571   6.858   1.438   5.024
10224SOL    HW231572   6.832   1.489   5.177
10225SOL     OW31573   2.090   6.479   5.774
10225SOL    HW131574   2.160   6.513   5.836
10225SOL    HW231575   2.025   6.422   5.824
10226SOL     OW31576   2.175   0.694   6.427
10226SOL    HW131577   2.113   0.762   6.466
10226SOL    HW231578   2.229   0.652   6.500
10227SOL     OW31579   5.295   4.624   0.797
10227SOL    HW131580   5.206   4.643   0.838
10227SOL    HW231581   5.342   4.553   0.849
10228SOL     OW31582   0.896   6.490   1.696
10228SOL    HW131583   0.937   6.535   1.617
10228SOL    HW231584   0.849   6.407   1.667
10229SOL     OW31585   1.397   1.675   4.250
10229SOL    HW131586   1.335   1.600   4.228
10229SOL    HW231587   1.490   1.650   4.224
10230SOL     OW31588   6.391   6.931   2.904
10230SOL    HW131589   6.473   6.984   2.882
10230SOL    HW231590   6.331   6.930   2.824
10231SOL     OW31591   6.245   5.246   4.834
10231SOL    HW131592   6.195   5.326   4.868
10231SOL    HW231593   6.294   5.270   4.750
10232SOL     OW31594   2.836   1.076   4.466
10232SOL    HW131595   2.760   1.054   4.405
10232SOL    HW231596   2.827   1.171   4.497
10233SOL     OW31597   4.959   3.441   5.211
10233SOL    HW131598   4.903   3.479   5.137
10233SOL    HW231599   4.911   3.453   5.298
10234SOL     OW31600   5.507   0.130   0.031
10234SOL    HW131601   5.537   0.219   7.017
10234SOL    HW231602   5.495   0.068   6.973
10235SOL     OW31603   3.808   3.033   0.420
10235SOL    HW131604   3.712   3.043   0.394
10235SOL    HW231605   3.866   3.053   0.340
10236SOL     OW31606   2.208   0.847   1.500
10236SOL    HW131607   2.137   0.891   1.555
10236SOL    HW231608   2.169   0.820   1.411
10237SOL     OW31609   6.999   4.609   0.311
10237SOL    HW131610   6.904   4.635   0.295
10237SOL    HW231611   7.011   4.513   0.285
10238SOL     OW31612   3.200   4.045   3.001
10238SOL    HW131613   3.265   4.080   3.069
10238SOL    HW231614   3.150   3.968   3.040
10239SOL     OW31615   2.181   4.370   5.661
10239SOL    HW131616   2.189   4.466   5.688
10239SOL    HW231617   2.243   4.352   5.585
10240SOL     OW31618   1.595   4.753   2.775
10240SOL    HW131619   1.665   4.820   2.749
10240SOL    HW231620   1.520   4.757   2.708
10241SOL     OW31621   6.632   0.536   2.309
10241SOL    HW131622   6.706   0.485   2.265
10241SOL    HW231623   6.594   0.481   2.384
10242SOL     OW31624   6.644   1.571   0.297
10242SOL    HW131625   6.642   1.498   0.229
10242SOL    HW231626   6.596   1.540   0.380
10243SOL     OW31627   1.534   5.284   1.951
10243SOL    HW131628   1.558   5.261   2.045
10243SOL    HW231629   1.448   5.335   1.950
10244SOL     OW31630   1.476   4.223   0.701
10244SOL    HW131631   1.384   4.203   0.734
10244SOL    HW231632   1.543   4.179   0.761
10245SOL     OW31633   2.780   4.678   0.362
10245SOL    HW131634   2.846   4.658   0.288
10245SOL    HW231635   2.796   4.615   0.438
10246SOL     OW31636   3.351   4.137   3.269
10246SOL    HW131637   3.287   4.063   3.288
10246SOL    HW231638   3.372   4.186   3.353
10247SOL     OW31639   6.615   4.919   5.893
10247SOL    HW131640   6.563   4.995   5.933
10247SOL    HW231641   6.678   4.883   5.961
10248SOL     OW31642   2.379   0.074   2.543
10248SOL    HW131643   2.331   0.150   2.498
10248SOL    HW231644   2.374   0.085   2.642
10249SOL     OW31645   3.517   0.312   6.394
10249SOL    HW131646   3.506   0.406   6.361
10249SOL    HW231647   3.451   0.294   6.466
10250SOL     OW31648   6.538   2.879   1.664
10250SOL    HW131649   6.477   2.852   1.589
10250SOL    HW231650   6.537   2.979   1.674
10251SOL     OW31651   2.965   1.576   4.979
10251SOL    HW131652   3.013   1.523   5.049
10251SOL    HW231653   2.987   1.673   4.988
10252SOL     OW31654   4.416   4.631   0.037
10252SOL    HW131655   4.492   4.593   7.003
10252SOL    HW231656   4.334   4.577   0.021
10253SOL     OW31657   3.000   5.995   0.531
10253SOL    HW131658   3.052   5.988   0.446
10253SOL    HW231659   2.954   5.907   0.550
10254SOL     OW31660   4.478   0.659   4.864
10254SOL    HW131661   4.507   0.635   4.772
10254SOL    HW231662   4.466   0.758   4.872
10255SOL     OW31663   2.123   6.745   1.268
10255SOL    HW131664   2.078   6.722   1.354
10255SOL    HW231665   2.140   6.843   1.264
10256SOL     OW31666   6.229   0.861   1.624
10256SOL    HW131667   6.301   0.906   1.570
10256SOL    HW231668   6.186   0.790   1.568
10257SOL     OW31669   2.086   5.103   4.747
10257SOL    HW131670   2.131   5.022   4.710
10257SOL    HW231671   2.071   5.170   4.674
10258SOL     OW31672   3.247   0.929   3.969
10258SOL    HW131673   3.277   0.834   3.962
10258SOL    HW231674   3.325   0.988   3.988
10259SOL     OW31675   0.210   4.360   2.894
10259SOL    HW131676   0.281   4.313   2.841
10259SOL    HW231677   0.182   4.303   2.971
10260SOL     OW31678   0.396   1.023   4.395
10260SOL    HW131679   0.298   1.005   4.400
10260SOL    HW231680   0.445   0.956   4.451
10261SOL     OW31681   6.876   6.051   3.004
10261SOL    HW131682   6.951   6.113   2.981
10261SOL    HW231683   6.796   6.105   3.031
10262SOL     OW31684   1.947   0.026   4.194
10262SOL    HW131685   1.906   6.959   4.223
10262SOL    HW231686   2.032   0.041   4.244
10263SOL     OW31687   5.226   0.805   6.390
10263SOL    HW131688   5.222   0.809   6.290
10263SOL    HW231689   5.159   0.738   6.423
10264SOL     OW31690   5.736   1.816   5.752
10264SOL    HW131691   5.705   1.886   5.689
10264SOL    HW231692   5.671   1.740   5.752
10265SOL     OW31693   2.293   2.359   3.479
10265SOL    HW131694   2.239   2.276   3.491
10265SOL    HW231695   2.378   2.337   3.430
10266SOL     OW31696   3.552   2.852   4.117
10266SOL    HW131697   3.512   2.772   4.164
10266SOL    HW231698   3.602   2.907   4.183
10267SOL     OW31699   0.053   1.555   6.977
10267SOL    HW131700   0.061   1.550   0.058
10267SOL    HW231701   0.125   1.500   6.935
10268SOL     OW31702   5.844   4.981   2.160
10268SOL    HW131703   5.757   4.949   2.123
10268SOL    HW231704   5.841   5.080   2.172
10269SOL     OW31705   0.292   3.209   0.055
10269SOL    HW131706   0.204   3.163   0.065
10269SOL    HW231707   0.278   3.308   0.049
10270SOL     OW31708   2.840   4.863   3.403
10270SOL    HW131709   2.769   4.918   3.361
10270SOL    HW231710   2.829   4.865   3.503
10271SOL     OW31711   3.826   2.361   6.969
10271SOL    HW131712   3.917   2.321   6.976
10271SOL    HW231713   3.821   2.417   6.886
10272SOL     OW31714   0.816   0.738   4.814
10272SOL    HW131715   0.844   0.800   4.887
10272SOL    HW231716   0.722   0.709   4.828
10273SOL     OW31717   3.450   5.685   2.456
10273SOL    HW131718   3.486   5.774   2.481
10273SOL    HW231719   3.457   5.673   2.357
10274SOL     OW31720   6.760   5.331   3.720
10274SOL    HW131721   6.690   5.298   3.783
10274SOL    HW231722   6.851   5.310   3.757
10275SOL     OW31723   0.924   0.165   1.823
10275SOL    HW131724   0.900   0.245   1.769
10275SOL    HW231725   0.959   0.193   1.912
10276SOL     OW31726   5.864   5.036   5.276
10276SOL    HW131727   5.812   4.954   5.253
10276SOL    HW231728   5.926   5.058   5.200
10277SOL     OW31729   2.066   5.605   4.254
10277SOL    HW131730   2.092   5.510   4.235
10277SOL    HW231731   1.976   5.623   4.217
10278SOL     OW31732   0.051   0.687   4.550
10278SOL    HW131733   6.985   0.677   4.601
10278SOL    HW231734   0.093   0.598   4.538
10279SOL     OW31735   2.856   5.176   4.147
10279SOL    HW131736   2.811   5.120   4.217
10279SOL    HW231737   2.857   5.271   4.176
10280SOL     OW31738   0.973   4.080   1.072
10280SOL    HW131739   1.004   4.021   0.997
10280SOL    HW231740   0.963   4.173   1.038
10281SOL     OW31741   5.815   1.112   2.660
10281SOL    HW131742   5.855   1.062   2.737
10281SOL    HW231743   5.773   1.196   2.694
10282SOL     OW31744   5.653   4.594   4.109
10282SOL    HW131745   5.563   4.586   4.067
10282SOL    HW231746   5.657   4.679   4.162
10283SOL     OW31747   1.034   3.735   1.119
10283SOL    HW131748   1.058   3.817   1.172
10283SOL    HW231749   1.012   3.761   1.025
10284SOL     OW31750   5.595   3.248   5.567
10284SOL    HW131751   5.527   3.317   5.540
10284SOL    HW231752   5.548   3.169   5.607
10285SOL     OW31753   5.493   1.028   1.732
10285SOL    HW131754   5.426   1.100   1.714
10285SOL    HW231755   5.453   0.959   1.792
10286SOL     OW31756   2.711   1.880   3.698
10286SOL    HW131757   2.726   1.800   3.640
10286SOL    HW231758   2.792   1.897   3.754
10287SOL     OW31759   2.085   6.413   1.287
10287SOL    HW131760   2.052   6.446   1.198
10287SOL    HW231761   2.173   6.457   1.308
10288SOL     OW31762   4.735   6.134   3.067
10288SOL    HW131763   4.706   6.050   3.113
10288SOL    HW231764   4.657   6.176   3.021
10289SOL     OW31765   2.633   6.683   1.869
10289SOL    HW131766   2.594   6.768   1.834
10289SOL    HW231767   2.623   6.680   1.968
10290SOL     OW31768   2.951   3.519   2.235
10290SOL    HW131769   2.934   3.584   2.160
10290SOL    HW231770   2.943   3.566   2.323
10291SOL     OW31771   3.562   2.013   3.591
10291SOL    HW131772   3.493   2.067   3.639
10291SOL    HW231773   3.633   2.074   3.557
10292SOL     OW31774   1.459   0.153   4.848
10292SOL    HW131775   1.397   0.102   4.908
10292SOL    HW231776   1.407   0.217   4.792
10293SOL     OW31777   1.951   5.170   3.251
10293SOL    HW131778   2.038   5.184   3.203
10293SOL    HW231779   1.882   5.233   3.213
10294SOL     OW31780   5.221   3.407   2.169
10294SOL    HW131781   5.122   3.424   2.178
10294SOL    HW231782   5.261   3.472   2.105
10295SOL     OW31783   5.579   4.381   6.272
10295SOL    HW131784   5.551   4.477   6.282
10295SOL    HW231785   5.540   4.344   6.188
10296SOL     OW31786   4.485   2.450   0.040
10296SOL    HW131787   4.512   2.535   7.013
10296SOL    HW231788   4.490   2.374   6.994
10297SOL     OW31789   2.237   6.928   0.016
10297SOL    HW131790   2.240   6.930   6.936
10297SOL    HW231791   2.219   0.001   0.051
10298SOL     OW31792   3.536   4.924   1.768
10298SOL    HW131793   3.539   4.829   1.799
10298SOL    HW231794   3.629   4.956   1.748
10299SOL     OW31795   4.574   5.334   2.924
10299SOL    HW131796   4.554   5.408   2.989
10299SOL    HW231797   4.673   5.315   2.926
10300SOL     OW31798   1.065   4.060   3.376
10300SOL    HW131799   1.075   3.961   3.368
10300SOL    HW231800   1.148   4.099   3.415
10301SOL     OW31801   5.455   2.062   4.582
10301SOL    HW131802   5.429   2.132   4.649
10301SOL    HW231803   5.504   1.988   4.628
10302SOL     OW31804   0.935   6.203   3.694
10302SOL    HW131805   0.936   6.287   3.640
10302SOL    HW231806   0.996   6.135   3.652
10303SOL     OW31807   1.590   5.867   2.835
10303SOL    HW131808   1.538   5.952   2.852
10303SOL    HW231809   1.557   5.824   2.751
10304SOL     OW31810   5.105   0.387   1.960
10304SOL    HW131811   5.108   0.478   1.918
10304SOL    HW231812   5.137   0.392   2.055
10305SOL     OW31813   0.825   4.429   6.874
10305SOL    HW131814   0.911   4.465   6.838
10305SOL    HW231815   0.758   4.423   6.801
10306SOL     OW31816   4.299   6.224   0.056
10306SOL    HW131817   4.376   6.254   0.112
10306SOL    HW231818   4.250   6.151   0.103
10307SOL     OW31819   2.530   1.787   4.749
10307SOL    HW131820   2.436   1.819   4.745
10307SOL    HW231821   2.564   1.772   4.656
10308SOL     OW31822   2.344   4.467   4.387
10308SOL    HW131823   2.327   4.394   4.321
10308SOL    HW231824   2.402   4.433   4.461
10309SOL     OW31825   5.809   1.372   4.636
10309SOL    HW131826   5.776   1.448   4.692
10309SOL    HW231827   5.745   1.295   4.643
10310SOL     OW31828   3.629   3.299   1.750
10310SOL    HW131829   3.558   3.238   1.783
10310SOL    HW231830   3.588   3.385   1.719
10311SOL     OW31831   0.863   6.576   0.788
10311SOL    HW131832   0.853   6.672   0.815
10311SOL    HW231833   0.847   6.518   0.868
10312SOL     OW31834   2.815   6.327   1.555
10312SOL    HW131835   2.861   6.371   1.478
10312SOL    HW231836   2.856   6.358   1.641
10313SOL     OW31837   4.778   0.509   1.067
10313SOL    HW131838   4.763   0.607   1.079
10313SOL    HW231839   4.703   0.458   1.108
10314SOL     OW31840   6.680   0.073   2.438
10314SOL    HW131841   6.655   0.112   2.350
10314SOL    HW231842   6.734   0.139   2.490
10315SOL     OW31843   6.438   5.978   4.452
10315SOL    HW131844   6.516   5.919   4.470
10315SOL    HW231845   6.382   5.937   4.380
10316SOL     OW31846   6.385   2.763   4.829
10316SOL    HW131847   6.402   2.829   4.902
10316SOL    HW231848   6.471   2.742   4.782
10317SOL     OW31849   3.358   5.774   6.048
10317SOL    HW131850   3.347   5.782   5.949
10317SOL    HW231851   3.274   5.740   6.089
10318SOL     OW31852   5.762   5.808   6.382
10318SOL    HW131853   5.717   5.766   6.304
10318SOL    HW231854   5.719   5.775   6.467
10319SOL     OW31855   1.316   2.270   5.606
10319SOL    HW131856   1.355   2.223   5.527
10319SOL    HW231857   1.312   2.207   5.684
10320SOL     OW31858   0.720   0.559   2.834
10320SOL    HW131859   0.650   0.595   2.772
10320SOL    HW231860   0.681   0.483   2.887
10321SOL     OW31861   4.509   0.640   2.524
10321SOL    HW131862   4.587   0.695   2.552
10321SOL    HW231863   4.502   0.640   2.424
10322SOL     OW31864   6.998   5.958   6.719
10322SOL    HW131865   6.947   5.911   6.791
10322SOL    HW231866   0.068   5.985   6.754
10323SOL     OW31867   6.193   3.663   6.343
10323SOL    HW131868   6.132   3.624   6.412
10323SOL    HW231869   6.259   3.723   6.386
10324SOL     OW31870   3.260   2.919   3.308
10324SOL    HW131871   3.212   3.000   3.276
10324SOL    HW231872   3.211   2.836   3.279
10325SOL     OW31873   0.227   3.515   3.108
10325SOL    HW131874   0.174   3.597   3.087
10325SOL    HW231875   0.183   3.435   3.068
10326SOL     OW31876   3.871   3.830   0.036
10326SOL    HW131877   3.878   3.929   0.023
10326SOL    HW231878   3.952   3.797   0.083
10327SOL     OW31879   2.637   2.266   1.932
10327SOL    HW131880   2.732   2.291   1.949
10327SOL    HW231881   2.616   2.276   1.835
10328SOL     OW31882   6.340   2.405   1.415
10328SOL    HW131883   6.340   2.360   1.326
10328SOL    HW231884   6.251   2.392   1.459
10329SOL     OW31885   3.474   0.587   3.634
10329SOL    HW131886   3.546   0.637   3.683
10329SOL    HW231887   3.515   0.510   3.585
10330SOL     OW31888   3.748   5.923   2.005
10330SOL    HW131889   3.662   5.923   2.057
10330SOL    HW231890   3.813   5.862   2.050
10331SOL     OW31891   6.766   0.596   4.329
10331SOL    HW131892   6.672   0.564   4.340
10331SOL    HW231893   6.803   0.561   4.243
10332SOL     OW31894   5.773   1.693   0.845
10332SOL    HW131895   5.688   1.686   0.794
10332SOL    HW231896   5.828   1.768   0.807
10333SOL     OW31897   6.657   4.726   4.130
10333SOL    HW131898   6.683   4.646   4.183
10333SOL    HW231899   6.738   4.768   4.090
10334SOL     OW31900   2.341   6.278   4.458
10334SOL    HW131901   2.273   6.288   4.385
10334SOL    HW231902   2.425   6.325   4.433
10335SOL     OW31903   2.611   4.849   6.824
10335SOL    HW131904   2.557   4.773   6.860
10335SOL    HW231905   2.635   4.912   6.897
10336SOL     OW31906   5.837   0.251   3.111
10336SOL    HW131907   5.924   0.297   3.096
10336SOL    HW231908   5.796   0.226   3.023
10337SOL     OW31909   6.819   6.432   5.654
10337SOL    HW131910   6.725   6.398   5.660
10337SOL    HW231911   6.832   6.508   5.718
10338SOL     OW31912   2.131   6.444   2.058
10338SOL    HW131913   2.192   6.365   2.065
10338SOL    HW231914   2.036   6.415   2.073
10339SOL     OW31915   2.651   5.860   0.320
10339SOL    HW131916   2.627   5.850   0.224
10339SOL    HW231917   2.619   5.949   0.353
10340SOL     OW31918   0.909   5.572   0.518
10340SOL    HW131919   0.919   5.629   0.436
10340SOL    HW231920   0.946   5.481   0.500
10341SOL     OW31921   2.034   3.423   1.842
10341SOL    HW131922   2.097   3.466   1.906
10341SOL    HW231923   2.007   3.333   1.877
10342SOL     OW31924   0.927   5.946   5.205
10342SOL    HW131925   0.978   5.965   5.289
10342SOL    HW231926   0.857   6.017   5.193
10343SOL     OW31927   2.004   3.916   0.795
10343SOL    HW131928   2.090   3.870   0.773
10343SOL    HW231929   1.942   3.910   0.716
10344SOL     OW31930   4.260   3.437   1.782
10344SOL    HW131931   4.351   3.433   1.741
10344SOL    HW231932   4.224   3.530   1.775
10345SOL     OW31933   1.215   0.908   6.235
10345SOL    HW131934   1.179   0.980   6.294
10345SOL    HW231935   1.152   0.830   6.235
10346SOL     OW31936   5.779   0.742   0.635
10346SOL    HW131937   5.815   0.695   0.554
10346SOL    HW231938   5.757   0.836   0.611
10347SOL     OW31939   5.366   2.608   2.458
10347SOL    HW131940   5.341   2.674   2.529
10347SOL    HW231941   5.337   2.643   2.369
10348SOL     OW31942   6.335   1.465   0.366
10348SOL    HW131943   6.331   1.564   0.376
10348SOL    HW231944   6.412   1.429   0.419
10349SOL     OW31945   6.150   1.153   0.555
10349SOL    HW131946   6.199   1.081   0.605
10349SOL    HW231947   6.181   1.242   0.587
10350SOL     OW31948   2.078   5.945   5.274
10350SOL    HW131949   2.149   5.876   5.264
10350SOL    HW231950   2.019   5.922   5.351
10351SOL     OW31951   5.390   4.724   6.079
10351SOL    HW131952   5.432   4.727   5.988
10351SOL    HW231953   5.310   4.665   6.076
10352SOL     OW31954   5.268   1.984   0.226
10352SOL    HW131955   5.290   2.056   0.161
10352SOL    HW231956   5.224   1.908   0.178
10353SOL     OW31957   6.001   2.236   4.700
10353SOL    HW131958   5.997   2.199   4.793
10353SOL    HW231959   5.908   2.253   4.667
10354SOL     OW31960   6.975   2.245   1.854
10354SOL    HW131961   6.928   2.285   1.932
10354SOL    HW231962   6.918   2.174   1.813
10355SOL     OW31963   1.506   0.629   1.145
10355SOL    HW131964   1.509   0.724   1.111
10355SOL    HW231965   1.441   0.623   1.220
10356SOL     OW31966   0.107   3.710   5.255
10356SOL    HW131967   0.099   3.729   5.353
10356SOL    HW231968   0.036   3.760   5.205
10357SOL     OW31969   3.315   2.656   6.017
10357SOL    HW131970   3.353   2.586   5.956
10357SOL    HW231971   3.215   2.654   6.010
10358SOL     OW31972   0.012   3.346   3.320
10358SOL    HW131973   0.096   3.295   3.301
10358SOL    HW231974   0.034   3.443   3.330
10359SOL     OW31975   5.064   1.374   2.322
10359SOL    HW131976   5.002   1.397   2.397
10359SOL    HW231977   5.012   1.359   2.239
10360SOL     OW31978   4.669   5.693   1.909
10360SOL    HW131979   4.768   5.679   1.916
10360SOL    HW231980   4.622   5.623   1.963
10361SOL     OW31981   2.880   1.079   3.136
10361SOL    HW131982   2.829   1.071   3.221
10361SOL    HW231983   2.881   1.175   3.107
10362SOL     OW31984   0.340   5.462   3.045
10362SOL    HW131985   0.367   5.532   2.979
10362SOL    HW231986   0.312   5.504   3.130
10363SOL     OW31987   4.914   2.741   0.815
10363SOL    HW131988   4.881   2.793   0.894
10363SOL    HW231989   4.989   2.681   0.843
10364SOL     OW31990   3.858   4.045   1.499
10364SOL    HW131991   3.900   4.116   1.555
10364SOL    HW231992   3.929   3.987   1.459
10365SOL     OW31993   4.818   4.043   6.190
10365SOL    HW131994   4.786   4.137   6.202
10365SOL    HW231995   4.856   4.010   6.276
10366SOL     OW31996   3.441   6.749   3.955
10366SOL    HW131997   3.520   6.737   4.016
10366SOL    HW231998   3.398   6.837   3.974
10367SOL     OW31999   0.060   1.915   2.026
10367SOL    HW132000   0.138   1.872   2.072
10367SOL    HW232001   0.093   1.958   1.941
10368SOL     OW32002   2.140   1.231   2.414
10368SOL    HW132003   2.165   1.276   2.500
10368SOL    HW232004   2.140   1.132   2.428
10369SOL     OW32005   3.197   7.011   5.963
10369SOL    HW132006   3.271   6.972   5.908
10369SOL    HW232007   3.136   6.938   5.993
10370SOL     OW32008   6.523   0.820   5.518
10370SOL    HW132009   6.495   0.875   5.439
10370SOL    HW232010   6.619   0.838   5.538
10371SOL     OW32011   1.700   6.069   4.266
10371SOL    HW132012   1.778   6.116   4.307
10371SOL    HW232013   1.620   6.079   4.325
10372SOL     OW32014   2.160   1.270   6.559
10372SOL    HW132015   2.068   1.277   6.598
10372SOL    HW232016   2.162   1.318   6.471
10373SOL     OW32017   1.305   5.927   5.213
10373SOL    HW132018   1.377   5.957   5.150
10373SOL    HW232019   1.225   5.900   5.160
10374SOL     OW32020   3.007   0.656   3.819
10374SOL    HW132021   2.962   0.708   3.747
10374SOL    HW232022   3.066   0.586   3.778
10375SOL     OW32023   2.160   2.037   6.107
10375SOL    HW132024   2.237   2.025   6.045
10375SOL    HW232025   2.162   1.966   6.177
10376SOL     OW32026   1.259   5.727   3.648
10376SOL    HW132027   1.324   5.695   3.717
10376SOL    HW232028   1.166   5.714   3.681
10377SOL     OW32029   0.262   1.122   2.703
10377SOL    HW132030   0.233   1.202   2.651
10377SOL    HW232031   0.239   1.039   2.652
10378SOL     OW32032   5.738   5.949   5.678
10378SOL    HW132033   5.746   5.946   5.777
10378SOL    HW232034   5.806   5.888   5.637
10379SOL     OW32035   2.451   5.814   4.021
10379SOL    HW132036   2.531   5.824   3.961
10379SOL    HW232037   2.459   5.729   4.073
10380SOL     OW32038   0.412   2.579   4.811
10380SOL    HW132039   0.392   2.506   4.876
10380SOL    HW232040   0.327   2.615   4.773
10381SOL     OW32041   4.454   4.172   0.971
10381SOL    HW132042   4.553   4.172   0.984
10381SOL    HW232043   4.432   4.218   0.885
10382SOL     OW32044   2.079   5.443   1.651
10382SOL    HW132045   2.092   5.403   1.742
10382SOL    HW232046   2.007   5.394   1.602
10383SOL     OW32047   1.091   3.954   1.288
10383SOL    HW132048   1.044   4.007   1.217
10383SOL    HW232049   1.187   3.981   1.292
10384SOL     OW32050   6.746   0.427   0.954
10384SOL    HW132051   6.722   0.478   1.036
10384SOL    HW232052   6.808   0.353   0.978
10385SOL     OW32053   4.177   5.977   6.132
10385SOL    HW132054   4.247   5.914   6.163
10385SOL    HW232055   4.129   5.938   6.053
10386SOL     OW32056   6.682   1.579   5.590
10386SOL    HW132057   6.764   1.523   5.601
10386SOL    HW232058   6.627   1.574   5.674
10387SOL     OW32059   4.463   1.464   2.714
10387SOL    HW132060   4.490   1.399   2.784
10387SOL    HW232061   4.377   1.508   2.740
10388SOL     OW32062   1.841   5.658   2.257
10388SOL    HW132063   1.866   5.569   2.293
10388SOL    HW232064   1.792   5.711   2.327
10389SOL     OW32065   6.463   5.519   0.879
10389SOL    HW132066   6.391   5.463   0.838
10389SOL    HW232067   6.550   5.500   0.833
10390SOL     OW32068   2.235   3.193   1.283
10390SOL    HW132069   2.202   3.256   1.212
10390SOL    HW232070   2.167   3.121   1.298
10391SOL     OW32071   0.410   6.592   3.297
10391SOL    HW132072   0.366   6.649   3.228
10391SOL    HW232073   0.466   6.522   3.252
10392SOL     OW32074   6.486   4.669   5.281
10392SOL    HW132075   6.467   4.577   5.314
10392SOL    HW232076   6.465   4.674   5.184
10393SOL     OW32077   2.388   2.419   3.733
10393SOL    HW132078   2.345   2.380   3.651
10393SOL    HW232079   2.353   2.512   3.748
10394SOL     OW32080   2.191   5.644   5.424
10394SOL    HW132081   2.276   5.641   5.476
10394SOL    HW232082   2.114   5.644   5.488
10395SOL     OW32083   0.434   0.538   2.168
10395SOL    HW132084   0.351   0.579   2.206
10395SOL    HW232085   0.443   0.565   2.072
10396SOL     OW32086   4.015   1.048   3.272
10396SOL    HW132087   4.002   0.972   3.336
10396SOL    HW232088   4.062   1.123   3.318
10397SOL     OW32089   2.786   1.567   4.541
10397SOL    HW132090   2.851   1.570   4.465
10397SOL    HW232091   2.726   1.487   4.531
10398SOL     OW32092   4.953   2.560   0.499
10398SOL    HW132093   5.035   2.573   0.554
10398SOL    HW232094   4.895   2.490   0.541
10399SOL     OW32095   4.914   2.627   4.158
10399SOL    HW132096   4.997   2.619   4.104
10399SOL    HW232097   4.927   2.697   4.229
10400SOL     OW32098   4.322   5.983   0.315
10400SOL    HW132099   4.301   5.941   0.227
10400SOL    HW232100   4.337   5.912   0.384
10401SOL     OW32101   0.387   0.033   2.080
10401SOL    HW132102   0.336   0.103   2.129
10401SOL    HW232103   0.343   0.015   1.992
10402SOL     OW32104   0.119   1.417   5.221
10402SOL    HW132105   0.028   1.445   5.188
10402SOL    HW232106   0.153   1.484   5.286
10403SOL     OW32107   4.238   1.622   2.809
10403SOL    HW132108   4.172   1.547   2.808
10403SOL    HW232109   4.194   1.706   2.776
10404SOL     OW32110   6.686   6.689   3.936
10404SOL    HW132111   6.728   6.719   3.850
10404SOL    HW232112   6.609   6.629   3.916
10405SOL     OW32113   1.025   5.734   4.814
10405SOL    HW132114   1.019   5.636   4.833
10405SOL    HW232115   1.101   5.751   4.751
10406SOL     OW32116   2.222   2.816   5.160
10406SOL    HW132117   2.283   2.886   5.122
10406SOL    HW232118   2.128   2.852   5.164
10407SOL     OW32119   2.371   6.775   0.235
10407SOL    HW132120   2.376   6.675   0.232
10407SOL    HW232121   2.320   6.808   0.156
10408SOL     OW32122   4.396   6.555   1.865
10408SOL    HW132123   4.317   6.602   1.906
10408SOL    HW232124   4.460   6.528   1.937
10409SOL     OW32125   6.994   4.356   0.809
10409SOL    HW132126   0.001   4.452   0.821
10409SOL    HW232127   6.994   4.332   0.712
10410SOL     OW32128   5.249   2.644   2.205
10410SOL    HW132129   5.317   2.673   2.138
10410SOL    HW232130   5.236   2.545   2.198
10411SOL     OW32131   2.826   6.216   4.022
10411SOL    HW132132   2.920   6.223   4.054
10411SOL    HW232133   2.820   6.145   3.952
10412SOL     OW32134   0.166   1.057   0.392
10412SOL    HW132135   0.241   1.046   0.327
10412SOL    HW232136   0.082   1.079   0.343
10413SOL     OW32137   6.234   2.645   1.699
10413SOL    HW132138   6.142   2.682   1.683
10413SOL    HW232139   6.232   2.546   1.688
10414SOL     OW32140   3.720   4.958   6.253
10414SOL    HW132141   3.689   4.958   6.157
10414SOL    HW232142   3.651   5.001   6.310
10415SOL     OW32143   1.815   4.704   4.356
10415SOL    HW132144   1.879   4.668   4.288
10415SOL    HW232145   1.736   4.644   4.363
10416SOL     OW32146   5.607   6.656   5.234
10416SOL    HW132147   5.542   6.615   5.170
10416SOL    HW232148   5.699   6.655   5.193
10417SOL     OW32149   4.056   5.064   4.376
10417SOL    HW132150   4.035   5.005   4.298
10417SOL    HW232151   4.150   5.097   4.369
10418SOL     OW32152   6.827   4.318   6.089
10418SOL    HW132153   6.913   4.299   6.135
10418SOL    HW232154   6.802   4.414   6.102
10419SOL     OW32155   3.547   6.750   6.396
10419SOL    HW132156   3.454   6.722   6.417
10419SOL    HW232157   3.577   6.818   6.463
10420SOL     OW32158   0.409   4.193   4.391
10420SOL    HW132159   0.337   4.262   4.379
10420SOL    HW232160   0.406   4.157   4.484
10421SOL     OW32161   1.376   3.761   4.020
10421SOL    HW132162   1.452   3.824   4.003
10421SOL    HW232163   1.291   3.814   4.029
10422SOL     OW32164   6.303   3.260   5.812
10422SOL    HW132165   6.233   3.330   5.827
10422SOL    HW232166   6.390   3.290   5.850
10423SOL     OW32167   5.354   5.057   5.669
10423SOL    HW132168   5.454   5.051   5.680
10423SOL    HW232169   5.313   5.090   5.754
10424SOL     OW32170   4.140   3.387   0.757
10424SOL    HW132171   4.178   3.306   0.803
10424SOL    HW232172   4.042   3.375   0.743
10425SOL     OW32173   1.075   6.465   2.295
10425SOL    HW132174   0.994   6.498   2.245
10425SOL    HW232175   1.079   6.365   2.288
10426SOL     OW32176   5.297   4.590   6.706
10426SOL    HW132177   5.246   4.629   6.782
10426SOL    HW232178   5.383   4.550   6.740
10427SOL     OW32179   4.621   0.926   6.720
10427SOL    HW132180   4.564   0.894   6.796
10427SOL    HW232181   4.716   0.933   6.749
10428SOL     OW32182   3.364   1.164   4.099
10428SOL    HW132183   3.325   1.122   4.181
10428SOL    HW232184   3.454   1.203   4.121
10429SOL     OW32185   0.130   4.439   2.649
10429SOL    HW132186   0.138   4.420   2.747
10429SOL    HW232187   0.102   4.356   2.601
10430SOL     OW32188   4.026   6.496   5.360
10430SOL    HW132189   4.031   6.405   5.318
10430SOL    HW232190   4.113   6.542   5.349
10431SOL     OW32191   2.275   6.456   4.036
10431SOL    HW132192   2.233   6.370   4.008
10431SOL    HW232193   2.242   6.481   4.127
10432SOL     OW32194   6.338   0.470   4.864
10432SOL    HW132195   6.414   0.533   4.881
10432SOL    HW232196   6.269   0.515   4.807
10433SOL     OW32197   0.672   6.505   2.728
10433SOL    HW132198   0.720   6.461   2.653
10433SOL    HW232199   0.649   6.599   2.702
10434SOL     OW32200   3.525   6.266   2.916
10434SOL    HW132201   3.489   6.178   2.945
10434SOL    HW232202   3.588   6.253   2.839
10435SOL     OW32203   1.279   2.424   5.372
10435SOL    HW132204   1.270   2.391   5.466
10435SOL    HW232205   1.376   2.429   5.348
10436SOL     OW32206   5.939   4.705   5.408
10436SOL    HW132207   5.892   4.729   5.494
10436SOL    HW232208   5.875   4.714   5.332
10437SOL     OW32209   5.292   4.429   5.879
10437SOL    HW132210   5.267   4.444   5.784
10437SOL    HW232211   5.223   4.469   5.939
10438SOL     OW32212   0.411   5.837   6.267
10438SOL    HW132213   0.502   5.797   6.278
10438SOL    HW232214   0.381   5.824   6.173
10439SOL     OW32215   4.430   1.194   4.591
10439SOL    HW132216   4.362   1.127   4.621
10439SOL    HW232217   4.386   1.264   4.534
10440SOL     OW32218   0.710   7.019   0.681
10440SOL    HW132219   0.735   0.034   0.590
10440SOL    HW232220   0.625   0.043   0.711
10441SOL     OW32221   3.607   1.790   1.519
10441SOL    HW132222   3.608   1.762   1.423
10441SOL    HW232223   3.677   1.859   1.535
10442SOL     OW32224   4.129   6.387   5.846
10442SOL    HW132225   4.205   6.445   5.817
10442SOL    HW232226   4.143   6.359   5.941
10443SOL     OW32227   4.844   2.621   3.217
10443SOL    HW132228   4.936   2.623   3.256
10443SOL    HW232229   4.830   2.534   3.169
10444SOL     OW32230   3.658   5.446   3.170
10444SOL    HW132231   3.587   5.401   3.115
10444SOL    HW232232   3.743   5.394   3.163
10445SOL     OW32233   0.653   5.088   3.874
10445SOL    HW132234   0.606   5.048   3.953
10445SOL    HW232235   0.695   5.015   3.820
10446SOL     OW32236   2.310   3.129   6.297
10446SOL    HW132237   2.323   3.213   6.244
10446SOL    HW232238   2.380   3.062   6.272
10447SOL     OW32239   0.099   1.282   3.259
10447SOL    HW132240   0.108   1.204   3.197
10447SOL    HW232241   0.098   1.366   3.206
10448SOL     OW32242   4.628   0.451   2.687
10448SOL    HW132243   4.659   0.369   2.640
10448SOL    HW232244   4.577   0.509   2.624
10449SOL     OW32245   1.753   5.500   6.312
10449SOL    HW132246   1.760   5.599   6.327
10449SOL    HW232247   1.806   5.475   6.231
10450SOL     OW32248   0.309   1.232   0.132
10450SOL    HW132249   0.326   1.140   0.165
10450SOL    HW232250   0.375   1.295   0.173
10451SOL     OW32251   1.752   5.890   3.212
10451SOL    HW132252   1.840   5.848   3.231
10451SOL    HW232253   1.766   5.978   3.166
10452SOL     OW32254   6.076   3.129   2.333
10452SOL    HW132255   6.002   3.118   2.266
10452SOL    HW232256   6.115   3.221   2.325
10453SOL     OW32257   5.669   0.024   1.384
10453SOL    HW132258   5.724   6.996   1.453
10453SOL    HW232259   5.707   0.006   1.293
10454SOL     OW32260   5.078   2.988   6.748
10454SOL    HW132261   4.979   2.985   6.741
10454SOL    HW232262   5.114   2.895   6.745
10455SOL     OW32263   0.082   6.349   3.187
10455SOL    HW132264   0.113   6.441   3.210
10455SOL    HW232265   0.034   6.310   3.266
10456SOL     OW32266   1.668   5.279   0.248
10456SOL    HW132267   1.637   5.247   0.158
10456SOL    HW232268   1.756   5.238   0.269
10457SOL     OW32269   3.810   3.409   0.828
10457SOL    HW132270   3.773   3.402   0.736
10457SOL    HW232271   3.805   3.504   0.859
10458SOL     OW32272   6.445   7.008   6.240
10458SOL    HW132273   6.513   0.044   6.193
10458SOL    HW232274   6.392   0.047   6.303
10459SOL     OW32275   4.722   5.891   1.100
10459SOL    HW132276   4.721   5.792   1.119
10459SOL    HW232277   4.628   5.923   1.089
10460SOL     OW32278   0.986   4.262   1.765
10460SOL    HW132279   0.927   4.206   1.707
10460SOL    HW232280   1.082   4.243   1.743
10461SOL     OW32281   5.777   5.020   4.865
10461SOL    HW132282   5.763   5.045   4.769
10461SOL    HW232283   5.809   4.926   4.870
10462SOL     OW32284   5.067   1.935   3.178
10462SOL    HW132285   5.056   2.014   3.237
10462SOL    HW232286   5.146   1.881   3.208
10463SOL     OW32287   4.332   2.878   6.164
10463SOL    HW132288   4.359   2.899   6.258
10463SOL    HW232289   4.412   2.846   6.113
10464SOL     OW32290   0.031   6.515   1.754
10464SOL    HW132291   6.955   6.490   1.732
10464SOL    HW232292   0.031   6.594   1.815
10465SOL     OW32293   6.252   5.788   0.523
10465SOL    HW132294   6.203   5.872   0.501
10465SOL    HW232295   6.311   5.763   0.447
10466SOL     OW32296   4.695   4.981   5.787
10466SOL    HW132297   4.699   4.883   5.806
10466SOL    HW232298   4.758   5.004   5.713
10467SOL     OW32299   2.546   1.837   0.091
10467SOL    HW132300   2.552   1.850   7.011
10467SOL    HW232301   2.628   1.789   0.123
10468SOL     OW32302   3.313   5.146   3.181
10468SOL    HW132303   3.363   5.068   3.220
10468SOL    HW232304   3.219   5.145   3.215
10469SOL     OW32305   3.909   4.489   5.376
10469SOL    HW132306   3.924   4.424   5.302
10469SOL    HW232307   3.836   4.552   5.350
10470SOL     OW32308   1.782   2.497   3.996
10470SOL    HW132309   1.776   2.504   4.095
10470SOL    HW232310   1.873   2.525   3.966
10471SOL     OW32311   3.321   0.823   0.814
10471SOL    HW132312   3.347   0.820   0.910
10471SOL    HW232313   3.288   0.733   0.785
10472SOL     OW32314   3.672   5.833   0.613
10472SOL    HW132315   3.687   5.863   0.707
10472SOL    HW232316   3.660   5.734   0.612
10473SOL     OW32317   6.633   0.250   6.782
10473SOL    HW132318   6.657   0.325   6.844
10473SOL    HW232319   6.538   0.260   6.753
10474SOL     OW32320   4.118   1.545   4.014
10474SOL    HW132321   4.169   1.629   4.032
10474SOL    HW232322   4.097   1.540   3.916
10475SOL     OW32323   4.656   6.511   1.193
10475SOL    HW132324   4.635   6.608   1.181
10475SOL    HW232325   4.668   6.490   1.290
10476SOL     OW32326   6.900   6.874   0.203
10476SOL    HW132327   6.823   6.830   0.249
10476SOL    HW232328   6.909   6.835   0.111
10477SOL     OW32329   6.581   0.438   4.480
10477SOL    HW132330   6.486   0.406   4.479
10477SOL    HW232331   6.625   0.409   4.565
10478SOL     OW32332   6.056   0.789   0.701
10478SOL    HW132333   6.082   0.723   0.771
10478SOL    HW232334   5.957   0.794   0.695
10479SOL     OW32335   6.896   1.659   3.124
10479SOL    HW132336   6.946   1.647   3.210
10479SOL    HW232337   6.896   1.756   3.099
10480SOL     OW32338   0.186   0.374   1.650
10480SOL    HW132339   0.195   0.471   1.673
10480SOL    HW232340   0.197   0.319   1.732
10481SOL     OW32341   2.607   0.118   4.541
10481SOL    HW132342   2.636   0.188   4.476
10481SOL    HW232343   2.688   0.081   4.588
10482SOL     OW32344   6.288   5.051   4.140
10482SOL    HW132345   6.276   5.116   4.065
10482SOL    HW232346   6.320   4.964   4.104
10483SOL     OW32347   6.477   4.850   0.303
10483SOL    HW132348   6.550   4.912   0.277
10483SOL    HW232349   6.443   4.874   0.393
10484SOL     OW32350   6.256   2.020   1.844
10484SOL    HW132351   6.306   2.096   1.886
10484SOL    HW232352   6.312   1.977   1.774
10485SOL     OW32353   2.904   3.737   0.154
10485SOL    HW132354   2.925   3.648   0.115
10485SOL    HW232355   2.951   3.808   0.102
10486SOL     OW32356   0.593   0.579   0.709
10486SOL    HW132357   0.513   0.611   0.760
10486SOL    HW232358   0.604   0.480   0.723
10487SOL     OW32359   4.945   1.120   1.245
10487SOL    HW132360   4.856   1.085   1.271
10487SOL    HW232361   4.985   1.171   1.321
10488SOL     OW32362   3.446   1.398   5.799
10488SOL    HW132363   3.478   1.446   5.717
10488SOL    HW232364   3.432   1.464   5.873
10489SOL     OW32365   0.798   6.766   5.130
10489SOL    HW132366   0.780   6.755   5.228
10489SOL    HW232367   0.755   6.691   5.080
10490SOL     OW32368   5.499   1.684   0.802
10490SOL    HW132369   5.451   1.771   0.794
10490SOL    HW232370   5.443   1.620   0.855
10491SOL     OW32371   2.012   2.340   6.065
10491SOL    HW132372   1.916   2.322   6.086
10491SOL    HW232373   2.018   2.397   5.983
10492SOL     OW32374   5.542   5.050   0.625
10492SOL    HW132375   5.631   5.085   0.597
10492SOL    HW232376   5.547   5.014   0.718
10493SOL     OW32377   3.163   0.349   1.701
10493SOL    HW132378   3.107   0.418   1.746
10493SOL    HW232379   3.194   0.383   1.612
10494SOL     OW32380   5.625   4.035   5.701
10494SOL    HW132381   5.636   4.109   5.766
10494SOL    HW232382   5.702   3.972   5.708
10495SOL     OW32383   1.878   0.101   1.605
10495SOL    HW132384   1.906   0.009   1.577
10495SOL    HW232385   1.895   0.165   1.530
10496SOL     OW32386   6.389   3.902   6.210
10496SOL    HW132387   6.469   3.959   6.232
10496SOL    HW232388   6.330   3.896   6.290
10497SOL     OW32389   2.009   0.136   2.128
10497SOL    HW132390   1.923   0.175   2.162
10497SOL    HW232391   2.084   0.165   2.187
10498SOL     OW32392   4.507   5.190   0.862
10498SOL    HW132393   4.541   5.209   0.770
10498SOL    HW232394   4.512   5.091   0.878
10499SOL     OW32395   4.203   6.726   1.999
10499SOL    HW132396   4.148   6.786   2.057
10499SOL    HW232397   4.242   6.779   1.924
10500SOL     OW32398   6.246   1.099   5.582
10500SOL    HW132399   6.235   1.126   5.678
10500SOL    HW232400   6.246   1.000   5.575
10501SOL     OW32401   2.125   5.747   2.222
10501SOL    HW132402   2.105   5.671   2.159
10501SOL    HW232403   2.123   5.833   2.171
10502SOL     OW32404   2.604   1.580   2.123
10502SOL    HW132405   2.591   1.584   2.024
10502SOL    HW232406   2.681   1.520   2.145
10503SOL     OW32407   4.456   2.777   0.972
10503SOL    HW132408   4.550   2.751   0.993
10503SOL    HW232409   4.449   2.876   0.964
10504SOL     OW32410   0.947   1.554   5.711
10504SOL    HW132411   0.942   1.612   5.630
10504SOL    HW232412   1.001   1.600   5.782
10505SOL     OW32413   5.348   4.904   1.056
10505SOL    HW132414   5.340   4.987   1.112
10505SOL    HW232415   5.260   4.857   1.053
10506SOL     OW32416   0.039   4.755   0.553
10506SOL    HW132417   6.992   4.787   0.621
10506SOL    HW232418   0.026   4.657   0.538
10507SOL     OW32419   1.809   6.494   0.527
10507SOL    HW132420   1.908   6.488   0.544
10507SOL    HW232421   1.767   6.549   0.600
10508SOL     OW32422   6.220   5.722   4.412
10508SOL    HW132423   6.180   5.811   4.435
10508SOL    HW232424   6.274   5.732   4.328
10509SOL     OW32425   0.413   5.209   4.489
10509SOL    HW132426   0.384   5.132   4.546
10509SOL    HW232427   0.483   5.262   4.538
10510SOL     OW32428   4.590   5.684   6.556
10510SOL    HW132429   4.649   5.604   6.549
10510SOL    HW232430   4.640   5.759   6.600
10511SOL     OW32431   3.333   1.089   2.039
10511SOL    HW132432   3.402   1.053   2.102
10511SOL    HW232433   3.288   1.168   2.080
10512SOL     OW32434   4.651   7.009   6.549
10512SOL    HW132435   4.602   0.064   6.595
10512SOL    HW232436   4.629   6.922   6.592
10513SOL     OW32437   5.731   2.243   4.665
10513SOL    HW132438   5.674   2.161   4.660
10513SOL    HW232439   5.685   2.311   4.722
10514SOL     OW32440   0.218   3.234   1.062
10514SOL    HW132441   0.190   3.167   1.131
10514SOL    HW232442   0.286   3.193   1.002
10515SOL     OW32443   0.625   3.482   3.343
10515SOL    HW132444   0.554   3.538   3.302
10515SOL    HW232445   0.674   3.535   3.412
10516SOL     OW32446   4.478   1.283   0.790
10516SOL    HW132447   4.459   1.279   0.692
10516SOL    HW232448   4.426   1.212   0.837
10517SOL     OW32449   0.426   3.103   1.488
10517SOL    HW132450   0.488   3.120   1.564
10517SOL    HW232451   0.368   3.024   1.509
10518SOL     OW32452   0.584   5.756   0.311
10518SOL    HW132453   0.616   5.851   0.314
10518SOL    HW232454   0.485   5.754   0.319
10519SOL     OW32455   3.189   3.665   0.465
10519SOL    HW132456   3.124   3.736   0.439
10519SOL    HW232457   3.279   3.705   0.481
10520SOL     OW32458   0.293   2.374   6.117
10520SOL    HW132459   0.267   2.461   6.158
10520SOL    HW232460   0.383   2.383   6.075
10521SOL     OW32461   6.164   5.798   1.669
10521SOL    HW132462   6.134   5.887   1.703
10521SOL    HW232463   6.212   5.749   1.742
10522SOL     OW32464   1.189   0.552   5.256
10522SOL    HW132465   1.193   0.648   5.285
10522SOL    HW232466   1.128   0.501   5.317
10523SOL     OW32467   1.106   4.780   2.736
10523SOL    HW132468   1.162   4.861   2.721
10523SOL    HW232469   1.019   4.808   2.777
10524SOL     OW32470   1.628   6.841   3.927
10524SOL    HW132471   1.608   6.882   3.838
10524SOL    HW232472   1.615   6.909   3.998
10525SOL     OW32473   4.317   6.473   6.379
10525SOL    HW132474   4.373   6.396   6.410
10525SOL    HW232475   4.224   6.442   6.361
10526SOL     OW32476   1.759   6.861   3.518
10526SOL    HW132477   1.813   6.780   3.542
10526SOL    HW232478   1.777   6.933   3.585
10527SOL     OW32479   1.070   1.045   5.499
10527SOL    HW132480   1.158   1.087   5.521
10527SOL    HW232481   1.021   1.024   5.584
10528SOL     OW32482   1.331   3.211   5.961
10528SOL    HW132483   1.391   3.228   6.040
10528SOL    HW232484   1.387   3.185   5.883
10529SOL     OW32485   3.013   6.031   4.191
10529SOL    HW132486   2.987   6.036   4.287
10529SOL    HW232487   3.109   6.006   4.183
10530SOL     OW32488   1.511   0.212   6.492
10530SOL    HW132489   1.596   0.175   6.456
10530SOL    HW232490   1.516   0.216   6.592
10531SOL     OW32491   1.055   2.743   4.542
10531SOL    HW132492   0.986   2.695   4.488
10531SOL    HW232493   1.083   2.826   4.493
10532SOL     OW32494   1.068   6.455   6.332
10532SOL    HW132495   1.017   6.387   6.280
10532SOL    HW232496   1.132   6.503   6.271
10533SOL     OW32497   3.148   6.834   3.769
10533SOL    HW132498   3.140   6.919   3.716
10533SOL    HW232499   3.221   6.844   3.836
10534SOL     OW32500   6.563   6.053   1.353
10534SOL    HW132501   6.563   6.150   1.377
10534SOL    HW232502   6.592   6.043   1.258
10535SOL     OW32503   1.475   2.000   1.590
10535SOL    HW132504   1.473   1.992   1.690
10535SOL    HW232505   1.570   2.001   1.558
10536SOL     OW32506   4.878   0.526   4.020
10536SOL    HW132507   4.930   0.562   4.098
10536SOL    HW232508   4.857   0.601   3.957
10537SOL     OW32509   3.876   5.999   3.748
10537SOL    HW132510   3.795   5.954   3.711
10537SOL    HW232511   3.858   6.096   3.762
10538SOL     OW32512   5.837   2.642   0.875
10538SOL    HW132513   5.813   2.546   0.860
10538SOL    HW232514   5.937   2.651   0.880
10539SOL     OW32515   0.694   4.681   6.902
10539SOL    HW132516   0.692   4.780   6.893
10539SOL    HW232517   0.661   4.639   6.817
10540SOL     OW32518   1.445   1.834   5.394
10540SOL    HW132519   1.467   1.932   5.393
10540SOL    HW232520   1.395   1.811   5.311
10541SOL     OW32521   3.051   3.925   2.224
10541SOL    HW132522   3.123   3.855   2.227
10541SOL    HW232523   3.009   3.933   2.314
10542SOL     OW32524   0.163   0.100   5.539
10542SOL    HW132525   0.146   0.046   5.457
10542SOL    HW232526   0.207   0.186   5.514
10543SOL     OW32527   6.696   1.783   4.491
10543SOL    HW132528   6.683   1.686   4.471
10543SOL    HW232529   6.639   1.837   4.429
10544SOL     OW32530   2.576   6.937   1.787
10544SOL    HW132531   2.597   6.967   1.694
10544SOL    HW232532   2.482   6.964   1.810
10545SOL     OW32533   0.742   2.147   1.797
10545SOL    HW132534   0.826   2.093   1.796
10545SOL    HW232535   0.763   2.241   1.769
10546SOL     OW32536   1.612   1.160   0.985
10546SOL    HW132537   1.566   1.248   0.973
10546SOL    HW232538   1.653   1.131   0.899
10547SOL     OW32539   5.122   3.815   2.644
10547SOL    HW132540   5.026   3.799   2.620
10547SOL    HW232541   5.158   3.891   2.590
10548SOL     OW32542   5.752   4.558   3.858
10548SOL    HW132543   5.781   4.595   3.946
10548SOL    HW232544   5.723   4.463   3.869
10549SOL     OW32545   0.559   0.159   1.804
10549SOL    HW132546   0.575   0.089   1.734
10549SOL    HW232547   0.612   0.137   1.886
10550SOL     OW32548   4.694   6.521   3.706
10550SOL    HW132549   4.604   6.479   3.696
10550SOL    HW232550   4.684   6.619   3.723
10551SOL     OW32551   1.648   2.386   6.564
10551SOL    HW132552   1.594   2.467   6.541
10551SOL    HW232553   1.589   2.317   6.605
10552SOL     OW32554   3.265   0.651   6.048
10552SOL    HW132555   3.191   0.673   6.111
10552SOL    HW232556   3.307   0.736   6.014
10553SOL     OW32557   0.713   4.445   1.840
10553SOL    HW132558   0.712   4.404   1.931
10553SOL    HW232559   0.626   4.493   1.824
10554SOL     OW32560   5.976   4.701   0.638
10554SOL    HW132561   5.932   4.615   0.662
10554SOL    HW232562   5.950   4.727   0.545
10555SOL     OW32563   1.683   2.639   0.319
10555SOL    HW132564   1.771   2.651   0.274
10555SOL    HW232565   1.677   2.702   0.397
10556SOL     OW32566   1.672   1.687   4.870
10556SOL    HW132567   1.666   1.623   4.793
10556SOL    HW232568   1.739   1.758   4.849
10557SOL     OW32569   1.961   2.940   3.241
10557SOL    HW132570   1.871   2.925   3.201
10557SOL    HW232571   1.959   3.022   3.298
10558SOL     OW32572   4.322   0.157   4.216
10558SOL    HW132573   4.273   0.073   4.238
10558SOL    HW232574   4.261   0.218   4.163
10559SOL     OW32575   4.650   0.347   1.737
10559SOL    HW132576   4.684   0.365   1.644
10559SOL    HW232577   4.683   0.418   1.798
10560SOL     OW32578   4.071   5.865   2.904
10560SOL    HW132579   4.074   5.878   2.805
10560SOL    HW232580   4.013   5.787   2.926
10561SOL     OW32581   3.572   4.051   1.562
10561SOL    HW132582   3.568   4.137   1.613
10561SOL    HW232583   3.668   4.029   1.542
10562SOL     OW32584   4.293   5.294   0.095
10562SOL    HW132585   4.321   5.353   0.019
10562SOL    HW232586   4.220   5.233   0.063
10563SOL     OW32587   0.813   1.525   3.480
10563SOL    HW132588   0.724   1.485   3.456
10563SOL    HW232589   0.799   1.600   3.544
10564SOL     OW32590   5.848   6.145   2.537
10564SOL    HW132591   5.830   6.228   2.485
10564SOL    HW232592   5.767   6.086   2.535
10565SOL     OW32593   0.610   6.862   5.669
10565SOL    HW132594   0.549   6.815   5.734
10565SOL    HW232595   0.607   6.815   5.581
10566SOL     OW32596   3.609   1.788   6.488
10566SOL    HW132597   3.598   1.786   6.588
10566SOL    HW232598   3.706   1.788   6.465
10567SOL     OW32599   2.880   2.227   4.908
10567SOL    HW132600   2.835   2.266   4.989
10567SOL    HW232601   2.977   2.214   4.927
10568SOL     OW32602   5.907   3.272   1.596
10568SOL    HW132603   5.913   3.180   1.637
10568SOL    HW232604   5.860   3.333   1.658
10569SOL     OW32605   5.950   2.216   2.315
10569SOL    HW132606   6.029   2.257   2.269
10569SOL    HW232607   5.945   2.249   2.409
10570SOL     OW32608   0.982   5.427   3.533
10570SOL    HW132609   0.918   5.463   3.601
10570SOL    HW232610   0.932   5.374   3.465
10571SOL     OW32611   0.146   4.275   5.725
10571SOL    HW132612   0.070   4.338   5.739
10571SOL    HW232613   0.111   4.187   5.693
10572SOL     OW32614   6.583   4.217   3.589
10572SOL    HW132615   6.520   4.169   3.649
10572SOL    HW232616   6.637   4.282   3.643
10573SOL     OW32617   5.108   0.439   5.348
10573SOL    HW132618   5.141   0.368   5.410
10573SOL    HW232619   5.177   0.457   5.278
10574SOL     OW32620   1.670   1.616   4.239
10574SOL    HW132621   1.702   1.521   4.240
10574SOL    HW232622   1.747   1.677   4.254
10575SOL     OW32623   6.886   1.513   4.053
10575SOL    HW132624   6.927   1.571   4.123
10575SOL    HW232625   6.828   1.444   4.096
10576SOL     OW32626   0.064   5.538   5.065
10576SOL    HW132627   0.053   5.607   4.993
10576SOL    HW232628   0.112   5.578   5.143
10577SOL     OW32629   1.867   4.487   0.265
10577SOL    HW132630   1.859   4.484   0.365
10577SOL    HW232631   1.822   4.407   0.225
10578SOL     OW32632   4.738   0.993   3.088
10578SOL    HW132633   4.762   1.090   3.082
10578SOL    HW232634   4.792   0.949   3.159
10579SOL     OW32635   4.325   2.878   1.495
10579SOL    HW132636   4.276   2.934   1.561
10579SOL    HW232637   4.260   2.831   1.436
10580SOL     OW32638   6.526   0.298   6.400
10580SOL    HW132639   6.498   0.205   6.421
10580SOL    HW232640   6.528   0.312   6.301
10581SOL     OW32641   6.503   0.131   3.434
10581SOL    HW132642   6.473   0.178   3.351
10581SOL    HW232643   6.430   0.072   3.468
10582SOL     OW32644   4.741   4.722   5.907
10582SOL    HW132645   4.726   4.673   5.993
10582SOL    HW232646   4.831   4.698   5.870
10583SOL     OW32647   4.207   0.740   3.849
10583SOL    HW132648   4.276   0.812   3.857
10583SOL    HW232649   4.243   0.664   3.794
10584SOL     OW32650   6.633   0.306   0.695
10584SOL    HW132651   6.676   0.219   0.671
10584SOL    HW232652   6.685   0.350   0.768
10585SOL     OW32653   2.318   1.531   5.394
10585SOL    HW132654   2.320   1.576   5.305
10585SOL    HW232655   2.319   1.600   5.467
10586SOL     OW32656   6.707   5.525   4.368
10586SOL    HW132657   6.744   5.580   4.443
10586SOL    HW232658   6.647   5.582   4.311
10587SOL     OW32659   6.365   4.621   0.237
10587SOL    HW132660   6.296   4.648   0.170
10587SOL    HW232661   6.412   4.702   0.272
10588SOL     OW32662   1.439   3.653   4.262
10588SOL    HW132663   1.346   3.650   4.300
10588SOL    HW232664   1.434   3.680   4.165
10589SOL     OW32665   6.335   0.897   4.625
10589SOL    HW132666   6.251   0.945   4.602
10589SOL    HW232667   6.361   0.918   4.719
10590SOL     OW32668   0.755   0.333   1.636
10590SOL    HW132669   0.664   0.300   1.661
10590SOL    HW232670   0.797   0.271   1.570
10591SOL     OW32671   1.918   1.986   6.830
10591SOL    HW132672   1.835   1.944   6.866
10591SOL    HW232673   1.913   1.990   6.730
10592SOL     OW32674   5.447   3.638   2.398
10592SOL    HW132675   5.348   3.646   2.411
10592SOL    HW232676   5.466   3.582   2.317
10593SOL     OW32677   2.313   6.324   0.550
10593SOL    HW132678   2.352   6.254   0.491
10593SOL    HW232679   2.365   6.329   0.635
10594SOL     OW32680   5.054   0.705   2.672
10594SOL    HW132681   5.009   0.618   2.694
10594SOL    HW232682   4.985   0.776   2.663
10595SOL     OW32683   4.773   6.179   0.139
10595SOL    HW132684   4.817   6.261   0.102
10595SOL    HW232685   4.791   6.101   0.079
10596SOL     OW32686   4.191   0.098   0.355
10596SOL    HW132687   4.190   0.021   0.292
10596SOL    HW232688   4.099   0.134   0.366
10597SOL     OW32689   3.359   1.631   5.525
10597SOL    HW132690   3.345   1.634   5.426
10597SOL    HW232691   3.455   1.611   5.545
10598SOL     OW32692   3.327   2.983   6.752
10598SOL    HW132693   3.231   2.955   6.748
10598SOL    HW232694   3.356   2.992   6.847
10599SOL     OW32695   5.261   3.508   5.850
10599SOL    HW132696   5.229   3.600   5.870
10599SOL    HW232697   5.244   3.449   5.929
10600SOL     OW32698   2.671   2.794   0.651
10600SOL    HW132699   2.609   2.716   0.656
10600SOL    HW232700   2.710   2.800   0.559
10601SOL     OW32701   1.974   4.686   5.039
10601SOL    HW132702   1.894   4.650   4.991
10601SOL    HW232703   1.953   4.692   5.137
10602SOL     OW32704   2.984   0.931   1.893
10602SOL    HW132705   3.006   0.953   1.798
10602SOL    HW232706   2.992   1.014   1.949
10603SOL     OW32707   3.585   0.379   3.502
10603SOL    HW132708   3.632   0.381   3.414
10603SOL    HW232709   3.498   0.331   3.493
10604SOL     OW32710   6.082   5.485   4.924
10604SOL    HW132711   6.008   5.551   4.910
10604SOL    HW232712   6.083   5.456   5.019
10605SOL     OW32713   1.684   6.159   6.871
10605SOL    HW132714   1.662   6.225   6.799
10605SOL    HW232715   1.699   6.208   6.957
10606SOL     OW32716   6.977   1.111   2.267
10606SOL    HW132717   0.000   1.182   2.211
10606SOL    HW232718   6.909   1.153   2.327
10607SOL     OW32719   4.518   5.059   5.527
10607SOL    HW132720   4.495   5.141   5.475
10607SOL    HW232721   4.580   5.083   5.602
10608SOL     OW32722   5.885   2.918   6.024
10608SOL    HW132723   5.809   2.978   6.000
10608SOL    HW232724   5.963   2.937   5.966
10609SOL     OW32725   2.157   6.621   6.852
10609SOL    HW132726   2.089   6.626   6.924
10609SOL    HW232727   2.225   6.552   6.874
10610SOL     OW32728   0.809   2.028   4.864
10610SOL    HW132729   0.724   1.992   4.827
10610SOL    HW232730   0.805   2.128   4.865
10611SOL     OW32731   2.863   3.873   6.192
10611SOL    HW132732   2.928   3.853   6.118
10611SOL    HW232733   2.848   3.972   6.198
10612SOL     OW32734   3.864   1.773   4.817
10612SOL    HW132735   3.872   1.766   4.717
10612SOL    HW232736   3.767   1.777   4.842
10613SOL     OW32737   5.547   6.149   5.398
10613SOL    HW132738   5.518   6.121   5.489
10613SOL    HW232739   5.576   6.245   5.399
10614SOL     OW32740   5.821   1.705   4.602
10614SOL    HW132741   5.804   1.631   4.667
10614SOL    HW232742   5.856   1.785   4.651
10615SOL     OW32743   4.273   6.970   5.689
10615SOL    HW132744   4.300   6.940   5.598
10615SOL    HW232745   4.307   6.905   5.757
10616SOL     OW32746   2.890   6.686   0.853
10616SOL    HW132747   2.928   6.691   0.760
10616SOL    HW232748   2.826   6.609   0.858
10617SOL     OW32749   3.138   3.267   1.584
10617SOL    HW132750   3.084   3.251   1.666
10617SOL    HW232751   3.230   3.230   1.596
10618SOL     OW32752   0.687   3.605   5.981
10618SOL    HW132753   0.680   3.697   6.018
10618SOL    HW232754   0.781   3.573   5.989
10619SOL     OW32755   0.067   3.881   1.999
10619SOL    HW132756   6.995   3.848   2.022
10619SOL    HW232757   0.060   3.963   1.942
10620SOL     OW32758   0.940   5.692   5.140
10620SOL    HW132759   0.949   5.787   5.170
10620SOL    HW232760   0.912   5.691   5.044
10621SOL     OW32761   0.760   5.690   1.604
10621SOL    HW132762   0.839   5.716   1.548
10621SOL    HW232763   0.722   5.772   1.648
10622SOL     OW32764   5.180   2.114   1.425
10622SOL    HW132765   5.244   2.055   1.375
10622SOL    HW232766   5.231   2.177   1.483
10623SOL     OW32767   6.833   4.783   5.061
10623SOL    HW132768   6.906   4.772   5.128
10623SOL    HW232769   6.870   4.818   4.975
10624SOL     OW32770   0.626   2.683   4.416
10624SOL    HW132771   0.603   2.609   4.480
10624SOL    HW232772   0.543   2.713   4.369
10625SOL     OW32773   0.450   4.460   0.961
10625SOL    HW132774   0.388   4.475   0.884
10625SOL    HW232775   0.479   4.365   0.962
10626SOL     OW32776   2.659   2.974   0.075
10626SOL    HW132777   2.652   3.062   0.122
10626SOL    HW232778   2.754   2.942   0.077
10627SOL     OW32779   5.715   6.930   1.068
10627SOL    HW132780   5.620   6.940   1.099
10627SOL    HW232781   5.719   6.943   0.969
10628SOL     OW32782   5.179   6.288   0.331
10628SOL    HW132783   5.116   6.331   0.395
10628SOL    HW232784   5.162   6.324   0.239
10629SOL     OW32785   2.446   4.892   5.041
10629SOL    HW132786   2.442   4.921   5.136
10629SOL    HW232787   2.371   4.829   5.022
10630SOL     OW32788   6.056   1.474   3.846
10630SOL    HW132789   5.985   1.426   3.794
10630SOL    HW232790   6.146   1.446   3.811
10631SOL     OW32791   2.914   5.190   4.945
10631SOL    HW132792   2.817   5.165   4.951
10631SOL    HW232793   2.930   5.273   4.998
10632SOL     OW32794   5.803   1.520   3.977
10632SOL    HW132795   5.760   1.548   4.063
10632SOL    HW232796   5.888   1.471   3.997
10633SOL     OW32797   2.740   2.886   0.912
10633SOL    HW132798   2.700   2.850   0.828
10633SOL    HW232799   2.669   2.896   0.981
10634SOL     OW32800   3.253   5.051   1.007
10634SOL    HW132801   3.328   4.986   1.012
10634SOL    HW232802   3.211   5.061   1.098
10635SOL     OW32803   2.224   2.839   1.250
10635SOL    HW132804   2.274   2.839   1.164
10635SOL    HW232805   2.183   2.749   1.264
10636SOL     OW32806   1.217   2.032   1.508
10636SOL    HW132807   1.312   2.032   1.539
10636SOL    HW232808   1.156   2.027   1.587
10637SOL     OW32809   2.458   4.567   6.540
10637SOL    HW132810   2.522   4.489   6.546
10637SOL    HW232811   2.395   4.551   6.464
10638SOL     OW32812   6.313   5.682   2.802
10638SOL    HW132813   6.282   5.777   2.812
10638SOL    HW232814   6.366   5.673   2.718
10639SOL     OW32815   0.980   3.192   3.476
10639SOL    HW132816   0.883   3.171   3.460
10639SOL    HW232817   0.995   3.290   3.465
10640SOL     OW32818   3.732   0.288   5.459
10640SOL    HW132819   3.781   0.214   5.504
10640SOL    HW232820   3.665   0.250   5.395
10641SOL     OW32821   2.379   2.018   1.852
10641SOL    HW132822   2.379   2.118   1.856
10641SOL    HW232823   2.344   1.988   1.763
10642SOL     OW32824   6.404   2.763   1.891
10642SOL    HW132825   6.438   2.777   1.798
10642SOL    HW232826   6.322   2.705   1.889
10643SOL     OW32827   1.843   4.988   5.159
10643SOL    HW132828   1.825   5.050   5.084
10643SOL    HW232829   1.910   4.919   5.131
10644SOL     OW32830   5.935   2.884   2.611
10644SOL    HW132831   5.843   2.863   2.643
10644SOL    HW232832   5.982   2.938   2.680
10645SOL     OW32833   1.826   2.401   4.775
10645SOL    HW132834   1.825   2.301   4.768
10645SOL    HW232835   1.917   2.435   4.753
10646SOL     OW32836   0.379   0.754   6.742
10646SOL    HW132837   0.446   0.812   6.696
10646SOL    HW232838   0.295   0.751   6.688
10647SOL     OW32839   2.952   5.629   4.281
10647SOL    HW132840   2.985   5.554   4.224
10647SOL    HW232841   2.870   5.600   4.330
10648SOL     OW32842   5.790   4.582   6.077
10648SOL    HW132843   5.757   4.645   6.148
10648SOL    HW232844   5.799   4.631   5.991
10649SOL     OW32845   0.082   4.870   2.376
10649SOL    HW132846   0.042   4.950   2.332
10649SOL    HW232847   0.082   4.794   2.312
10650SOL     OW32848   1.076   0.191   3.656
10650SOL    HW132849   1.067   0.290   3.657
10650SOL    HW232850   1.073   0.158   3.562
10651SOL     OW32851   5.360   5.782   6.406
10651SOL    HW132852   5.436   5.716   6.402
10651SOL    HW232853   5.367   5.844   6.328
10652SOL     OW32854   3.485   6.918   5.905
10652SOL    HW132855   3.520   6.924   5.998
10652SOL    HW232856   3.500   6.826   5.870
10653SOL     OW32857   4.312   4.634   3.957
10653SOL    HW132858   4.243   4.673   4.018
10653SOL    HW232859   4.376   4.578   4.010
10654SOL     OW32860   5.207   0.902   0.696
10654SOL    HW132861   5.107   0.903   0.702
10654SOL    HW232862   5.243   0.828   0.752
10655SOL     OW32863   2.322   5.391   1.146
10655SOL    HW132864   2.371   5.429   1.068
10655SOL    HW232865   2.256   5.459   1.180
10656SOL     OW32866   6.627   2.437   2.745
10656SOL    HW132867   6.687   2.418   2.822
10656SOL    HW232868   6.555   2.500   2.774
10657SOL     OW32869   6.672   6.848   6.069
10657SOL    HW132870   6.653   6.851   6.167
10657SOL    HW232871   6.622   6.771   6.028
10658SOL     OW32872   6.033   4.465   4.941
10658SOL    HW132873   6.106   4.521   4.981
10658SOL    HW232874   6.051   4.368   4.960
10659SOL     OW32875   6.732   5.810   1.069
10659SOL    HW132876   6.636   5.819   1.096
10659SOL    HW232877   6.777   5.744   1.128
10660SOL     OW32878   4.640   4.613   6.529
10660SOL    HW132879   4.697   4.533   6.546
10660SOL    HW232880   4.699   4.694   6.523
10661SOL     OW32881   1.570   0.400   2.072
10661SOL    HW132882   1.560   0.444   1.983
10661SOL    HW232883   1.480   0.392   2.115
10662SOL     OW32884   5.630   0.029   2.884
10662SOL    HW132885   5.707   0.075   2.838
10662SOL    HW232886   5.579   6.995   2.817
10663SOL     OW32887   0.547   1.497   1.738
10663SOL    HW132888   0.578   1.586   1.772
10663SOL    HW232889   0.476   1.462   1.798
10664SOL     OW32890   0.073   4.423   5.468
10664SOL    HW132891   0.142   4.487   5.434
10664SOL    HW232892   0.118   4.354   5.525
10665SOL     OW32893   1.241   1.114   0.303
10665SOL    HW132894   1.315   1.074   0.249
10665SOL    HW232895   1.280   1.177   0.371
10666SOL     OW32896   3.202   3.954   1.097
10666SOL    HW132897   3.169   3.913   1.182
10666SOL    HW232898   3.269   3.893   1.054
10667SOL     OW32899   3.883   3.377   5.254
10667SOL    HW132900   3.825   3.424   5.188
10667SOL    HW232901   3.856   3.280   5.257
10668SOL     OW32902   2.062   0.608   4.833
10668SOL    HW132903   2.031   0.544   4.904
10668SOL    HW232904   2.158   0.633   4.850
10669SOL     OW32905   5.854   6.677   1.063
10669SOL    HW132906   5.788   6.751   1.073
10669SOL    HW232907   5.912   6.694   0.984
10670SOL     OW32908   5.218   3.551   5.166
10670SOL    HW132909   5.233   3.583   5.260
10670SOL    HW232910   5.147   3.480   5.166
10671SOL     OW32911   2.327   2.623   3.217
10671SOL    HW132912   2.342   2.665   3.128
10671SOL    HW232913   2.400   2.557   3.236
10672SOL     OW32914   5.987   2.827   0.599
10672SOL    HW132915   5.890   2.826   0.574
10672SOL    HW232916   6.038   2.769   0.535
10673SOL     OW32917   1.404   1.324   6.406
10673SOL    HW132918   1.387   1.289   6.498
10673SOL    HW232919   1.321   1.316   6.352
10674SOL     OW32920   3.726   3.765   1.946
10674SOL    HW132921   3.777   3.772   2.032
10674SOL    HW232922   3.771   3.700   1.885
10675SOL     OW32923   1.974   6.591   0.026
10675SOL    HW132924   1.995   6.685   0.054
10675SOL    HW232925   1.937   6.540   0.103
10676SOL     OW32926   6.648   6.278   6.441
10676SOL    HW132927   6.722   6.221   6.476
10676SOL    HW232928   6.566   6.222   6.430
10677SOL     OW32929   0.918   0.866   2.679
10677SOL    HW132930   0.938   0.852   2.776
10677SOL    HW232931   1.004   0.865   2.627
10678SOL     OW32932   2.958   5.985   3.934
10678SOL    HW132933   2.983   5.895   3.896
10678SOL    HW232934   2.967   5.982   4.033
10679SOL     OW32935   4.394   5.823   6.449
10679SOL    HW132936   4.371   5.901   6.508
10679SOL    HW232937   4.469   5.771   6.491
10680SOL     OW32938   2.742   1.961   2.952
10680SOL    HW132939   2.806   2.034   2.975
10680SOL    HW232940   2.748   1.939   2.855
10681SOL     OW32941   1.299   3.417   0.131
10681SOL    HW132942   1.371   3.348   0.125
10681SOL    HW232943   1.336   3.507   0.108
10682SOL     OW32944   2.041   1.216   4.440
10682SOL    HW132945   2.079   1.266   4.362
10682SOL    HW232946   2.058   1.118   4.427
10683SOL     OW32947   3.394   2.119   4.004
10683SOL    HW132948   3.489   2.108   4.033
10683SOL    HW232949   3.391   2.137   3.905
10684SOL     OW32950   5.113   4.171   1.112
10684SOL    HW132951   5.185   4.181   1.181
10684SOL    HW232952   5.066   4.084   1.126
10685SOL     OW32953   0.440   5.722   2.909
10685SOL    HW132954   0.378   5.799   2.924
10685SOL    HW232955   0.426   5.685   2.817
10686SOL     OW32956   1.842   4.898   6.184
10686SOL    HW132957   1.890   4.891   6.096
10686SOL    HW232958   1.791   4.984   6.187
10687SOL     OW32959   7.017   5.417   1.983
10687SOL    HW132960   6.965   5.495   2.017
10687SOL    HW232961   6.962   5.366   1.917
10688SOL     OW32962   5.993   4.480   2.997
10688SOL    HW132963   5.959   4.405   3.055
10688SOL    HW232964   6.041   4.442   2.918
10689SOL     OW32965   0.534   6.722   3.576
10689SOL    HW132966   0.459   6.777   3.541
10689SOL    HW232967   0.501   6.630   3.597
10690SOL     OW32968   6.921   6.373   2.728
10690SOL    HW132969   6.951   6.322   2.809
10690SOL    HW232970   6.837   6.332   2.692
10691SOL     OW32971   0.393   1.939   2.270
10691SOL    HW132972   0.300   1.972   2.280
10691SOL    HW232973   0.446   1.961   2.353
10692SOL     OW32974   2.986   5.008   2.845
10692SOL    HW132975   2.977   4.912   2.868
10692SOL    HW232976   2.955   5.024   2.752
10693SOL     OW32977   2.828   0.105   0.362
10693SOL    HW132978   2.761   0.052   0.414
10693SOL    HW232979   2.920   0.078   0.390
10694SOL     OW32980   5.544   6.691   1.517
10694SOL    HW132981   5.584   6.767   1.568
10694SOL    HW232982   5.617   6.626   1.493
10695SOL     OW32983   5.492   2.057   2.794
10695SOL    HW132984   5.500   1.987   2.723
10695SOL    HW232985   5.417   2.119   2.771
10696SOL     OW32986   6.758   3.923   3.653
10696SOL    HW132987   6.685   3.925   3.584
10696SOL    HW232988   6.726   3.874   3.734
10697SOL     OW32989   0.716   5.491   4.836
10697SOL    HW132990   0.806   5.529   4.857
10697SOL    HW232991   0.647   5.532   4.897
10698SOL     OW32992   4.115   5.640   4.754
10698SOL    HW132993   4.119   5.562   4.692
10698SOL    HW232994   4.168   5.620   4.837
10699SOL     OW32995   3.927   2.966   1.895
10699SOL    HW132996   3.882   2.962   1.984
10699SOL    HW232997   3.863   2.941   1.824
10700SOL     OW32998   0.824   6.838   0.896
10700SOL    HW132999   0.742   6.858   0.842
10700SOL    HW233000   0.870   6.924   0.920
10701SOL     OW33001   3.215   5.844   0.113
10701SOL    HW133002   3.294   5.816   0.169
10701SOL    HW233003   3.134   5.794   0.143
10702SOL     OW33004   6.176   2.569   2.019
10702SOL    HW133005   6.179   2.517   1.933
10702SOL    HW233006   6.129   2.656   2.003
10703SOL     OW33007   3.017   3.184   4.291
10703SOL    HW133008   3.081   3.112   4.263
10703SOL    HW233009   3.008   3.185   4.391
10704SOL     OW33010   6.235   5.523   1.253
10704SOL    HW133011   6.178   5.571   1.319
10704SOL    HW233012   6.331   5.547   1.267
10705SOL     OW33013   6.763   4.202   2.360
10705SOL    HW133014   6.716   4.282   2.324
10705SOL    HW233015   6.790   4.219   2.455
10706SOL     OW33016   4.621   6.691   2.241
10706SOL    HW133017   4.657   6.726   2.327
10706SOL    HW233018   4.521   6.691   2.244
10707SOL     OW33019   0.398   7.002   3.662
10707SOL    HW133020   0.415   6.954   3.749
10707SOL    HW233021   0.472   6.981   3.598
10708SOL     OW33022   4.250   0.647   2.707
10708SOL    HW133023   4.264   0.553   2.736
10708SOL    HW233024   4.323   0.674   2.644
10709SOL     OW33025   6.157   0.012   4.975
10709SOL    HW133026   6.071   6.981   4.982
10709SOL    HW233027   6.234   6.967   4.972
10710SOL     OW33028   0.525   6.711   4.914
10710SOL    HW133029   0.494   6.703   4.820
10710SOL    HW233030   0.499   6.800   4.951
10711SOL     OW33031   1.778   6.490   3.309
10711SOL    HW133032   1.793   6.492   3.408
10711SOL    HW233033   1.864   6.467   3.263
10712SOL     OW33034   2.768   1.187   1.219
10712SOL    HW133035   2.831   1.240   1.276
10712SOL    HW233036   2.674   1.211   1.242
10713SOL     OW33037   0.691   3.399   1.619
10713SOL    HW133038   0.726   3.492   1.629
10713SOL    HW233039   0.639   3.391   1.534
10714SOL     OW33040   6.554   3.978   5.866
10714SOL    HW133041   6.535   4.042   5.940
10714SOL    HW233042   6.644   3.936   5.880
10715SOL     OW33043   4.627   0.034   2.804
10715SOL    HW133044   4.650   6.963   2.840
10715SOL    HW233045   4.538   0.029   2.758
10716SOL     OW33046   6.203   2.864   4.474
10716SOL    HW133047   6.155   2.779   4.493
10716SOL    HW233048   6.142   2.942   4.491
10717SOL     OW33049   1.198   2.648   1.024
10717SOL    HW133050   1.286   2.616   0.987
10717SOL    HW233051   1.144   2.687   0.950
10718SOL     OW33052   0.259   3.256   6.500
10718SOL    HW133053   0.159   3.253   6.505
10718SOL    HW233054   0.290   3.202   6.422
10719SOL     OW33055   4.890   5.754   6.987
10719SOL    HW133056   4.839   5.678   0.008
10719SOL    HW233057   4.977   5.720   6.950
10720SOL     OW33058   6.471   2.911   5.921
10720SOL    HW133059   6.536   2.932   5.993
10720SOL    HW233060   6.475   2.982   5.851
10721SOL     OW33061   6.522   3.811   5.102
10721SOL    HW133062   6.576   3.805   5.018
10721SOL    HW233063   6.545   3.896   5.150
10722SOL     OW33064   6.942   3.782   0.370
10722SOL    HW133065   6.907   3.713   0.434
10722SOL    HW233066   0.002   3.827   0.409
10723SOL     OW33067   7.004   3.525   6.907
10723SOL    HW133068   6.995   3.426   6.907
10723SOL    HW233069   6.923   3.566   6.866
10724SOL     OW33070   4.480   0.274   0.075
10724SOL    HW133071   4.543   0.311   0.007
10724SOL    HW233072   4.390   0.261   0.034
10725SOL     OW33073   0.064   5.378   3.745
10725SOL    HW133074   0.055   5.325   3.661
10725SOL    HW233075   0.147   5.433   3.742
10726SOL     OW33076   5.976   6.239   5.487
10726SOL    HW133077   6.006   6.152   5.450
10726SOL    HW233078   5.893   6.270   5.439
10727SOL     OW33079   0.750   4.886   4.049
10727SOL    HW133080   0.731   4.959   4.114
10727SOL    HW233081   0.830   4.910   3.994
10728SOL     OW33082   6.602   6.035   1.632
10728SOL    HW133083   6.542   6.105   1.672
10728SOL    HW233084   6.595   6.038   1.532
10729SOL     OW33085   6.026   1.046   3.151
10729SOL    HW133086   6.005   0.954   3.185
10729SOL    HW233087   5.973   1.113   3.203
10730SOL     OW33088   2.874   0.540   0.994
10730SOL    HW133089   2.848   0.634   0.972
10730SOL    HW233090   2.943   0.508   0.929
10731SOL     OW33091   2.330   5.832   6.378
10731SOL    HW133092   2.410   5.889   6.399
10731SOL    HW233093   2.356   5.762   6.312
10732SOL     OW33094   5.537   6.076   2.751
10732SOL    HW133095   5.587   6.011   2.809
10732SOL    HW233096   5.440   6.054   2.752
10733SOL     OW33097   5.497   2.142   6.799
10733SOL    HW133098   5.417   2.088   6.826
10733SOL    HW233099   5.476   2.239   6.809
10734SOL     OW33100   1.057   6.912   6.782
10734SOL    HW133101   1.110   6.894   6.865
10734SOL    HW233102   1.081   7.001   6.745
10735SOL     OW33103   1.783   4.923   2.711
10735SOL    HW133104   1.815   4.996   2.772
10735SOL    HW233105   1.861   4.883   2.662
10736SOL     OW33106   0.663   1.045   3.454
10736SOL    HW133107   0.702   1.109   3.520
10736SOL    HW233108   0.587   1.088   3.406
10737SOL     OW33109   1.500   1.885   0.350
10737SOL    HW133110   1.553   1.888   0.435
10737SOL    HW233111   1.484   1.790   0.325
10738SOL     OW33112   2.533   0.690   2.246
10738SOL    HW133113   2.436   0.695   2.268
10738SOL    HW233114   2.544   0.660   2.151
10739SOL     OW33115   0.675   1.347   2.128
10739SOL    HW133116   0.705   1.326   2.035
10739SOL    HW233117   0.713   1.279   2.191
10740SOL     OW33118   1.546   4.231   6.173
10740SOL    HW133119   1.574   4.201   6.264
10740SOL    HW233120   1.476   4.303   6.182
10741SOL     OW33121   0.355   1.105   3.667
10741SOL    HW133122   0.366   1.193   3.620
10741SOL    HW233123   0.415   1.038   3.624
10742SOL     OW33124   6.141   0.381   1.908
10742SOL    HW133125   6.130   0.367   2.007
10742SOL    HW233126   6.170   0.296   1.865
10743SOL     OW33127   2.622   2.484   3.590
10743SOL    HW133128   2.555   2.428   3.639
10743SOL    HW233129   2.578   2.567   3.556
10744SOL     OW33130   3.255   1.725   3.001
10744SOL    HW133131   3.350   1.755   2.990
10744SOL    HW233132   3.253   1.631   3.036
10745SOL     OW33133   0.744   5.199   0.647
10745SOL    HW133134   0.718   5.293   0.665
10745SOL    HW233135   0.841   5.186   0.669
10746SOL     OW33136   1.903   4.025   1.721
10746SOL    HW133137   1.877   4.092   1.652
10746SOL    HW233138   1.919   3.936   1.678
10747SOL     OW33139   4.543   1.666   3.399
10747SOL    HW133140   4.507   1.674   3.306
10747SOL    HW233141   4.611   1.593   3.401
10748SOL     OW33142   4.564   6.754   1.084
10748SOL    HW133143   4.483   6.813   1.091
10748SOL    HW233144   4.645   6.811   1.076
10749SOL     OW33145   0.227   4.643   2.968
10749SOL    HW133146   0.225   4.543   2.962
10749SOL    HW233147   0.299   4.671   3.031
10750SOL     OW33148   3.976   6.138   4.170
10750SOL    HW133149   3.893   6.096   4.133
10750SOL    HW233150   3.952   6.227   4.211
10751SOL     OW33151   0.879   3.628   5.605
10751SOL    HW133152   0.877   3.721   5.569
10751SOL    HW233153   0.792   3.608   5.650
10752SOL     OW33154   6.266   4.050   6.005
10752SOL    HW133155   6.268   3.967   6.060
10752SOL    HW233156   6.316   4.123   6.053
10753SOL     OW33157   5.475   0.683   3.530
10753SOL    HW133158   5.446   0.646   3.442
10753SOL    HW233159   5.570   0.657   3.547
10754SOL     OW33160   2.001   1.619   3.580
10754SOL    HW133161   1.952   1.704   3.561
10754SOL    HW233162   1.963   1.546   3.524
10755SOL     OW33163   0.410   1.881   0.622
10755SOL    HW133164   0.406   1.879   0.722
10755SOL    HW233165   0.387   1.973   0.590
10756SOL     OW33166   6.282   4.125   0.055
10756SOL    HW133167   6.234   4.038   0.059
10756SOL    HW233168   6.369   4.117   0.104
10757SOL     OW33169   0.311   3.471   0.361
10757SOL    HW133170   0.295   3.566   0.332
10757SOL    HW233171   0.404   3.444   0.336
10758SOL     OW33172   1.404   6.203   4.795
10758SOL    HW133173   1.348   6.238   4.870
10758SOL    HW233174   1.376   6.249   4.710
10759SOL     OW33175   1.548   2.669   6.766
10759SOL    HW133176   1.647   2.678   6.760
10759SOL    HW233177   1.523   2.572   6.765
10760SOL     OW33178   0.058   0.576   0.616
10760SOL    HW133179   0.125   0.623   0.673
10760SOL    HW233180   0.015   0.643   0.554
10761SOL     OW33181   0.893   1.747   6.154
10761SOL    HW133182   0.957   1.780   6.224
10761SOL    HW233183   0.939   1.745   6.065
10762SOL     OW33184   4.277   1.725   4.831
10762SOL    HW133185   4.225   1.738   4.747
10762SOL    HW233186   4.362   1.676   4.810
10763SOL     OW33187   4.741   6.307   0.635
10763SOL    HW133188   4.735   6.312   0.536
10763SOL    HW233189   4.773   6.216   0.662
10764SOL     OW33190   5.602   1.555   5.698
10764SOL    HW133191   5.580   1.570   5.601
10764SOL    HW233192   5.518   1.550   5.751
10765SOL     OW33193   5.561   3.014   1.317
10765SOL    HW133194   5.647   3.008   1.368
10765SOL    HW233195   5.566   2.954   1.237
10766SOL     OW33196   3.693   3.272   0.267
10766SOL    HW133197   3.786   3.290   0.236
10766SOL    HW233198   3.648   3.358   0.291
10767SOL     OW33199   1.403   0.402   0.103
10767SOL    HW133200   1.491   0.447   0.120
10767SOL    HW233201   1.419   0.311   0.065
10768SOL     OW33202   5.312   5.322   1.314
10768SOL    HW133203   5.337   5.365   1.401
10768SOL    HW233204   5.224   5.358   1.284
10769SOL     OW33205   2.204   4.865   4.707
10769SOL    HW133206   2.141   4.840   4.634
10769SOL    HW233207   2.269   4.790   4.722
10770SOL     OW33208   5.378   0.056   4.879
10770SOL    HW133209   5.284   0.066   4.846
10770SOL    HW233210   5.376   0.019   4.972
10771SOL     OW33211   4.441   0.163   5.288
10771SOL    HW133212   4.522   0.139   5.342
10771SOL    HW233213   4.461   0.149   5.191
10772SOL     OW33214   6.267   6.712   3.806
10772SOL    HW133215   6.353   6.702   3.857
10772SOL    HW233216   6.236   6.622   3.777
10773SOL     OW33217   6.380   5.152   6.230
10773SOL    HW133218   6.442   5.075   6.248
10773SOL    HW233219   6.422   5.214   6.164
10774SOL     OW33220   1.721   1.707   6.666
10774SOL    HW133221   1.799   1.651   6.693
10774SOL    HW233222   1.672   1.661   6.592
10775SOL     OW33223   0.714   3.705   0.983
10775SOL    HW133224   0.673   3.644   1.051
10775SOL    HW233225   0.802   3.667   0.952
10776SOL     OW33226   1.123   6.336   0.878
10776SOL    HW133227   1.101   6.375   0.789
10776SOL    HW233228   1.088   6.242   0.883
10777SOL     OW33229   4.106   6.412   3.812
10777SOL    HW133230   4.141   6.409   3.719
10777SOL    HW233231   4.006   6.421   3.810
10778SOL     OW33232   6.105   6.043   5.004
10778SOL    HW133233   6.179   6.094   5.049
10778SOL    HW233234   6.068   5.975   5.067
10779SOL     OW33235   5.946   4.850   3.213
10779SOL    HW133236   5.988   4.937   3.184
10779SOL    HW233237   6.013   4.776   3.202
10780SOL     OW33238   1.626   6.951   3.115
10780SOL    HW133239   1.713   6.961   3.066
10780SOL    HW233240   1.623   6.861   3.159
10781SOL     OW33241   3.926   1.316   3.552
10781SOL    HW133242   3.925   1.218   3.572
10781SOL    HW233243   3.967   1.331   3.461
10782SOL     OW33244   6.801   1.931   3.696
10782SOL    HW133245   6.826   1.892   3.784
10782SOL    HW233246   6.882   1.938   3.638
10783SOL     OW33247   1.496   3.326   3.748
10783SOL    HW133248   1.570   3.330   3.815
10783SOL    HW233249   1.422   3.388   3.775
10784SOL     OW33250   2.834   0.403   2.456
10784SOL    HW133251   2.780   0.321   2.440
10784SOL    HW233252   2.932   0.380   2.452
10785SOL     OW33253   0.907   4.950   0.886
10785SOL    HW133254   0.999   4.962   0.850
10785SOL    HW233255   0.872   5.039   0.918
10786SOL     OW33256   4.878   3.314   1.840
10786SOL    HW133257   4.901   3.282   1.932
10786SOL    HW233258   4.789   3.277   1.813
10787SOL     OW33259   2.959   2.155   4.388
10787SOL    HW133260   3.049   2.150   4.343
10787SOL    HW233261   2.971   2.188   4.482
10788SOL     OW33262   1.937   4.284   0.548
10788SOL    HW133263   1.843   4.318   0.553
10788SOL    HW233264   1.940   4.190   0.581
10789SOL     OW33265   5.820   2.286   0.126
10789SOL    HW133266   5.915   2.260   0.113
10789SOL    HW233267   5.810   2.385   0.114
10790SOL     OW33268   1.466   0.832   3.848
10790SOL    HW133269   1.531   0.798   3.915
10790SOL    HW233270   1.420   0.914   3.883
10791SOL     OW33271   0.445   1.401   1.209
10791SOL    HW133272   0.354   1.391   1.169
10791SOL    HW233273   0.445   1.476   1.274
10792SOL     OW33274   3.828   3.536   1.832
10792SOL    HW133275   3.765   3.480   1.779
10792SOL    HW233276   3.880   3.479   1.895
10793SOL     OW33277   5.257   2.862   4.162
10793SOL    HW133278   5.188   2.919   4.117
10793SOL    HW233279   5.330   2.840   4.098
10794SOL     OW33280   2.978   3.832   2.986
10794SOL    HW133281   2.907   3.884   2.938
10794SOL    HW233282   3.010   3.758   2.927
10795SOL     OW33283   6.663   3.699   3.862
10795SOL    HW133284   6.641   3.725   3.956
10795SOL    HW233285   6.613   3.616   3.838
10796SOL     OW33286   4.884   6.386   6.961
10796SOL    HW133287   4.914   6.368   6.867
10796SOL    HW233288   4.797   6.436   6.958
10797SOL     OW33289   4.479   2.336   1.229
10797SOL    HW133290   4.507   2.420   1.275
10797SOL    HW233291   4.558   2.275   1.220
10798SOL     OW33292   2.091   6.842   0.639
10798SOL    HW133293   2.103   6.857   0.738
10798SOL    HW233294   2.145   6.762   0.612
10799SOL     OW33295   3.650   1.146   1.921
10799SOL    HW133296   3.721   1.181   1.983
10799SOL    HW233297   3.589   1.084   1.971
10800SOL     OW33298   1.410   0.162   6.997
10800SOL    HW133299   1.398   0.188   6.901
10800SOL    HW233300   1.498   0.115   7.007
10801SOL     OW33301   1.084   0.069   4.824
10801SOL    HW133302   1.108   0.044   4.730
10801SOL    HW233303   1.019   0.145   4.823
10802SOL     OW33304   1.850   3.189   4.366
10802SOL    HW133305   1.909   3.118   4.328
10802SOL    HW233306   1.795   3.150   4.440
10803SOL     OW33307   4.052   4.284   5.539
10803SOL    HW133308   4.043   4.187   5.513
10803SOL    HW233309   4.005   4.341   5.472
10804SOL     OW33310   6.918   4.063   1.384
10804SOL    HW133311   6.913   4.058   1.284
10804SOL    HW233312   6.939   4.157   1.411
10805SOL     OW33313   3.308   6.668   6.557
10805SOL    HW133314   3.263   6.756   6.545
10805SOL    HW233315   3.282   6.629   6.645
10806SOL     OW33316   5.001   4.640   6.315
10806SOL    HW133317   4.905   4.647   6.287
10806SOL    HW233318   5.006   4.635   6.415
10807SOL     OW33319   2.384   0.051   3.533
10807SOL    HW133320   2.351   6.979   3.557
10807SOL    HW233321   2.312   0.100   3.482
10808SOL     OW33322   6.658   4.256   6.675
10808SOL    HW133323   6.628   4.305   6.593
10808SOL    HW233324   6.579   4.239   6.734
10809SOL     OW33325   2.286   6.109   3.549
10809SOL    HW133326   2.199   6.131   3.505
10809SOL    HW233327   2.320   6.189   3.598
10810SOL     OW33328   1.564   0.059   4.603
10810SOL    HW133329   1.591   6.989   4.567
10810SOL    HW233330   1.580   0.062   4.701
10811SOL     OW33331   4.270   4.641   5.703
10811SOL    HW133332   4.282   4.568   5.635
10811SOL    HW233333   4.242   4.725   5.656
10812SOL     OW33334   0.865   3.684   1.882
10812SOL    HW133335   0.874   3.782   1.903
10812SOL    HW233336   0.783   3.648   1.926
10813SOL     OW33337   1.595   5.872   0.205
10813SOL    HW133338   1.583   5.954   0.262
10813SOL    HW233339   1.605   5.793   0.265
10814SOL     OW33340   1.467   6.570   0.205
10814SOL    HW133341   1.559   6.587   0.239
10814SOL    HW233342   1.428   6.491   0.250
10815SOL     OW33343   4.865   5.011   3.151
10815SOL    HW133344   4.790   5.057   3.198
10815SOL    HW233345   4.877   4.919   3.190
10816SOL     OW33346   1.224   1.833   1.850
10816SOL    HW133347   1.263   1.753   1.895
10816SOL    HW233348   1.287   1.910   1.859
10817SOL     OW33349   5.211   0.230   2.204
10817SOL    HW133350   5.126   0.256   2.251
10817SOL    HW233351   5.281   0.299   2.223
10818SOL     OW33352   4.383   4.244   5.358
10818SOL    HW133353   4.468   4.195   5.338
10818SOL    HW233354   4.344   4.278   5.273
10819SOL     OW33355   6.870   4.478   0.020
10819SOL    HW133356   6.830   4.409   0.080
10819SOL    HW233357   6.809   4.558   0.017
10820SOL     OW33358   5.937   5.961   4.297
10820SOL    HW133359   6.018   5.966   4.240
10820SOL    HW233360   5.879   6.041   4.278
10821SOL     OW33361   5.623   6.386   2.141
10821SOL    HW133362   5.630   6.368   2.239
10821SOL    HW233363   5.612   6.484   2.125
10822SOL     OW33364   1.013   2.837   3.065
10822SOL    HW133365   0.963   2.923   3.078
10822SOL    HW233366   1.107   2.848   3.098
10823SOL     OW33367   1.591   5.239   2.222
10823SOL    HW133368   1.627   5.146   2.232
10823SOL    HW233369   1.619   5.294   2.300
10824SOL     OW33370   4.977   0.100   4.081
10824SOL    HW133371   4.926   0.081   3.997
10824SOL    HW233372   5.023   0.188   4.072
10825SOL     OW33373   3.099   0.564   6.645
10825SOL    HW133374   3.191   0.597   6.666
10825SOL    HW233375   3.093   0.467   6.669
10826SOL     OW33376   0.565   3.564   3.952
10826SOL    HW133377   0.551   3.566   3.853
10826SOL    HW233378   0.628   3.490   3.975
10827SOL     OW33379   5.831   3.929   4.679
10827SOL    HW133380   5.867   3.968   4.594
10827SOL    HW233381   5.902   3.875   4.724
10828SOL     OW33382   1.361   5.472   1.906
10828SOL    HW133383   1.274   5.444   1.866
10828SOL    HW233384   1.418   5.516   1.836
10829SOL     OW33385   3.575   2.427   0.677
10829SOL    HW133386   3.479   2.434   0.651
10829SOL    HW233387   3.610   2.336   0.653
10830SOL     OW33388   5.415   2.093   3.776
10830SOL    HW133389   5.392   2.191   3.774
10830SOL    HW233390   5.492   2.079   3.838
10831SOL     OW33391   4.127   5.988   1.845
10831SOL    HW133392   4.110   6.024   1.937
10831SOL    HW233393   4.224   5.997   1.823
10832SOL     OW33394   0.301   2.208   0.508
10832SOL    HW133395   0.230   2.250   0.564
10832SOL    HW233396   0.387   2.207   0.560
10833SOL     OW33397   1.548   1.175   3.250
10833SOL    HW133398   1.468   1.229   3.225
10833SOL    HW233399   1.555   1.095   3.191
10834SOL     OW33400   1.433   1.971   6.074
10834SOL    HW133401   1.467   1.930   6.158
10834SOL    HW233402   1.473   2.063   6.063
10835SOL     OW33403   6.170   1.969   0.776
10835SOL    HW133404   6.204   1.890   0.725
10835SOL    HW233405   6.247   2.025   0.806
10836SOL     OW33406   6.524   1.178   4.736
10836SOL    HW133407   6.553   1.098   4.789
10836SOL    HW233408   6.438   1.213   4.773
10837SOL     OW33409   0.585   4.887   0.386
10837SOL    HW133410   0.599   4.815   0.454
10837SOL    HW233411   0.510   4.862   0.325
10838SOL     OW33412   5.851   6.395   5.138
10838SOL    HW133413   5.948   6.382   5.161
10838SOL    HW233414   5.842   6.413   5.040
10839SOL     OW33415   3.110   3.418   0.383
10839SOL    HW133416   3.163   3.350   0.434
10839SOL    HW233417   3.130   3.509   0.418
10840SOL     OW33418   3.720   5.482   1.415
10840SOL    HW133419   3.694   5.388   1.435
10840SOL    HW233420   3.685   5.508   1.325
10841SOL     OW33421   3.731   6.736   0.643
10841SOL    HW133422   3.634   6.713   0.642
10841SOL    HW233423   3.782   6.673   0.585
10842SOL     OW33424   5.163   3.408   1.204
10842SOL    HW133425   5.144   3.455   1.290
10842SOL    HW233426   5.228   3.334   1.220
10843SOL     OW33427   1.026   2.235   1.898
10843SOL    HW133428   1.023   2.146   1.944
10843SOL    HW233429   0.993   2.225   1.804
10844SOL     OW33430   0.300   7.012   3.990
10844SOL    HW133431   0.371   6.973   4.050
10844SOL    HW233432   0.338   0.069   3.938
10845SOL     OW33433   3.367   0.593   0.022
10845SOL    HW133434   3.351   0.678   6.992
10845SOL    HW233435   3.295   0.527   0.001
10846SOL     OW33436   4.847   3.164   0.839
10846SOL    HW133437   4.797   3.098   0.783
10846SOL    HW233438   4.837   3.255   0.799
10847SOL     OW33439   3.582   2.949   6.580
10847SOL    HW133440   3.615   3.036   6.616
10847SOL    HW233441   3.487   2.935   6.608
10848SOL     OW33442   3.210   2.662   6.848
10848SOL    HW133443   3.152   2.736   6.812
10848SOL    HW233444   3.273   2.632   6.778
10849SOL     OW33445   2.497   4.505   2.738
10849SOL    HW133446   2.414   4.558   2.755
10849SOL    HW233447   2.509   4.438   2.811
10850SOL     OW33448   4.158   6.231   0.347
10850SOL    HW133449   4.151   6.256   0.444
10850SOL    HW233450   4.243   6.181   0.332
10851SOL     OW33451   2.897   2.916   6.467
10851SOL    HW133452   2.972   2.866   6.424
10851SOL    HW233453   2.813   2.900   6.416
10852SOL     OW33454   0.275   6.419   6.293
10852SOL    HW133455   0.340   6.346   6.269
10852SOL    HW233456   0.283   6.441   6.390
10853SOL     OW33457   3.685   1.639   6.079
10853SOL    HW133458   3.640   1.549   6.078
10853SOL    HW233459   3.615   1.711   6.077
10854SOL     OW33460   5.679   6.398   5.427
10854SOL    HW133461   5.684   6.441   5.517
10854SOL    HW233462   5.738   6.447   5.363
10855SOL     OW33463   2.911   6.161   2.162
10855SOL    HW133464   2.871   6.070   2.150
10855SOL    HW233465   2.840   6.231   2.151
10856SOL     OW33466   6.089   1.738   2.373
10856SOL    HW133467   5.990   1.740   2.358
10856SOL    HW233468   6.126   1.830   2.360
10857SOL     OW33469   5.691   3.390   3.430
10857SOL    HW133470   5.680   3.381   3.529
10857SOL    HW233471   5.729   3.480   3.409
10858SOL     OW33472   0.803   2.334   6.559
10858SOL    HW133473   0.729   2.336   6.626
10858SOL    HW233474   0.782   2.267   6.488
10859SOL     OW33475   2.214   3.985   3.902
10859SOL    HW133476   2.188   3.963   3.808
10859SOL    HW233477   2.201   3.905   3.960
10860SOL     OW33478   6.329   1.087   6.080
10860SOL    HW133479   6.420   1.046   6.072
10860SOL    HW233480   6.330   1.157   6.152
10861SOL     OW33481   3.765   2.934   2.917
10861SOL    HW133482   3.699   2.996   2.961
10861SOL    HW233483   3.841   2.917   2.979
10862SOL     OW33484   2.949   1.567   6.545
10862SOL    HW133485   2.988   1.480   6.514
10862SOL    HW233486   3.019   1.618   6.596
10863SOL     OW33487   4.032   0.385   2.220
10863SOL    HW133488   3.940   0.408   2.250
10863SOL    HW233489   4.070   0.314   2.278
10864SOL     OW33490   2.601   5.278   0.693
10864SOL    HW133491   2.570   5.336   0.618
10864SOL    HW233492   2.700   5.291   0.706
10865SOL     OW33493   5.633   1.400   3.788
10865SOL    HW133494   5.579   1.483   3.800
10865SOL    HW233495   5.706   1.398   3.856
10866SOL     OW33496   5.001   4.989   0.610
10866SOL    HW133497   5.077   4.983   0.675
10866SOL    HW233498   4.980   5.086   0.593
10867SOL     OW33499   3.312   4.288   0.203
10867SOL    HW133500   3.263   4.264   0.287
10867SOL    HW233501   3.318   4.387   0.195
10868SOL     OW33502   1.862   2.028   4.065
10868SOL    HW133503   1.781   1.994   4.018
10868SOL    HW233504   1.931   1.957   4.069
10869NA      NA33505   0.273   2.159   6.246
10870NA      NA33506   4.388   4.598   5.220
10871NA      NA33507   2.389   4.482   2.278
10872NA      NA33508   4.912   4.141   3.738
10873NA      NA33509   4.345   2.463   5.276
10874NA      NA33510   3.192   4.419   1.561
10875NA      NA33511   0.805   4.574   0.060
10876NA      NA33512   3.809   3.835   2.550
10877NA      NA33513   4.807   4.856   1.216
10878NA      NA33514   3.490   0.085   5.761
10879NA      NA33515   6.166   5.684   0.731
10880NA      NA33516   2.332   0.665   5.281
10881NA      NA33517   4.084   4.725   1.694
10882NA      NA33518   4.081   2.669   1.176
   7.01912   7.01912   7.01912
