Generated by trjconv : CNT in water t= 524.00000
33518
    1C        C    1   2.839   2.765   4.748
    1C        C    2   2.894   2.712   4.867
    1C        C    3   2.844   2.771   4.984
    1C        C    4   2.845   2.772   4.259
    1C        C    5   2.900   2.726   4.380
    1C        C    6   2.845   2.773   4.502
    1C        C    7   3.009   2.642   4.623
    1C        C    8   2.892   2.720   4.625
    1C        C    9   3.075   2.606   4.743
    1C        C   10   3.008   2.629   4.866
    1C        C   11   3.178   2.487   4.974
    1C        C   12   3.061   2.564   4.978
    1C        C   13   2.849   2.773   3.770
    1C        C   14   2.899   2.722   3.892
    1C        C   15   2.846   2.770   4.014
    1C        C   16   3.017   2.647   4.136
    1C        C   17   2.901   2.727   4.137
    1C        C   18   3.079   2.612   4.258
    1C        C   19   3.017   2.647   4.380
    1C        C   20   3.208   2.560   4.505
    1C        C   21   3.076   2.610   4.503
    1C        C   22   3.278   2.541   4.626
    1C        C   23   3.208   2.555   4.747
    1C        C   24   3.412   2.496   4.867
    1C        C   25   3.269   2.508   4.866
    1C        C   26   3.489   2.484   4.984
    1C        C   27   2.841   2.760   3.283
    1C        C   28   2.897   2.715   3.404
    1C        C   29   2.849   2.767   3.526
    1C        C   30   3.017   2.640   3.649
    1C        C   31   2.904   2.725   3.649
    1C        C   32   3.076   2.606   3.772
    1C        C   33   3.015   2.642   3.895
    1C        C   34   3.211   2.555   4.019
    1C        C   35   3.080   2.607   4.016
    1C        C   36   3.279   2.535   4.141
    1C        C   37   3.211   2.561   4.261
    1C        C   38   3.417   2.512   4.381
    1C        C   39   3.278   2.540   4.384
    1C        C   40   3.488   2.505   4.503
    1C        C   41   3.417   2.514   4.626
    1C        C   42   3.629   2.491   4.745
    1C        C   43   3.487   2.490   4.746
    1C        C   44   3.704   2.488   4.865
    1C        C   45   3.628   2.482   4.983
    1C        C   46   2.830   2.749   2.795
    1C        C   47   2.892   2.709   2.915
    1C        C   48   2.841   2.759   3.037
    1C        C   49   3.013   2.639   3.161
    1C        C   50   2.893   2.713   3.160
    1C        C   51   3.077   2.605   3.282
    1C        C   52   3.015   2.636   3.405
    1C        C   53   3.209   2.549   3.527
    1C        C   54   3.078   2.603   3.527
    1C        C   55   3.277   2.533   3.650
    1C        C   56   3.208   2.555   3.771
    1C        C   57   3.414   2.513   3.894
    1C        C   58   3.274   2.534   3.894
    1C        C   59   3.486   2.511   4.015
    1C        C   60   3.418   2.512   4.139
    1C        C   61   3.631   2.503   4.259
    1C        C   62   3.490   2.503   4.261
    1C        C   63   3.700   2.508   4.382
    1C        C   64   3.629   2.501   4.504
    1C        C   65   3.837   2.541   4.623
    1C        C   66   3.701   2.503   4.625
    1C        C   67   3.907   2.561   4.744
    1C        C   68   3.839   2.527   4.863
    1C        C   69   4.051   2.586   4.977
    1C        C   70   3.923   2.528   4.975
    1C        C   71   2.824   2.736   2.309
    1C        C   72   2.884   2.695   2.430
    1C        C   73   2.830   2.745   2.551
    1C        C   74   3.006   2.628   2.672
    1C        C   75   2.887   2.705   2.673
    1C        C   76   3.070   2.594   2.793
    1C        C   77   3.010   2.631   2.915
    1C        C   78   3.205   2.552   3.039
    1C        C   79   3.072   2.600   3.038
    1C        C   80   3.276   2.534   3.160
    1C        C   81   3.209   2.554   3.282
    1C        C   82   3.414   2.502   3.403
    1C        C   83   3.274   2.527   3.404
    1C        C   84   3.484   2.493   3.525
    1C        C   85   3.415   2.502   3.648
    1C        C   86   3.624   2.509   3.767
    1C        C   87   3.483   2.500   3.771
    1C        C   88   3.693   2.521   3.890
    1C        C   89   3.627   2.515   4.015
    1C        C   90   3.837   2.547   4.137
    1C        C   91   3.699   2.516   4.136
    1C        C   92   3.906   2.571   4.258
    1C        C   93   3.836   2.548   4.379
    1C        C   94   4.033   2.626   4.500
    1C        C   95   3.904   2.569   4.501
    1C        C   96   4.091   2.670   4.621
    1C        C   97   4.032   2.629   4.742
    1C        C   98   4.196   2.765   4.863
    1C        C   99   4.099   2.660   4.864
    1C        C  100   4.214   2.841   4.980
    1C        C  101   2.816   2.729   2.069
    1C        C  102   2.989   2.595   2.188
    1C        C  103   2.877   2.684   2.187
    1C        C  104   3.062   2.576   2.309
    1C        C  105   3.004   2.620   2.430
    1C        C  106   3.201   2.540   2.551
    1C        C  107   3.070   2.592   2.552
    1C        C  108   3.270   2.522   2.673
    1C        C  109   3.202   2.544   2.795
    1C        C  110   3.411   2.505   2.915
    1C        C  111   3.272   2.528   2.917
    1C        C  112   3.485   2.505   3.035
    1C        C  113   3.416   2.510   3.157
    1C        C  114   3.625   2.512   3.278
    1C        C  115   3.484   2.501   3.280
    1C        C  116   3.694   2.521   3.401
    1C        C  117   3.624   2.509   3.523
    1C        C  118   3.832   2.552   3.647
    1C        C  119   3.694   2.521   3.645
    1C        C  120   3.896   2.578   3.770
    1C        C  121   3.831   2.554   3.893
    1C        C  122   4.024   2.642   4.013
    1C        C  123   3.901   2.573   4.014
    1C        C  124   4.091   2.672   4.134
    1C        C  125   4.032   2.634   4.256
    1C        C  126   4.201   2.759   4.376
    1C        C  127   4.094   2.666   4.379
    1C        C  128   4.247   2.813   4.498
    1C        C  129   4.200   2.761   4.620
    1C        C  130   4.330   2.931   4.739
    1C        C  131   4.248   2.815   4.741
    1C        C  132   4.355   3.004   4.858
    1C        C  133   4.287   2.959   4.972
    1C        C  134   3.173   2.464   2.085
    1C        C  135   3.042   2.513   2.083
    1C        C  136   3.259   2.481   2.195
    1C        C  137   3.193   2.523   2.313
    1C        C  138   3.407   2.483   2.429
    1C        C  139   3.268   2.509   2.431
    1C        C  140   3.480   2.485   2.549
    1C        C  141   3.410   2.500   2.671
    1C        C  142   3.623   2.503   2.790
    1C        C  143   3.482   2.502   2.792
    1C        C  144   3.694   2.514   2.911
    1C        C  145   3.627   2.501   3.035
    1C        C  146   3.836   2.543   3.157
    1C        C  147   3.697   2.513   3.156
    1C        C  148   3.900   2.570   3.279
    1C        C  149   3.833   2.548   3.402
    1C        C  150   4.028   2.629   3.523
    1C        C  151   3.901   2.567   3.524
    1C        C  152   4.088   2.667   3.644
    1C        C  153   4.024   2.638   3.767
    1C        C  154   4.197   2.761   3.889
    1C        C  155   4.082   2.679   3.889
    1C        C  156   4.250   2.811   4.010
    1C        C  157   4.203   2.758   4.132
    1C        C  158   4.341   2.918   4.253
    1C        C  159   4.258   2.804   4.254
    1C        C  160   4.378   2.980   4.374
    1C        C  161   4.335   2.924   4.497
    1C        C  162   4.436   3.113   4.616
    1C        C  163   4.375   2.986   4.617
    1C        C  164   4.463   3.184   4.736
    1C        C  165   4.433   3.122   4.859
    1C        C  166   4.524   3.318   4.972
    1C        C  167   4.484   3.185   4.972
    1C        C  168   3.477   2.437   2.075
    1C        C  169   3.398   2.458   2.189
    1C        C  170   3.618   2.464   2.307
    1C        C  171   3.475   2.461   2.307
    1C        C  172   3.693   2.480   2.425
    1C        C  173   3.622   2.488   2.546
    1C        C  174   3.830   2.538   2.666
    1C        C  175   3.693   2.506   2.667
    1C        C  176   3.897   2.564   2.788
    1C        C  177   3.831   2.548   2.912
    1C        C  178   4.029   2.626   3.033
    1C        C  179   3.901   2.565   3.034
    1C        C  180   4.090   2.661   3.155
    1C        C  181   4.029   2.627   3.278
    1C        C  182   4.204   2.745   3.400
    1C        C  183   4.091   2.661   3.400
    1C        C  184   4.251   2.800   3.522
    1C        C  185   4.200   2.753   3.645
    1C        C  186   4.341   2.913   3.767
    1C        C  187   4.253   2.803   3.766
    1C        C  188   4.379   2.977   3.887
    1C        C  189   4.337   2.922   4.011
    1C        C  190   4.446   3.106   4.130
    1C        C  191   4.380   2.981   4.132
    1C        C  192   4.470   3.170   4.253
    1C        C  193   4.444   3.105   4.376
    1C        C  194   4.502   3.314   4.493
    1C        C  195   4.469   3.177   4.495
    1C        C  196   4.521   3.387   4.613
    1C        C  197   4.514   3.317   4.736
    1C        C  198   4.556   3.534   4.850
    1C        C  199   4.539   3.392   4.854
    1C        C  200   4.587   3.621   4.960
    1C        C  201   3.616   2.423   2.072
    1C        C  202   3.826   2.516   2.186
    1C        C  203   3.692   2.466   2.186
    1C        C  204   3.899   2.542   2.305
    1C        C  205   3.830   2.515   2.425
    1C        C  206   4.028   2.609   2.542
    1C        C  207   3.899   2.552   2.543
    1C        C  208   4.086   2.650   2.664
    1C        C  209   4.024   2.626   2.789
    1C        C  210   4.199   2.750   2.908
    1C        C  211   4.085   2.667   2.910
    1C        C  212   4.253   2.793   3.031
    1C        C  213   4.205   2.743   3.155
    1C        C  214   4.341   2.905   3.276
    1C        C  215   4.255   2.793   3.277
    1C        C  216   4.376   2.968   3.397
    1C        C  217   4.337   2.913   3.521
    1C        C  218   4.437   3.099   3.642
    1C        C  219   4.377   2.971   3.643
    1C        C  220   4.467   3.168   3.762
    1C        C  221   4.444   3.102   3.885
    1C        C  222   4.501   3.307   4.005
    1C        C  223   4.472   3.169   4.006
    1C        C  224   4.509   3.378   4.127
    1C        C  225   4.508   3.306   4.249
    1C        C  226   4.510   3.521   4.366
    1C        C  227   4.516   3.380   4.369
    1C        C  228   4.508   3.595   4.486
    1C        C  229   4.523   3.528   4.609
    1C        C  230   4.496   3.741   4.727
    1C        C  231   4.527   3.603   4.729
    1C        C  232   4.490   3.817   4.846
    1C        C  233   4.541   3.753   4.960
    1C        C  234   4.016   2.610   2.065
    1C        C  235   3.895   2.542   2.067
    1C        C  236   4.088   2.645   2.180
    1C        C  237   4.027   2.605   2.301
    1C        C  238   4.206   2.727   2.421
    1C        C  239   4.093   2.640   2.420
    1C        C  240   4.251   2.783   2.542
    1C        C  241   4.197   2.737   2.664
    1C        C  242   4.340   2.900   2.786
    1C        C  243   4.253   2.789   2.783
    1C        C  244   4.386   2.957   2.907
    1C        C  245   4.344   2.901   3.030
    1C        C  246   4.439   3.090   3.149
    1C        C  247   4.380   2.961   3.152
    1C        C  248   4.458   3.159   3.271
    1C        C  249   4.432   3.097   3.395
    1C        C  250   4.491   3.301   3.516
    1C        C  251   4.459   3.163   3.517
    1C        C  252   4.503   3.372   3.637
    1C        C  253   4.500   3.305   3.761
    1C        C  254   4.521   3.516   3.879
    1C        C  255   4.519   3.375   3.882
    1C        C  256   4.509   3.588   4.000
    1C        C  257   4.508   3.519   4.123
    1C        C  258   4.484   3.732   4.243
    1C        C  259   4.503   3.592   4.244
    1C        C  260   4.464   3.803   4.363
    1C        C  261   4.480   3.734   4.486
    1C        C  262   4.420   3.941   4.607
    1C        C  263   4.467   3.808   4.605
    1C        C  264   4.397   4.013   4.726
    1C        C  265   4.432   3.946   4.846
    1C        C  266   4.317   4.131   4.961
    1C        C  267   4.381   4.008   4.960
    1C        C  268   4.265   2.773   2.062
    1C        C  269   4.202   2.728   2.179
    1C        C  270   4.350   2.885   2.297
    1C        C  271   4.259   2.776   2.299
    1C        C  272   4.387   2.947   2.418
    1C        C  273   4.342   2.891   2.539
    1C        C  274   4.446   3.078   2.664
    1C        C  275   4.377   2.954   2.661
    1C        C  276   4.476   3.146   2.784
    1C        C  277   4.451   3.082   2.907
    1C        C  278   4.493   3.294   3.027
    1C        C  279   4.466   3.155   3.027
    1C        C  280   4.504   3.365   3.148
    1C        C  281   4.489   3.297   3.271
    1C        C  282   4.510   3.510   3.390
    1C        C  283   4.501   3.369   3.392
    1C        C  284   4.504   3.581   3.512
    1C        C  285   4.503   3.513   3.636
    1C        C  286   4.490   3.726   3.754
    1C        C  287   4.512   3.586   3.757
    1C        C  288   4.473   3.795   3.876
    1C        C  289   4.487   3.727   4.000
    1C        C  290   4.422   3.933   4.117
    1C        C  291   4.471   3.800   4.120
    1C        C  292   4.391   3.998   4.239
    1C        C  293   4.424   3.938   4.362
    1C        C  294   4.328   4.129   4.478
    1C        C  295   4.395   4.005   4.484
    1C        C  296   4.291   4.195   4.597
    1C        C  297   4.330   4.138   4.720
    1C        C  298   4.202   4.314   4.838
    1C        C  299   4.284   4.197   4.841
    1C        C  300   4.174   4.402   4.948
    1C        C  301   4.358   2.876   2.059
    1C        C  302   4.466   3.068   2.177
    1C        C  303   4.397   2.943   2.176
    1C        C  304   4.474   3.142   2.298
    1C        C  305   4.444   3.076   2.420
    1C        C  306   4.506   3.280   2.539
    1C        C  307   4.468   3.144   2.541
    1C        C  308   4.512   3.355   2.659
    1C        C  309   4.500   3.285   2.781
    1C        C  310   4.517   3.499   2.902
    1C        C  311   4.510   3.358   2.902
    1C        C  312   4.515   3.573   3.022
    1C        C  313   4.514   3.506   3.147
    1C        C  314   4.481   3.718   3.263
    1C        C  315   4.506   3.579   3.267
    1C        C  316   4.468   3.788   3.385
    1C        C  317   4.489   3.722   3.508
    1C        C  318   4.422   3.924   3.627
    1C        C  319   4.471   3.791   3.630
    1C        C  320   4.395   3.989   3.749
    1C        C  321   4.422   3.926   3.873
    1C        C  322   4.318   4.114   3.992
    1C        C  323   4.396   3.996   3.993
    1C        C  324   4.276   4.173   4.113
    1C        C  325   4.324   4.122   4.236
    1C        C  326   4.191   4.291   4.356
    1C        C  327   4.289   4.188   4.356
    1C        C  328   4.136   4.343   4.475
    1C        C  329   4.196   4.299   4.595
    1C        C  330   4.029   4.437   4.711
    1C        C  331   4.145   4.355   4.715
    1C        C  332   3.971   4.489   4.829
    1C        C  333   4.053   4.473   4.941
    1C        C  334   4.552   3.269   2.065
    1C        C  335   4.531   3.131   2.066
    1C        C  336   4.530   3.350   2.177
    1C        C  337   4.509   3.280   2.298
    1C        C  338   4.520   3.494   2.414
    1C        C  339   4.518   3.353   2.419
    1C        C  340   4.520   3.566   2.535
    1C        C  341   4.520   3.496   2.657
    1C        C  342   4.493   3.708   2.775
    1C        C  343   4.511   3.568   2.779
    1C        C  344   4.471   3.780   2.895
    1C        C  345   4.489   3.712   3.017
    1C        C  346   4.427   3.917   3.138
    1C        C  347   4.470   3.783   3.138
    1C        C  348   4.396   3.984   3.258
    1C        C  349   4.427   3.923   3.382
    1C        C  350   4.324   4.109   3.505
    1C        C  351   4.397   3.988   3.504
    1C        C  352   4.275   4.163   3.626
    1C        C  353   4.320   4.109   3.748
    1C        C  354   4.177   4.269   3.868
    1C        C  355   4.276   4.168   3.869
    1C        C  356   4.123   4.319   3.989
    1C        C  357   4.178   4.275   4.111
    1C        C  358   4.016   4.409   4.232
    1C        C  359   4.133   4.330   4.233
    1C        C  360   3.953   4.450   4.352
    1C        C  361   4.017   4.419   4.474
    1C        C  362   3.826   4.516   4.593
    1C        C  363   3.958   4.467   4.593
    1C        C  364   3.760   4.542   4.715
    1C        C  365   3.838   4.536   4.833
    1C        C  366   3.627   4.584   4.952
    1C        C  367   3.765   4.567   4.949
    1C        C  368   4.505   3.561   2.052
    1C        C  369   4.518   3.491   2.172
    1C        C  370   4.499   3.705   2.287
    1C        C  371   4.519   3.565   2.292
    1C        C  372   4.482   3.776   2.408
    1C        C  373   4.500   3.706   2.529
    1C        C  374   4.426   3.905   2.651
    1C        C  375   4.477   3.774   2.651
    1C        C  376   4.393   3.973   2.771
    1C        C  377   4.420   3.912   2.895
    1C        C  378   4.325   4.103   3.014
    1C        C  379   4.395   3.981   3.016
    1C        C  380   4.282   4.161   3.135
    1C        C  381   4.320   4.103   3.259
    1C        C  382   4.176   4.258   3.378
    1C        C  383   4.277   4.159   3.381
    1C        C  384   4.123   4.306   3.500
    1C        C  385   4.179   4.267   3.623
    1C        C  386   4.009   4.395   3.744
    1C        C  387   4.125   4.314   3.745
    1C        C  388   3.945   4.435   3.864
    1C        C  389   4.005   4.396   3.986
    1C        C  390   3.819   4.487   4.108
    1C        C  391   3.950   4.435   4.110
    1C        C  392   3.749   4.518   4.227
    1C        C  393   3.821   4.499   4.347
    1C        C  394   3.618   4.551   4.473
    1C        C  395   3.757   4.526   4.470
    1C        C  396   3.547   4.557   4.595
    1C        C  397   3.620   4.557   4.716
    1C        C  398   3.409   4.550   4.837
    1C        C  399   3.549   4.573   4.837
    1C        C  400   3.342   4.518   4.955
    1C        C  401   4.499   3.700   2.049
    1C        C  402   4.448   3.912   2.169
    1C        C  403   4.488   3.777   2.166
    1C        C  404   4.407   3.975   2.289
    1C        C  405   4.434   3.909   2.410
    1C        C  406   4.328   4.095   2.527
    1C        C  407   4.403   3.975   2.531
    1C        C  408   4.280   4.153   2.647
    1C        C  409   4.321   4.095   2.769
    1C        C  410   4.180   4.254   2.889
    1C        C  411   4.282   4.156   2.890
    1C        C  412   4.127   4.300   3.012
    1C        C  413   4.180   4.259   3.136
    1C        C  414   4.002   4.378   3.252
    1C        C  415   4.122   4.304   3.256
    1C        C  416   3.942   4.414   3.375
    1C        C  417   4.004   4.383   3.499
    1C        C  418   3.818   4.481   3.619
    1C        C  419   3.949   4.427   3.621
    1C        C  420   3.747   4.505   3.739
    1C        C  421   3.812   4.484   3.862
    1C        C  422   3.611   4.534   3.986
    1C        C  423   3.749   4.508   3.986
    1C        C  424   3.541   4.540   4.109
    1C        C  425   3.610   4.540   4.233
    1C        C  426   3.399   4.549   4.354
    1C        C  427   3.540   4.554   4.355
    1C        C  428   3.329   4.548   4.477
    1C        C  429   3.406   4.554   4.595
    1C        C  430   3.195   4.520   4.722
    1C        C  431   3.335   4.542   4.717
    1C        C  432   3.124   4.498   4.844
    1C        C  433   3.204   4.498   4.959
    1C        C  434   4.387   4.122   2.053
    1C        C  435   4.449   3.997   2.058
    1C        C  436   4.305   4.164   2.163
    1C        C  437   4.336   4.098   2.285
    1C        C  438   4.185   4.251   2.403
    1C        C  439   4.289   4.155   2.405
    1C        C  440   4.129   4.301   2.522
    1C        C  441   4.183   4.255   2.644
    1C        C  442   4.009   4.378   2.766
    1C        C  443   4.124   4.296   2.766
    1C        C  444   3.946   4.414   2.887
    1C        C  445   4.007   4.375   3.008
    1C        C  446   3.814   4.471   3.130
    1C        C  447   3.942   4.411   3.129
    1C        C  448   3.749   4.492   3.254
    1C        C  449   3.814   4.472   3.378
    1C        C  450   3.608   4.529   3.495
    1C        C  451   3.747   4.502   3.499
    1C        C  452   3.539   4.542   3.618
    1C        C  453   3.609   4.537   3.740
    1C        C  454   3.400   4.545   3.862
    1C        C  455   3.541   4.547   3.864
    1C        C  456   3.333   4.535   3.987
    1C        C  457   3.400   4.541   4.111
    1C        C  458   3.191   4.502   4.235
    1C        C  459   3.328   4.537   4.233
    1C        C  460   3.124   4.489   4.359
    1C        C  461   3.191   4.516   4.480
    1C        C  462   2.997   4.433   4.605
    1C        C  463   3.126   4.492   4.603
    1C        C  464   2.929   4.401   4.724
    1C        C  465   2.992   4.443   4.844
    1C        C  466   2.800   4.341   4.958
    1C        C  467   2.907   4.431   4.958
    1C        C  468   4.125   4.287   2.042
    1C        C  469   4.188   4.246   2.160
    1C        C  470   4.006   4.366   2.280
    1C        C  471   4.127   4.291   2.280
    1C        C  472   3.941   4.403   2.400
    1C        C  473   4.005   4.369   2.521
    1C        C  474   3.813   4.459   2.646
    1C        C  475   3.943   4.403   2.643
    1C        C  476   3.744   4.481   2.767
    1C        C  477   3.813   4.462   2.889
    1C        C  478   3.606   4.517   3.009
    1C        C  479   3.744   4.490   3.009
    1C        C  480   3.536   4.529   3.132
    1C        C  481   3.610   4.520   3.251
    1C        C  482   3.397   4.531   3.377
    1C        C  483   3.538   4.531   3.372
    1C        C  484   3.326   4.530   3.499
    1C        C  485   3.398   4.541   3.620
    1C        C  486   3.189   4.502   3.744
    1C        C  487   3.327   4.534   3.742
    1C        C  488   3.127   4.478   3.868
    1C        C  489   3.198   4.496   3.990
    1C        C  490   3.002   4.413   4.115
    1C        C  491   3.129   4.477   4.111
    1C        C  492   2.943   4.380   4.239
    1C        C  493   2.996   4.428   4.360
    1C        C  494   2.825   4.307   4.481
    1C        C  495   2.936   4.394   4.483
    1C        C  496   2.772   4.259   4.603
    1C        C  497   2.821   4.308   4.727
    1C        C  498   2.660   4.167   4.846
    1C        C  499   2.751   4.275   4.844
    1C        C  500   2.595   4.121   4.961
    1C        C  501   4.008   4.362   2.043
    1C        C  502   3.813   4.461   2.156
    1C        C  503   3.938   4.395   2.160
    1C        C  504   3.746   4.486   2.277
    1C        C  505   3.811   4.458   2.400
    1C        C  506   3.608   4.509   2.522
    1C        C  507   3.747   4.481   2.523
    1C        C  508   3.537   4.516   2.644
    1C        C  509   3.607   4.513   2.766
    1C        C  510   3.394   4.529   2.887
    1C        C  511   3.535   4.523   2.887
    1C        C  512   3.323   4.527   3.010
    1C        C  513   3.395   4.535   3.131
    1C        C  514   3.188   4.494   3.255
    1C        C  515   3.326   4.526   3.254
    1C        C  516   3.122   4.472   3.378
    1C        C  517   3.188   4.500   3.499
    1C        C  518   2.995   4.416   3.625
    1C        C  519   3.121   4.479   3.622
    1C        C  520   2.939   4.376   3.749
    1C        C  521   2.999   4.418   3.870
    1C        C  522   2.835   4.285   3.996
    1C        C  523   2.942   4.376   3.992
    1C        C  524   2.786   4.235   4.119
    1C        C  525   2.833   4.291   4.240
    1C        C  526   2.696   4.133   4.365
    1C        C  527   2.776   4.249   4.362
    1C        C  528   2.651   4.079   4.487
    1C        C  529   2.687   4.147   4.606
    1C        C  530   2.583   3.962   4.731
    1C        C  531   2.639   4.093   4.727
    1C        C  532   2.541   3.903   4.853
    1C        C  533   2.534   3.995   4.962
    1C        C  534   3.615   4.555   2.039
    1C        C  535   3.747   4.506   2.041
    1C        C  536   3.535   4.533   2.156
    1C        C  537   3.606   4.511   2.277
    1C        C  538   3.397   4.515   2.401
    1C        C  539   3.538   4.522   2.400
    1C        C  540   3.324   4.511   2.522
    1C        C  541   3.395   4.518   2.644
    1C        C  542   3.185   4.491   2.766
    1C        C  543   3.323   4.520   2.765
    1C        C  544   3.120   4.468   2.889
    1C        C  545   3.187   4.488   3.011
    1C        C  546   2.997   4.397   3.135
    1C        C  547   3.121   4.466   3.134
    1C        C  548   2.939   4.365   3.260
    1C        C  549   2.995   4.410   3.382
    1C        C  550   2.828   4.281   3.507
    1C        C  551   2.933   4.375   3.504
    1C        C  552   2.779   4.235   3.631
    1C        C  553   2.831   4.286   3.752
    1C        C  554   2.699   4.120   3.875
    1C        C  555   2.785   4.232   3.875
    1C        C  556   2.664   4.060   3.998
    1C        C  557   2.703   4.121   4.119
    1C        C  558   2.605   3.940   4.246
    1C        C  559   2.665   4.067   4.244
    1C        C  560   2.575   3.877   4.369
    1C        C  561   2.592   3.950   4.489
    1C        C  562   2.532   3.750   4.615
    1C        C  563   2.565   3.888   4.612
    1C        C  564   2.515   3.682   4.737
    1C        C  565   2.525   3.760   4.855
    1C        C  566   2.532   3.548   4.979
    1C        C  567   2.523   3.687   4.975
    1C        C  568   3.324   4.473   2.042
    1C        C  569   3.394   4.511   2.157
    1C        C  570   3.186   4.474   2.278
    1C        C  571   3.324   4.507   2.281
    1C        C  572   3.118   4.457   2.400
    1C        C  573   3.186   4.481   2.522
    1C        C  574   2.993   4.398   2.646
    1C        C  575   3.118   4.464   2.644
    1C        C  576   2.937   4.357   2.769
    1C        C  577   2.996   4.399   2.890
    1C        C  578   2.827   4.272   3.014
    1C        C  579   2.937   4.361   3.013
    1C        C  580   2.783   4.223   3.139
    1C        C  581   2.833   4.271   3.262
    1C        C  582   2.695   4.114   3.385
    1C        C  583   2.782   4.226   3.385
    1C        C  584   2.660   4.058   3.510
    1C        C  585   2.694   4.122   3.631
    1C        C  586   2.598   3.933   3.756
    1C        C  587   2.659   4.060   3.753
    1C        C  588   2.566   3.871   3.879
    1C        C  589   2.597   3.935   4.001
    1C        C  590   2.540   3.736   4.127
    1C        C  591   2.577   3.872   4.126
    1C        C  592   2.531   3.669   4.251
    1C        C  593   2.541   3.740   4.373
    1C        C  594   2.506   3.534   4.500
    1C        C  595   2.519   3.675   4.497
    1C        C  596   2.520   3.466   4.622
    1C        C  597   2.521   3.540   4.743
    1C        C  598   2.533   3.327   4.862
    1C        C  599   2.532   3.468   4.864
    1C        C  600   2.533   3.250   4.979
    1C        C  601   3.191   4.437   2.041
    1C        C  602   2.982   4.390   2.159
    1C        C  603   3.117   4.437   2.159
    1C        C  604   2.924   4.363   2.286
    1C        C  605   2.987   4.403   2.406
    1C        C  606   2.819   4.271   2.528
    1C        C  607   2.928   4.360   2.527
    1C        C  608   2.772   4.219   2.651
    1C        C  609   2.826   4.269   2.772
    1C        C  610   2.686   4.110   2.896
    1C        C  611   2.775   4.220   2.894
    1C        C  612   2.649   4.054   3.020
    1C        C  613   2.695   4.112   3.141
    1C        C  614   2.597   3.926   3.268
    1C        C  615   2.653   4.056   3.263
    1C        C  616   2.568   3.865   3.392
    1C        C  617   2.598   3.931   3.513
    1C        C  618   2.532   3.730   3.638
    1C        C  619   2.573   3.865   3.635
    1C        C  620   2.521   3.661   3.761
    1C        C  621   2.528   3.735   3.881
    1C        C  622   2.514   3.526   4.012
    1C        C  623   2.522   3.667   4.005
    1C        C  624   2.517   3.457   4.135
    1C        C  625   2.520   3.529   4.257
    1C        C  626   2.535   3.320   4.380
    1C        C  627   2.512   3.460   4.380
    1C        C  628   2.550   3.251   4.502
    1C        C  629   2.536   3.325   4.621
    1C        C  630   2.594   3.118   4.743
    1C        C  631   2.552   3.254   4.742
    1C        C  632   2.621   3.050   4.865
    1C        C  633   2.567   3.114   4.981
    1C        C  634   2.779   4.302   2.053
    1C        C  635   2.889   4.389   2.050
    1C        C  636   2.749   4.230   2.169
    1C        C  637   2.811   4.276   2.288
    1C        C  638   2.677   4.110   2.410
    1C        C  639   2.760   4.225   2.409
    1C        C  640   2.640   4.049   2.531
    1C        C  641   2.685   4.108   2.652
    1C        C  642   2.586   3.923   2.779
    1C        C  643   2.648   4.049   2.775
    1C        C  644   2.560   3.858   2.902
    1C        C  645   2.591   3.925   3.022
    1C        C  646   2.540   3.722   3.147
    1C        C  647   2.576   3.858   3.146
    1C        C  648   2.521   3.655   3.270
    1C        C  649   2.534   3.728   3.391
    1C        C  650   2.512   3.521   3.518
    1C        C  651   2.519   3.662   3.515
    1C        C  652   2.520   3.451   3.641
    1C        C  653   2.519   3.520   3.764
    1C        C  654   2.537   3.315   3.889
    1C        C  655   2.517   3.455   3.890
    1C        C  656   2.556   3.249   4.013
    1C        C  657   2.537   3.317   4.135
    1C        C  658   2.602   3.118   4.259
    1C        C  659   2.551   3.250   4.259
    1C        C  660   2.629   3.055   4.383
    1C        C  661   2.596   3.117   4.506
    1C        C  662   2.708   2.933   4.626
    1C        C  663   2.624   3.046   4.625
    1C        C  664   2.755   2.879   4.748
    1C        C  665   2.709   2.937   4.870
    1C        C  666   2.748   2.871   4.987
    1C        C  667   2.685   4.022   2.055
    1C        C  668   2.686   4.104   2.168
    1C        C  669   2.593   3.912   2.292
    1C        C  670   2.644   4.045   2.289
    1C        C  671   2.558   3.850   2.414
    1C        C  672   2.582   3.920   2.534
    1C        C  673   2.519   3.720   2.660
    1C        C  674   2.561   3.855   2.658
    1C        C  675   2.510   3.650   2.782
    1C        C  676   2.525   3.721   2.903
    1C        C  677   2.509   3.511   3.030
    1C        C  678   2.519   3.651   3.026
    1C        C  679   2.516   3.441   3.153
    1C        C  680   2.516   3.514   3.275
    1C        C  681   2.531   3.306   3.401
    1C        C  682   2.513   3.446   3.398
    1C        C  683   2.552   3.238   3.524
    1C        C  684   2.537   3.311   3.644
    1C        C  685   2.602   3.113   3.772
    1C        C  686   2.550   3.244   3.768
    1C        C  687   2.640   3.055   3.894
    1C        C  688   2.605   3.116   4.017
    1C        C  689   2.707   2.931   4.140
    1C        C  690   2.634   3.052   4.139
    1C        C  691   2.749   2.876   4.263
    1C        C  692   2.707   2.938   4.383
    1C        C  693   2.751   2.877   4.503
    1C        C  694   2.627   3.895   2.055
    1C        C  695   2.529   3.705   2.176
    1C        C  696   2.581   3.836   2.174
    1C        C  697   2.509   3.637   2.299
    1C        C  698   2.525   3.713   2.417
    1C        C  699   2.491   3.506   2.544
    1C        C  700   2.505   3.646   2.540
    1C        C  701   2.500   3.436   2.666
    1C        C  702   2.508   3.509   2.787
    1C        C  703   2.525   3.298   2.910
    1C        C  704   2.513   3.438   2.909
    1C        C  705   2.548   3.232   3.033
    1C        C  706   2.536   3.302   3.155
    1C        C  707   2.593   3.101   3.282
    1C        C  708   2.550   3.236   3.280
    1C        C  709   2.625   3.038   3.404
    1C        C  710   2.597   3.105   3.526
    1C        C  711   2.711   2.931   3.649
    1C        C  712   2.629   3.046   3.650
    1C        C  713   2.754   2.877   3.772
    1C        C  714   2.712   2.933   3.895
    1C        C  715   2.756   2.879   4.018
    1C        C  716   2.457   3.498   2.062
    1C        C  717   2.493   3.634   2.061
    1C        C  718   2.466   3.420   2.181
    1C        C  719   2.488   3.497   2.299
    1C        C  720   2.519   3.293   2.426
    1C        C  721   2.492   3.431   2.424
    1C        C  722   2.538   3.223   2.547
    1C        C  723   2.524   3.296   2.667
    1C        C  724   2.593   3.095   2.791
    1C        C  725   2.539   3.226   2.789
    1C        C  726   2.622   3.034   2.915
    1C        C  727   2.595   3.099   3.037
    1C        C  728   2.700   2.918   3.160
    1C        C  729   2.623   3.036   3.160
    1C        C  730   2.749   2.867   3.283
    1C        C  731   2.707   2.923   3.405
    1C        C  732   2.752   2.869   3.528
    1C        C  733   2.491   3.200   2.069
    1C        C  734   2.487   3.279   2.185
    1C        C  735   2.580   3.085   2.304
    1C        C  736   2.528   3.217   2.306
    1C        C  737   2.610   3.020   2.426
    1C        C  738   2.585   3.090   2.546
    1C        C  739   2.689   2.906   2.670
    1C        C  740   2.619   3.029   2.669
    1C        C  741   2.737   2.856   2.793
    1C        C  742   2.697   2.913   2.915
    1C        C  743   2.740   2.859   3.038
    1C        C  744   2.547   3.073   2.071
    1C        C  745   2.678   2.893   2.186
    1C        C  746   2.608   3.016   2.184
    1C        C  747   2.727   2.840   2.307
    1C        C  748   2.686   2.901   2.427
    1C        C  749   2.731   2.846   2.550
    1C        C  750   2.729   2.838   2.068
    1C        C  751   3.664   2.298   2.010
    1C        O  752   3.659   2.181   2.057
    1C        O  753   3.660   2.281   1.871
    1C        C  754   4.624   3.049   1.984
    1C        O  755   4.585   3.011   1.870
    1C        O  756   4.761   3.033   2.008
    1C        C  757   4.422   4.214   1.942
    1C        O  758   4.461   4.332   1.961
    1C        O  759   4.424   4.171   1.808
    1C        C  760   3.566   4.646   1.933
    1C        O  761   3.604   4.766   1.931
    1C        O  762   3.526   4.604   1.806
    1C        C  763   2.886   4.500   1.952
    1C        O  764   2.913   4.483   1.830
    1C        O  765   2.787   4.593   1.987
    1C        C  766   2.352   3.476   1.961
    1C        O  767   2.364   3.495   1.837
    1C        O  768   2.220   3.435   1.985
    1C        C  769   4.706   3.596   5.044
    1C        O  770   4.694   3.613   5.168
    1C        O  771   4.839   3.595   5.000
    1C        C  772   4.274   4.440   5.050
    1C        O  773   4.257   4.395   5.167
    1C        O  774   4.359   4.550   5.032
    1C        C  775   4.148   2.535   5.077
    1C        O  776   4.181   2.414   5.083
    1C        O  777   4.154   2.578   5.210
    1C        C  778   2.910   4.526   5.072
    1C        O  779   2.822   4.617   5.074
    1C        O  780   2.962   4.487   5.196
    1C        C  781   2.458   3.046   5.056
    1C        O  782   2.339   3.051   5.016
    1C        O  783   2.475   2.977   5.175
    1C        C  784   2.437   3.991   5.074
    1C        O  785   2.319   3.951   5.051
    1C        O  786   2.478   3.950   5.201
    1C        C  787   2.956   2.425   2.002
    1C        O  788   2.945   2.439   1.877
    1C        O  789   2.872   2.327   2.056
    1C        C  790   3.174   2.358   5.047
    1C        O  791   3.098   2.261   5.022
    1C        O  792   3.201   2.358   5.185
    1C        H  793   4.254   3.033   5.042
    1C        H  794   4.191   2.803   5.077
    1C        H  795   4.503   3.137   5.066
    1C        H  796   4.568   3.351   5.064
    1C        H  797   4.601   3.817   5.020
    1C        H  798   4.380   3.956   5.054
    1C        H  799   4.277   4.168   5.053
    1C        H  800   4.030   4.530   5.029
    1C        H  801   3.814   4.604   5.037
    1C        H  802   3.591   4.642   5.035
    1C        H  803   3.399   4.480   5.037
    1C        H  804   3.164   4.475   5.056
    1C        H  805   3.899   2.463   5.056
    1C        H  806   3.676   2.504   5.075
    1C        H  807   3.018   2.583   5.075
    1C        H  808   3.445   2.458   5.078
    1C        H  809   2.853   2.714   5.075
    1C        H  810   2.732   2.924   5.078
    1C        H  811   2.494   3.293   5.069
    1C        H  812   2.545   3.503   5.075
    1C        H  813   2.470   3.732   5.056
    1C        H  814   2.606   4.169   5.056
    1C        H  815   2.766   4.310   5.054
    1C        H  816   2.696   2.872   1.973
    1C        H  817   2.846   2.687   1.975
    1C        H  818   3.202   2.395   2.008
    1C        H  819   3.433   2.462   1.980
    1C        H  820   3.854   2.507   1.974
    1C        H  821   4.079   2.581   1.983
    1C        H  822   4.261   2.710   1.976
    1C        H  823   4.413   2.895   1.969
    1C        H  824   4.611   3.306   1.983
    1C        H  825   4.464   3.511   1.966
    1C        H  826   4.523   3.752   1.958
    1C        H  827   3.808   4.541   1.961
    1C        H  828   4.002   4.436   1.966
    1C        H  829   4.150   4.244   1.947
    1C        H  830   4.499   3.960   1.971
    1C        H  831   2.660   3.829   1.977
    1C        H  832   2.722   4.057   1.960
    1C        H  833   2.689   4.325   2.000
    1C        H  834   3.378   4.440   1.956
    1C        H  835   3.144   4.406   1.950
    1C        H  836   2.486   3.004   2.016
    1C        H  837   2.423   3.220   1.989
    1C        H  838   2.519   3.678   1.967
    2V3OU   H29  839   2.803   3.552   5.789
    2V3OU   C27  840   2.782   3.501   5.886
    2V3OU   H27  841   2.728   3.574   5.952
    2V3OU   H28  842   2.729   3.405   5.865
    2V3OU   O11  843   2.911   3.479   5.944
    2V3OU   C15  844   2.917   3.396   6.055
    2V3OU   C13  845   3.049   3.372   6.099
    2V3OU   C14  846   3.073   3.266   6.187
    2V3OU   C16  847   2.966   3.187   6.230
    2V3OU    H6  848   2.987   3.105   6.300
    2V3OU   C12  849   3.211   3.225   6.219
    2V3OU    O2  850   3.231   3.120   6.284
    2V3OU   C10  851   3.324   3.305   6.169
    2V3OU    C8  852   3.456   3.268   6.190
    2V3OU   O10  853   3.488   3.152   6.252
    2V3OU   H26  854   3.403   3.111   6.272
    2V3OU    C6  855   3.564   3.352   6.147
    2V3OU    C5  856   3.537   3.474   6.086
    2V3OU    C4  857   3.702   3.294   6.144
    2V3OU    H4  858   3.725   3.229   6.234
    2V3OU    H5  859   3.711   3.230   6.052
    2V3OU    C2  860   3.813   3.399   6.143
    2V3OU    O6  861   3.803   3.473   6.265
    2V3OU   H21  862   3.752   3.554   6.251
    2V3OU    C3  863   3.783   3.497   6.029
    2V3OU    H2  864   3.864   3.574   6.025
    2V3OU    H3  865   3.779   3.439   5.934
    2V3OU   C25  866   3.951   3.333   6.136
    2V3OU    O7  867   3.994   3.293   6.027
    2V3OU   C26  868   4.028   3.293   6.260
    2V3OU   H22  869   4.069   3.386   6.306
    2V3OU   H23  870   4.111   3.222   6.234
    2V3OU    O8  871   3.965   3.211   6.357
    2V3OU   H24  872   3.926   3.271   6.421
    2V3OU    C1  873   3.648   3.566   6.045
    2V3OU    H1  874   3.620   3.623   5.951
    2V3OU    O3  875   3.658   3.652   6.159
    2V3OU   C19  876   3.618   3.788   6.137
    2V3OU    H9  877   3.519   3.803   6.084
    2V3OU    O4  878   3.717   3.844   6.054
    2V3OU   C20  879   3.843   3.869   6.116
    2V3OU   H10  880   3.897   3.771   6.130
    2V3OU   C24  881   3.609   3.856   6.274
    2V3OU   H16  882   3.541   3.793   6.336
    2V3OU   H17  883   3.560   3.954   6.248
    2V3OU   C23  884   3.746   3.873   6.340
    2V3OU   H15  885   3.789   3.769   6.357
    2V3OU    N1  886   3.734   3.951   6.462
    2V3OU   H19  887   3.801   3.927   6.531
    2V3OU   H20  888   3.648   3.932   6.509
    2V3OU   C21  889   3.846   3.948   6.247
    2V3OU   H11  890   3.948   3.936   6.292
    2V3OU    O5  891   3.826   4.088   6.238
    2V3OU   H18  892   3.776   4.105   6.319
    2V3OU   C22  893   3.915   3.952   6.011
    2V3OU   H12  894   3.859   4.046   5.990
    2V3OU   H13  895   3.909   3.900   5.912
    2V3OU   H14  896   4.022   3.965   6.043
    2V3OU   C11  897   3.159   3.466   6.072
    2V3OU    O1  898   3.132   3.578   6.024
    2V3OU    C9  899   3.298   3.430   6.107
    2V3OU    C7  900   3.401   3.513   6.065
    2V3OU    O9  901   3.388   3.623   5.984
    2V3OU   H25  902   3.292   3.627   5.973
    2V3OU   C17  903   2.812   3.315   6.102
    2V3OU    H7  904   2.712   3.341   6.065
    2V3OU   C18  905   2.836   3.207   6.186
    2V3OU    H8  906   2.750   3.150   6.224
    3SOL     OW  907   3.197   3.471   3.705
    3SOL    HW1  908   3.106   3.471   3.746
    3SOL    HW2  909   3.248   3.550   3.738
    4SOL     OW  910   6.750   6.384   1.390
    4SOL    HW1  911   6.694   6.303   1.372
    4SOL    HW2  912   6.834   6.357   1.438
    5SOL     OW  913   4.707   2.600   0.407
    5SOL    HW1  914   4.695   2.610   0.505
    5SOL    HW2  915   4.758   2.516   0.387
    6SOL     OW  916   4.424   1.487   2.237
    6SOL    HW1  917   4.435   1.582   2.208
    6SOL    HW2  918   4.470   1.472   2.325
    7SOL     OW  919   2.165   3.392   4.198
    7SOL    HW1  920   2.123   3.429   4.280
    7SOL    HW2  921   2.174   3.293   4.207
    8SOL     OW  922   1.064   2.163   5.162
    8SOL    HW1  923   1.163   2.148   5.160
    8SOL    HW2  924   1.045   2.247   5.212
    9SOL     OW  925   0.398   1.696   5.881
    9SOL    HW1  926   0.390   1.704   5.782
    9SOL    HW2  927   0.433   1.781   5.919
   10SOL     OW  928   5.489   4.825   1.484
   10SOL    HW1  929   5.527   4.766   1.412
   10SOL    HW2  930   5.498   4.779   1.572
   11SOL     OW  931   2.606   2.477   0.513
   11SOL    HW1  932   2.513   2.492   0.478
   11SOL    HW2  933   2.650   2.566   0.528
   12SOL     OW  934   4.938   4.966   2.223
   12SOL    HW1  935   4.852   4.994   2.266
   12SOL    HW2  936   4.967   4.877   2.260
   13SOL     OW  937   5.615   6.600   1.341
   13SOL    HW1  938   5.714   6.586   1.339
   13SOL    HW2  939   5.589   6.639   1.430
   14SOL     OW  940   4.553   6.524   6.867
   14SOL    HW1  941   4.523   6.448   6.809
   14SOL    HW2  942   4.651   6.540   6.854
   15SOL     OW  943   0.861   5.797   6.099
   15SOL    HW1  944   0.778   5.809   6.044
   15SOL    HW2  945   0.840   5.742   6.179
   16SOL     OW  946   2.358   5.668   4.845
   16SOL    HW1  947   2.344   5.761   4.811
   16SOL    HW2  948   2.307   5.655   4.929
   17SOL     OW  949   6.934   0.906   4.840
   17SOL    HW1  950   7.010   0.972   4.836
   17SOL    HW2  951   6.925   0.872   4.934
   18SOL     OW  952   2.642   1.190   5.386
   18SOL    HW1  953   2.581   1.269   5.384
   18SOL    HW2  954   2.729   1.214   5.344
   19SOL     OW  955   2.979   6.380   2.676
   19SOL    HW1  956   2.898   6.387   2.618
   19SOL    HW2  957   2.951   6.375   2.772
   20SOL     OW  958   0.096   1.734   6.001
   20SOL    HW1  959   0.165   1.803   6.020
   20SOL    HW2  960   0.127   1.675   5.926
   21SOL     OW  961   2.128   3.942   2.266
   21SOL    HW1  962   2.133   3.909   2.171
   21SOL    HW2  963   2.032   3.958   2.291
   22SOL     OW  964   1.020   1.493   0.350
   22SOL    HW1  965   0.943   1.438   0.319
   22SOL    HW2  966   1.053   1.550   0.275
   23SOL     OW  967   6.529   4.724   0.404
   23SOL    HW1  968   6.493   4.693   0.492
   23SOL    HW2  969   6.627   4.709   0.401
   24SOL     OW  970   5.241   1.489   0.018
   24SOL    HW1  971   5.287   1.567   0.062
   24SOL    HW2  972   5.270   1.484   6.946
   25SOL     OW  973   1.798   0.963   3.958
   25SOL    HW1  974   1.700   0.979   3.968
   25SOL    HW2  975   1.843   1.046   3.927
   26SOL     OW  976   1.293   1.491   6.305
   26SOL    HW1  977   1.314   1.579   6.263
   26SOL    HW2  978   1.277   1.422   6.234
   27SOL     OW  979   0.598   0.175   3.105
   27SOL    HW1  980   0.612   0.079   3.080
   27SOL    HW2  981   0.501   0.198   3.098
   28SOL     OW  982   1.374   0.423   6.081
   28SOL    HW1  983   1.436   0.493   6.116
   28SOL    HW2  984   1.345   0.448   5.988
   29SOL     OW  985   5.600   0.274   1.370
   29SOL    HW1  986   5.547   0.324   1.301
   29SOL    HW2  987   5.562   0.182   1.381
   30SOL     OW  988   5.081   0.198   5.237
   30SOL    HW1  989   5.038   0.245   5.314
   30SOL    HW2  990   5.118   0.111   5.268
   31SOL     OW  991   6.737   4.789   4.153
   31SOL    HW1  992   6.655   4.734   4.167
   31SOL    HW2  993   6.811   4.753   4.211
   32SOL     OW  994   2.805   0.905   0.992
   32SOL    HW1  995   2.818   0.842   1.069
   32SOL    HW2  996   2.709   0.932   0.986
   33SOL     OW  997   2.296   4.993   5.594
   33SOL    HW1  998   2.226   4.940   5.545
   33SOL    HW2  999   2.355   5.039   5.528
   34SOL     OW 1000   2.486   5.941   5.598
   34SOL    HW1 1001   2.426   5.914   5.523
   34SOL    HW2 1002   2.434   5.941   5.684
   35SOL     OW 1003   1.258   3.621   5.969
   35SOL    HW1 1004   1.302   3.703   5.932
   35SOL    HW2 1005   1.280   3.543   5.910
   36SOL     OW 1006   6.227   0.997   3.642
   36SOL    HW1 1007   6.239   1.007   3.543
   36SOL    HW2 1008   6.285   1.063   3.689
   37SOL     OW 1009   2.584   6.103   4.492
   37SOL    HW1 1010   2.630   6.034   4.437
   37SOL    HW2 1011   2.513   6.059   4.547
   38SOL     OW 1012   1.374   4.248   2.683
   38SOL    HW1 1013   1.301   4.254   2.615
   38SOL    HW2 1014   1.360   4.168   2.740
   39SOL     OW 1015   6.701   4.565   1.057
   39SOL    HW1 1016   6.750   4.521   0.983
   39SOL    HW2 1017   6.763   4.624   1.109
   40SOL     OW 1018   3.802   1.042   0.231
   40SOL    HW1 1019   3.855   0.959   0.216
   40SOL    HW2 1020   3.864   1.120   0.237
   41SOL     OW 1021   5.102   3.647   1.716
   41SOL    HW1 1022   5.015   3.688   1.744
   41SOL    HW2 1023   5.168   3.720   1.697
   42SOL     OW 1024   2.925   4.325   6.616
   42SOL    HW1 1025   2.829   4.301   6.599
   42SOL    HW2 1026   2.969   4.348   6.529
   43SOL     OW 1027   5.366   6.947   4.886
   43SOL    HW1 1028   5.397   6.963   4.793
   43SOL    HW2 1029   5.416   6.869   4.925
   44SOL     OW 1030   6.788   1.066   6.192
   44SOL    HW1 1031   6.832   1.006   6.259
   44SOL    HW2 1032   6.858   1.109   6.135
   45SOL     OW 1033   2.584   4.539   6.324
   45SOL    HW1 1034   2.644   4.591   6.385
   45SOL    HW2 1035   2.501   4.513   6.373
   46SOL     OW 1036   1.287   4.378   5.023
   46SOL    HW1 1037   1.207   4.437   5.033
   46SOL    HW2 1038   1.260   4.292   4.979
   47SOL     OW 1039   5.785   3.651   0.291
   47SOL    HW1 1040   5.866   3.608   0.332
   47SOL    HW2 1041   5.813   3.729   0.236
   48SOL     OW 1042   6.482   4.072   0.988
   48SOL    HW1 1043   6.504   3.987   0.940
   48SOL    HW2 1044   6.523   4.149   0.939
   49SOL     OW 1045   3.155   2.466   6.210
   49SOL    HW1 1046   3.254   2.478   6.218
   49SOL    HW2 1047   3.133   2.433   6.118
   50SOL     OW 1048   5.219   2.129   6.989
   50SOL    HW1 1049   5.191   2.046   6.941
   50SOL    HW2 1050   5.319   2.133   6.995
   51SOL     OW 1051   1.257   6.469   1.973
   51SOL    HW1 1052   1.294   6.380   1.943
   51SOL    HW2 1053   1.297   6.542   1.918
   52SOL     OW 1054   5.700   1.988   2.039
   52SOL    HW1 1055   5.695   2.056   2.112
   52SOL    HW2 1056   5.620   1.928   2.044
   53SOL     OW 1057   4.040   1.028   0.794
   53SOL    HW1 1058   4.054   0.936   0.830
   53SOL    HW2 1059   4.015   1.023   0.697
   54SOL     OW 1060   6.413   0.410   6.254
   54SOL    HW1 1061   6.317   0.382   6.259
   54SOL    HW2 1062   6.432   0.450   6.165
   55SOL     OW 1063   1.689   3.783   6.461
   55SOL    HW1 1064   1.769   3.724   6.448
   55SOL    HW2 1065   1.607   3.734   6.430
   56SOL     OW 1066   0.620   2.251   6.639
   56SOL    HW1 1067   0.678   2.209   6.570
   56SOL    HW2 1068   0.526   2.257   6.605
   57SOL     OW 1069   4.102   6.054   1.004
   57SOL    HW1 1070   4.085   6.072   0.907
   57SOL    HW2 1071   4.027   6.001   1.043
   58SOL     OW 1072   1.472   0.826   6.529
   58SOL    HW1 1073   1.384   0.871   6.537
   58SOL    HW2 1074   1.545   0.894   6.522
   59SOL     OW 1075   4.037   2.731   6.240
   59SOL    HW1 1076   4.089   2.773   6.314
   59SOL    HW2 1077   3.940   2.756   6.249
   60SOL     OW 1078   6.687   3.138   2.800
   60SOL    HW1 1079   6.618   3.127   2.871
   60SOL    HW2 1080   6.727   3.049   2.778
   61SOL     OW 1081   1.042   5.802   3.174
   61SOL    HW1 1082   1.117   5.861   3.143
   61SOL    HW2 1083   1.060   5.708   3.146
   62SOL     OW 1084   6.196   2.443   3.235
   62SOL    HW1 1085   6.117   2.383   3.241
   62SOL    HW2 1086   6.269   2.408   3.293
   63SOL     OW 1087   4.032   6.687   5.734
   63SOL    HW1 1088   4.058   6.641   5.649
   63SOL    HW2 1089   3.933   6.700   5.737
   64SOL     OW 1090   1.115   1.875   5.753
   64SOL    HW1 1091   1.029   1.840   5.718
   64SOL    HW2 1092   1.099   1.964   5.797
   65SOL     OW 1093   1.037   5.297   4.995
   65SOL    HW1 1094   1.116   5.354   4.975
   65SOL    HW2 1095   1.031   5.282   5.094
   66SOL     OW 1096   4.501   1.819   1.305
   66SOL    HW1 1097   4.407   1.818   1.340
   66SOL    HW2 1098   4.507   1.758   1.226
   67SOL     OW 1099   6.763   3.870   1.344
   67SOL    HW1 1100   6.797   3.813   1.269
   67SOL    HW2 1101   6.663   3.872   1.343
   68SOL     OW 1102   0.400   1.093   7.002
   68SOL    HW1 1103   0.377   1.015   0.037
   68SOL    HW2 1104   0.478   1.069   6.945
   69SOL     OW 1105   1.624   5.949   7.004
   69SOL    HW1 1106   1.720   5.929   6.987
   69SOL    HW2 1107   1.587   5.881   0.044
   70SOL     OW 1108   4.445   4.894   3.467
   70SOL    HW1 1109   4.406   4.924   3.379
   70SOL    HW2 1110   4.401   4.808   3.494
   71SOL     OW 1111   4.997   1.375   5.239
   71SOL    HW1 1112   4.947   1.344   5.320
   71SOL    HW2 1113   5.093   1.348   5.248
   72SOL     OW 1114   0.047   0.684   2.513
   72SOL    HW1 1115   0.003   0.713   2.598
   72SOL    HW2 1116   0.007   0.734   2.436
   73SOL     OW 1117   2.525   0.870   1.071
   73SOL    HW1 1118   2.459   0.937   1.106
   73SOL    HW2 1119   2.476   0.792   1.033
   74SOL     OW 1120   2.765   1.806   0.101
   74SOL    HW1 1121   2.670   1.814   0.131
   74SOL    HW2 1122   2.769   1.756   0.014
   75SOL     OW 1123   2.031   2.644   0.506
   75SOL    HW1 1124   1.953   2.586   0.484
   75SOL    HW2 1125   2.017   2.735   0.468
   76SOL     OW 1126   4.113   4.750   5.838
   76SOL    HW1 1127   4.210   4.771   5.828
   76SOL    HW2 1128   4.097   4.702   5.924
   77SOL     OW 1129   0.895   5.733   4.692
   77SOL    HW1 1130   0.915   5.774   4.603
   77SOL    HW2 1131   0.895   5.804   4.762
   78SOL     OW 1132   5.665   1.588   1.472
   78SOL    HW1 1133   5.713   1.620   1.390
   78SOL    HW2 1134   5.622   1.666   1.518
   79SOL     OW 1135   1.520   3.923   4.006
   79SOL    HW1 1136   1.508   3.824   4.011
   79SOL    HW2 1137   1.478   3.965   4.087
   80SOL     OW 1138   3.521   1.987   5.210
   80SOL    HW1 1139   3.477   1.951   5.128
   80SOL    HW2 1140   3.612   2.020   5.186
   81SOL     OW 1141   3.248   5.178   2.195
   81SOL    HW1 1142   3.289   5.128   2.119
   81SOL    HW2 1143   3.317   5.239   2.235
   82SOL     OW 1144   3.261   0.274   2.264
   82SOL    HW1 1145   3.185   0.260   2.327
   82SOL    HW2 1146   3.319   0.349   2.295
   83SOL     OW 1147   5.397   0.927   4.456
   83SOL    HW1 1148   5.299   0.907   4.456
   83SOL    HW2 1149   5.413   1.016   4.499
   84SOL     OW 1150   5.814   2.800   3.004
   84SOL    HW1 1151   5.862   2.877   2.962
   84SOL    HW2 1152   5.805   2.817   3.102
   85SOL     OW 1153   2.277   5.925   3.176
   85SOL    HW1 1154   2.357   5.890   3.128
   85SOL    HW2 1155   2.290   5.915   3.275
   86SOL     OW 1156   5.070   0.606   0.916
   86SOL    HW1 1157   5.038   0.699   0.898
   86SOL    HW2 1158   5.075   0.592   1.015
   87SOL     OW 1159   2.841   3.025   6.477
   87SOL    HW1 1160   2.792   2.947   6.436
   87SOL    HW2 1161   2.782   3.106   6.475
   88SOL     OW 1162   1.875   2.544   1.609
   88SOL    HW1 1163   1.942   2.509   1.675
   88SOL    HW2 1164   1.783   2.532   1.646
   89SOL     OW 1165   3.411   3.361   5.330
   89SOL    HW1 1166   3.439   3.302   5.254
   89SOL    HW2 1167   3.458   3.449   5.323
   90SOL     OW 1168   6.292   4.290   2.412
   90SOL    HW1 1169   6.382   4.295   2.369
   90SOL    HW2 1170   6.297   4.328   2.504
   91SOL     OW 1171   4.482   6.044   0.593
   91SOL    HW1 1172   4.456   6.140   0.587
   91SOL    HW2 1173   4.407   5.987   0.560
   92SOL     OW 1174   6.096   4.865   6.917
   92SOL    HW1 1175   6.127   4.771   6.896
   92SOL    HW2 1176   6.064   4.908   6.832
   93SOL     OW 1177   3.094   3.844   1.724
   93SOL    HW1 1178   3.033   3.854   1.646
   93SOL    HW2 1179   3.047   3.793   1.797
   94SOL     OW 1180   3.110   1.697   4.015
   94SOL    HW1 1181   3.095   1.779   3.958
   94SOL    HW2 1182   3.195   1.652   3.988
   95SOL     OW 1183   0.489   0.197   4.097
   95SOL    HW1 1184   0.524   0.221   4.007
   95SOL    HW2 1185   0.530   0.110   4.126
   96SOL     OW 1186   0.223   5.481   6.689
   96SOL    HW1 1187   0.173   5.556   6.732
   96SOL    HW2 1188   0.157   5.413   6.656
   97SOL     OW 1189   3.248   4.301   5.390
   97SOL    HW1 1190   3.179   4.303   5.318
   97SOL    HW2 1191   3.262   4.207   5.421
   98SOL     OW 1192   0.451   2.233   4.862
   98SOL    HW1 1193   0.541   2.277   4.861
   98SOL    HW2 1194   0.463   2.134   4.855
   99SOL     OW 1195   4.044   4.441   5.321
   99SOL    HW1 1196   4.115   4.432   5.251
   99SOL    HW2 1197   4.074   4.396   5.405
  100SOL     OW 1198   1.030   0.890   5.275
  100SOL    HW1 1199   0.989   0.848   5.194
  100SOL    HW2 1200   0.957   0.919   5.338
  101SOL     OW 1201   5.341   3.148   2.864
  101SOL    HW1 1202   5.287   3.066   2.884
  101SOL    HW2 1203   5.298   3.198   2.789
  102SOL     OW 1204   3.757   0.206   6.790
  102SOL    HW1 1205   3.673   0.252   6.817
  102SOL    HW2 1206   3.828   0.222   6.859
  103SOL     OW 1207   1.047   1.347   2.142
  103SOL    HW1 1208   1.042   1.402   2.059
  103SOL    HW2 1209   1.030   1.251   2.120
  104SOL     OW 1210   6.040   4.369   2.285
  104SOL    HW1 1211   5.965   4.340   2.345
  104SOL    HW2 1212   6.123   4.321   2.311
  105SOL     OW 1213   0.410   0.281   4.856
  105SOL    HW1 1214   0.321   0.237   4.871
  105SOL    HW2 1215   0.420   0.304   4.759
  106SOL     OW 1216   4.369   3.085   1.738
  106SOL    HW1 1217   4.364   3.032   1.653
  106SOL    HW2 1218   4.443   3.049   1.795
  107SOL     OW 1219   5.137   6.978   1.406
  107SOL    HW1 1220   5.104   6.935   1.322
  107SOL    HW2 1221   5.059   7.019   1.455
  108SOL     OW 1222   3.666   2.104   4.891
  108SOL    HW1 1223   3.571   2.135   4.890
  108SOL    HW2 1224   3.669   2.004   4.892
  109SOL     OW 1225   1.858   1.237   5.510
  109SOL    HW1 1226   1.833   1.261   5.604
  109SOL    HW2 1227   1.943   1.184   5.511
  110SOL     OW 1228   4.122   4.362   5.677
  110SOL    HW1 1229   4.031   4.389   5.646
  110SOL    HW2 1230   4.118   4.269   5.712
  111SOL     OW 1231   5.855   3.193   0.964
  111SOL    HW1 1232   5.864   3.221   1.059
  111SOL    HW2 1233   5.758   3.192   0.939
  112SOL     OW 1234   4.655   6.827   4.916
  112SOL    HW1 1235   4.666   6.731   4.891
  112SOL    HW2 1236   4.617   6.834   5.008
  113SOL     OW 1237   0.479   4.623   2.677
  113SOL    HW1 1238   0.486   4.682   2.597
  113SOL    HW2 1239   0.562   4.569   2.686
  114SOL     OW 1240   0.223   1.979   1.707
  114SOL    HW1 1241   0.259   1.996   1.615
  114SOL    HW2 1242   0.299   1.977   1.772
  115SOL     OW 1243   4.356   0.844   2.535
  115SOL    HW1 1244   4.354   0.932   2.487
  115SOL    HW2 1245   4.444   0.833   2.580
  116SOL     OW 1246   6.621   5.481   1.277
  116SOL    HW1 1247   6.671   5.394   1.286
  116SOL    HW2 1248   6.527   5.468   1.307
  117SOL     OW 1249   3.239   2.052   0.208
  117SOL    HW1 1250   3.214   1.956   0.198
  117SOL    HW2 1251   3.222   2.082   0.302
  118SOL     OW 1252   0.314   2.046   2.018
  118SOL    HW1 1253   0.335   2.007   2.107
  118SOL    HW2 1254   0.233   2.105   2.026
  119SOL     OW 1255   6.334   6.473   4.863
  119SOL    HW1 1256   6.301   6.406   4.930
  119SOL    HW2 1257   6.272   6.551   4.861
  120SOL     OW 1258   4.340   1.584   4.509
  120SOL    HW1 1259   4.273   1.574   4.436
  120SOL    HW2 1260   4.303   1.545   4.593
  121SOL     OW 1261   0.263   5.770   6.550
  121SOL    HW1 1262   0.353   5.733   6.526
  121SOL    HW2 1263   0.270   5.817   6.638
  122SOL     OW 1264   6.633   4.921   5.944
  122SOL    HW1 1265   6.544   4.937   5.901
  122SOL    HW2 1266   6.623   4.854   6.017
  123SOL     OW 1267   0.410   2.789   1.299
  123SOL    HW1 1268   0.486   2.776   1.362
  123SOL    HW2 1269   0.446   2.816   1.209
  124SOL     OW 1270   1.567   3.465   0.300
  124SOL    HW1 1271   1.603   3.534   0.238
  124SOL    HW2 1272   1.488   3.502   0.349
  125SOL     OW 1273   4.654   2.483   0.826
  125SOL    HW1 1274   4.650   2.402   0.768
  125SOL    HW2 1275   4.702   2.461   0.911
  126SOL     OW 1276   3.591   2.838   4.549
  126SOL    HW1 1277   3.622   2.747   4.523
  126SOL    HW2 1278   3.669   2.901   4.548
  127SOL     OW 1279   0.334   4.764   5.862
  127SOL    HW1 1280   0.419   4.711   5.857
  127SOL    HW2 1281   0.319   4.811   5.775
  128SOL     OW 1282   4.426   3.898   6.027
  128SOL    HW1 1283   4.366   3.932   6.099
  128SOL    HW2 1284   4.470   3.813   6.057
  129SOL     OW 1285   0.538   5.200   2.257
  129SOL    HW1 1286   0.485   5.217   2.340
  129SOL    HW2 1287   0.567   5.287   2.216
  130SOL     OW 1288   6.319   3.304   4.828
  130SOL    HW1 1289   6.250   3.358   4.779
  130SOL    HW2 1290   6.322   3.212   4.791
  131SOL     OW 1291   0.841   3.401   3.379
  131SOL    HW1 1292   0.875   3.429   3.469
  131SOL    HW2 1293   0.746   3.429   3.368
  132SOL     OW 1294   4.715   2.793   1.362
  132SOL    HW1 1295   4.772   2.746   1.431
  132SOL    HW2 1296   4.700   2.888   1.391
  133SOL     OW 1297   4.518   5.013   6.348
  133SOL    HW1 1298   4.454   5.077   6.306
  133SOL    HW2 1299   4.612   5.046   6.336
  134SOL     OW 1300   5.898   1.729   0.985
  134SOL    HW1 1301   5.982   1.675   0.990
  134SOL    HW2 1302   5.867   1.733   0.890
  135SOL     OW 1303   4.614   4.860   3.823
  135SOL    HW1 1304   4.600   4.926   3.749
  135SOL    HW2 1305   4.581   4.770   3.794
  136SOL     OW 1306   4.023   6.960   5.896
  136SOL    HW1 1307   3.932   6.965   5.937
  136SOL    HW2 1308   4.037   6.870   5.856
  137SOL     OW 1309   2.255   4.150   6.455
  137SOL    HW1 1310   2.193   4.074   6.472
  137SOL    HW2 1311   2.207   4.222   6.405
  138SOL     OW 1312   0.886   5.301   6.674
  138SOL    HW1 1313   0.822   5.287   6.599
  138SOL    HW2 1314   0.962   5.360   6.644
  139SOL     OW 1315   0.398   0.091   1.276
  139SOL    HW1 1316   0.405   0.139   1.363
  139SOL    HW2 1317   0.332   0.138   1.218
  140SOL     OW 1318   3.769   0.926   1.662
  140SOL    HW1 1319   3.816   0.866   1.726
  140SOL    HW2 1320   3.822   1.011   1.652
  141SOL     OW 1321   0.337   1.574   0.450
  141SOL    HW1 1322   0.400   1.539   0.520
  141SOL    HW2 1323   0.389   1.600   0.369
  142SOL     OW 1324   2.230   4.354   0.559
  142SOL    HW1 1325   2.153   4.290   0.552
  142SOL    HW2 1326   2.196   4.448   0.545
  143SOL     OW 1327   5.033   5.869   1.584
  143SOL    HW1 1328   5.065   5.785   1.540
  143SOL    HW2 1329   4.938   5.886   1.559
  144SOL     OW 1330   3.530   5.109   2.715
  144SOL    HW1 1331   3.458   5.044   2.691
  144SOL    HW2 1332   3.613   5.088   2.664
  145SOL     OW 1333   0.054   5.464   3.605
  145SOL    HW1 1334   0.085   5.369   3.616
  145SOL    HW2 1335   6.988   5.464   3.561
  146SOL     OW 1336   6.504   0.522   6.021
  146SOL    HW1 1337   6.483   0.617   6.001
  146SOL    HW2 1338   6.596   0.501   5.988
  147SOL     OW 1339   6.276   1.471   5.467
  147SOL    HW1 1340   6.227   1.423   5.394
  147SOL    HW2 1341   6.292   1.408   5.543
  148SOL     OW 1342   2.042   6.511   1.733
  148SOL    HW1 1343   1.963   6.511   1.671
  148SOL    HW2 1344   2.095   6.427   1.720
  149SOL     OW 1345   1.344   3.203   4.907
  149SOL    HW1 1346   1.356   3.247   4.818
  149SOL    HW2 1347   1.367   3.106   4.899
  150SOL     OW 1348   4.352   1.932   5.502
  150SOL    HW1 1349   4.267   1.902   5.546
  150SOL    HW2 1350   4.372   2.026   5.529
  151SOL     OW 1351   6.465   2.988   1.420
  151SOL    HW1 1352   6.427   2.938   1.342
  151SOL    HW2 1353   6.552   2.948   1.447
  152SOL     OW 1354   6.967   2.801   1.264
  152SOL    HW1 1355   6.999   2.751   1.183
  152SOL    HW2 1356   0.019   2.853   1.303
  153SOL     OW 1357   1.974   1.546   3.631
  153SOL    HW1 1358   2.064   1.557   3.675
  153SOL    HW2 1359   1.961   1.451   3.606
  154SOL     OW 1360   0.064   1.417   3.196
  154SOL    HW1 1361   0.137   1.481   3.220
  154SOL    HW2 1362   0.012   1.393   3.278
  155SOL     OW 1363   5.882   4.595   3.924
  155SOL    HW1 1364   5.906   4.660   3.995
  155SOL    HW2 1365   5.783   4.591   3.914
  156SOL     OW 1366   4.906   1.532   1.007
  156SOL    HW1 1367   4.824   1.509   1.059
  156SOL    HW2 1368   4.977   1.463   1.024
  157SOL     OW 1369   5.041   0.571   1.181
  157SOL    HW1 1370   5.066   0.479   1.212
  157SOL    HW2 1371   4.986   0.616   1.251
  158SOL     OW 1372   0.639   2.955   4.581
  158SOL    HW1 1373   0.619   3.052   4.592
  158SOL    HW2 1374   0.713   2.943   4.515
  159SOL     OW 1375   6.451   5.357   0.180
  159SOL    HW1 1376   6.463   5.427   0.109
  159SOL    HW2 1377   6.526   5.291   0.174
  160SOL     OW 1378   4.387   1.114   0.859
  160SOL    HW1 1379   4.314   1.154   0.804
  160SOL    HW2 1380   4.468   1.172   0.856
  161SOL     OW 1381   0.012   6.265   0.587
  161SOL    HW1 1382   6.936   6.268   0.581
  161SOL    HW2 1383   0.042   6.314   0.669
  162SOL     OW 1384   4.468   7.022   5.553
  162SOL    HW1 1385   4.561   7.008   5.520
  162SOL    HW2 1386   4.442   0.094   5.539
  163SOL     OW 1387   0.535   3.418   2.910
  163SOL    HW1 1388   0.559   3.509   2.942
  163SOL    HW2 1389   0.538   3.417   2.810
  164SOL     OW 1390   2.060   2.254   2.732
  164SOL    HW1 1391   1.975   2.279   2.776
  164SOL    HW2 1392   2.087   2.325   2.667
  165SOL     OW 1393   0.298   6.914   4.019
  165SOL    HW1 1394   0.228   6.858   4.062
  165SOL    HW2 1395   0.386   6.868   4.024
  166SOL     OW 1396   7.018   4.489   4.252
  166SOL    HW1 1397   6.982   4.580   4.270
  166SOL    HW2 1398   6.963   4.421   4.299
  167SOL     OW 1399   1.623   1.222   4.226
  167SOL    HW1 1400   1.669   1.310   4.212
  167SOL    HW2 1401   1.524   1.235   4.229
  168SOL     OW 1402   3.391   3.875   2.894
  168SOL    HW1 1403   3.355   3.954   2.944
  168SOL    HW2 1404   3.386   3.794   2.952
  169SOL     OW 1405   5.202   2.403   0.531
  169SOL    HW1 1406   5.194   2.492   0.575
  169SOL    HW2 1407   5.135   2.340   0.571
  170SOL     OW 1408   6.761   5.702   1.232
  170SOL    HW1 1409   6.718   5.614   1.253
  170SOL    HW2 1410   6.780   5.751   1.317
  171SOL     OW 1411   3.131   3.107   1.287
  171SOL    HW1 1412   3.080   3.028   1.254
  171SOL    HW2 1413   3.068   3.179   1.314
  172SOL     OW 1414   1.056   0.785   6.766
  172SOL    HW1 1415   1.074   0.715   6.696
  172SOL    HW2 1416   1.027   0.870   6.721
  173SOL     OW 1417   5.642   1.201   4.534
  173SOL    HW1 1418   5.690   1.129   4.485
  173SOL    HW2 1419   5.593   1.162   4.612
  174SOL     OW 1420   5.696   4.118   4.731
  174SOL    HW1 1421   5.663   4.212   4.720
  174SOL    HW2 1422   5.640   4.072   4.800
  175SOL     OW 1423   0.744   6.823   2.452
  175SOL    HW1 1424   0.744   6.916   2.489
  175SOL    HW2 1425   0.773   6.759   2.523
  176SOL     OW 1426   6.337   4.227   1.381
  176SOL    HW1 1427   6.280   4.300   1.418
  176SOL    HW2 1428   6.414   4.267   1.331
  177SOL     OW 1429   6.462   1.909   4.081
  177SOL    HW1 1430   6.506   1.878   4.165
  177SOL    HW2 1431   6.532   1.938   4.016
  178SOL     OW 1432   2.415   5.329   4.215
  178SOL    HW1 1433   2.392   5.390   4.290
  178SOL    HW2 1434   2.337   5.271   4.193
  179SOL     OW 1435   3.505   4.157   1.754
  179SOL    HW1 1436   3.579   4.096   1.726
  179SOL    HW2 1437   3.537   4.251   1.754
  180SOL     OW 1438   4.552   1.330   6.326
  180SOL    HW1 1439   4.492   1.395   6.372
  180SOL    HW2 1440   4.616   1.291   6.392
  181SOL     OW 1441   3.317   1.095   5.857
  181SOL    HW1 1442   3.347   1.156   5.931
  181SOL    HW2 1443   3.356   1.004   5.871
  182SOL     OW 1444   2.535   2.903   5.482
  182SOL    HW1 1445   2.485   2.833   5.432
  182SOL    HW2 1446   2.566   2.974   5.419
  183SOL     OW 1447   3.108   0.801   3.064
  183SOL    HW1 1448   3.042   0.837   2.999
  183SOL    HW2 1449   3.099   0.848   3.152
  184SOL     OW 1450   5.210   5.499   3.490
  184SOL    HW1 1451   5.225   5.598   3.496
  184SOL    HW2 1452   5.261   5.462   3.412
  185SOL     OW 1453   0.402   6.893   5.039
  185SOL    HW1 1454   0.487   6.846   5.011
  185SOL    HW2 1455   0.348   6.831   5.095
  186SOL     OW 1456   3.128   6.061   5.468
  186SOL    HW1 1457   3.188   6.125   5.516
  186SOL    HW2 1458   3.095   5.991   5.531
  187SOL     OW 1459   4.242   5.925   0.783
  187SOL    HW1 1460   4.341   5.918   0.768
  187SOL    HW2 1461   4.215   5.863   0.856
  188SOL     OW 1462   1.159   3.413   3.294
  188SOL    HW1 1463   1.078   3.450   3.249
  188SOL    HW2 1464   1.228   3.485   3.304
  189SOL     OW 1465   5.760   4.501   5.650
  189SOL    HW1 1466   5.842   4.553   5.626
  189SOL    HW2 1467   5.760   4.485   5.749
  190SOL     OW 1468   6.546   6.465   0.585
  190SOL    HW1 1469   6.507   6.523   0.656
  190SOL    HW2 1470   6.549   6.516   0.499
  191SOL     OW 1471   1.849   2.486   5.031
  191SOL    HW1 1472   1.803   2.499   4.943
  191SOL    HW2 1473   1.943   2.455   5.014
  192SOL     OW 1474   7.020   6.077   1.514
  192SOL    HW1 1475   0.022   6.053   1.420
  192SOL    HW2 1476   0.027   6.006   1.576
  193SOL     OW 1477   2.599   0.325   1.913
  193SOL    HW1 1478   2.635   0.287   1.828
  193SOL    HW2 1479   2.674   0.360   1.969
  194SOL     OW 1480   4.141   6.048   2.957
  194SOL    HW1 1481   4.084   6.130   2.959
  194SOL    HW2 1482   4.086   5.970   2.927
  195SOL     OW 1483   2.986   0.499   0.976
  195SOL    HW1 1484   2.994   0.451   0.889
  195SOL    HW2 1485   3.054   0.464   1.040
  196SOL     OW 1486   3.973   2.681   0.818
  196SOL    HW1 1487   3.921   2.616   0.762
  196SOL    HW2 1488   3.955   2.663   0.915
  197SOL     OW 1489   2.124   6.205   6.953
  197SOL    HW1 1490   2.085   6.244   0.012
  197SOL    HW2 1491   2.171   6.119   6.975
  198SOL     OW 1492   4.189   6.797   6.565
  198SOL    HW1 1493   4.267   6.860   6.570
  198SOL    HW2 1494   4.215   6.716   6.512
  199SOL     OW 1495   1.226   0.860   2.701
  199SOL    HW1 1496   1.231   0.949   2.745
  199SOL    HW2 1497   1.318   0.826   2.684
  200SOL     OW 1498   1.022   3.631   4.101
  200SOL    HW1 1499   0.980   3.681   4.026
  200SOL    HW2 1500   1.057   3.544   4.068
  201SOL     OW 1501   4.265   1.546   6.060
  201SOL    HW1 1502   4.252   1.562   6.158
  201SOL    HW2 1503   4.275   1.633   6.012
  202SOL     OW 1504   3.850   0.664   2.808
  202SOL    HW1 1505   3.946   0.667   2.835
  202SOL    HW2 1506   3.843   0.672   2.708
  203SOL     OW 1507   5.933   2.470   0.236
  203SOL    HW1 1508   6.025   2.457   0.197
  203SOL    HW2 1509   5.866   2.468   0.162
  204SOL     OW 1510   2.081   6.671   1.241
  204SOL    HW1 1511   2.048   6.709   1.155
  204SOL    HW2 1512   2.142   6.736   1.285
  205SOL     OW 1513   5.857   0.295   1.267
  205SOL    HW1 1514   5.907   0.382   1.264
  205SOL    HW2 1515   5.765   0.312   1.302
  206SOL     OW 1516   6.974   6.366   1.549
  206SOL    HW1 1517   7.021   6.417   1.621
  206SOL    HW2 1518   7.019   6.277   1.536
  207SOL     OW 1519   5.398   1.826   5.944
  207SOL    HW1 1520   5.478   1.807   5.887
  207SOL    HW2 1521   5.417   1.904   6.004
  208SOL     OW 1522   4.202   4.414   6.933
  208SOL    HW1 1523   4.292   4.379   6.906
  208SOL    HW2 1524   4.195   4.510   6.906
  209SOL     OW 1525   0.139   5.540   4.003
  209SOL    HW1 1526   0.136   5.441   3.996
  209SOL    HW2 1527   0.172   5.578   3.916
  210SOL     OW 1528   4.201   2.104   0.747
  210SOL    HW1 1529   4.254   2.178   0.789
  210SOL    HW2 1530   4.175   2.037   0.816
  211SOL     OW 1531   0.993   3.190   1.647
  211SOL    HW1 1532   1.080   3.222   1.684
  211SOL    HW2 1533   0.963   3.109   1.697
  212SOL     OW 1534   0.312   5.447   4.751
  212SOL    HW1 1535   0.294   5.364   4.697
  212SOL    HW2 1536   0.401   5.485   4.725
  213SOL     OW 1537   3.678   2.143   6.854
  213SOL    HW1 1538   3.749   2.127   6.923
  213SOL    HW2 1539   3.589   2.139   6.898
  214SOL     OW 1540   2.066   6.730   3.728
  214SOL    HW1 1541   2.012   6.805   3.688
  214SOL    HW2 1542   2.058   6.732   3.827
  215SOL     OW 1543   3.754   4.015   2.797
  215SOL    HW1 1544   3.790   4.062   2.877
  215SOL    HW2 1545   3.663   4.051   2.775
  216SOL     OW 1546   2.407   0.086   5.776
  216SOL    HW1 1547   2.427   0.135   5.690
  216SOL    HW2 1548   2.318   0.041   5.768
  217SOL     OW 1549   7.024   2.653   5.118
  217SOL    HW1 1550   7.016   2.558   5.149
  217SOL    HW2 1551   6.975   2.712   5.182
  218SOL     OW 1552   2.290   3.813   5.861
  218SOL    HW1 1553   2.278   3.850   5.954
  218SOL    HW2 1554   2.202   3.810   5.815
  219SOL     OW 1555   3.290   5.669   6.782
  219SOL    HW1 1556   3.234   5.634   6.707
  219SOL    HW2 1557   3.241   5.743   6.828
  220SOL     OW 1558   1.538   4.292   0.758
  220SOL    HW1 1559   1.531   4.194   0.774
  220SOL    HW2 1560   1.609   4.331   0.817
  221SOL     OW 1561   6.004   2.771   4.223
  221SOL    HW1 1562   5.992   2.676   4.195
  221SOL    HW2 1563   5.927   2.825   4.190
  222SOL     OW 1564   1.884   6.082   4.877
  222SOL    HW1 1565   1.977   6.104   4.908
  222SOL    HW2 1566   1.823   6.158   4.899
  223SOL     OW 1567   6.045   5.124   2.545
  223SOL    HW1 1568   5.949   5.143   2.568
  223SOL    HW2 1569   6.094   5.095   2.627
  224SOL     OW 1570   4.119   2.158   2.342
  224SOL    HW1 1571   4.135   2.205   2.255
  224SOL    HW2 1572   4.201   2.164   2.398
  225SOL     OW 1573   5.479   0.033   1.411
  225SOL    HW1 1574   5.484   0.051   1.510
  225SOL    HW2 1575   5.480   6.958   1.395
  226SOL     OW 1576   6.980   5.516   2.095
  226SOL    HW1 1577   6.952   5.512   1.999
  226SOL    HW2 1578   0.009   5.434   2.118
  227SOL     OW 1579   1.034   3.419   2.917
  227SOL    HW1 1580   1.132   3.405   2.905
  227SOL    HW2 1581   1.012   3.515   2.904
  228SOL     OW 1582   4.013   6.147   2.514
  228SOL    HW1 1583   3.930   6.112   2.556
  228SOL    HW2 1584   4.063   6.073   2.469
  229SOL     OW 1585   6.367   5.226   2.882
  229SOL    HW1 1586   6.458   5.188   2.870
  229SOL    HW2 1587   6.303   5.153   2.906
  230SOL     OW 1588   0.660   3.943   6.240
  230SOL    HW1 1589   0.587   3.925   6.175
  230SOL    HW2 1590   0.680   4.041   6.243
  231SOL     OW 1591   0.913   1.981   6.643
  231SOL    HW1 1592   0.925   1.923   6.724
  231SOL    HW2 1593   0.862   2.063   6.668
  232SOL     OW 1594   1.427   4.285   6.613
  232SOL    HW1 1595   1.485   4.273   6.532
  232SOL    HW2 1596   1.415   4.383   6.630
  233SOL     OW 1597   3.164   6.950   6.684
  233SOL    HW1 1598   3.247   7.001   6.664
  233SOL    HW2 1599   3.187   6.866   6.734
  234SOL     OW 1600   2.960   5.182   6.011
  234SOL    HW1 1601   2.937   5.137   5.924
  234SOL    HW2 1602   3.011   5.266   5.991
  235SOL     OW 1603   3.249   3.393   5.764
  235SOL    HW1 1604   3.249   3.492   5.777
  235SOL    HW2 1605   3.158   3.362   5.737
  236SOL     OW 1606   0.150   2.278   6.056
  236SOL    HW1 1607   0.222   2.302   5.991
  236SOL    HW2 1608   0.084   2.218   6.011
  237SOL     OW 1609   6.744   6.540   1.636
  237SOL    HW1 1610   6.799   6.576   1.711
  237SOL    HW2 1611   6.803   6.494   1.570
  238SOL     OW 1612   0.064   1.898   2.674
  238SOL    HW1 1613   7.006   1.892   2.617
  238SOL    HW2 1614   0.038   1.922   2.768
  239SOL     OW 1615   6.701   4.914   0.995
  239SOL    HW1 1616   6.609   4.948   0.977
  239SOL    HW2 1617   6.729   4.854   0.920
  240SOL     OW 1618   6.715   2.387   5.688
  240SOL    HW1 1619   6.695   2.448   5.611
  240SOL    HW2 1620   6.792   2.328   5.665
  241SOL     OW 1621   6.026   1.876   4.216
  241SOL    HW1 1622   5.978   1.813   4.155
  241SOL    HW2 1623   5.960   1.936   4.261
  242SOL     OW 1624   2.918   2.228   3.979
  242SOL    HW1 1625   2.833   2.262   3.940
  242SOL    HW2 1626   2.918   2.242   4.078
  243SOL     OW 1627   4.381   1.477   6.498
  243SOL    HW1 1628   4.291   1.504   6.464
  243SOL    HW2 1629   4.386   1.492   6.596
  244SOL     OW 1630   0.277   1.178   5.967
  244SOL    HW1 1631   0.272   1.089   6.014
  244SOL    HW2 1632   0.267   1.251   6.034
  245SOL     OW 1633   5.157   2.437   3.821
  245SOL    HW1 1634   5.127   2.407   3.730
  245SOL    HW2 1635   5.110   2.385   3.891
  246SOL     OW 1636   4.978   3.130   3.509
  246SOL    HW1 1637   4.921   3.151   3.589
  246SOL    HW2 1638   5.030   3.211   3.483
  247SOL     OW 1639   2.874   0.581   2.776
  247SOL    HW1 1640   2.962   0.605   2.818
  247SOL    HW2 1641   2.825   0.664   2.751
  248SOL     OW 1642   7.004   1.517   1.967
  248SOL    HW1 1643   6.909   1.539   1.943
  248SOL    HW2 1644   0.024   1.472   1.890
  249SOL     OW 1645   2.141   5.837   5.020
  249SOL    HW1 1646   2.091   5.753   4.998
  249SOL    HW2 1647   2.139   5.851   5.119
  250SOL     OW 1648   5.494   2.453   6.995
  250SOL    HW1 1649   5.418   2.444   6.931
  250SOL    HW2 1650   5.484   2.385   0.044
  251SOL     OW 1651   1.773   1.857   0.409
  251SOL    HW1 1652   1.768   1.874   0.507
  251SOL    HW2 1653   1.748   1.762   0.390
  252SOL     OW 1654   0.705   1.545   0.455
  252SOL    HW1 1655   0.749   1.583   0.536
  252SOL    HW2 1656   0.626   1.491   0.482
  253SOL     OW 1657   1.584   4.317   5.917
  253SOL    HW1 1658   1.581   4.408   5.875
  253SOL    HW2 1659   1.679   4.287   5.924
  254SOL     OW 1660   4.717   3.891   6.296
  254SOL    HW1 1661   4.786   3.829   6.332
  254SOL    HW2 1662   4.626   3.852   6.308
  255SOL     OW 1663   3.783   1.821   2.342
  255SOL    HW1 1664   3.732   1.903   2.317
  255SOL    HW2 1665   3.782   1.756   2.265
  256SOL     OW 1666   6.521   5.562   1.709
  256SOL    HW1 1667   6.465   5.542   1.629
  256SOL    HW2 1668   6.527   5.661   1.723
  257SOL     OW 1669   2.809   6.039   6.628
  257SOL    HW1 1670   2.787   5.964   6.690
  257SOL    HW2 1671   2.729   6.060   6.571
  258SOL     OW 1672   4.486   4.562   4.164
  258SOL    HW1 1673   4.448   4.654   4.172
  258SOL    HW2 1674   4.466   4.525   4.074
  259SOL     OW 1675   1.016   2.335   2.756
  259SOL    HW1 1676   1.036   2.344   2.854
  259SOL    HW2 1677   0.920   2.358   2.741
  260SOL     OW 1678   6.923   6.769   5.444
  260SOL    HW1 1679   6.978   6.763   5.361
  260SOL    HW2 1680   6.956   6.702   5.511
  261SOL     OW 1681   0.291   0.971   3.739
  261SOL    HW1 1682   0.272   1.067   3.723
  261SOL    HW2 1683   0.384   0.961   3.774
  262SOL     OW 1684   1.300   4.712   2.481
  262SOL    HW1 1685   1.332   4.622   2.450
  262SOL    HW2 1686   1.376   4.777   2.476
  263SOL     OW 1687   0.156   3.627   4.743
  263SOL    HW1 1688   0.116   3.537   4.728
  263SOL    HW2 1689   0.225   3.646   4.673
  264SOL     OW 1690   3.449   4.654   0.060
  264SOL    HW1 1691   3.413   4.590   0.127
  264SOL    HW2 1692   3.374   4.709   0.023
  265SOL     OW 1693   4.725   5.487   3.954
  265SOL    HW1 1694   4.708   5.506   3.857
  265SOL    HW2 1695   4.688   5.398   3.978
  266SOL     OW 1696   3.974   3.049   6.822
  266SOL    HW1 1697   4.045   3.117   6.838
  266SOL    HW2 1698   3.997   2.964   6.869
  267SOL     OW 1699   2.238   2.487   5.757
  267SOL    HW1 1700   2.288   2.425   5.697
  267SOL    HW2 1701   2.239   2.579   5.718
  268SOL     OW 1702   2.848   4.883   3.944
  268SOL    HW1 1703   2.767   4.830   3.918
  268SOL    HW2 1704   2.862   4.957   3.878
  269SOL     OW 1705   1.888   2.016   5.073
  269SOL    HW1 1706   1.923   1.958   5.147
  269SOL    HW2 1707   1.795   2.045   5.095
  270SOL     OW 1708   4.879   6.559   5.051
  270SOL    HW1 1709   4.894   6.652   5.016
  270SOL    HW2 1710   4.906   6.554   5.147
  271SOL     OW 1711   1.846   1.681   6.989
  271SOL    HW1 1712   1.930   1.679   0.019
  271SOL    HW2 1713   1.831   1.592   6.947
  272SOL     OW 1714   4.673   5.544   0.545
  272SOL    HW1 1715   4.760   5.496   0.538
  272SOL    HW2 1716   4.611   5.494   0.605
  273SOL     OW 1717   2.049   6.522   4.233
  273SOL    HW1 1718   2.124   6.461   4.257
  273SOL    HW2 1719   2.010   6.562   4.316
  274SOL     OW 1720   5.642   2.002   1.195
  274SOL    HW1 1721   5.583   2.082   1.194
  274SOL    HW2 1722   5.695   2.000   1.279
  275SOL     OW 1723   5.538   5.879   5.880
  275SOL    HW1 1724   5.473   5.808   5.853
  275SOL    HW2 1725   5.493   5.944   5.941
  276SOL     OW 1726   0.127   6.915   4.534
  276SOL    HW1 1727   0.148   6.893   4.439
  276SOL    HW2 1728   0.204   6.964   4.575
  277SOL     OW 1729   4.301   2.829   5.568
  277SOL    HW1 1730   4.320   2.881   5.652
  277SOL    HW2 1731   4.334   2.735   5.579
  278SOL     OW 1732   5.529   4.298   3.057
  278SOL    HW1 1733   5.452   4.236   3.041
  278SOL    HW2 1734   5.594   4.254   3.119
  279SOL     OW 1735   6.826   3.827   3.526
  279SOL    HW1 1736   6.925   3.813   3.522
  279SOL    HW2 1737   6.792   3.802   3.617
  280SOL     OW 1738   4.178   1.620   3.822
  280SOL    HW1 1739   4.102   1.648   3.881
  280SOL    HW2 1740   4.171   1.665   3.733
  281SOL     OW 1741   5.323   6.282   5.027
  281SOL    HW1 1742   5.367   6.341   5.094
  281SOL    HW2 1743   5.227   6.310   5.017
  282SOL     OW 1744   0.879   2.726   0.671
  282SOL    HW1 1745   0.833   2.764   0.750
  282SOL    HW2 1746   0.955   2.668   0.701
  283SOL     OW 1747   6.497   3.887   4.178
  283SOL    HW1 1748   6.461   3.970   4.137
  283SOL    HW2 1749   6.463   3.878   4.271
  284SOL     OW 1750   4.976   6.524   2.393
  284SOL    HW1 1751   4.929   6.485   2.314
  284SOL    HW2 1752   4.916   6.521   2.473
  285SOL     OW 1753   4.069   6.508   5.524
  285SOL    HW1 1754   4.135   6.434   5.509
  285SOL    HW2 1755   3.984   6.487   5.475
  286SOL     OW 1756   2.701   4.664   5.488
  286SOL    HW1 1757   2.799   4.647   5.494
  286SOL    HW2 1758   2.667   4.631   5.400
  287SOL     OW 1759   3.901   6.030   6.563
  287SOL    HW1 1760   3.927   5.966   6.636
  287SOL    HW2 1761   3.984   6.071   6.525
  288SOL     OW 1762   4.251   1.533   0.266
  288SOL    HW1 1763   4.260   1.632   0.278
  288SOL    HW2 1764   4.194   1.514   0.186
  289SOL     OW 1765   5.834   4.853   4.735
  289SOL    HW1 1766   5.923   4.812   4.756
  289SOL    HW2 1767   5.795   4.807   4.656
  290SOL     OW 1768   3.469   0.316   5.821
  290SOL    HW1 1769   3.543   0.381   5.839
  290SOL    HW2 1770   3.468   0.246   5.892
  291SOL     OW 1771   4.316   0.665   5.172
  291SOL    HW1 1772   4.292   0.573   5.202
  291SOL    HW2 1773   4.406   0.690   5.207
  292SOL     OW 1774   3.145   0.396   4.186
  292SOL    HW1 1775   3.086   0.469   4.151
  292SOL    HW2 1776   3.234   0.403   4.142
  293SOL     OW 1777   4.892   6.813   2.712
  293SOL    HW1 1778   4.926   6.857   2.628
  293SOL    HW2 1779   4.796   6.837   2.726
  294SOL     OW 1780   6.751   1.049   6.663
  294SOL    HW1 1781   6.818   1.069   6.593
  294SOL    HW2 1782   6.796   1.041   6.752
  295SOL     OW 1783   0.363   0.593   4.612
  295SOL    HW1 1784   0.304   0.663   4.652
  295SOL    HW2 1785   0.343   0.504   4.653
  296SOL     OW 1786   0.574   2.254   1.512
  296SOL    HW1 1787   0.652   2.192   1.503
  296SOL    HW2 1788   0.599   2.343   1.473
  297SOL     OW 1789   5.604   3.258   3.225
  297SOL    HW1 1790   5.574   3.215   3.310
  297SOL    HW2 1791   5.535   3.243   3.154
  298SOL     OW 1792   4.130   1.137   6.194
  298SOL    HW1 1793   4.222   1.157   6.228
  298SOL    HW2 1794   4.080   1.085   6.263
  299SOL     OW 1795   0.716   1.368   6.506
  299SOL    HW1 1796   0.683   1.344   6.597
  299SOL    HW2 1797   0.809   1.335   6.495
  300SOL     OW 1798   4.998   6.803   3.371
  300SOL    HW1 1799   5.062   6.742   3.325
  300SOL    HW2 1800   4.919   6.750   3.403
  301SOL     OW 1801   6.768   5.619   5.915
  301SOL    HW1 1802   6.799   5.584   5.827
  301SOL    HW2 1803   6.795   5.556   5.988
  302SOL     OW 1804   0.402   6.732   3.076
  302SOL    HW1 1805   0.447   6.764   3.159
  302SOL    HW2 1806   0.352   6.808   3.034
  303SOL     OW 1807   5.804   6.394   2.431
  303SOL    HW1 1808   5.787   6.312   2.376
  303SOL    HW2 1809   5.791   6.475   2.374
  304SOL     OW 1810   1.846   6.761   4.771
  304SOL    HW1 1811   1.803   6.680   4.813
  304SOL    HW2 1812   1.784   6.839   4.779
  305SOL     OW 1813   0.744   2.027   1.275
  305SOL    HW1 1814   0.749   1.937   1.231
  305SOL    HW2 1815   0.701   2.017   1.365
  306SOL     OW 1816   0.522   6.632   2.686
  306SOL    HW1 1817   0.574   6.585   2.757
  306SOL    HW2 1818   0.539   6.587   2.598
  307SOL     OW 1819   3.854   3.775   3.529
  307SOL    HW1 1820   3.920   3.786   3.603
  307SOL    HW2 1821   3.803   3.689   3.543
  308SOL     OW 1822   6.877   1.914   2.508
  308SOL    HW1 1823   6.823   1.989   2.468
  308SOL    HW2 1824   6.819   1.833   2.517
  309SOL     OW 1825   1.633   4.904   0.332
  309SOL    HW1 1826   1.613   5.002   0.343
  309SOL    HW2 1827   1.577   4.867   0.258
  310SOL     OW 1828   5.560   6.371   5.152
  310SOL    HW1 1829   5.548   6.271   5.150
  310SOL    HW2 1830   5.604   6.401   5.068
  311SOL     OW 1831   1.339   6.195   1.775
  311SOL    HW1 1832   1.355   6.106   1.734
  311SOL    HW2 1833   1.261   6.240   1.730
  312SOL     OW 1834   3.262   0.733   4.087
  312SOL    HW1 1835   3.344   0.739   4.029
  312SOL    HW2 1836   3.289   0.703   4.179
  313SOL     OW 1837   3.077   3.199   2.668
  313SOL    HW1 1838   3.139   3.259   2.618
  313SOL    HW2 1839   3.031   3.138   2.603
  314SOL     OW 1840   2.605   5.697   6.462
  314SOL    HW1 1841   2.548   5.628   6.417
  314SOL    HW2 1842   2.618   5.775   6.400
  315SOL     OW 1843   5.289   0.343   4.719
  315SOL    HW1 1844   5.375   0.384   4.690
  315SOL    HW2 1845   5.212   0.398   4.686
  316SOL     OW 1846   3.268   0.942   6.740
  316SOL    HW1 1847   3.366   0.953   6.758
  316SOL    HW2 1848   3.231   1.028   6.706
  317SOL     OW 1849   0.159   2.382   1.228
  317SOL    HW1 1850   0.239   2.331   1.195
  317SOL    HW2 1851   0.084   2.319   1.245
  318SOL     OW 1852   1.206   0.563   4.057
  318SOL    HW1 1853   1.219   0.661   4.041
  318SOL    HW2 1854   1.221   0.514   3.971
  319SOL     OW 1855   0.253   0.596   3.433
  319SOL    HW1 1856   0.319   0.530   3.470
  319SOL    HW2 1857   0.292   0.688   3.438
  320SOL     OW 1858   5.091   1.743   0.294
  320SOL    HW1 1859   4.993   1.740   0.277
  320SOL    HW2 1860   5.117   1.836   0.323
  321SOL     OW 1861   4.172   3.066   0.939
  321SOL    HW1 1862   4.267   3.079   0.968
  321SOL    HW2 1863   4.168   2.996   0.867
  322SOL     OW 1864   3.431   2.637   6.501
  322SOL    HW1 1865   3.371   2.684   6.565
  322SOL    HW2 1866   3.421   2.538   6.511
  323SOL     OW 1867   1.560   3.641   2.095
  323SOL    HW1 1868   1.651   3.682   2.102
  323SOL    HW2 1869   1.565   3.544   2.115
  324SOL     OW 1870   0.750   6.953   3.379
  324SOL    HW1 1871   0.772   6.856   3.383
  324SOL    HW2 1872   0.822   7.002   3.329
  325SOL     OW 1873   6.697   3.691   0.568
  325SOL    HW1 1874   6.663   3.663   0.658
  325SOL    HW2 1875   6.795   3.675   0.563
  326SOL     OW 1876   0.286   5.875   0.083
  326SOL    HW1 1877   0.221   5.892   0.156
  326SOL    HW2 1878   0.368   5.931   0.098
  327SOL     OW 1879   3.941   5.809   5.601
  327SOL    HW1 1880   3.960   5.796   5.504
  327SOL    HW2 1881   4.028   5.810   5.652
  328SOL     OW 1882   1.456   4.572   3.324
  328SOL    HW1 1883   1.370   4.564   3.274
  328SOL    HW2 1884   1.487   4.481   3.352
  329SOL     OW 1885   3.485   3.051   2.168
  329SOL    HW1 1886   3.394   3.025   2.135
  329SOL    HW2 1887   3.490   3.150   2.179
  330SOL     OW 1888   3.010   3.504   0.344
  330SOL    HW1 1889   2.930   3.556   0.373
  330SOL    HW2 1890   2.998   3.408   0.366
  331SOL     OW 1891   5.519   5.162   5.096
  331SOL    HW1 1892   5.611   5.192   5.074
  331SOL    HW2 1893   5.502   5.175   5.194
  332SOL     OW 1894   5.745   2.145   2.695
  332SOL    HW1 1895   5.770   2.052   2.671
  332SOL    HW2 1896   5.664   2.144   2.754
  333SOL     OW 1897   3.351   6.957   4.341
  333SOL    HW1 1898   3.359   6.989   4.435
  333SOL    HW2 1899   3.441   6.960   4.297
  334SOL     OW 1900   3.773   3.492   3.486
  334SOL    HW1 1901   3.744   3.415   3.429
  334SOL    HW2 1902   3.831   3.459   3.561
  335SOL     OW 1903   3.484   1.418   1.252
  335SOL    HW1 1904   3.550   1.474   1.301
  335SOL    HW2 1905   3.447   1.348   1.313
  336SOL     OW 1906   4.778   1.836   4.865
  336SOL    HW1 1907   4.749   1.755   4.916
  336SOL    HW2 1908   4.788   1.813   4.768
  337SOL     OW 1909   6.885   1.048   5.360
  337SOL    HW1 1910   6.944   0.993   5.419
  337SOL    HW2 1911   6.794   1.006   5.356
  338SOL     OW 1912   4.456   1.390   1.457
  338SOL    HW1 1913   4.474   1.307   1.510
  338SOL    HW2 1914   4.439   1.466   1.520
  339SOL     OW 1915   3.971   5.485   5.910
  339SOL    HW1 1916   3.924   5.478   5.822
  339SOL    HW2 1917   4.020   5.400   5.928
  340SOL     OW 1918   5.551   2.880   4.676
  340SOL    HW1 1919   5.504   2.792   4.677
  340SOL    HW2 1920   5.588   2.897   4.584
  341SOL     OW 1921   0.274   6.942   2.954
  341SOL    HW1 1922   0.306   6.937   2.860
  341SOL    HW2 1923   0.278   0.013   2.986
  342SOL     OW 1924   4.660   1.731   2.454
  342SOL    HW1 1925   4.674   1.826   2.481
  342SOL    HW2 1926   4.565   1.705   2.471
  343SOL     OW 1927   6.094   6.935   1.261
  343SOL    HW1 1928   6.075   6.899   1.352
  343SOL    HW2 1929   6.013   6.982   1.226
  344SOL     OW 1930   6.787   3.135   1.810
  344SOL    HW1 1931   6.875   3.108   1.771
  344SOL    HW2 1932   6.744   3.056   1.853
  345SOL     OW 1933   6.820   2.639   4.766
  345SOL    HW1 1934   6.779   2.719   4.809
  345SOL    HW2 1935   6.872   2.588   4.834
  346SOL     OW 1936   2.327   6.142   3.410
  346SOL    HW1 1937   2.406   6.149   3.350
  346SOL    HW2 1938   2.251   6.194   3.371
  347SOL     OW 1939   2.402   4.861   0.751
  347SOL    HW1 1940   2.360   4.819   0.831
  347SOL    HW2 1941   2.494   4.894   0.775
  348SOL     OW 1942   3.847   5.131   1.854
  348SOL    HW1 1943   3.903   5.088   1.925
  348SOL    HW2 1944   3.886   5.220   1.831
  349SOL     OW 1945   5.143   4.249   0.461
  349SOL    HW1 1946   5.228   4.266   0.411
  349SOL    HW2 1947   5.066   4.253   0.397
  350SOL     OW 1948   2.624   1.798   6.763
  350SOL    HW1 1949   2.650   1.706   6.793
  350SOL    HW2 1950   2.546   1.791   6.701
  351SOL     OW 1951   3.370   4.285   0.905
  351SOL    HW1 1952   3.332   4.204   0.949
  351SOL    HW2 1953   3.320   4.303   0.820
  352SOL     OW 1954   4.349   0.201   2.254
  352SOL    HW1 1955   4.388   0.292   2.270
  352SOL    HW2 1956   4.265   0.192   2.307
  353SOL     OW 1957   1.526   6.872   0.766
  353SOL    HW1 1958   1.608   6.817   0.754
  353SOL    HW2 1959   1.543   6.943   0.835
  354SOL     OW 1960   0.814   2.759   0.418
  354SOL    HW1 1961   0.866   2.696   0.361
  354SOL    HW2 1962   0.846   2.754   0.513
  355SOL     OW 1963   0.863   2.871   3.396
  355SOL    HW1 1964   0.813   2.958   3.396
  355SOL    HW2 1965   0.961   2.889   3.406
  356SOL     OW 1966   2.838   0.348   5.516
  356SOL    HW1 1967   2.830   0.336   5.417
  356SOL    HW2 1968   2.784   0.428   5.544
  357SOL     OW 1969   6.202   6.914   4.323
  357SOL    HW1 1970   6.122   6.867   4.361
  357SOL    HW2 1971   6.277   6.913   4.390
  358SOL     OW 1972   3.090   6.181   6.398
  358SOL    HW1 1973   3.137   6.204   6.312
  358SOL    HW2 1974   3.055   6.087   6.393
  359SOL     OW 1975   1.345   2.042   2.090
  359SOL    HW1 1976   1.381   2.047   2.183
  359SOL    HW2 1977   1.329   2.134   2.055
  360SOL     OW 1978   2.165   4.385   3.658
  360SOL    HW1 1979   2.175   4.357   3.563
  360SOL    HW2 1980   2.086   4.337   3.699
  361SOL     OW 1981   0.347   1.980   2.317
  361SOL    HW1 1982   0.303   1.959   2.404
  361SOL    HW2 1983   0.428   1.923   2.306
  362SOL     OW 1984   3.719   3.339   1.568
  362SOL    HW1 1985   3.780   3.265   1.597
  362SOL    HW2 1986   3.667   3.373   1.646
  363SOL     OW 1987   4.849   5.519   1.681
  363SOL    HW1 1988   4.895   5.448   1.734
  363SOL    HW2 1989   4.757   5.489   1.657
  364SOL     OW 1990   0.937   6.895   0.095
  364SOL    HW1 1991   0.981   6.984   0.109
  364SOL    HW2 1992   0.964   6.858   0.006
  365SOL     OW 1993   5.682   1.189   3.854
  365SOL    HW1 1994   5.754   1.127   3.884
  365SOL    HW2 1995   5.707   1.227   3.765
  366SOL     OW 1996   5.705   1.723   0.105
  366SOL    HW1 1997   5.704   1.650   0.037
  366SOL    HW2 1998   5.656   1.694   0.187
  367SOL     OW 1999   5.515   1.191   6.941
  367SOL    HW1 2000   5.606   1.195   6.899
  367SOL    HW2 2001   5.453   1.253   6.893
  368SOL     OW 2002   1.061   1.646   5.368
  368SOL    HW1 2003   0.997   1.576   5.334
  368SOL    HW2 2004   1.110   1.686   5.290
  369SOL     OW 2005   5.979   4.049   0.685
  369SOL    HW1 2006   5.942   4.134   0.722
  369SOL    HW2 2007   5.983   3.980   0.757
  370SOL     OW 2008   2.363   2.782   3.556
  370SOL    HW1 2009   2.389   2.819   3.466
  370SOL    HW2 2010   2.283   2.829   3.590
  371SOL     OW 2011   1.056   5.882   6.728
  371SOL    HW1 2012   0.988   5.835   6.785
  371SOL    HW2 2013   1.093   5.960   6.777
  372SOL     OW 2014   2.713   5.849   5.764
  372SOL    HW1 2015   2.690   5.754   5.785
  372SOL    HW2 2016   2.645   5.887   5.702
  373SOL     OW 2017   6.451   4.561   3.236
  373SOL    HW1 2018   6.428   4.615   3.317
  373SOL    HW2 2019   6.368   4.516   3.202
  374SOL     OW 2020   2.916   1.884   2.452
  374SOL    HW1 2021   2.857   1.913   2.376
  374SOL    HW2 2022   2.861   1.873   2.535
  375SOL     OW 2023   1.408   5.789   4.156
  375SOL    HW1 2024   1.361   5.721   4.101
  375SOL    HW2 2025   1.343   5.830   4.221
  376SOL     OW 2026   4.020   0.523   3.875
  376SOL    HW1 2027   4.101   0.469   3.854
  376SOL    HW2 2028   3.992   0.507   3.969
  377SOL     OW 2029   2.021   1.856   6.552
  377SOL    HW1 2030   2.000   1.758   6.548
  377SOL    HW2 2031   2.066   1.877   6.639
  378SOL     OW 2032   3.885   1.394   2.495
  378SOL    HW1 2033   3.980   1.424   2.509
  378SOL    HW2 2034   3.824   1.455   2.545
  379SOL     OW 2035   4.189   2.020   5.869
  379SOL    HW1 2036   4.179   2.105   5.921
  379SOL    HW2 2037   4.169   2.038   5.773
  380SOL     OW 2038   4.369   2.413   0.494
  380SOL    HW1 2039   4.391   2.473   0.417
  380SOL    HW2 2040   4.425   2.331   0.490
  381SOL     OW 2041   2.202   3.785   3.012
  381SOL    HW1 2042   2.207   3.730   2.929
  381SOL    HW2 2043   2.200   3.725   3.092
  382SOL     OW 2044   6.246   0.682   6.630
  382SOL    HW1 2045   6.274   0.591   6.660
  382SOL    HW2 2046   6.298   0.708   6.548
  383SOL     OW 2047   4.894   2.781   0.252
  383SOL    HW1 2048   4.860   2.688   0.262
  383SOL    HW2 2049   4.858   2.822   0.169
  384SOL     OW 2050   6.464   3.856   5.079
  384SOL    HW1 2051   6.549   3.847   5.026
  384SOL    HW2 2052   6.387   3.824   5.024
  385SOL     OW 2053   4.685   3.289   0.323
  385SOL    HW1 2054   4.702   3.211   0.263
  385SOL    HW2 2055   4.607   3.341   0.287
  386SOL     OW 2056   4.289   6.371   4.479
  386SOL    HW1 2057   4.259   6.306   4.409
  386SOL    HW2 2058   4.380   6.346   4.512
  387SOL     OW 2059   2.679   5.898   4.342
  387SOL    HW1 2060   2.588   5.859   4.322
  387SOL    HW2 2061   2.741   5.876   4.267
  388SOL     OW 2062   0.824   4.616   6.854
  388SOL    HW1 2063   0.804   4.522   6.880
  388SOL    HW2 2064   0.833   4.672   6.937
  389SOL     OW 2065   3.245   3.087   1.750
  389SOL    HW1 2066   3.219   2.992   1.767
  389SOL    HW2 2067   3.338   3.090   1.714
  390SOL     OW 2068   2.346   0.954   4.371
  390SOL    HW1 2069   2.333   0.969   4.469
  390SOL    HW2 2070   2.417   0.885   4.357
  391SOL     OW 2071   1.431   2.341   6.936
  391SOL    HW1 2072   1.374   2.382   6.865
  391SOL    HW2 2073   1.438   2.242   6.919
  392SOL     OW 2074   3.269   5.655   3.798
  392SOL    HW1 2075   3.272   5.567   3.844
  392SOL    HW2 2076   3.275   5.642   3.699
  393SOL     OW 2077   6.272   3.739   4.907
  393SOL    HW1 2078   6.195   3.686   4.942
  393SOL    HW2 2079   6.238   3.815   4.852
  394SOL     OW 2080   1.914   1.301   6.180
  394SOL    HW1 2081   1.944   1.208   6.201
  394SOL    HW2 2082   1.815   1.305   6.184
  395SOL     OW 2083   6.454   3.328   1.360
  395SOL    HW1 2084   6.442   3.305   1.457
  395SOL    HW2 2085   6.398   3.266   1.304
  396SOL     OW 2086   3.559   2.860   5.326
  396SOL    HW1 2087   3.586   2.872   5.421
  396SOL    HW2 2088   3.623   2.907   5.266
  397SOL     OW 2089   3.910   1.935   6.880
  397SOL    HW1 2090   3.893   1.839   6.858
  397SOL    HW2 2091   3.869   1.993   6.811
  398SOL     OW 2092   1.213   4.673   2.773
  398SOL    HW1 2093   1.165   4.759   2.793
  398SOL    HW2 2094   1.216   4.658   2.675
  399SOL     OW 2095   5.477   4.760   2.786
  399SOL    HW1 2096   5.510   4.667   2.769
  399SOL    HW2 2097   5.411   4.758   2.861
  400SOL     OW 2098   2.088   4.956   4.327
  400SOL    HW1 2099   2.086   4.856   4.328
  400SOL    HW2 2100   2.128   4.988   4.241
  401SOL     OW 2101   5.624   1.394   0.134
  401SOL    HW1 2102   5.560   1.355   0.069
  401SOL    HW2 2103   5.591   1.378   0.227
  402SOL     OW 2104   6.571   4.564   1.444
  402SOL    HW1 2105   6.552   4.617   1.362
  402SOL    HW2 2106   6.623   4.620   1.509
  403SOL     OW 2107   5.190   3.997   0.141
  403SOL    HW1 2108   5.282   3.995   0.103
  403SOL    HW2 2109   5.137   4.069   0.095
  404SOL     OW 2110   0.217   6.564   4.655
  404SOL    HW1 2111   0.172   6.499   4.594
  404SOL    HW2 2112   0.148   6.614   4.707
  405SOL     OW 2113   0.733   2.702   0.944
  405SOL    HW1 2114   0.810   2.730   1.001
  405SOL    HW2 2115   0.649   2.742   0.979
  406SOL     OW 2116   1.124   2.912   2.802
  406SOL    HW1 2117   1.182   2.831   2.791
  406SOL    HW2 2118   1.093   2.919   2.897
  407SOL     OW 2119   2.776   1.344   3.457
  407SOL    HW1 2120   2.705   1.406   3.491
  407SOL    HW2 2121   2.809   1.288   3.533
  408SOL     OW 2122   1.983   0.715   3.152
  408SOL    HW1 2123   2.015   0.676   3.066
  408SOL    HW2 2124   1.976   0.643   3.221
  409SOL     OW 2125   5.835   3.354   3.764
  409SOL    HW1 2126   5.828   3.300   3.680
  409SOL    HW2 2127   5.931   3.359   3.793
  410SOL     OW 2128   2.834   0.468   6.477
  410SOL    HW1 2129   2.790   0.412   6.547
  410SOL    HW2 2130   2.848   0.561   6.511
  411SOL     OW 2131   0.216   3.657   5.128
  411SOL    HW1 2132   0.147   3.642   5.199
  411SOL    HW2 2133   0.238   3.570   5.083
  412SOL     OW 2134   4.182   0.758   2.069
  412SOL    HW1 2135   4.167   0.660   2.075
  412SOL    HW2 2136   4.269   0.781   2.113
  413SOL     OW 2137   2.526   0.524   2.351
  413SOL    HW1 2138   2.448   0.466   2.375
  413SOL    HW2 2139   2.568   0.491   2.267
  414SOL     OW 2140   4.511   3.903   6.970
  414SOL    HW1 2141   4.465   3.882   0.033
  414SOL    HW2 2142   4.522   3.818   6.917
  415SOL     OW 2143   3.687   6.215   2.219
  415SOL    HW1 2144   3.756   6.143   2.212
  415SOL    HW2 2145   3.609   6.193   2.161
  416SOL     OW 2146   3.721   5.649   6.112
  416SOL    HW1 2147   3.785   5.603   6.173
  416SOL    HW2 2148   3.667   5.581   6.063
  417SOL     OW 2149   4.711   4.873   0.883
  417SOL    HW1 2150   4.615   4.847   0.869
  417SOL    HW2 2151   4.739   4.849   0.976
  418SOL     OW 2152   5.556   4.430   0.537
  418SOL    HW1 2153   5.592   4.507   0.589
  418SOL    HW2 2154   5.632   4.375   0.502
  419SOL     OW 2155   6.224   6.524   1.187
  419SOL    HW1 2156   6.315   6.510   1.227
  419SOL    HW2 2157   6.155   6.481   1.244
  420SOL     OW 2158   4.308   4.183   0.062
  420SOL    HW1 2159   4.347   4.235   7.010
  420SOL    HW2 2160   4.241   4.117   0.026
  421SOL     OW 2161   1.147   5.716   6.301
  421SOL    HW1 2162   1.051   5.689   6.302
  421SOL    HW2 2163   1.179   5.730   6.394
  422SOL     OW 2164   5.733   3.335   6.445
  422SOL    HW1 2165   5.808   3.341   6.380
  422SOL    HW2 2166   5.734   3.245   6.490
  423SOL     OW 2167   0.578   3.032   5.691
  423SOL    HW1 2168   0.498   3.053   5.746
  423SOL    HW2 2169   0.627   3.117   5.669
  424SOL     OW 2170   2.062   3.910   0.135
  424SOL    HW1 2171   2.139   3.971   0.154
  424SOL    HW2 2172   2.082   3.857   0.053
  425SOL     OW 2173   3.383   0.344   1.047
  425SOL    HW1 2174   3.307   0.407   1.056
  425SOL    HW2 2175   3.361   0.259   1.095
  426SOL     OW 2176   5.971   3.898   5.091
  426SOL    HW1 2177   5.962   3.992   5.061
  426SOL    HW2 2178   5.921   3.838   5.028
  427SOL     OW 2179   4.235   3.419   1.059
  427SOL    HW1 2180   4.171   3.383   0.990
  427SOL    HW2 2181   4.193   3.412   1.149
  428SOL     OW 2182   3.741   1.113   5.255
  428SOL    HW1 2183   3.811   1.176   5.289
  428SOL    HW2 2184   3.751   1.100   5.157
  429SOL     OW 2185   2.625   5.335   0.071
  429SOL    HW1 2186   2.701   5.307   0.130
  429SOL    HW2 2187   2.647   5.422   0.027
  430SOL     OW 2188   1.636   6.868   4.917
  430SOL    HW1 2189   1.547   6.857   4.874
  430SOL    HW2 2190   1.625   6.886   5.014
  431SOL     OW 2191   2.991   1.596   6.586
  431SOL    HW1 2192   2.998   1.598   6.686
  431SOL    HW2 2193   2.938   1.516   6.558
  432SOL     OW 2194   0.225   1.560   1.192
  432SOL    HW1 2195   0.194   1.655   1.186
  432SOL    HW2 2196   0.212   1.516   1.103
  433SOL     OW 2197   3.098   5.761   4.576
  433SOL    HW1 2198   3.103   5.850   4.621
  433SOL    HW2 2199   3.012   5.754   4.525
  434SOL     OW 2200   6.454   3.478   1.641
  434SOL    HW1 2201   6.447   3.566   1.594
  434SOL    HW2 2202   6.374   3.466   1.700
  435SOL     OW 2203   3.574   3.856   0.365
  435SOL    HW1 2204   3.559   3.766   0.325
  435SOL    HW2 2205   3.626   3.847   0.450
  436SOL     OW 2206   2.504   0.844   0.190
  436SOL    HW1 2207   2.497   0.748   0.161
  436SOL    HW2 2208   2.468   0.854   0.282
  437SOL     OW 2209   6.722   6.695   6.142
  437SOL    HW1 2210   6.783   6.749   6.084
  437SOL    HW2 2211   6.634   6.742   6.152
  438SOL     OW 2212   2.205   3.027   1.882
  438SOL    HW1 2213   2.176   3.114   1.922
  438SOL    HW2 2214   2.131   2.989   1.827
  439SOL     OW 2215   6.028   4.882   2.359
  439SOL    HW1 2216   5.976   4.921   2.283
  439SOL    HW2 2217   6.033   4.948   2.434
  440SOL     OW 2218   0.883   2.781   3.728
  440SOL    HW1 2219   0.863   2.835   3.809
  440SOL    HW2 2220   0.825   2.811   3.652
  441SOL     OW 2221   1.183   0.710   3.636
  441SOL    HW1 2222   1.181   0.803   3.671
  441SOL    HW2 2223   1.209   0.647   3.709
  442SOL     OW 2224   0.286   4.581   0.054
  442SOL    HW1 2225   0.227   4.627   0.120
  442SOL    HW2 2226   0.237   4.503   0.014
  443SOL     OW 2227   0.886   4.322   5.939
  443SOL    HW1 2228   0.843   4.236   5.911
  443SOL    HW2 2229   0.872   4.391   5.868
  444SOL     OW 2230   4.748   3.147   6.273
  444SOL    HW1 2231   4.685   3.074   6.247
  444SOL    HW2 2232   4.750   3.217   6.201
  445SOL     OW 2233   1.659   3.961   3.133
  445SOL    HW1 2234   1.674   3.871   3.174
  445SOL    HW2 2235   1.738   3.985   3.076
  446SOL     OW 2236   4.036   5.327   3.945
  446SOL    HW1 2237   3.946   5.283   3.946
  446SOL    HW2 2238   4.107   5.258   3.938
  447SOL     OW 2239   0.155   5.624   0.400
  447SOL    HW1 2240   0.123   5.539   0.358
  447SOL    HW2 2241   0.144   5.618   0.500
  448SOL     OW 2242   4.457   0.760   5.748
  448SOL    HW1 2243   4.535   0.699   5.761
  448SOL    HW2 2244   4.417   0.743   5.658
  449SOL     OW 2245   5.690   0.042   4.444
  449SOL    HW1 2246   5.687   0.045   4.344
  449SOL    HW2 2247   5.769   7.012   4.472
  450SOL     OW 2248   6.903   6.071   3.180
  450SOL    HW1 2249   7.003   6.081   3.183
  450SOL    HW2 2250   6.861   6.162   3.185
  451SOL     OW 2251   6.475   2.224   3.894
  451SOL    HW1 2252   6.547   2.285   3.862
  451SOL    HW2 2253   6.443   2.168   3.818
  452SOL     OW 2254   6.858   4.680   6.408
  452SOL    HW1 2255   6.900   4.758   6.455
  452SOL    HW2 2256   6.860   4.696   6.310
  453SOL     OW 2257   2.578   0.937   5.512
  453SOL    HW1 2258   2.653   0.924   5.577
  453SOL    HW2 2259   2.590   1.024   5.464
  454SOL     OW 2260   1.053   6.025   0.264
  454SOL    HW1 2261   1.118   6.079   0.210
  454SOL    HW2 2262   1.044   5.934   0.225
  455SOL     OW 2263   5.204   1.274   5.642
  455SOL    HW1 2264   5.168   1.203   5.582
  455SOL    HW2 2265   5.300   1.255   5.663
  456SOL     OW 2266   4.612   5.812   6.981
  456SOL    HW1 2267   4.598   5.832   6.884
  456SOL    HW2 2268   4.710   5.815   7.001
  457SOL     OW 2269   1.175   5.401   2.333
  457SOL    HW1 2270   1.089   5.362   2.299
  457SOL    HW2 2271   1.160   5.497   2.358
  458SOL     OW 2272   6.716   6.343   5.967
  458SOL    HW1 2273   6.721   6.364   6.065
  458SOL    HW2 2274   6.664   6.416   5.920
  459SOL     OW 2275   2.087   0.327   3.022
  459SOL    HW1 2276   2.010   0.387   2.998
  459SOL    HW2 2277   2.170   0.382   3.031
  460SOL     OW 2278   7.009   1.358   3.448
  460SOL    HW1 2279   0.037   1.284   3.490
  460SOL    HW2 2280   6.942   1.393   3.513
  461SOL     OW 2281   5.078   6.286   5.788
  461SOL    HW1 2282   5.116   6.375   5.812
  461SOL    HW2 2283   5.039   6.244   5.870
  462SOL     OW 2284   3.068   3.363   6.762
  462SOL    HW1 2285   3.140   3.295   6.777
  462SOL    HW2 2286   3.061   3.382   6.664
  463SOL     OW 2287   6.818   5.759   1.777
  463SOL    HW1 2288   6.739   5.769   1.838
  463SOL    HW2 2289   6.819   5.834   1.711
  464SOL     OW 2290   1.454   1.165   5.711
  464SOL    HW1 2291   1.496   1.144   5.800
  464SOL    HW2 2292   1.434   1.079   5.664
  465SOL     OW 2293   6.802   3.246   5.203
  465SOL    HW1 2294   6.864   3.291   5.268
  465SOL    HW2 2295   6.736   3.190   5.253
  466SOL     OW 2296   2.085   0.282   3.375
  466SOL    HW1 2297   2.184   0.267   3.379
  466SOL    HW2 2298   2.042   0.212   3.319
  467SOL     OW 2299   2.053   0.914   4.706
  467SOL    HW1 2300   2.096   0.998   4.673
  467SOL    HW2 2301   2.123   0.847   4.729
  468SOL     OW 2302   3.228   4.427   1.324
  468SOL    HW1 2303   3.201   4.439   1.420
  468SOL    HW2 2304   3.172   4.355   1.283
  469SOL     OW 2305   2.486   5.154   6.771
  469SOL    HW1 2306   2.502   5.078   6.834
  469SOL    HW2 2307   2.413   5.212   6.808
  470SOL     OW 2308   3.653   1.214   2.718
  470SOL    HW1 2309   3.752   1.222   2.734
  470SOL    HW2 2310   3.637   1.206   2.619
  471SOL     OW 2311   2.521   1.945   4.679
  471SOL    HW1 2312   2.523   1.911   4.773
  471SOL    HW2 2313   2.559   1.876   4.618
  472SOL     OW 2314   3.930   4.053   5.267
  472SOL    HW1 2315   4.016   4.051   5.318
  472SOL    HW2 2316   3.948   4.080   5.173
  473SOL     OW 2317   0.893   4.234   2.704
  473SOL    HW1 2318   0.941   4.217   2.790
  473SOL    HW2 2319   0.937   4.311   2.657
  474SOL     OW 2320   4.162   5.166   4.836
  474SOL    HW1 2321   4.237   5.224   4.803
  474SOL    HW2 2322   4.188   5.070   4.828
  475SOL     OW 2323   0.472   6.550   5.999
  475SOL    HW1 2324   0.540   6.607   5.953
  475SOL    HW2 2325   0.490   6.550   6.098
  476SOL     OW 2326   0.144   4.874   2.286
  476SOL    HW1 2327   0.094   4.956   2.259
  476SOL    HW2 2328   0.091   4.793   2.260
  477SOL     OW 2329   1.525   5.526   4.633
  477SOL    HW1 2330   1.519   5.494   4.727
  477SOL    HW2 2331   1.433   5.528   4.592
  478SOL     OW 2332   1.937   5.431   3.441
  478SOL    HW1 2333   1.926   5.491   3.519
  478SOL    HW2 2334   2.020   5.456   3.391
  479SOL     OW 2335   3.551   1.880   1.055
  479SOL    HW1 2336   3.478   1.903   1.119
  479SOL    HW2 2337   3.630   1.847   1.105
  480SOL     OW 2338   1.610   6.847   2.939
  480SOL    HW1 2339   1.520   6.887   2.954
  480SOL    HW2 2340   1.601   6.765   2.882
  481SOL     OW 2341   3.290   6.796   1.511
  481SOL    HW1 2342   3.309   6.725   1.443
  481SOL    HW2 2343   3.249   6.754   1.593
  482SOL     OW 2344   5.780   4.625   1.697
  482SOL    HW1 2345   5.785   4.548   1.761
  482SOL    HW2 2346   5.685   4.649   1.680
  483SOL     OW 2347   5.839   1.666   1.275
  483SOL    HW1 2348   5.815   1.701   1.184
  483SOL    HW2 2349   5.882   1.576   1.265
  484SOL     OW 2350   6.890   2.002   5.455
  484SOL    HW1 2351   6.887   2.005   5.355
  484SOL    HW2 2352   6.803   2.034   5.492
  485SOL     OW 2353   3.676   5.363   2.041
  485SOL    HW1 2354   3.653   5.273   2.076
  485SOL    HW2 2355   3.691   5.427   2.117
  486SOL     OW 2356   0.244   0.373   0.457
  486SOL    HW1 2357   0.303   0.436   0.407
  486SOL    HW2 2358   0.285   0.351   0.545
  487SOL     OW 2359   6.349   2.681   6.163
  487SOL    HW1 2360   6.329   2.664   6.259
  487SOL    HW2 2361   6.299   2.763   6.132
  488SOL     OW 2362   0.574   2.612   2.744
  488SOL    HW1 2363   0.559   2.684   2.676
  488SOL    HW2 2364   0.615   2.651   2.826
  489SOL     OW 2365   3.486   6.092   6.098
  489SOL    HW1 2366   3.560   6.044   6.145
  489SOL    HW2 2367   3.468   6.179   6.144
  490SOL     OW 2368   5.081   6.436   4.494
  490SOL    HW1 2369   5.141   6.361   4.469
  490SOL    HW2 2370   4.995   6.428   4.444
  491SOL     OW 2371   6.884   2.596   3.022
  491SOL    HW1 2372   6.927   2.651   3.093
  491SOL    HW2 2373   6.954   2.540   2.976
  492SOL     OW 2374   1.779   0.859   5.058
  492SOL    HW1 2375   1.799   0.910   4.974
  492SOL    HW2 2376   1.684   0.874   5.084
  493SOL     OW 2377   6.405   4.132   4.098
  493SOL    HW1 2378   6.348   4.146   4.017
  493SOL    HW2 2379   6.375   4.194   4.170
  494SOL     OW 2380   6.468   1.045   0.292
  494SOL    HW1 2381   6.543   1.014   0.234
  494SOL    HW2 2382   6.440   0.971   0.353
  495SOL     OW 2383   4.314   4.582   1.422
  495SOL    HW1 2384   4.346   4.487   1.426
  495SOL    HW2 2385   4.249   4.599   1.496
  496SOL     OW 2386   5.596   3.365   3.848
  496SOL    HW1 2387   5.680   3.357   3.795
  496SOL    HW2 2388   5.612   3.425   3.927
  497SOL     OW 2389   4.349   0.612   4.091
  497SOL    HW1 2390   4.397   0.604   4.003
  497SOL    HW2 2391   4.288   0.534   4.102
  498SOL     OW 2392   1.633   3.257   2.685
  498SOL    HW1 2393   1.657   3.160   2.689
  498SOL    HW2 2394   1.555   3.269   2.625
  499SOL     OW 2395   3.435   1.837   4.757
  499SOL    HW1 2396   3.474   1.787   4.834
  499SOL    HW2 2397   3.502   1.842   4.683
  500SOL     OW 2398   0.795   3.983   2.681
  500SOL    HW1 2399   0.852   3.947   2.608
  500SOL    HW2 2400   0.806   4.082   2.687
  501SOL     OW 2401   0.410   4.384   5.665
  501SOL    HW1 2402   0.372   4.293   5.647
  501SOL    HW2 2403   0.336   4.451   5.665
  502SOL     OW 2404   3.025   5.606   6.652
  502SOL    HW1 2405   2.940   5.560   6.625
  502SOL    HW2 2406   3.022   5.702   6.623
  503SOL     OW 2407   5.324   5.261   4.918
  503SOL    HW1 2408   5.383   5.214   4.984
  503SOL    HW2 2409   5.252   5.199   4.886
  504SOL     OW 2410   2.321   6.043   4.572
  504SOL    HW1 2411   2.278   5.966   4.618
  504SOL    HW2 2412   2.289   6.047   4.477
  505SOL     OW 2413   4.574   6.859   5.191
  505SOL    HW1 2414   4.659   6.825   5.232
  505SOL    HW2 2415   4.496   6.824   5.243
  506SOL     OW 2416   2.458   3.860   6.705
  506SOL    HW1 2417   2.552   3.892   6.718
  506SOL    HW2 2418   2.396   3.920   6.755
  507SOL     OW 2419   3.150   1.370   4.087
  507SOL    HW1 2420   3.125   1.392   4.182
  507SOL    HW2 2421   3.197   1.449   4.047
  508SOL     OW 2422   6.107   3.957   3.703
  508SOL    HW1 2423   6.071   3.937   3.612
  508SOL    HW2 2424   6.157   3.877   3.738
  509SOL     OW 2425   4.612   2.628   1.907
  509SOL    HW1 2426   4.611   2.685   1.824
  509SOL    HW2 2427   4.520   2.594   1.925
  510SOL     OW 2428   0.350   4.020   4.214
  510SOL    HW1 2429   0.285   4.014   4.290
  510SOL    HW2 2430   0.373   4.116   4.198
  511SOL     OW 2431   0.469   6.340   0.552
  511SOL    HW1 2432   0.564   6.311   0.554
  511SOL    HW2 2433   0.464   6.438   0.529
  512SOL     OW 2434   0.421   4.016   6.573
  512SOL    HW1 2435   0.472   4.095   6.540
  512SOL    HW2 2436   0.374   4.040   6.659
  513SOL     OW 2437   6.865   5.818   4.192
  513SOL    HW1 2438   6.864   5.743   4.258
  513SOL    HW2 2439   6.845   5.904   4.239
  514SOL     OW 2440   5.797   1.742   3.839
  514SOL    HW1 2441   5.735   1.792   3.778
  514SOL    HW2 2442   5.891   1.758   3.809
  515SOL     OW 2443   1.932   6.246   0.148
  515SOL    HW1 2444   1.936   6.345   0.166
  515SOL    HW2 2445   1.837   6.218   0.137
  516SOL     OW 2446   1.882   5.157   2.213
  516SOL    HW1 2447   1.858   5.147   2.309
  516SOL    HW2 2448   1.936   5.079   2.183
  517SOL     OW 2449   4.943   0.899   0.359
  517SOL    HW1 2450   4.923   0.973   0.294
  517SOL    HW2 2451   4.965   0.816   0.308
  518SOL     OW 2452   2.341   2.226   0.559
  518SOL    HW1 2453   2.287   2.145   0.538
  518SOL    HW2 2454   2.438   2.206   0.546
  519SOL     OW 2455   0.613   6.255   0.935
  519SOL    HW1 2456   0.623   6.227   0.839
  519SOL    HW2 2457   0.640   6.350   0.946
  520SOL     OW 2458   5.799   4.588   5.055
  520SOL    HW1 2459   5.784   4.492   5.030
  520SOL    HW2 2460   5.885   4.620   5.016
  521SOL     OW 2461   6.751   1.167   0.873
  521SOL    HW1 2462   6.789   1.185   0.964
  521SOL    HW2 2463   6.710   1.076   0.872
  522SOL     OW 2464   3.797   3.543   4.917
  522SOL    HW1 2465   3.707   3.587   4.921
  522SOL    HW2 2466   3.848   3.565   5.000
  523SOL     OW 2467   6.548   6.621   5.089
  523SOL    HW1 2468   6.548   6.572   5.177
  523SOL    HW2 2469   6.511   6.561   5.018
  524SOL     OW 2470   3.031   0.956   5.413
  524SOL    HW1 2471   3.106   0.955   5.348
  524SOL    HW2 2472   3.054   1.016   5.490
  525SOL     OW 2473   2.313   3.330   6.670
  525SOL    HW1 2474   2.323   3.299   6.576
  525SOL    HW2 2475   2.400   3.320   6.718
  526SOL     OW 2476   3.872   5.868   4.716
  526SOL    HW1 2477   3.962   5.838   4.747
  526SOL    HW2 2478   3.849   5.820   4.631
  527SOL     OW 2479   0.914   2.072   5.984
  527SOL    HW1 2480   0.830   2.126   5.997
  527SOL    HW2 2481   0.902   1.982   6.026
  528SOL     OW 2482   2.529   0.578   5.150
  528SOL    HW1 2483   2.585   0.613   5.225
  528SOL    HW2 2484   2.476   0.653   5.110
  529SOL     OW 2485   6.961   4.757   4.305
  529SOL    HW1 2486   6.935   4.805   4.388
  529SOL    HW2 2487   0.023   4.793   4.270
  530SOL     OW 2488   1.808   2.994   5.818
  530SOL    HW1 2489   1.835   2.981   5.914
  530SOL    HW2 2490   1.888   2.983   5.759
  531SOL     OW 2491   7.009   0.295   0.968
  531SOL    HW1 2492   0.068   0.315   1.021
  531SOL    HW2 2493   0.011   0.270   0.875
  532SOL     OW 2494   1.906   1.020   5.834
  532SOL    HW1 2495   1.839   1.086   5.799
  532SOL    HW2 2496   1.995   1.037   5.793
  533SOL     OW 2497   5.385   6.689   4.066
  533SOL    HW1 2498   5.298   6.731   4.092
  533SOL    HW2 2499   5.420   6.635   4.143
  534SOL     OW 2500   3.861   6.012   1.727
  534SOL    HW1 2501   3.768   6.024   1.692
  534SOL    HW2 2502   3.862   5.942   1.797
  535SOL     OW 2503   6.981   3.406   3.248
  535SOL    HW1 2504   0.048   3.363   3.250
  535SOL    HW2 2505   6.934   3.379   3.164
  536SOL     OW 2506   0.887   5.504   0.655
  536SOL    HW1 2507   0.792   5.493   0.682
  536SOL    HW2 2508   0.941   5.536   0.733
  537SOL     OW 2509   2.538   0.308   2.734
  537SOL    HW1 2510   2.554   0.334   2.639
  537SOL    HW2 2511   2.543   0.208   2.742
  538SOL     OW 2512   1.457   4.626   3.733
  538SOL    HW1 2513   1.400   4.683   3.675
  538SOL    HW2 2514   1.401   4.558   3.779
  539SOL     OW 2515   1.572   4.768   1.619
  539SOL    HW1 2516   1.652   4.827   1.622
  539SOL    HW2 2517   1.565   4.725   1.529
  540SOL     OW 2518   1.281   2.277   1.933
  540SOL    HW1 2519   1.237   2.343   1.994
  540SOL    HW2 2520   1.211   2.223   1.886
  541SOL     OW 2521   3.384   5.273   5.174
  541SOL    HW1 2522   3.454   5.203   5.188
  541SOL    HW2 2523   3.374   5.292   5.076
  542SOL     OW 2524   6.543   5.532   7.021
  542SOL    HW1 2525   6.642   5.522   7.020
  542SOL    HW2 2526   6.511   5.547   6.927
  543SOL     OW 2527   6.875   6.314   0.083
  543SOL    HW1 2528   6.870   6.267   7.019
  543SOL    HW2 2529   6.785   6.312   0.127
  544SOL     OW 2530   1.064   5.396   0.048
  544SOL    HW1 2531   1.026   5.317   0.097
  544SOL    HW2 2532   0.999   5.425   7.001
  545SOL     OW 2533   3.332   2.136   3.678
  545SOL    HW1 2534   3.335   2.080   3.761
  545SOL    HW2 2535   3.314   2.231   3.703
  546SOL     OW 2536   1.197   3.903   0.343
  546SOL    HW1 2537   1.228   3.987   0.297
  546SOL    HW2 2538   1.220   3.907   0.440
  547SOL     OW 2539   2.903   3.082   7.010
  547SOL    HW1 2540   2.910   3.025   0.069
  547SOL    HW2 2541   2.960   3.043   6.938
  548SOL     OW 2542   3.549   3.116   4.425
  548SOL    HW1 2543   3.464   3.128   4.475
  548SOL    HW2 2544   3.561   3.019   4.401
  549SOL     OW 2545   6.737   3.378   1.677
  549SOL    HW1 2546   6.638   3.389   1.668
  549SOL    HW2 2547   6.757   3.296   1.731
  550SOL     OW 2548   6.574   3.990   1.811
  550SOL    HW1 2549   6.505   4.047   1.766
  550SOL    HW2 2550   6.549   3.979   1.907
  551SOL     OW 2551   6.570   1.870   6.741
  551SOL    HW1 2552   6.528   1.959   6.720
  551SOL    HW2 2553   6.669   1.878   6.730
  552SOL     OW 2554   5.070   5.856   0.619
  552SOL    HW1 2555   5.025   5.903   0.544
  552SOL    HW2 2556   5.080   5.759   0.597
  553SOL     OW 2557   1.464   1.743   1.459
  553SOL    HW1 2558   1.511   1.735   1.371
  553SOL    HW2 2559   1.528   1.724   1.533
  554SOL     OW 2560   5.336   5.806   5.222
  554SOL    HW1 2561   5.325   5.903   5.242
  554SOL    HW2 2562   5.276   5.780   5.146
  555SOL     OW 2563   1.872   4.458   4.442
  555SOL    HW1 2564   1.871   4.536   4.504
  555SOL    HW2 2565   1.877   4.373   4.496
  556SOL     OW 2566   5.456   3.486   3.008
  556SOL    HW1 2567   5.501   3.569   3.040
  556SOL    HW2 2568   5.525   3.426   2.965
  557SOL     OW 2569   0.367   5.879   6.109
  557SOL    HW1 2570   0.315   5.961   6.085
  557SOL    HW2 2571   0.420   5.895   6.192
  558SOL     OW 2572   4.162   3.992   5.445
  558SOL    HW1 2573   4.100   3.969   5.520
  558SOL    HW2 2574   4.212   3.910   5.417
  559SOL     OW 2575   6.295   6.201   6.263
  559SOL    HW1 2576   6.376   6.191   6.206
  559SOL    HW2 2577   6.215   6.169   6.213
  560SOL     OW 2578   4.175   6.677   6.863
  560SOL    HW1 2579   4.132   6.692   6.774
  560SOL    HW2 2580   4.116   6.619   6.919
  561SOL     OW 2581   5.416   6.629   0.943
  561SOL    HW1 2582   5.440   6.719   0.978
  561SOL    HW2 2583   5.461   6.559   0.999
  562SOL     OW 2584   6.725   0.994   5.908
  562SOL    HW1 2585   6.738   1.004   6.007
  562SOL    HW2 2586   6.747   1.080   5.863
  563SOL     OW 2587   3.506   6.492   5.066
  563SOL    HW1 2588   3.425   6.542   5.038
  563SOL    HW2 2589   3.512   6.406   5.015
  564SOL     OW 2590   0.293   1.996   6.712
  564SOL    HW1 2591   0.277   2.090   6.742
  564SOL    HW2 2592   0.366   1.995   6.645
  565SOL     OW 2593   4.753   4.312   5.264
  565SOL    HW1 2594   4.707   4.239   5.316
  565SOL    HW2 2595   4.721   4.310   5.170
  566SOL     OW 2596   5.441   5.305   2.860
  566SOL    HW1 2597   5.457   5.401   2.838
  566SOL    HW2 2598   5.356   5.275   2.816
  567SOL     OW 2599   4.014   3.892   4.490
  567SOL    HW1 2600   3.989   3.800   4.457
  567SOL    HW2 2601   4.092   3.925   4.437
  568SOL     OW 2602   1.797   1.686   5.984
  568SOL    HW1 2603   1.838   1.597   6.004
  568SOL    HW2 2604   1.789   1.738   6.069
  569SOL     OW 2605   2.540   3.432   0.029
  569SOL    HW1 2606   2.560   3.530   0.018
  569SOL    HW2 2607   2.626   3.381   0.035
  570SOL     OW 2608   0.385   6.009   1.139
  570SOL    HW1 2609   0.449   5.963   1.077
  570SOL    HW2 2610   0.328   6.073   1.087
  571SOL     OW 2611   4.550   5.481   2.766
  571SOL    HW1 2612   4.576   5.386   2.752
  571SOL    HW2 2613   4.560   5.505   2.863
  572SOL     OW 2614   1.825   4.287   4.909
  572SOL    HW1 2615   1.758   4.349   4.950
  572SOL    HW2 2616   1.844   4.212   4.972
  573SOL     OW 2617   3.814   2.506   6.143
  573SOL    HW1 2618   3.730   2.454   6.128
  573SOL    HW2 2619   3.791   2.596   6.180
  574SOL     OW 2620   2.572   1.567   4.394
  574SOL    HW1 2621   2.578   1.479   4.347
  574SOL    HW2 2622   2.628   1.635   4.346
  575SOL     OW 2623   4.963   2.357   6.768
  575SOL    HW1 2624   5.047   2.363   6.714
  575SOL    HW2 2625   4.985   2.367   6.865
  576SOL     OW 2626   0.611   2.230   2.525
  576SOL    HW1 2627   0.648   2.145   2.489
  576SOL    HW2 2628   0.512   2.226   2.526
  577SOL     OW 2629   3.233   2.172   4.002
  577SOL    HW1 2630   3.153   2.232   4.007
  577SOL    HW2 2631   3.251   2.133   4.092
  578SOL     OW 2632   0.286   3.458   4.382
  578SOL    HW1 2633   0.303   3.480   4.286
  578SOL    HW2 2634   0.373   3.454   4.430
  579SOL     OW 2635   3.687   3.347   0.330
  579SOL    HW1 2636   3.745   3.265   0.326
  579SOL    HW2 2637   3.720   3.407   0.402
  580SOL     OW 2638   0.143   6.169   0.123
  580SOL    HW1 2639   0.222   6.208   0.170
  580SOL    HW2 2640   0.086   6.243   0.086
  581SOL     OW 2641   3.888   3.998   2.517
  581SOL    HW1 2642   3.842   3.997   2.606
  581SOL    HW2 2643   3.954   4.073   2.515
  582SOL     OW 2644   6.234   3.612   2.724
  582SOL    HW1 2645   6.265   3.680   2.657
  582SOL    HW2 2646   6.149   3.643   2.766
  583SOL     OW 2647   2.704   5.140   6.595
  583SOL    HW1 2648   2.606   5.159   6.600
  583SOL    HW2 2649   2.743   5.148   6.687
  584SOL     OW 2650   1.073   5.095   4.795
  584SOL    HW1 2651   1.091   5.022   4.862
  584SOL    HW2 2652   1.041   5.176   4.843
  585SOL     OW 2653   6.741   1.548   5.837
  585SOL    HW1 2654   6.740   1.633   5.784
  585SOL    HW2 2655   6.657   1.541   5.890
  586SOL     OW 2656   2.053   5.996   0.657
  586SOL    HW1 2657   2.114   5.923   0.626
  586SOL    HW2 2658   1.984   5.958   0.719
  587SOL     OW 2659   1.024   3.794   5.974
  587SOL    HW1 2660   1.116   3.754   5.976
  587SOL    HW2 2661   0.992   3.799   5.879
  588SOL     OW 2662   2.508   0.172   1.493
  588SOL    HW1 2663   2.453   0.093   1.518
  588SOL    HW2 2664   2.570   0.196   1.568
  589SOL     OW 2665   4.625   5.264   2.438
  589SOL    HW1 2666   4.593   5.250   2.532
  589SOL    HW2 2667   4.574   5.339   2.396
  590SOL     OW 2668   6.618   2.142   1.502
  590SOL    HW1 2669   6.579   2.179   1.586
  590SOL    HW2 2670   6.631   2.215   1.436
  591SOL     OW 2671   3.454   6.790   3.171
  591SOL    HW1 2672   3.539   6.806   3.121
  591SOL    HW2 2673   3.425   6.695   3.157
  592SOL     OW 2674   5.231   0.940   0.148
  592SOL    HW1 2675   5.233   1.022   0.205
  592SOL    HW2 2676   5.142   0.895   0.156
  593SOL     OW 2677   6.122   1.326   3.721
  593SOL    HW1 2678   6.089   1.235   3.741
  593SOL    HW2 2679   6.055   1.394   3.750
  594SOL     OW 2680   5.103   3.118   1.446
  594SOL    HW1 2681   5.088   3.160   1.536
  594SOL    HW2 2682   5.185   3.156   1.405
  595SOL     OW 2683   3.575   7.012   4.205
  595SOL    HW1 2684   3.613   0.077   4.180
  595SOL    HW2 2685   3.566   6.955   4.124
  596SOL     OW 2686   1.007   4.239   2.410
  596SOL    HW1 2687   0.921   4.210   2.369
  596SOL    HW2 2688   1.048   4.161   2.459
  597SOL     OW 2689   4.056   1.887   5.634
  597SOL    HW1 2690   3.997   1.835   5.695
  597SOL    HW2 2691   4.026   1.983   5.632
  598SOL     OW 2692   3.069   4.184   1.282
  598SOL    HW1 2693   2.994   4.177   1.349
  598SOL    HW2 2694   3.093   4.092   1.250
  599SOL     OW 2695   0.075   6.606   2.982
  599SOL    HW1 2696   0.113   6.519   2.950
  599SOL    HW2 2697   0.150   6.667   3.009
  600SOL     OW 2698   2.630   0.733   0.803
  600SOL    HW1 2699   2.646   0.774   0.893
  600SOL    HW2 2700   2.648   0.802   0.733
  601SOL     OW 2701   3.244   4.985   3.834
  601SOL    HW1 2702   3.242   5.079   3.802
  601SOL    HW2 2703   3.210   4.924   3.762
  602SOL     OW 2704   0.512   0.560   1.431
  602SOL    HW1 2705   0.454   0.612   1.494
  602SOL    HW2 2706   0.601   0.542   1.474
  603SOL     OW 2707   4.104   2.239   3.060
  603SOL    HW1 2708   4.138   2.327   3.025
  603SOL    HW2 2709   4.058   2.189   2.987
  604SOL     OW 2710   0.765   4.078   5.371
  604SOL    HW1 2711   0.680   4.025   5.372
  604SOL    HW2 2712   0.836   4.027   5.321
  605SOL     OW 2713   5.950   6.918   4.456
  605SOL    HW1 2714   5.951   6.940   4.554
  605SOL    HW2 2715   5.893   6.836   4.441
  606SOL     OW 2716   3.525   7.022   2.939
  606SOL    HW1 2717   3.429   7.010   2.966
  606SOL    HW2 2718   3.558   6.937   2.896
  607SOL     OW 2719   4.300   1.046   3.405
  607SOL    HW1 2720   4.322   1.126   3.349
  607SOL    HW2 2721   4.292   1.075   3.501
  608SOL     OW 2722   4.784   1.827   1.750
  608SOL    HW1 2723   4.847   1.775   1.693
  608SOL    HW2 2724   4.748   1.904   1.698
  609SOL     OW 2725   2.941   3.496   3.843
  609SOL    HW1 2726   2.911   3.572   3.901
  609SOL    HW2 2727   2.954   3.415   3.900
  610SOL     OW 2728   5.170   1.462   4.262
  610SOL    HW1 2729   5.182   1.548   4.213
  610SOL    HW2 2730   5.177   1.386   4.198
  611SOL     OW 2731   6.280   0.167   0.768
  611SOL    HW1 2732   6.223   0.110   0.709
  611SOL    HW2 2733   6.229   0.249   0.795
  612SOL     OW 2734   3.101   5.404   5.916
  612SOL    HW1 2735   3.084   5.354   5.831
  612SOL    HW2 2736   3.198   5.427   5.922
  613SOL     OW 2737   3.344   2.130   6.969
  613SOL    HW1 2738   3.300   2.107   0.033
  613SOL    HW2 2739   3.332   2.227   6.951
  614SOL     OW 2740   5.137   3.759   0.820
  614SOL    HW1 2741   5.083   3.840   0.799
  614SOL    HW2 2742   5.077   3.682   0.840
  615SOL     OW 2743   5.879   6.693   1.278
  615SOL    HW1 2744   5.862   6.754   1.200
  615SOL    HW2 2745   5.900   6.748   1.359
  616SOL     OW 2746   5.810   0.668   4.903
  616SOL    HW1 2747   5.784   0.694   4.810
  616SOL    HW2 2748   5.748   0.597   4.935
  617SOL     OW 2749   6.959   5.730   5.612
  617SOL    HW1 2750   0.002   5.779   5.667
  617SOL    HW2 2751   7.004   5.655   5.563
  618SOL     OW 2752   5.803   4.380   0.088
  618SOL    HW1 2753   5.705   4.373   0.070
  618SOL    HW2 2754   5.819   4.432   0.172
  619SOL     OW 2755   2.414   0.037   6.283
  619SOL    HW1 2756   2.414   0.137   6.272
  619SOL    HW2 2757   2.470   7.020   6.211
  620SOL     OW 2758   5.605   1.651   2.407
  620SOL    HW1 2759   5.510   1.639   2.378
  620SOL    HW2 2760   5.615   1.622   2.502
  621SOL     OW 2761   2.773   0.373   6.742
  621SOL    HW1 2762   2.837   0.446   6.766
  621SOL    HW2 2763   2.687   0.387   6.789
  622SOL     OW 2764   0.725   2.628   5.475
  622SOL    HW1 2765   0.667   2.636   5.556
  622SOL    HW2 2766   0.794   2.700   5.477
  623SOL     OW 2767   6.083   0.248   3.427
  623SOL    HW1 2768   6.114   0.270   3.335
  623SOL    HW2 2769   6.004   0.304   3.451
  624SOL     OW 2770   0.013   0.487   6.215
  624SOL    HW1 2771   6.950   0.533   6.234
  624SOL    HW2 2772   0.038   0.502   6.120
  625SOL     OW 2773   3.292   1.387   1.047
  625SOL    HW1 2774   3.307   1.451   0.971
  625SOL    HW2 2775   3.350   1.412   1.124
  626SOL     OW 2776   6.886   6.226   3.783
  626SOL    HW1 2777   6.956   6.185   3.723
  626SOL    HW2 2778   6.850   6.155   3.844
  627SOL     OW 2779   6.379   6.829   0.213
  627SOL    HW1 2780   6.383   6.823   0.114
  627SOL    HW2 2781   6.347   6.920   0.240
  628SOL     OW 2782   4.436   4.587   6.038
  628SOL    HW1 2783   4.485   4.667   6.071
  628SOL    HW2 2784   4.499   4.511   6.027
  629SOL     OW 2785   1.295   7.005   0.041
  629SOL    HW1 2786   1.248   6.917   0.033
  629SOL    HW2 2787   1.393   6.989   0.051
  630SOL     OW 2788   6.349   1.286   1.121
  630SOL    HW1 2789   6.401   1.227   1.058
  630SOL    HW2 2790   6.295   1.351   1.068
  631SOL     OW 2791   1.434   2.474   4.059
  631SOL    HW1 2792   1.409   2.529   3.979
  631SOL    HW2 2793   1.423   2.377   4.036
  632SOL     OW 2794   3.021   4.256   0.459
  632SOL    HW1 2795   2.946   4.293   0.513
  632SOL    HW2 2796   2.988   4.180   0.402
  633SOL     OW 2797   1.404   5.339   0.963
  633SOL    HW1 2798   1.365   5.267   0.906
  633SOL    HW2 2799   1.336   5.370   1.030
  634SOL     OW 2800   2.973   3.192   4.277
  634SOL    HW1 2801   3.041   3.120   4.293
  634SOL    HW2 2802   2.911   3.197   4.355
  635SOL     OW 2803   5.857   0.238   6.517
  635SOL    HW1 2804   5.939   0.187   6.541
  635SOL    HW2 2805   5.878   0.336   6.514
  636SOL     OW 2806   2.699   0.756   5.291
  636SOL    HW1 2807   2.643   0.820   5.343
  636SOL    HW2 2808   2.704   0.786   5.196
  637SOL     OW 2809   0.198   1.258   2.751
  637SOL    HW1 2810   0.206   1.313   2.834
  637SOL    HW2 2811   0.271   1.190   2.749
  638SOL     OW 2812   6.992   3.006   5.144
  638SOL    HW1 2813   6.940   2.978   5.225
  638SOL    HW2 2814   6.976   3.103   5.125
  639SOL     OW 2815   5.806   4.205   1.906
  639SOL    HW1 2816   5.793   4.187   2.004
  639SOL    HW2 2817   5.801   4.304   1.890
  640SOL     OW 2818   0.249   2.714   2.420
  640SOL    HW1 2819   0.267   2.739   2.515
  640SOL    HW2 2820   0.334   2.685   2.376
  641SOL     OW 2821   2.295   5.009   4.116
  641SOL    HW1 2822   2.339   4.994   4.027
  641SOL    HW2 2823   2.362   4.997   4.189
  642SOL     OW 2824   0.802   5.006   4.732
  642SOL    HW1 2825   0.743   5.069   4.681
  642SOL    HW2 2826   0.897   5.030   4.717
  643SOL     OW 2827   3.814   5.104   0.768
  643SOL    HW1 2828   3.823   5.106   0.668
  643SOL    HW2 2829   3.806   5.009   0.799
  644SOL     OW 2830   0.046   6.696   5.203
  644SOL    HW1 2831   0.044   6.785   5.157
  644SOL    HW2 2832   0.140   6.672   5.225
  645SOL     OW 2833   4.279   5.528   2.729
  645SOL    HW1 2834   4.373   5.494   2.729
  645SOL    HW2 2835   4.265   5.590   2.806
  646SOL     OW 2836   4.124   1.980   4.440
  646SOL    HW1 2837   4.208   1.931   4.413
  646SOL    HW2 2838   4.149   2.066   4.484
  647SOL     OW 2839   3.402   2.548   6.177
  647SOL    HW1 2840   3.434   2.555   6.083
  647SOL    HW2 2841   3.409   2.637   6.222
  648SOL     OW 2842   5.923   1.314   3.195
  648SOL    HW1 2843   5.882   1.247   3.134
  648SOL    HW2 2844   5.918   1.281   3.290
  649SOL     OW 2845   2.359   5.300   0.160
  649SOL    HW1 2846   2.444   5.320   0.111
  649SOL    HW2 2847   2.354   5.356   0.243
  650SOL     OW 2848   0.151   3.619   1.071
  650SOL    HW1 2849   0.103   3.550   1.125
  650SOL    HW2 2850   0.165   3.586   0.978
  651SOL     OW 2851   0.949   0.754   3.909
  651SOL    HW1 2852   0.927   0.657   3.903
  651SOL    HW2 2853   1.045   0.765   3.934
  652SOL     OW 2854   4.095   5.744   1.249
  652SOL    HW1 2855   4.168   5.706   1.192
  652SOL    HW2 2856   4.026   5.787   1.191
  653SOL     OW 2857   1.837   6.686   2.305
  653SOL    HW1 2858   1.757   6.648   2.259
  653SOL    HW2 2859   1.843   6.649   2.398
  654SOL     OW 2860   0.823   6.965   5.817
  654SOL    HW1 2861   0.824   0.009   5.891
  654SOL    HW2 2862   0.750   6.899   5.833
  655SOL     OW 2863   0.509   4.062   1.537
  655SOL    HW1 2864   0.547   4.019   1.619
  655SOL    HW2 2865   0.470   3.992   1.478
  656SOL     OW 2866   2.853   6.078   6.968
  656SOL    HW1 2867   2.944   6.112   6.990
  656SOL    HW2 2868   2.860   5.986   6.929
  657SOL     OW 2869   4.154   3.603   3.651
  657SOL    HW1 2870   4.209   3.563   3.724
  657SOL    HW2 2871   4.115   3.689   3.682
  658SOL     OW 2872   0.994   1.519   4.280
  658SOL    HW1 2873   1.086   1.541   4.313
  658SOL    HW2 2874   0.948   1.460   4.346
  659SOL     OW 2875   1.953   5.770   6.524
  659SOL    HW1 2876   1.950   5.758   6.424
  659SOL    HW2 2877   1.931   5.865   6.546
  660SOL     OW 2878   5.024   4.927   2.958
  660SOL    HW1 2879   4.973   4.923   3.044
  660SOL    HW2 2880   5.059   5.019   2.944
  661SOL     OW 2881   4.290   5.226   3.886
  661SOL    HW1 2882   4.315   5.198   3.793
  661SOL    HW2 2883   4.335   5.313   3.908
  662SOL     OW 2884   4.858   3.498   6.817
  662SOL    HW1 2885   4.872   3.403   6.791
  662SOL    HW2 2886   4.873   3.509   6.915
  663SOL     OW 2887   6.644   4.257   0.216
  663SOL    HW1 2888   6.675   4.348   0.244
  663SOL    HW2 2889   6.693   4.229   0.134
  664SOL     OW 2890   1.430   0.162   6.209
  664SOL    HW1 2891   1.524   0.130   6.219
  664SOL    HW2 2892   1.431   0.259   6.186
  665SOL     OW 2893   3.281   4.936   2.681
  665SOL    HW1 2894   3.276   4.945   2.582
  665SOL    HW2 2895   3.192   4.905   2.717
  666SOL     OW 2896   3.150   0.835   6.998
  666SOL    HW1 2897   3.172   0.879   0.061
  666SOL    HW2 2898   3.234   0.794   6.961
  667SOL     OW 2899   1.341   3.643   2.284
  667SOL    HW1 2900   1.421   3.624   2.228
  667SOL    HW2 2901   1.370   3.673   2.375
  668SOL     OW 2902   5.282   6.810   0.277
  668SOL    HW1 2903   5.288   6.817   0.177
  668SOL    HW2 2904   5.373   6.828   0.316
  669SOL     OW 2905   1.195   5.665   2.446
  669SOL    HW1 2906   1.190   5.756   2.489
  669SOL    HW2 2907   1.289   5.648   2.417
  670SOL     OW 2908   3.459   3.414   3.271
  670SOL    HW1 2909   3.386   3.409   3.340
  670SOL    HW2 2910   3.534   3.354   3.298
  671SOL     OW 2911   1.966   0.440   6.694
  671SOL    HW1 2912   2.066   0.437   6.690
  671SOL    HW2 2913   1.929   0.352   6.664
  672SOL     OW 2914   1.435   2.353   3.021
  672SOL    HW1 2915   1.483   2.400   3.095
  672SOL    HW2 2916   1.500   2.332   2.948
  673SOL     OW 2917   4.776   0.211   0.433
  673SOL    HW1 2918   4.739   0.128   0.391
  673SOL    HW2 2919   4.872   0.196   0.457
  674SOL     OW 2920   0.005   1.765   4.492
  674SOL    HW1 2921   0.075   1.752   4.422
  674SOL    HW2 2922   6.998   1.860   4.491
  675SOL     OW 2923   6.119   0.061   3.947
  675SOL    HW1 2924   6.086   0.135   3.889
  675SOL    HW2 2925   6.042   0.017   3.993
  676SOL     OW 2926   2.327   4.725   3.920
  676SOL    HW1 2927   2.372   4.811   3.943
  676SOL    HW2 2928   2.269   4.738   3.840
  677SOL     OW 2929   5.226   0.383   0.848
  677SOL    HW1 2930   5.189   0.473   0.873
  677SOL    HW2 2931   5.168   0.312   0.887
  678SOL     OW 2932   2.476   1.188   5.802
  678SOL    HW1 2933   2.494   1.286   5.800
  678SOL    HW2 2934   2.400   1.169   5.863
  679SOL     OW 2935   6.566   0.745   2.321
  679SOL    HW1 2936   6.488   0.776   2.376
  679SOL    HW2 2937   6.639   0.713   2.381
  680SOL     OW 2938   5.789   4.445   4.689
  680SOL    HW1 2939   5.801   4.530   4.639
  680SOL    HW2 2940   5.722   4.458   4.762
  681SOL     OW 2941   1.368   0.069   2.254
  681SOL    HW1 2942   1.442   0.098   2.314
  681SOL    HW2 2943   1.401   7.023   2.190
  682SOL     OW 2944   0.214   6.847   6.457
  682SOL    HW1 2945   0.131   6.871   6.406
  682SOL    HW2 2946   0.283   6.918   6.442
  683SOL     OW 2947   5.325   1.733   0.156
  683SOL    HW1 2948   5.382   1.690   0.226
  683SOL    HW2 2949   5.232   1.747   0.192
  684SOL     OW 2950   0.455   5.900   6.381
  684SOL    HW1 2951   0.370   5.940   6.413
  684SOL    HW2 2952   0.517   5.886   6.458
  685SOL     OW 2953   6.248   1.068   6.453
  685SOL    HW1 2954   6.284   1.127   6.381
  685SOL    HW2 2955   6.322   1.044   6.517
  686SOL     OW 2956   5.356   4.666   3.245
  686SOL    HW1 2957   5.387   4.743   3.300
  686SOL    HW2 2958   5.326   4.592   3.305
  687SOL     OW 2959   6.266   2.368   5.158
  687SOL    HW1 2960   6.249   2.275   5.193
  687SOL    HW2 2961   6.187   2.426   5.176
  688SOL     OW 2962   0.156   3.217   4.445
  688SOL    HW1 2963   0.205   3.130   4.431
  688SOL    HW2 2964   0.219   3.293   4.426
  689SOL     OW 2965   5.993   4.300   4.793
  689SOL    HW1 2966   5.911   4.355   4.776
  689SOL    HW2 2967   6.065   4.329   4.730
  690SOL     OW 2968   0.494   3.049   3.963
  690SOL    HW1 2969   0.495   2.956   3.926
  690SOL    HW2 2970   0.423   3.057   4.033
  691SOL     OW 2971   6.944   2.818   6.982
  691SOL    HW1 2972   6.893   2.803   6.897
  691SOL    HW2 2973   6.949   2.916   7.001
  692SOL     OW 2974   2.799   0.091   3.168
  692SOL    HW1 2975   2.847   0.011   3.132
  692SOL    HW2 2976   2.824   0.104   3.264
  693SOL     OW 2977   6.860   1.610   2.524
  693SOL    HW1 2978   6.857   1.594   2.425
  693SOL    HW2 2979   6.871   1.522   2.571
  694SOL     OW 2980   1.593   0.230   2.313
  694SOL    HW1 2981   1.585   0.260   2.218
  694SOL    HW2 2982   1.595   0.309   2.374
  695SOL     OW 2983   4.201   5.346   6.624
  695SOL    HW1 2984   4.255   5.427   6.649
  695SOL    HW2 2985   4.104   5.365   6.636
  696SOL     OW 2986   4.827   6.264   2.617
  696SOL    HW1 2987   4.920   6.231   2.635
  696SOL    HW2 2988   4.822   6.362   2.637
  697SOL     OW 2989   1.406   4.086   3.661
  697SOL    HW1 2990   1.315   4.124   3.678
  697SOL    HW2 2991   1.466   4.157   3.624
  698SOL     OW 2992   4.739   5.945   3.958
  698SOL    HW1 2993   4.747   5.873   4.026
  698SOL    HW2 2994   4.811   5.935   3.889
  699SOL     OW 2995   1.227   4.254   6.942
  699SOL    HW1 2996   1.174   4.202   6.875
  699SOL    HW2 2997   1.324   4.248   6.921
  700SOL     OW 2998   2.178   1.317   4.510
  700SOL    HW1 2999   2.201   1.279   4.421
  700SOL    HW2 3000   2.192   1.416   4.509
  701SOL     OW 3001   1.092   4.736   6.210
  701SOL    HW1 3002   1.090   4.828   6.171
  701SOL    HW2 3003   1.103   4.669   6.137
  702SOL     OW 3004   5.096   5.883   4.702
  702SOL    HW1 3005   5.042   5.822   4.645
  702SOL    HW2 3006   5.072   5.869   4.798
  703SOL     OW 3007   4.193   3.985   6.864
  703SOL    HW1 3008   4.275   4.011   6.814
  703SOL    HW2 3009   4.197   3.888   6.886
  704SOL     OW 3010   2.857   0.556   1.505
  704SOL    HW1 3011   2.779   0.574   1.565
  704SOL    HW2 3012   2.901   0.470   1.532
  705SOL     OW 3013   6.534   1.627   3.841
  705SOL    HW1 3014   6.547   1.669   3.931
  705SOL    HW2 3015   6.472   1.549   3.850
  706SOL     OW 3016   4.767   2.265   3.818
  706SOL    HW1 3017   4.792   2.218   3.733
  706SOL    HW2 3018   4.668   2.260   3.831
  707SOL     OW 3019   4.604   1.976   2.129
  707SOL    HW1 3020   4.653   1.964   2.215
  707SOL    HW2 3021   4.530   2.043   2.141
  708SOL     OW 3022   4.108   0.466   2.115
  708SOL    HW1 3023   4.156   0.469   2.203
  708SOL    HW2 3024   4.103   0.371   2.084
  709SOL     OW 3025   0.614   5.092   0.115
  709SOL    HW1 3026   0.604   5.191   0.115
  709SOL    HW2 3027   0.537   5.050   0.068
  710SOL     OW 3028   3.424   3.438   2.355
  710SOL    HW1 3029   3.381   3.486   2.280
  710SOL    HW2 3030   3.496   3.495   2.395
  711SOL     OW 3031   1.732   0.594   4.378
  711SOL    HW1 3032   1.676   0.642   4.445
  711SOL    HW2 3033   1.825   0.581   4.414
  712SOL     OW 3034   1.339   4.029   1.569
  712SOL    HW1 3035   1.306   4.116   1.605
  712SOL    HW2 3036   1.344   3.962   1.644
  713SOL     OW 3037   4.018   3.841   3.736
  713SOL    HW1 3038   3.961   3.920   3.755
  713SOL    HW2 3039   4.048   3.799   3.822
  714SOL     OW 3040   5.007   4.866   5.820
  714SOL    HW1 3041   5.039   4.824   5.735
  714SOL    HW2 3042   5.085   4.878   5.882
  715SOL     OW 3043   4.402   1.113   6.287
  715SOL    HW1 3044   4.427   1.038   6.348
  715SOL    HW2 3045   4.464   1.190   6.302
  716SOL     OW 3046   6.959   5.058   1.892
  716SOL    HW1 3047   6.867   5.077   1.927
  716SOL    HW2 3048   6.972   5.107   1.805
  717SOL     OW 3049   5.622   3.040   7.019
  717SOL    HW1 3050   5.583   3.132   7.014
  717SOL    HW2 3051   5.692   3.038   0.067
  718SOL     OW 3052   2.857   3.549   6.853
  718SOL    HW1 3053   2.842   3.595   6.766
  718SOL    HW2 3054   2.924   3.476   6.842
  719SOL     OW 3055   5.600   5.283   0.385
  719SOL    HW1 3056   5.580   5.373   0.422
  719SOL    HW2 3057   5.535   5.216   0.421
  720SOL     OW 3058   2.302   0.988   6.536
  720SOL    HW1 3059   2.218   1.004   6.588
  720SOL    HW2 3060   2.310   0.890   6.515
  721SOL     OW 3061   1.370   6.475   5.585
  721SOL    HW1 3062   1.361   6.459   5.684
  721SOL    HW2 3063   1.279   6.492   5.546
  722SOL     OW 3064   4.665   6.367   5.769
  722SOL    HW1 3065   4.634   6.444   5.713
  722SOL    HW2 3066   4.588   6.333   5.824
  723SOL     OW 3067   1.911   3.284   1.730
  723SOL    HW1 3068   1.828   3.292   1.676
  723SOL    HW2 3069   1.955   3.196   1.711
  724SOL     OW 3070   6.658   0.632   4.434
  724SOL    HW1 3071   6.632   0.727   4.453
  724SOL    HW2 3072   6.735   0.631   4.370
  725SOL     OW 3073   2.684   4.702   0.987
  725SOL    HW1 3074   2.678   4.776   0.920
  725SOL    HW2 3075   2.612   4.635   0.969
  726SOL     OW 3076   4.425   6.938   6.153
  726SOL    HW1 3077   4.481   6.994   6.214
  726SOL    HW2 3078   4.469   6.931   6.064
  727SOL     OW 3079   2.410   4.496   4.025
  727SOL    HW1 3080   2.391   4.427   3.955
  727SOL    HW2 3081   2.390   4.587   3.989
  728SOL     OW 3082   0.200   2.737   5.470
  728SOL    HW1 3083   0.172   2.641   5.479
  728SOL    HW2 3084   0.293   2.748   5.507
  729SOL     OW 3085   3.002   0.823   0.718
  729SOL    HW1 3086   2.919   0.777   0.751
  729SOL    HW2 3087   3.039   0.881   0.790
  730SOL     OW 3088   5.930   0.828   5.130
  730SOL    HW1 3089   6.000   0.885   5.087
  730SOL    HW2 3090   5.880   0.777   5.059
  731SOL     OW 3091   6.302   2.899   3.867
  731SOL    HW1 3092   6.390   2.892   3.820
  731SOL    HW2 3093   6.317   2.900   3.966
  732SOL     OW 3094   6.747   2.872   2.457
  732SOL    HW1 3095   6.818   2.827   2.512
  732SOL    HW2 3096   6.788   2.950   2.408
  733SOL     OW 3097   4.093   4.770   3.969
  733SOL    HW1 3098   4.186   4.766   4.006
  733SOL    HW2 3099   4.027   4.758   4.043
  734SOL     OW 3100   0.155   4.589   0.369
  734SOL    HW1 3101   0.142   4.535   0.452
  734SOL    HW2 3102   0.227   4.657   0.384
  735SOL     OW 3103   2.247   4.830   6.521
  735SOL    HW1 3104   2.327   4.884   6.494
  735SOL    HW2 3105   2.216   4.859   6.612
  736SOL     OW 3106   5.973   0.962   3.055
  736SOL    HW1 3107   5.959   0.882   3.114
  736SOL    HW2 3108   5.977   0.934   2.960
  737SOL     OW 3109   5.557   4.051   0.328
  737SOL    HW1 3110   5.525   4.012   0.242
  737SOL    HW2 3111   5.580   3.977   0.392
  738SOL     OW 3112   0.973   4.531   2.681
  738SOL    HW1 3113   1.022   4.568   2.760
  738SOL    HW2 3114   0.886   4.579   2.670
  739SOL     OW 3115   4.709   6.201   6.519
  739SOL    HW1 3116   4.779   6.131   6.509
  739SOL    HW2 3117   4.747   6.291   6.497
  740SOL     OW 3118   5.498   0.150   0.990
  740SOL    HW1 3119   5.441   0.198   1.057
  740SOL    HW2 3120   5.474   0.179   0.898
  741SOL     OW 3121   2.648   0.535   3.745
  741SOL    HW1 3122   2.690   0.621   3.775
  741SOL    HW2 3123   2.580   0.506   3.813
  742SOL     OW 3124   1.897   0.128   2.678
  742SOL    HW1 3125   1.849   0.062   2.619
  742SOL    HW2 3126   1.961   0.079   2.737
  743SOL     OW 3127   2.115   3.716   3.878
  743SOL    HW1 3128   2.136   3.626   3.838
  743SOL    HW2 3129   2.100   3.705   3.976
  744SOL     OW 3130   0.254   6.189   0.989
  744SOL    HW1 3131   0.294   6.226   0.906
  744SOL    HW2 3132   0.181   6.251   1.021
  745SOL     OW 3133   1.627   6.054   3.384
  745SOL    HW1 3134   1.667   5.974   3.428
  745SOL    HW2 3135   1.699   6.116   3.355
  746SOL     OW 3136   2.824   0.752   4.559
  746SOL    HW1 3137   2.782   0.842   4.546
  746SOL    HW2 3138   2.917   0.753   4.524
  747SOL     OW 3139   6.080   4.754   2.047
  747SOL    HW1 3140   6.044   4.758   1.954
  747SOL    HW2 3141   6.088   4.847   2.083
  748SOL     OW 3142   4.062   3.165   2.545
  748SOL    HW1 3143   3.974   3.145   2.503
  748SOL    HW2 3144   4.131   3.175   2.473
  749SOL     OW 3145   6.987   1.325   5.362
  749SOL    HW1 3146   6.982   1.227   5.344
  749SOL    HW2 3147   6.965   1.376   5.278
  750SOL     OW 3148   2.720   4.249   1.077
  750SOL    HW1 3149   2.757   4.156   1.083
  750SOL    HW2 3150   2.629   4.245   1.035
  751SOL     OW 3151   4.519   1.449   0.376
  751SOL    HW1 3152   4.506   1.352   0.358
  751SOL    HW2 3153   4.435   1.499   0.354
  752SOL     OW 3154   4.879   1.229   1.356
  752SOL    HW1 3155   4.869   1.327   1.370
  752SOL    HW2 3156   4.812   1.180   1.412
  753SOL     OW 3157   2.447   1.772   2.750
  753SOL    HW1 3158   2.349   1.781   2.771
  753SOL    HW2 3159   2.460   1.694   2.689
  754SOL     OW 3160   4.956   5.319   7.008
  754SOL    HW1 3161   4.969   5.296   6.911
  754SOL    HW2 3162   5.036   5.368   0.018
  755SOL     OW 3163   0.326   6.381   2.879
  755SOL    HW1 3164   0.328   6.281   2.892
  755SOL    HW2 3165   0.405   6.422   2.924
  756SOL     OW 3166   3.780   6.905   3.453
  756SOL    HW1 3167   3.845   6.955   3.510
  756SOL    HW2 3168   3.830   6.857   3.381
  757SOL     OW 3169   6.901   0.776   4.539
  757SOL    HW1 3170   6.933   0.822   4.622
  757SOL    HW2 3171   6.960   0.698   4.519
  758SOL     OW 3172   4.292   2.447   1.930
  758SOL    HW1 3173   4.293   2.499   1.845
  758SOL    HW2 3174   4.381   2.404   1.944
  759SOL     OW 3175   1.652   1.125   0.330
  759SOL    HW1 3176   1.728   1.169   0.283
  759SOL    HW2 3177   1.688   1.065   0.402
  760SOL     OW 3178   4.262   1.675   5.664
  760SOL    HW1 3179   4.168   1.645   5.674
  760SOL    HW2 3180   4.290   1.727   5.745
  761SOL     OW 3181   6.067   2.592   6.664
  761SOL    HW1 3182   6.061   2.499   6.629
  761SOL    HW2 3183   6.077   2.656   6.588
  762SOL     OW 3184   1.955   5.386   3.903
  762SOL    HW1 3185   1.952   5.319   3.977
  762SOL    HW2 3186   1.884   5.456   3.918
  763SOL     OW 3187   5.760   5.015   6.572
  763SOL    HW1 3188   5.682   4.983   6.626
  763SOL    HW2 3189   5.775   4.953   6.495
  764SOL     OW 3190   4.348   1.148   2.660
  764SOL    HW1 3191   4.422   1.118   2.601
  764SOL    HW2 3192   4.261   1.139   2.612
  765SOL     OW 3193   0.129   6.890   3.799
  765SOL    HW1 3194   0.191   6.923   3.870
  765SOL    HW2 3195   0.154   6.931   3.711
  766SOL     OW 3196   0.357   6.234   0.332
  766SOL    HW1 3197   0.410   6.268   0.410
  766SOL    HW2 3198   0.409   6.161   0.287
  767SOL     OW 3199   6.306   0.128   1.584
  767SOL    HW1 3200   6.216   0.154   1.550
  767SOL    HW2 3201   6.347   0.204   1.633
  768SOL     OW 3202   3.415   6.354   3.471
  768SOL    HW1 3203   3.389   6.366   3.567
  768SOL    HW2 3204   3.510   6.323   3.467
  769SOL     OW 3205   3.146   0.722   6.630
  769SOL    HW1 3206   3.226   0.668   6.607
  769SOL    HW2 3207   3.172   0.796   6.693
  770SOL     OW 3208   3.661   4.938   3.774
  770SOL    HW1 3209   3.745   4.950   3.826
  770SOL    HW2 3210   3.586   4.914   3.836
  771SOL     OW 3211   0.430   5.594   3.677
  771SOL    HW1 3212   0.486   5.525   3.631
  771SOL    HW2 3213   0.489   5.649   3.737
  772SOL     OW 3214   6.681   4.421   4.852
  772SOL    HW1 3215   6.732   4.445   4.769
  772SOL    HW2 3216   6.598   4.475   4.857
  773SOL     OW 3217   0.122   3.906   1.628
  773SOL    HW1 3218   0.088   3.999   1.636
  773SOL    HW2 3219   0.061   3.843   1.677
  774SOL     OW 3220   1.576   0.949   1.372
  774SOL    HW1 3221   1.513   1.025   1.359
  774SOL    HW2 3222   1.661   0.967   1.322
  775SOL     OW 3223   1.154   2.246   4.345
  775SOL    HW1 3224   1.091   2.237   4.267
  775SOL    HW2 3225   1.147   2.164   4.402
  776SOL     OW 3226   2.540   0.730   5.920
  776SOL    HW1 3227   2.621   0.777   5.953
  776SOL    HW2 3228   2.520   0.759   5.826
  777SOL     OW 3229   4.544   0.264   0.579
  777SOL    HW1 3230   4.505   0.322   0.651
  777SOL    HW2 3231   4.643   0.277   0.576
  778SOL     OW 3232   4.197   6.348   3.738
  778SOL    HW1 3233   4.237   6.263   3.773
  778SOL    HW2 3234   4.235   6.426   3.786
  779SOL     OW 3235   0.999   1.081   2.063
  779SOL    HW1 3236   0.912   1.031   2.056
  779SOL    HW2 3237   1.054   1.041   2.136
  780SOL     OW 3238   5.245   3.487   5.252
  780SOL    HW1 3239   5.272   3.425   5.178
  780SOL    HW2 3240   5.289   3.576   5.239
  781SOL     OW 3241   0.805   1.885   6.174
  781SOL    HW1 3242   0.757   1.893   6.261
  781SOL    HW2 3243   0.890   1.832   6.187
  782SOL     OW 3244   0.359   4.209   0.705
  782SOL    HW1 3245   0.289   4.146   0.671
  782SOL    HW2 3246   0.449   4.174   0.680
  783SOL     OW 3247   2.451   4.036   0.405
  783SOL    HW1 3248   2.412   4.071   0.491
  783SOL    HW2 3249   2.547   4.011   0.420
  784SOL     OW 3250   5.581   6.842   3.947
  784SOL    HW1 3251   5.499   6.799   3.984
  784SOL    HW2 3252   5.659   6.781   3.960
  785SOL     OW 3253   6.676   2.315   4.322
  785SOL    HW1 3254   6.680   2.258   4.404
  785SOL    HW2 3255   6.657   2.257   4.243
  786SOL     OW 3256   6.292   0.057   0.300
  786SOL    HW1 3257   6.302   0.125   0.373
  786SOL    HW2 3258   6.205   0.070   0.254
  787SOL     OW 3259   3.699   1.375   6.470
  787SOL    HW1 3260   3.604   1.347   6.456
  787SOL    HW2 3261   3.723   1.362   6.567
  788SOL     OW 3262   0.949   4.532   4.215
  788SOL    HW1 3263   0.889   4.460   4.181
  788SOL    HW2 3264   1.039   4.523   4.174
  789SOL     OW 3265   5.933   3.884   0.906
  789SOL    HW1 3266   5.983   3.821   0.965
  789SOL    HW2 3267   5.869   3.833   0.849
  790SOL     OW 3268   3.516   0.890   4.314
  790SOL    HW1 3269   3.505   0.886   4.215
  790SOL    HW2 3270   3.611   0.871   4.339
  791SOL     OW 3271   3.949   1.874   4.257
  791SOL    HW1 3272   3.926   1.955   4.202
  791SOL    HW2 3273   3.997   1.902   4.340
  792SOL     OW 3274   5.718   0.709   2.985
  792SOL    HW1 3275   5.738   0.695   2.888
  792SOL    HW2 3276   5.803   0.729   3.033
  793SOL     OW 3277   6.661   0.019   6.122
  793SOL    HW1 3278   6.715   0.100   6.144
  793SOL    HW2 3279   6.709   6.988   6.054
  794SOL     OW 3280   3.025   5.264   5.045
  794SOL    HW1 3281   3.060   5.247   5.137
  794SOL    HW2 3282   3.074   5.341   5.004
  795SOL     OW 3283   5.013   4.397   6.358
  795SOL    HW1 3284   5.008   4.483   6.308
  795SOL    HW2 3285   5.076   4.407   6.436
  796SOL     OW 3286   1.135   2.197   5.774
  796SOL    HW1 3287   1.068   2.198   5.849
  796SOL    HW2 3288   1.099   2.249   5.696
  797SOL     OW 3289   6.363   2.419   4.862
  797SOL    HW1 3290   6.426   2.495   4.846
  797SOL    HW2 3291   6.325   2.427   4.954
  798SOL     OW 3292   6.240   0.874   5.366
  798SOL    HW1 3293   6.165   0.808   5.378
  798SOL    HW2 3294   6.315   0.831   5.316
  799SOL     OW 3295   6.627   3.359   3.382
  799SOL    HW1 3296   6.628   3.394   3.288
  799SOL    HW2 3297   6.708   3.393   3.431
  800SOL     OW 3298   0.194   1.665   2.045
  800SOL    HW1 3299   0.182   1.760   2.019
  800SOL    HW2 3300   0.107   1.616   2.033
  801SOL     OW 3301   6.922   2.274   4.003
  801SOL    HW1 3302   6.826   2.248   4.015
  801SOL    HW2 3303   6.977   2.236   4.077
  802SOL     OW 3304   6.006   1.025   0.987
  802SOL    HW1 3305   5.972   1.088   1.057
  802SOL    HW2 3306   6.101   1.000   1.007
  803SOL     OW 3307   1.181   6.750   4.792
  803SOL    HW1 3308   1.134   6.788   4.871
  803SOL    HW2 3309   1.140   6.786   4.708
  804SOL     OW 3310   6.376   0.273   0.460
  804SOL    HW1 3311   6.399   0.360   0.416
  804SOL    HW2 3312   6.404   0.276   0.556
  805SOL     OW 3313   1.401   3.353   6.223
  805SOL    HW1 3314   1.400   3.309   6.133
  805SOL    HW2 3315   1.371   3.288   6.293
  806SOL     OW 3316   5.271   1.031   0.764
  806SOL    HW1 3317   5.286   1.122   0.727
  806SOL    HW2 3318   5.327   1.019   0.846
  807SOL     OW 3319   1.411   0.278   3.038
  807SOL    HW1 3320   1.496   0.274   3.090
  807SOL    HW2 3321   1.398   0.370   3.001
  808SOL     OW 3322   5.949   3.150   4.883
  808SOL    HW1 3323   5.925   3.241   4.919
  808SOL    HW2 3324   5.983   3.159   4.790
  809SOL     OW 3325   0.663   4.654   6.413
  809SOL    HW1 3326   0.754   4.696   6.405
  809SOL    HW2 3327   0.629   4.665   6.507
  810SOL     OW 3328   6.360   4.719   6.351
  810SOL    HW1 3329   6.266   4.747   6.335
  810SOL    HW2 3330   6.370   4.683   6.444
  811SOL     OW 3331   4.915   5.242   3.738
  811SOL    HW1 3332   4.860   5.299   3.799
  811SOL    HW2 3333   4.928   5.290   3.651
  812SOL     OW 3334   1.047   0.524   2.384
  812SOL    HW1 3335   1.057   0.430   2.417
  812SOL    HW2 3336   1.007   0.523   2.292
  813SOL     OW 3337   6.003   5.686   2.002
  813SOL    HW1 3338   5.968   5.625   2.073
  813SOL    HW2 3339   6.076   5.742   2.040
  814SOL     OW 3340   5.531   5.629   1.561
  814SOL    HW1 3341   5.450   5.674   1.599
  814SOL    HW2 3342   5.613   5.667   1.603
  815SOL     OW 3343   0.387   2.349   0.563
  815SOL    HW1 3344   0.411   2.385   0.653
  815SOL    HW2 3345   0.454   2.278   0.537
  816SOL     OW 3346   6.378   0.720   1.210
  816SOL    HW1 3347   6.415   0.661   1.139
  816SOL    HW2 3348   6.304   0.674   1.257
  817SOL     OW 3349   1.419   2.150   2.386
  817SOL    HW1 3350   1.387   2.076   2.446
  817SOL    HW2 3351   1.340   2.199   2.349
  818SOL     OW 3352   6.949   1.647   1.574
  818SOL    HW1 3353   7.010   1.578   1.536
  818SOL    HW2 3354   6.858   1.608   1.588
  819SOL     OW 3355   0.258   4.408   3.335
  819SOL    HW1 3356   0.323   4.379   3.405
  819SOL    HW2 3357   0.166   4.410   3.374
  820SOL     OW 3358   1.290   3.558   5.082
  820SOL    HW1 3359   1.346   3.487   5.038
  820SOL    HW2 3360   1.274   3.534   5.177
  821SOL     OW 3361   1.336   3.640   0.377
  821SOL    HW1 3362   1.321   3.727   0.331
  821SOL    HW2 3363   1.344   3.655   0.476
  822SOL     OW 3364   1.771   3.615   4.556
  822SOL    HW1 3365   1.795   3.524   4.588
  822SOL    HW2 3366   1.737   3.609   4.462
  823SOL     OW 3367   3.013   3.049   0.918
  823SOL    HW1 3368   3.059   2.982   0.975
  823SOL    HW2 3369   2.956   3.001   0.850
  824SOL     OW 3370   5.900   2.228   5.734
  824SOL    HW1 3371   5.820   2.271   5.776
  824SOL    HW2 3372   5.913   2.136   5.772
  825SOL     OW 3373   1.219   4.185   1.770
  825SOL    HW1 3374   1.259   4.220   1.854
  825SOL    HW2 3375   1.134   4.136   1.791
  826SOL     OW 3376   0.472   4.106   5.904
  826SOL    HW1 3377   0.410   4.178   5.935
  826SOL    HW2 3378   0.458   4.024   5.959
  827SOL     OW 3379   4.121   5.992   0.307
  827SOL    HW1 3380   4.182   5.943   0.370
  827SOL    HW2 3381   4.172   6.067   0.264
  828SOL     OW 3382   5.928   0.005   6.330
  828SOL    HW1 3383   5.860   0.028   6.400
  828SOL    HW2 3384   5.882   7.008   6.244
  829SOL     OW 3385   4.007   3.118   4.725
  829SOL    HW1 3386   4.005   3.161   4.815
  829SOL    HW2 3387   4.098   3.079   4.708
  830SOL     OW 3388   4.921   3.822   5.622
  830SOL    HW1 3389   4.832   3.855   5.653
  830SOL    HW2 3390   4.970   3.895   5.575
  831SOL     OW 3391   6.400   6.889   5.180
  831SOL    HW1 3392   6.470   6.847   5.122
  831SOL    HW2 3393   6.382   6.982   5.150
  832SOL     OW 3394   1.953   1.533   5.682
  832SOL    HW1 3395   1.988   1.440   5.673
  832SOL    HW2 3396   1.919   1.547   5.775
  833SOL     OW 3397   1.079   0.103   5.769
  833SOL    HW1 3398   1.090   0.077   5.865
  833SOL    HW2 3399   1.043   0.025   5.717
  834SOL     OW 3400   3.606   4.402   5.636
  834SOL    HW1 3401   3.558   4.469   5.693
  834SOL    HW2 3402   3.612   4.315   5.685
  835SOL     OW 3403   4.189   0.937   3.118
  835SOL    HW1 3404   4.279   0.899   3.100
  835SOL    HW2 3405   4.195   1.001   3.195
  836SOL     OW 3406   2.222   0.605   0.261
  836SOL    HW1 3407   2.243   0.682   0.322
  836SOL    HW2 3408   2.254   0.520   0.303
  837SOL     OW 3409   3.957   0.333   5.378
  837SOL    HW1 3410   3.874   0.279   5.373
  837SOL    HW2 3411   3.938   0.427   5.349
  838SOL     OW 3412   1.853   4.360   2.451
  838SOL    HW1 3413   1.937   4.400   2.487
  838SOL    HW2 3414   1.776   4.384   2.511
  839SOL     OW 3415   3.339   0.894   1.765
  839SOL    HW1 3416   3.363   0.824   1.698
  839SOL    HW2 3417   3.263   0.949   1.731
  840SOL     OW 3418   0.705   1.847   6.463
  840SOL    HW1 3419   0.656   1.772   6.507
  840SOL    HW2 3420   0.784   1.872   6.519
  841SOL     OW 3421   0.076   3.614   0.757
  841SOL    HW1 3422   0.024   3.534   0.788
  841SOL    HW2 3423   0.062   3.628   0.659
  842SOL     OW 3424   3.498   5.178   3.709
  842SOL    HW1 3425   3.531   5.086   3.730
  842SOL    HW2 3426   3.541   5.211   3.625
  843SOL     OW 3427   6.772   3.582   2.586
  843SOL    HW1 3428   6.843   3.560   2.653
  843SOL    HW2 3429   6.685   3.595   2.634
  844SOL     OW 3430   5.308   5.995   0.687
  844SOL    HW1 3431   5.389   5.941   0.663
  844SOL    HW2 3432   5.227   5.936   0.684
  845SOL     OW 3433   1.555   5.293   4.856
  845SOL    HW1 3434   1.575   5.197   4.836
  845SOL    HW2 3435   1.631   5.333   4.907
  846SOL     OW 3436   5.433   2.838   0.176
  846SOL    HW1 3437   5.334   2.820   0.182
  846SOL    HW2 3438   5.455   2.871   0.084
  847SOL     OW 3439   5.292   3.670   2.346
  847SOL    HW1 3440   5.339   3.673   2.258
  847SOL    HW2 3441   5.321   3.747   2.402
  848SOL     OW 3442   6.563   6.999   5.545
  848SOL    HW1 3443   6.488   0.002   5.485
  848SOL    HW2 3444   6.582   0.049   5.610
  849SOL     OW 3445   1.074   5.600   4.280
  849SOL    HW1 3446   1.107   5.524   4.335
  849SOL    HW2 3447   1.038   5.566   4.193
  850SOL     OW 3448   3.693   0.733   3.075
  850SOL    HW1 3449   3.723   0.713   2.982
  850SOL    HW2 3450   3.770   0.770   3.127
  851SOL     OW 3451   0.761   0.303   5.120
  851SOL    HW1 3452   0.693   0.341   5.057
  851SOL    HW2 3453   0.768   0.361   5.201
  852SOL     OW 3454   2.902   4.172   5.983
  852SOL    HW1 3455   2.806   4.148   5.999
  852SOL    HW2 3456   2.909   4.229   5.901
  853SOL     OW 3457   1.333   3.658   0.926
  853SOL    HW1 3458   1.377   3.715   0.995
  853SOL    HW2 3459   1.331   3.563   0.957
  854SOL     OW 3460   6.066   5.336   1.843
  854SOL    HW1 3461   5.978   5.381   1.830
  854SOL    HW2 3462   6.137   5.405   1.853
  855SOL     OW 3463   5.453   0.388   1.171
  855SOL    HW1 3464   5.477   0.485   1.162
  855SOL    HW2 3465   5.366   0.379   1.220
  856SOL     OW 3466   1.815   0.471   4.689
  856SOL    HW1 3467   1.730   0.497   4.735
  856SOL    HW2 3468   1.794   0.414   4.610
  857SOL     OW 3469   6.425   3.742   1.885
  857SOL    HW1 3470   6.452   3.648   1.902
  857SOL    HW2 3471   6.507   3.799   1.873
  858SOL     OW 3472   3.150   3.878   1.359
  858SOL    HW1 3473   3.225   3.934   1.394
  858SOL    HW2 3474   3.188   3.796   1.314
  859SOL     OW 3475   0.241   5.011   0.706
  859SOL    HW1 3476   0.329   4.975   0.676
  859SOL    HW2 3477   0.246   5.033   0.803
  860SOL     OW 3478   1.997   4.940   0.960
  860SOL    HW1 3479   2.025   5.017   0.904
  860SOL    HW2 3480   1.897   4.933   0.962
  861SOL     OW 3481   3.916   4.809   6.286
  861SOL    HW1 3482   3.975   4.846   6.358
  861SOL    HW2 3483   3.841   4.757   6.327
  862SOL     OW 3484   4.753   4.335   4.149
  862SOL    HW1 3485   4.823   4.406   4.147
  862SOL    HW2 3486   4.663   4.376   4.140
  863SOL     OW 3487   5.633   1.244   0.555
  863SOL    HW1 3488   5.730   1.220   0.549
  863SOL    HW2 3489   5.581   1.164   0.586
  864SOL     OW 3490   6.270   4.365   2.667
  864SOL    HW1 3491   6.220   4.431   2.722
  864SOL    HW2 3492   6.355   4.341   2.714
  865SOL     OW 3493   1.810   0.495   3.784
  865SOL    HW1 3494   1.876   0.552   3.834
  865SOL    HW2 3495   1.853   0.409   3.758
  866SOL     OW 3496   3.856   1.316   1.158
  866SOL    HW1 3497   3.810   1.232   1.186
  866SOL    HW2 3498   3.917   1.295   1.081
  867SOL     OW 3499   1.788   1.835   6.203
  867SOL    HW1 3500   1.878   1.878   6.192
  867SOL    HW2 3501   1.718   1.906   6.211
  868SOL     OW 3502   5.960   2.810   3.406
  868SOL    HW1 3503   5.878   2.804   3.463
  868SOL    HW2 3504   5.962   2.733   3.342
  869SOL     OW 3505   6.785   4.178   2.194
  869SOL    HW1 3506   6.863   4.121   2.221
  869SOL    HW2 3507   6.811   4.234   2.115
  870SOL     OW 3508   0.047   3.020   0.611
  870SOL    HW1 3509   6.972   3.006   0.612
  870SOL    HW2 3510   0.092   2.941   0.569
  871SOL     OW 3511   5.552   4.148   0.638
  871SOL    HW1 3512   5.481   4.217   0.653
  871SOL    HW2 3513   5.623   4.187   0.579
  872SOL     OW 3514   5.769   2.264   2.445
  872SOL    HW1 3515   5.733   2.357   2.453
  872SOL    HW2 3516   5.758   2.217   2.533
  873SOL     OW 3517   4.800   6.762   5.282
  873SOL    HW1 3518   4.854   6.845   5.274
  873SOL    HW2 3519   4.861   6.685   5.302
  874SOL     OW 3520   0.474   3.734   6.538
  874SOL    HW1 3521   0.406   3.715   6.467
  874SOL    HW2 3522   0.462   3.826   6.573
  875SOL     OW 3523   6.055   4.607   6.376
  875SOL    HW1 3524   6.076   4.699   6.341
  875SOL    HW2 3525   5.968   4.609   6.425
  876SOL     OW 3526   0.877   2.215   1.426
  876SOL    HW1 3527   0.952   2.163   1.468
  876SOL    HW2 3528   0.833   2.159   1.356
  877SOL     OW 3529   6.102   5.950   0.487
  877SOL    HW1 3530   6.118   5.916   0.580
  877SOL    HW2 3531   6.040   6.028   0.491
  878SOL     OW 3532   3.225   2.516   0.266
  878SOL    HW1 3533   3.298   2.464   0.310
  878SOL    HW2 3534   3.223   2.494   0.168
  879SOL     OW 3535   3.884   2.086   2.445
  879SOL    HW1 3536   3.866   1.989   2.429
  879SOL    HW2 3537   3.964   2.114   2.394
  880SOL     OW 3538   4.297   5.385   1.346
  880SOL    HW1 3539   4.336   5.332   1.271
  880SOL    HW2 3540   4.317   5.482   1.332
  881SOL     OW 3541   4.131   5.499   4.159
  881SOL    HW1 3542   4.100   5.459   4.073
  881SOL    HW2 3543   4.069   5.470   4.233
  882SOL     OW 3544   0.977   1.973   4.035
  882SOL    HW1 3545   0.909   1.901   4.047
  882SOL    HW2 3546   1.065   1.942   4.073
  883SOL     OW 3547   3.464   4.481   0.332
  883SOL    HW1 3548   3.520   4.471   0.250
  883SOL    HW2 3549   3.383   4.424   0.325
  884SOL     OW 3550   4.208   3.799   1.614
  884SOL    HW1 3551   4.242   3.744   1.537
  884SOL    HW2 3552   4.162   3.740   1.680
  885SOL     OW 3553   4.498   6.348   6.659
  885SOL    HW1 3554   4.465   6.404   6.583
  885SOL    HW2 3555   4.578   6.297   6.631
  886SOL     OW 3556   3.960   1.706   6.512
  886SOL    HW1 3557   3.990   1.628   6.567
  886SOL    HW2 3558   3.909   1.674   6.433
  887SOL     OW 3559   5.539   0.077   6.243
  887SOL    HW1 3560   5.626   0.105   6.200
  887SOL    HW2 3561   5.556   0.051   6.338
  888SOL     OW 3562   0.005   6.111   3.548
  888SOL    HW1 3563   0.006   6.176   3.472
  888SOL    HW2 3564   6.989   6.025   3.518
  889SOL     OW 3565   1.075   6.894   4.595
  889SOL    HW1 3566   1.112   6.927   4.507
  889SOL    HW2 3567   0.975   6.895   4.591
  890SOL     OW 3568   1.925   4.738   2.652
  890SOL    HW1 3569   1.878   4.784   2.728
  890SOL    HW2 3570   1.865   4.735   2.572
  891SOL     OW 3571   5.984   3.618   6.121
  891SOL    HW1 3572   5.912   3.636   6.055
  891SOL    HW2 3573   5.985   3.521   6.145
  892SOL     OW 3574   2.435   5.479   1.699
  892SOL    HW1 3575   2.510   5.496   1.635
  892SOL    HW2 3576   2.382   5.563   1.713
  893SOL     OW 3577   1.753   6.614   0.982
  893SOL    HW1 3578   1.833   6.553   0.977
  893SOL    HW2 3579   1.749   6.670   0.899
  894SOL     OW 3580   1.003   5.174   3.602
  894SOL    HW1 3581   1.096   5.198   3.576
  894SOL    HW2 3582   0.939   5.208   3.533
  895SOL     OW 3583   2.114   0.498   4.594
  895SOL    HW1 3584   2.174   0.503   4.515
  895SOL    HW2 3585   2.037   0.561   4.581
  896SOL     OW 3586   5.634   6.660   3.434
  896SOL    HW1 3587   5.587   6.686   3.518
  896SOL    HW2 3588   5.732   6.656   3.451
  897SOL     OW 3589   4.963   1.520   6.296
  897SOL    HW1 3590   4.871   1.495   6.266
  897SOL    HW2 3591   5.000   1.589   6.234
  898SOL     OW 3592   5.798   5.635   3.711
  898SOL    HW1 3593   5.700   5.638   3.696
  898SOL    HW2 3594   5.818   5.643   3.809
  899SOL     OW 3595   1.283   4.219   0.215
  899SOL    HW1 3596   1.233   4.274   0.148
  899SOL    HW2 3597   1.361   4.271   0.249
  900SOL     OW 3598   0.545   5.775   3.863
  900SOL    HW1 3599   0.488   5.855   3.843
  900SOL    HW2 3600   0.638   5.805   3.885
  901SOL     OW 3601   6.167   2.107   3.254
  901SOL    HW1 3602   6.083   2.160   3.252
  901SOL    HW2 3603   6.159   2.029   3.191
  902SOL     OW 3604   0.773   6.019   0.256
  902SOL    HW1 3605   0.798   6.024   0.159
  902SOL    HW2 3606   0.849   5.980   0.308
  903SOL     OW 3607   0.473   5.169   6.685
  903SOL    HW1 3608   0.374   5.158   6.684
  903SOL    HW2 3609   0.510   5.128   6.768
  904SOL     OW 3610   1.774   0.930   3.610
  904SOL    HW1 3611   1.845   0.954   3.676
  904SOL    HW2 3612   1.684   0.943   3.651
  905SOL     OW 3613   6.454   1.902   5.699
  905SOL    HW1 3614   6.421   1.811   5.724
  905SOL    HW2 3615   6.522   1.894   5.626
  906SOL     OW 3616   6.512   3.597   5.366
  906SOL    HW1 3617   6.514   3.520   5.429
  906SOL    HW2 3618   6.550   3.678   5.412
  907SOL     OW 3619   0.120   3.286   1.779
  907SOL    HW1 3620   0.095   3.326   1.867
  907SOL    HW2 3621   0.217   3.299   1.763
  908SOL     OW 3622   2.272   0.822   3.037
  908SOL    HW1 3623   2.238   0.824   3.131
  908SOL    HW2 3624   2.352   0.882   3.030
  909SOL     OW 3625   4.427   0.223   1.289
  909SOL    HW1 3626   4.366   0.166   1.233
  909SOL    HW2 3627   4.517   0.227   1.246
  910SOL     OW 3628   1.810   1.692   1.672
  910SOL    HW1 3629   1.770   1.770   1.720
  910SOL    HW2 3630   1.898   1.720   1.631
  911SOL     OW 3631   0.463   3.934   0.964
  911SOL    HW1 3632   0.422   3.909   0.876
  911SOL    HW2 3633   0.416   4.013   1.002
  912SOL     OW 3634   0.623   0.321   5.983
  912SOL    HW1 3635   0.653   0.411   5.952
  912SOL    HW2 3636   0.540   0.331   6.037
  913SOL     OW 3637   1.963   1.297   1.930
  913SOL    HW1 3638   1.913   1.384   1.929
  913SOL    HW2 3639   1.901   1.223   1.904
  914SOL     OW 3640   2.513   5.863   2.865
  914SOL    HW1 3641   2.440   5.816   2.816
  914SOL    HW2 3642   2.601   5.827   2.835
  915SOL     OW 3643   1.218   2.926   0.256
  915SOL    HW1 3644   1.198   2.828   0.245
  915SOL    HW2 3645   1.137   2.979   0.231
  916SOL     OW 3646   1.506   3.119   2.354
  916SOL    HW1 3647   1.583   3.086   2.409
  916SOL    HW2 3648   1.468   3.043   2.301
  917SOL     OW 3649   3.483   1.901   6.807
  917SOL    HW1 3650   3.545   1.827   6.830
  917SOL    HW2 3651   3.423   1.920   6.885
  918SOL     OW 3652   0.746   0.755   5.665
  918SOL    HW1 3653   0.721   0.829   5.726
  918SOL    HW2 3654   0.730   0.783   5.570
  919SOL     OW 3655   1.580   0.055   0.925
  919SOL    HW1 3656   1.555   0.003   1.007
  919SOL    HW2 3657   1.603   0.149   0.951
  920SOL     OW 3658   2.071   1.044   3.448
  920SOL    HW1 3659   2.129   1.123   3.429
  920SOL    HW2 3660   2.028   1.055   3.537
  921SOL     OW 3661   4.338   4.407   0.266
  921SOL    HW1 3662   4.296   4.457   0.189
  921SOL    HW2 3663   4.365   4.316   0.235
  922SOL     OW 3664   2.037   4.740   6.211
  922SOL    HW1 3665   1.948   4.710   6.177
  922SOL    HW2 3666   2.057   4.695   6.298
  923SOL     OW 3667   3.521   1.649   6.554
  923SOL    HW1 3668   3.451   1.670   6.623
  923SOL    HW2 3669   3.484   1.581   6.490
  924SOL     OW 3670   6.642   4.756   2.878
  924SOL    HW1 3671   6.630   4.678   2.939
  924SOL    HW2 3672   6.673   4.723   2.789
  925SOL     OW 3673   6.774   1.894   2.984
  925SOL    HW1 3674   6.702   1.943   2.936
  925SOL    HW2 3675   6.824   1.836   2.919
  926SOL     OW 3676   5.540   6.408   0.366
  926SOL    HW1 3677   5.482   6.352   0.425
  926SOL    HW2 3678   5.630   6.365   0.358
  927SOL     OW 3679   4.979   4.882   4.955
  927SOL    HW1 3680   4.894   4.934   4.965
  927SOL    HW2 3681   5.049   4.941   4.916
  928SOL     OW 3682   0.697   1.206   1.262
  928SOL    HW1 3683   0.744   1.237   1.179
  928SOL    HW2 3684   0.729   1.114   1.286
  929SOL     OW 3685   0.453   2.545   2.208
  929SOL    HW1 3686   0.463   2.446   2.220
  929SOL    HW2 3687   0.361   2.565   2.176
  930SOL     OW 3688   5.336   5.405   2.404
  930SOL    HW1 3689   5.271   5.335   2.432
  930SOL    HW2 3690   5.410   5.411   2.471
  931SOL     OW 3691   1.782   3.104   2.052
  931SOL    HW1 3692   1.777   3.148   2.142
  931SOL    HW2 3693   1.878   3.083   2.031
  932SOL     OW 3694   4.720   6.374   1.143
  932SOL    HW1 3695   4.624   6.402   1.142
  932SOL    HW2 3696   4.777   6.452   1.166
  933SOL     OW 3697   1.637   5.842   4.301
  933SOL    HW1 3698   1.557   5.814   4.248
  933SOL    HW2 3699   1.620   5.824   4.398
  934SOL     OW 3700   2.986   0.725   5.795
  934SOL    HW1 3701   2.920   0.653   5.813
  934SOL    HW2 3702   3.072   0.684   5.765
  935SOL     OW 3703   1.768   3.585   5.793
  935SOL    HW1 3704   1.715   3.505   5.822
  935SOL    HW2 3705   1.865   3.563   5.797
  936SOL     OW 3706   0.539   2.061   1.888
  936SOL    HW1 3707   0.596   1.983   1.912
  936SOL    HW2 3708   0.452   2.055   1.937
  937SOL     OW 3709   5.037   2.376   3.572
  937SOL    HW1 3710   5.088   2.430   3.505
  937SOL    HW2 3711   4.960   2.332   3.526
  938SOL     OW 3712   6.450   1.466   0.043
  938SOL    HW1 3713   6.448   1.563   0.018
  938SOL    HW2 3714   6.451   1.457   0.143
  939SOL     OW 3715   6.448   0.806   5.207
  939SOL    HW1 3716   6.506   0.888   5.213
  939SOL    HW2 3717   6.504   0.724   5.221
  940SOL     OW 3718   0.666   0.640   4.180
  940SOL    HW1 3719   0.613   0.600   4.255
  940SOL    HW2 3720   0.607   0.652   4.101
  941SOL     OW 3721   5.767   2.584   5.521
  941SOL    HW1 3722   5.818   2.617   5.600
  941SOL    HW2 3723   5.814   2.505   5.481
  942SOL     OW 3724   4.556   0.668   5.289
  942SOL    HW1 3725   4.599   0.580   5.306
  942SOL    HW2 3726   4.623   0.731   5.249
  943SOL     OW 3727   5.663   1.889   6.893
  943SOL    HW1 3728   5.676   1.831   6.812
  943SOL    HW2 3729   5.668   1.832   6.976
  944SOL     OW 3730   5.358   3.721   4.864
  944SOL    HW1 3731   5.291   3.743   4.794
  944SOL    HW2 3732   5.446   3.700   4.821
  945SOL     OW 3733   5.561   3.292   5.456
  945SOL    HW1 3734   5.472   3.311   5.496
  945SOL    HW2 3735   5.560   3.316   5.359
  946SOL     OW 3736   5.618   3.476   6.265
  946SOL    HW1 3737   5.708   3.515   6.244
  946SOL    HW2 3738   5.628   3.406   6.335
  947SOL     OW 3739   1.267   2.457   5.336
  947SOL    HW1 3740   1.207   2.478   5.258
  947SOL    HW2 3741   1.360   2.484   5.314
  948SOL     OW 3742   3.908   1.841   0.714
  948SOL    HW1 3743   3.815   1.868   0.740
  948SOL    HW2 3744   3.931   1.755   0.760
  949SOL     OW 3745   5.827   5.908   6.469
  949SOL    HW1 3746   5.846   5.812   6.491
  949SOL    HW2 3747   5.906   5.947   6.422
  950SOL     OW 3748   3.694   5.300   0.907
  950SOL    HW1 3749   3.736   5.219   0.867
  950SOL    HW2 3750   3.751   5.334   0.982
  951SOL     OW 3751   0.203   2.468   3.990
  951SOL    HW1 3752   0.225   2.542   4.054
  951SOL    HW2 3753   0.104   2.469   3.971
  952SOL     OW 3754   5.178   1.266   1.569
  952SOL    HW1 3755   5.087   1.282   1.607
  952SOL    HW2 3756   5.211   1.350   1.526
  953SOL     OW 3757   3.490   6.510   6.014
  953SOL    HW1 3758   3.586   6.531   6.031
  953SOL    HW2 3759   3.434   6.588   6.043
  954SOL     OW 3760   0.072   6.833   1.587
  954SOL    HW1 3761   0.005   6.827   1.512
  954SOL    HW2 3762   0.157   6.788   1.558
  955SOL     OW 3763   0.102   0.065   2.525
  955SOL    HW1 3764   0.147   0.105   2.446
  955SOL    HW2 3765   0.118   6.990   2.526
  956SOL     OW 3766   1.161   2.667   0.297
  956SOL    HW1 3767   1.206   2.628   0.216
  956SOL    HW2 3768   1.069   2.627   0.306
  957SOL     OW 3769   2.160   6.478   5.220
  957SOL    HW1 3770   2.135   6.472   5.124
  957SOL    HW2 3771   2.198   6.390   5.250
  958SOL     OW 3772   4.791   2.331   0.357
  958SOL    HW1 3773   4.755   2.250   0.309
  958SOL    HW2 3774   4.838   2.302   0.440
  959SOL     OW 3775   1.829   3.770   1.684
  959SOL    HW1 3776   1.903   3.703   1.693
  959SOL    HW2 3777   1.743   3.722   1.663
  960SOL     OW 3778   1.550   5.724   5.782
  960SOL    HW1 3779   1.523   5.660   5.854
  960SOL    HW2 3780   1.500   5.703   5.698
  961SOL     OW 3781   3.804   6.799   0.608
  961SOL    HW1 3782   3.784   6.797   0.707
  961SOL    HW2 3783   3.718   6.798   0.557
  962SOL     OW 3784   1.056   6.052   3.941
  962SOL    HW1 3785   1.036   5.956   3.921
  962SOL    HW2 3786   1.034   6.070   4.037
  963SOL     OW 3787   6.021   0.081   2.226
  963SOL    HW1 3788   6.026   0.011   2.297
  963SOL    HW2 3789   6.112   0.096   2.188
  964SOL     OW 3790   5.574   3.233   0.912
  964SOL    HW1 3791   5.558   3.195   1.003
  964SOL    HW2 3792   5.493   3.284   0.882
  965SOL     OW 3793   1.454   1.903   0.404
  965SOL    HW1 3794   1.401   1.986   0.387
  965SOL    HW2 3795   1.503   1.876   0.321
  966SOL     OW 3796   6.822   2.493   1.814
  966SOL    HW1 3797   6.890   2.521   1.881
  966SOL    HW2 3798   6.822   2.393   1.806
  967SOL     OW 3799   1.032   6.393   2.220
  967SOL    HW1 3800   1.009   6.488   2.237
  967SOL    HW2 3801   1.079   6.385   2.132
  968SOL     OW 3802   6.836   4.128   1.626
  968SOL    HW1 3803   6.793   4.199   1.570
  968SOL    HW2 3804   6.766   4.077   1.675
  969SOL     OW 3805   4.156   6.149   6.578
  969SOL    HW1 3806   4.121   6.204   6.654
  969SOL    HW2 3807   4.248   6.181   6.554
  970SOL     OW 3808   4.466   2.469   5.365
  970SOL    HW1 3809   4.532   2.430   5.302
  970SOL    HW2 3810   4.432   2.556   5.328
  971SOL     OW 3811   0.142   2.823   0.405
  971SOL    HW1 3812   0.060   2.816   0.348
  971SOL    HW2 3813   0.173   2.918   0.407
  972SOL     OW 3814   6.058   6.065   1.071
  972SOL    HW1 3815   6.014   6.155   1.071
  972SOL    HW2 3816   6.007   6.004   1.010
  973SOL     OW 3817   5.697   3.719   5.007
  973SOL    HW1 3818   5.734   3.716   4.914
  973SOL    HW2 3819   5.706   3.629   5.049
  974SOL     OW 3820   2.788   1.423   4.716
  974SOL    HW1 3821   2.702   1.469   4.695
  974SOL    HW2 3822   2.825   1.460   4.801
  975SOL     OW 3823   3.174   6.485   5.543
  975SOL    HW1 3824   3.259   6.536   5.528
  975SOL    HW2 3825   3.159   6.474   5.641
  976SOL     OW 3826   6.866   5.924   3.418
  976SOL    HW1 3827   6.921   5.844   3.442
  976SOL    HW2 3828   6.884   5.950   3.323
  977SOL     OW 3829   1.745   2.676   2.139
  977SOL    HW1 3830   1.735   2.591   2.189
  977SOL    HW2 3831   1.665   2.734   2.154
  978SOL     OW 3832   5.694   3.329   4.752
  978SOL    HW1 3833   5.652   3.263   4.814
  978SOL    HW2 3834   5.676   3.301   4.657
  979SOL     OW 3835   6.132   1.688   3.482
  979SOL    HW1 3836   6.185   1.719   3.402
  979SOL    HW2 3837   6.121   1.588   3.477
  980SOL     OW 3838   6.498   0.455   4.285
  980SOL    HW1 3839   6.568   0.522   4.310
  980SOL    HW2 3840   6.540   0.367   4.268
  981SOL     OW 3841   6.690   3.173   5.570
  981SOL    HW1 3842   6.781   3.178   5.528
  981SOL    HW2 3843   6.656   3.265   5.587
  982SOL     OW 3844   1.552   3.026   1.380
  982SOL    HW1 3845   1.634   2.970   1.368
  982SOL    HW2 3846   1.539   3.046   1.477
  983SOL     OW 3847   6.017   1.767   2.868
  983SOL    HW1 3848   6.029   1.708   2.788
  983SOL    HW2 3849   5.922   1.799   2.872
  984SOL     OW 3850   4.742   1.935   5.165
  984SOL    HW1 3851   4.798   1.890   5.095
  984SOL    HW2 3852   4.705   1.865   5.227
  985SOL     OW 3853   2.760   5.387   0.902
  985SOL    HW1 3854   2.685   5.322   0.913
  985SOL    HW2 3855   2.804   5.373   0.813
  986SOL     OW 3856   3.789   4.857   7.005
  986SOL    HW1 3857   3.716   4.810   6.957
  986SOL    HW2 3858   3.784   4.836   0.079
  987SOL     OW 3859   3.543   6.674   2.382
  987SOL    HW1 3860   3.599   6.595   2.358
  987SOL    HW2 3861   3.494   6.706   2.302
  988SOL     OW 3862   3.411   3.527   1.939
  988SOL    HW1 3863   3.336   3.565   1.885
  988SOL    HW2 3864   3.391   3.538   2.036
  989SOL     OW 3865   0.530   6.943   4.554
  989SOL    HW1 3866   0.496   6.882   4.483
  989SOL    HW2 3867   0.534   6.893   4.641
  990SOL     OW 3868   5.024   6.081   2.736
  990SOL    HW1 3869   5.082   6.091   2.817
  990SOL    HW2 3870   5.056   6.003   2.682
  991SOL     OW 3871   6.158   1.372   5.101
  991SOL    HW1 3872   6.234   1.436   5.089
  991SOL    HW2 3873   6.146   1.320   5.017
  992SOL     OW 3874   0.028   3.259   1.508
  992SOL    HW1 3875   0.051   3.270   1.605
  992SOL    HW2 3876   6.953   3.269   1.495
  993SOL     OW 3877   3.502   5.548   4.352
  993SOL    HW1 3878   3.515   5.456   4.388
  993SOL    HW2 3879   3.482   5.612   4.426
  994SOL     OW 3880   2.916   3.657   2.019
  994SOL    HW1 3881   2.911   3.663   1.919
  994SOL    HW2 3882   2.911   3.561   2.047
  995SOL     OW 3883   0.468   1.132   4.998
  995SOL    HW1 3884   0.564   1.160   4.999
  995SOL    HW2 3885   0.412   1.208   4.964
  996SOL     OW 3886   1.055   3.639   0.837
  996SOL    HW1 3887   1.009   3.588   0.909
  996SOL    HW2 3888   1.144   3.671   0.870
  997SOL     OW 3889   0.630   0.944   1.110
  997SOL    HW1 3890   0.708   0.942   1.172
  997SOL    HW2 3891   0.552   0.987   1.156
  998SOL     OW 3892   4.909   0.100   3.611
  998SOL    HW1 3893   4.912   0.001   3.620
  998SOL    HW2 3894   4.976   0.130   3.543
  999SOL     OW 3895   6.997   5.533   1.825
  999SOL    HW1 3896   6.953   5.622   1.812
  999SOL    HW2 3897   0.070   5.540   1.800
 1000SOL     OW 3898   4.334   2.292   4.327
 1000SOL    HW1 3899   4.373   2.361   4.266
 1000SOL    HW2 3900   4.288   2.222   4.273
 1001SOL     OW 3901   3.781   0.718   5.741
 1001SOL    HW1 3902   3.844   0.754   5.811
 1001SOL    HW2 3903   3.718   0.791   5.713
 1002SOL     OW 3904   0.079   1.554   0.318
 1002SOL    HW1 3905   0.040   1.463   0.336
 1002SOL    HW2 3906   0.151   1.572   0.384
 1003SOL     OW 3907   4.801   4.566   2.879
 1003SOL    HW1 3908   4.734   4.495   2.856
 1003SOL    HW2 3909   4.813   4.626   2.800
 1004SOL     OW 3910   5.747   5.676   0.338
 1004SOL    HW1 3911   5.836   5.668   0.383
 1004SOL    HW2 3912   5.754   5.741   0.263
 1005SOL     OW 3913   6.741   5.677   3.667
 1005SOL    HW1 3914   6.810   5.708   3.732
 1005SOL    HW2 3915   6.666   5.744   3.664
 1006SOL     OW 3916   2.546   4.659   0.572
 1006SOL    HW1 3917   2.638   4.645   0.609
 1006SOL    HW2 3918   2.501   4.733   0.621
 1007SOL     OW 3919   1.427   0.537   3.527
 1007SOL    HW1 3920   1.469   0.534   3.618
 1007SOL    HW2 3921   1.346   0.596   3.530
 1008SOL     OW 3922   2.899   2.250   4.264
 1008SOL    HW1 3923   2.828   2.202   4.315
 1008SOL    HW2 3924   2.975   2.272   4.326
 1009SOL     OW 3925   2.461   5.640   5.209
 1009SOL    HW1 3926   2.484   5.703   5.136
 1009SOL    HW2 3927   2.544   5.594   5.241
 1010SOL     OW 3928   3.811   0.843   6.702
 1010SOL    HW1 3929   3.862   0.770   6.657
 1010SOL    HW2 3930   3.723   0.855   6.656
 1011SOL     OW 3931   3.472   5.777   3.961
 1011SOL    HW1 3932   3.405   5.806   4.029
 1011SOL    HW2 3933   3.425   5.725   3.889
 1012SOL     OW 3934   3.667   5.739   6.867
 1012SOL    HW1 3935   3.742   5.799   6.840
 1012SOL    HW2 3936   3.671   5.723   6.966
 1013SOL     OW 3937   0.095   0.964   0.870
 1013SOL    HW1 3938   0.008   1.002   0.839
 1013SOL    HW2 3939   0.101   0.971   0.969
 1014SOL     OW 3940   4.779   0.518   6.618
 1014SOL    HW1 3941   4.843   0.538   6.544
 1014SOL    HW2 3942   4.830   0.483   6.697
 1015SOL     OW 3943   3.577   6.797   4.731
 1015SOL    HW1 3944   3.612   6.721   4.786
 1015SOL    HW2 3945   3.637   6.877   4.743
 1016SOL     OW 3946   4.780   2.441   1.981
 1016SOL    HW1 3947   4.876   2.464   2.002
 1016SOL    HW2 3948   4.730   2.524   1.957
 1017SOL     OW 3949   4.703   1.711   6.882
 1017SOL    HW1 3950   4.611   1.741   6.859
 1017SOL    HW2 3951   4.770   1.761   6.826
 1018SOL     OW 3952   1.524   3.068   1.650
 1018SOL    HW1 3953   1.512   3.041   1.746
 1018SOL    HW2 3954   1.581   3.150   1.646
 1019SOL     OW 3955   5.978   0.893   0.256
 1019SOL    HW1 3956   6.041   0.817   0.267
 1019SOL    HW2 3957   5.955   0.904   0.159
 1020SOL     OW 3958   3.497   2.163   1.055
 1020SOL    HW1 3959   3.597   2.162   1.053
 1020SOL    HW2 3960   3.463   2.070   1.073
 1021SOL     OW 3961   6.551   1.495   0.981
 1021SOL    HW1 3962   6.498   1.463   1.060
 1021SOL    HW2 3963   6.522   1.446   0.899
 1022SOL     OW 3964   3.370   2.407   0.010
 1022SOL    HW1 3965   3.410   2.388   0.100
 1022SOL    HW2 3966   3.426   2.475   6.986
 1023SOL     OW 3967   5.879   0.747   4.212
 1023SOL    HW1 3968   5.915   0.723   4.302
 1023SOL    HW2 3969   5.866   0.664   4.158
 1024SOL     OW 3970   6.513   1.581   3.552
 1024SOL    HW1 3971   6.577   1.613   3.482
 1024SOL    HW2 3972   6.540   1.620   3.641
 1025SOL     OW 3973   3.012   4.652   1.277
 1025SOL    HW1 3974   2.944   4.579   1.266
 1025SOL    HW2 3975   3.098   4.612   1.306
 1026SOL     OW 3976   0.739   3.223   6.503
 1026SOL    HW1 3977   0.733   3.321   6.519
 1026SOL    HW2 3978   0.740   3.174   6.590
 1027SOL     OW 3979   2.513   4.924   2.302
 1027SOL    HW1 3980   2.424   4.914   2.259
 1027SOL    HW2 3981   2.584   4.889   2.242
 1028SOL     OW 3982   1.016   6.171   1.043
 1028SOL    HW1 3983   1.017   6.196   0.946
 1028SOL    HW2 3984   1.105   6.132   1.067
 1029SOL     OW 3985   3.310   0.363   5.166
 1029SOL    HW1 3986   3.370   0.420   5.112
 1029SOL    HW2 3987   3.221   0.408   5.177
 1030SOL     OW 3988   3.723   4.261   5.254
 1030SOL    HW1 3989   3.744   4.178   5.305
 1030SOL    HW2 3990   3.732   4.243   5.156
 1031SOL     OW 3991   1.881   5.287   1.122
 1031SOL    HW1 3992   1.921   5.379   1.124
 1031SOL    HW2 3993   1.953   5.219   1.108
 1032SOL     OW 3994   1.744   1.265   4.740
 1032SOL    HW1 3995   1.781   1.253   4.648
 1032SOL    HW2 3996   1.811   1.312   4.797
 1033SOL     OW 3997   2.402   6.035   3.658
 1033SOL    HW1 3998   2.363   6.100   3.591
 1033SOL    HW2 3999   2.463   6.084   3.719
 1034SOL     OW 4000   1.621   6.589   2.169
 1034SOL    HW1 4001   1.533   6.634   2.157
 1034SOL    HW2 4002   1.610   6.491   2.153
 1035SOL     OW 4003   2.938   0.552   4.061
 1035SOL    HW1 4004   2.888   0.467   4.070
 1035SOL    HW2 4005   2.892   0.624   4.113
 1036SOL     OW 4006   4.165   6.999   6.147
 1036SOL    HW1 4007   4.264   7.016   6.145
 1036SOL    HW2 4008   4.131   6.987   6.054
 1037SOL     OW 4009   2.922   1.860   6.465
 1037SOL    HW1 4010   2.959   1.770   6.444
 1037SOL    HW2 4011   2.945   1.885   6.559
 1038SOL     OW 4012   2.895   1.429   4.977
 1038SOL    HW1 4013   2.855   1.340   4.955
 1038SOL    HW2 4014   2.828   1.485   5.025
 1039SOL     OW 4015   4.198   1.811   3.606
 1039SOL    HW1 4016   4.186   1.910   3.608
 1039SOL    HW2 4017   4.200   1.779   3.512
 1040SOL     OW 4018   6.027   3.432   4.363
 1040SOL    HW1 4019   6.073   3.491   4.297
 1040SOL    HW2 4020   6.020   3.339   4.326
 1041SOL     OW 4021   1.549   6.840   4.317
 1041SOL    HW1 4022   1.557   6.765   4.382
 1041SOL    HW2 4023   1.576   6.809   4.226
 1042SOL     OW 4024   4.434   3.607   1.056
 1042SOL    HW1 4025   4.368   3.533   1.042
 1042SOL    HW2 4026   4.508   3.574   1.115
 1043SOL     OW 4027   3.429   0.021   6.589
 1043SOL    HW1 4028   3.429   6.971   6.521
 1043SOL    HW2 4029   3.501   0.005   6.656
 1044SOL     OW 4030   3.713   4.028   1.900
 1044SOL    HW1 4031   3.747   4.045   1.807
 1044SOL    HW2 4032   3.732   3.933   1.926
 1045SOL     OW 4033   3.861   1.540   3.358
 1045SOL    HW1 4034   3.776   1.507   3.400
 1045SOL    HW2 4035   3.866   1.506   3.264
 1046SOL     OW 4036   3.709   1.330   2.177
 1046SOL    HW1 4037   3.751   1.275   2.249
 1046SOL    HW2 4038   3.742   1.424   2.182
 1047SOL     OW 4039   0.595   5.398   1.798
 1047SOL    HW1 4040   0.583   5.496   1.787
 1047SOL    HW2 4041   0.508   5.351   1.780
 1048SOL     OW 4042   6.470   4.884   5.130
 1048SOL    HW1 4043   6.457   4.860   5.226
 1048SOL    HW2 4044   6.549   4.834   5.093
 1049SOL     OW 4045   0.425   3.513   4.887
 1049SOL    HW1 4046   0.477   3.434   4.855
 1049SOL    HW2 4047   0.406   3.503   4.984
 1050SOL     OW 4048   3.179   0.400   6.995
 1050SOL    HW1 4049   3.235   0.441   6.922
 1050SOL    HW2 4050   3.224   0.414   0.059
 1051SOL     OW 4051   4.724   5.014   2.395
 1051SOL    HW1 4052   4.690   5.108   2.391
 1051SOL    HW2 4053   4.648   4.951   2.407
 1052SOL     OW 4054   3.700   0.243   4.247
 1052SOL    HW1 4055   3.783   0.219   4.297
 1052SOL    HW2 4056   3.666   0.331   4.278
 1053SOL     OW 4057   3.683   4.906   3.495
 1053SOL    HW1 4058   3.679   4.902   3.595
 1053SOL    HW2 4059   3.590   4.911   3.459
 1054SOL     OW 4060   4.079   6.130   4.030
 1054SOL    HW1 4061   4.001   6.108   3.971
 1054SOL    HW2 4062   4.162   6.132   3.976
 1055SOL     OW 4063   4.473   5.448   3.766
 1055SOL    HW1 4064   4.420   5.380   3.714
 1055SOL    HW2 4065   4.557   5.470   3.717
 1056SOL     OW 4066   1.805   5.820   5.736
 1056SOL    HW1 4067   1.715   5.777   5.746
 1056SOL    HW2 4068   1.861   5.767   5.673
 1057SOL     OW 4069   3.631   4.098   0.964
 1057SOL    HW1 4070   3.571   4.031   0.921
 1057SOL    HW2 4071   3.710   4.051   1.004
 1058SOL     OW 4072   3.430   0.101   1.685
 1058SOL    HW1 4073   3.515   0.146   1.659
 1058SOL    HW2 4074   3.450   0.016   1.734
 1059SOL     OW 4075   3.348   0.974   0.828
 1059SOL    HW1 4076   3.327   1.072   0.827
 1059SOL    HW2 4077   3.277   0.926   0.880
 1060SOL     OW 4078   2.164   1.841   4.373
 1060SOL    HW1 4079   2.171   1.861   4.275
 1060SOL    HW2 4080   2.249   1.868   4.418
 1061SOL     OW 4081   3.108   6.387   1.326
 1061SOL    HW1 4082   3.127   6.403   1.423
 1061SOL    HW2 4083   3.047   6.458   1.292
 1062SOL     OW 4084   4.927   4.598   5.276
 1062SOL    HW1 4085   4.956   4.690   5.247
 1062SOL    HW2 4086   4.934   4.535   5.199
 1063SOL     OW 4087   2.190   3.360   5.711
 1063SOL    HW1 4088   2.178   3.277   5.766
 1063SOL    HW2 4089   2.176   3.337   5.615
 1064SOL     OW 4090   0.409   3.506   1.842
 1064SOL    HW1 4091   0.365   3.566   1.775
 1064SOL    HW2 4092   0.507   3.522   1.842
 1065SOL     OW 4093   4.648   4.943   5.574
 1065SOL    HW1 4094   4.688   5.028   5.540
 1065SOL    HW2 4095   4.552   4.958   5.597
 1066SOL     OW 4096   4.324   0.192   3.206
 1066SOL    HW1 4097   4.234   0.231   3.224
 1066SOL    HW2 4098   4.393   0.242   3.260
 1067SOL     OW 4099   2.403   3.468   0.602
 1067SOL    HW1 4100   2.390   3.409   0.522
 1067SOL    HW2 4101   2.499   3.466   0.630
 1068SOL     OW 4102   0.672   4.510   0.867
 1068SOL    HW1 4103   0.637   4.530   0.776
 1068SOL    HW2 4104   0.752   4.450   0.860
 1069SOL     OW 4105   3.647   3.478   1.782
 1069SOL    HW1 4106   3.566   3.477   1.840
 1069SOL    HW2 4107   3.645   3.560   1.724
 1070SOL     OW 4108   2.400   6.826   0.583
 1070SOL    HW1 4109   2.332   6.824   0.656
 1070SOL    HW2 4110   2.486   6.864   0.617
 1071SOL     OW 4111   4.549   6.129   3.879
 1071SOL    HW1 4112   4.578   6.092   3.792
 1071SOL    HW2 4113   4.604   6.090   3.953
 1072SOL     OW 4114   3.679   5.555   2.730
 1072SOL    HW1 4115   3.771   5.523   2.710
 1072SOL    HW2 4116   3.624   5.479   2.766
 1073SOL     OW 4117   2.870   5.490   3.025
 1073SOL    HW1 4118   2.772   5.489   3.005
 1073SOL    HW2 4119   2.922   5.491   2.939
 1074SOL     OW 4120   1.682   5.240   2.058
 1074SOL    HW1 4121   1.757   5.208   2.116
 1074SOL    HW2 4122   1.601   5.184   2.074
 1075SOL     OW 4123   0.486   3.916   2.652
 1075SOL    HW1 4124   0.444   3.827   2.635
 1075SOL    HW2 4125   0.581   3.915   2.619
 1076SOL     OW 4126   6.929   4.158   2.774
 1076SOL    HW1 4127   6.902   4.253   2.791
 1076SOL    HW2 4128   6.939   4.143   2.676
 1077SOL     OW 4129   5.208   1.185   1.083
 1077SOL    HW1 4130   5.176   1.216   1.172
 1077SOL    HW2 4131   5.266   1.105   1.094
 1078SOL     OW 4132   0.847   3.488   1.239
 1078SOL    HW1 4133   0.901   3.483   1.323
 1078SOL    HW2 4134   0.750   3.479   1.262
 1079SOL     OW 4135   2.482   5.521   3.216
 1079SOL    HW1 4136   2.538   5.439   3.219
 1079SOL    HW2 4137   2.389   5.500   3.245
 1080SOL     OW 4138   1.569   5.759   3.940
 1080SOL    HW1 4139   1.567   5.814   4.024
 1080SOL    HW2 4140   1.475   5.740   3.910
 1081SOL     OW 4141   1.461   1.391   0.595
 1081SOL    HW1 4142   1.393   1.403   0.668
 1081SOL    HW2 4143   1.418   1.409   0.507
 1082SOL     OW 4144   2.116   6.679   0.463
 1082SOL    HW1 4145   2.095   6.754   0.526
 1082SOL    HW2 4146   2.209   6.646   0.482
 1083SOL     OW 4147   3.788   2.133   1.687
 1083SOL    HW1 4148   3.783   2.036   1.710
 1083SOL    HW2 4149   3.726   2.185   1.746
 1084SOL     OW 4150   6.530   3.402   0.775
 1084SOL    HW1 4151   6.543   3.364   0.867
 1084SOL    HW2 4152   6.436   3.435   0.766
 1085SOL     OW 4153   1.226   4.403   2.874
 1085SOL    HW1 4154   1.213   4.456   2.790
 1085SOL    HW2 4155   1.286   4.326   2.856
 1086SOL     OW 4156   4.232   4.725   2.172
 1086SOL    HW1 4157   4.205   4.700   2.079
 1086SOL    HW2 4158   4.301   4.798   2.167
 1087SOL     OW 4159   3.848   3.724   5.116
 1087SOL    HW1 4160   3.789   3.786   5.167
 1087SOL    HW2 4161   3.860   3.639   5.167
 1088SOL     OW 4162   5.887   4.614   3.043
 1088SOL    HW1 4163   5.814   4.680   3.060
 1088SOL    HW2 4164   5.854   4.544   2.979
 1089SOL     OW 4165   6.199   6.748   3.203
 1089SOL    HW1 4166   6.122   6.711   3.150
 1089SOL    HW2 4167   6.175   6.749   3.300
 1090SOL     OW 4168   1.181   1.700   5.955
 1090SOL    HW1 4169   1.159   1.766   5.884
 1090SOL    HW2 4170   1.203   1.612   5.913
 1091SOL     OW 4171   1.078   2.555   5.540
 1091SOL    HW1 4172   1.121   2.511   5.461
 1091SOL    HW2 4173   1.134   2.540   5.621
 1092SOL     OW 4174   2.064   4.516   1.230
 1092SOL    HW1 4175   1.969   4.539   1.247
 1092SOL    HW2 4176   2.079   4.419   1.251
 1093SOL     OW 4177   0.521   2.281   2.234
 1093SOL    HW1 4178   0.460   2.273   2.312
 1093SOL    HW2 4179   0.469   2.275   2.149
 1094SOL     OW 4180   0.706   6.668   2.212
 1094SOL    HW1 4181   0.728   6.727   2.290
 1094SOL    HW2 4182   0.708   6.722   2.128
 1095SOL     OW 4183   6.232   3.319   5.706
 1095SOL    HW1 4184   6.297   3.381   5.749
 1095SOL    HW2 4185   6.208   3.246   5.770
 1096SOL     OW 4186   3.410   3.914   1.726
 1096SOL    HW1 4187   3.433   4.007   1.754
 1096SOL    HW2 4188   3.321   3.914   1.681
 1097SOL     OW 4189   1.934   4.546   5.153
 1097SOL    HW1 4190   2.020   4.590   5.126
 1097SOL    HW2 4191   1.868   4.556   5.079
 1098SOL     OW 4192   4.166   1.115   2.914
 1098SOL    HW1 4193   4.183   1.050   2.988
 1098SOL    HW2 4194   4.227   1.193   2.923
 1099SOL     OW 4195   3.932   1.184   2.782
 1099SOL    HW1 4196   3.930   1.122   2.704
 1099SOL    HW2 4197   4.011   1.163   2.840
 1100SOL     OW 4198   6.968   0.761   0.212
 1100SOL    HW1 4199   6.991   0.685   0.151
 1100SOL    HW2 4200   6.971   0.847   0.162
 1101SOL     OW 4201   5.891   2.875   0.908
 1101SOL    HW1 4202   5.901   2.832   0.818
 1101SOL    HW2 4203   5.881   2.974   0.897
 1102SOL     OW 4204   0.160   4.218   3.648
 1102SOL    HW1 4205   0.205   4.304   3.675
 1102SOL    HW2 4206   0.065   4.219   3.679
 1103SOL     OW 4207   0.717   3.332   0.859
 1103SOL    HW1 4208   0.673   3.417   0.888
 1103SOL    HW2 4209   0.672   3.299   0.776
 1104SOL     OW 4210   2.482   5.187   5.954
 1104SOL    HW1 4211   2.537   5.145   6.027
 1104SOL    HW2 4212   2.454   5.116   5.889
 1105SOL     OW 4213   4.138   5.338   0.610
 1105SOL    HW1 4214   4.045   5.356   0.643
 1105SOL    HW2 4215   4.191   5.423   0.615
 1106SOL     OW 4216   1.422   0.896   5.885
 1106SOL    HW1 4217   1.344   0.866   5.829
 1106SOL    HW2 4218   1.505   0.848   5.854
 1107SOL     OW 4219   0.289   6.883   1.311
 1107SOL    HW1 4220   0.341   6.968   1.305
 1107SOL    HW2 4221   0.315   6.833   1.394
 1108SOL     OW 4222   0.702   0.883   6.706
 1108SOL    HW1 4223   0.794   0.916   6.686
 1108SOL    HW2 4224   0.702   0.783   6.708
 1109SOL     OW 4225   5.172   0.868   3.691
 1109SOL    HW1 4226   5.160   0.796   3.760
 1109SOL    HW2 4227   5.166   0.958   3.735
 1110SOL     OW 4228   3.194   2.808   1.776
 1110SOL    HW1 4229   3.158   2.719   1.748
 1110SOL    HW2 4230   3.236   2.800   1.866
 1111SOL     OW 4231   4.935   0.290   6.751
 1111SOL    HW1 4232   5.014   0.297   6.811
 1111SOL    HW2 4233   4.854   0.267   6.805
 1112SOL     OW 4234   1.084   1.429   3.077
 1112SOL    HW1 4235   1.118   1.489   3.005
 1112SOL    HW2 4236   1.159   1.375   3.114
 1113SOL     OW 4237   6.065   4.061   1.900
 1113SOL    HW1 4238   6.077   3.968   1.935
 1113SOL    HW2 4239   5.976   4.097   1.929
 1114SOL     OW 4240   6.026   1.630   5.841
 1114SOL    HW1 4241   5.934   1.615   5.877
 1114SOL    HW2 4242   6.019   1.677   5.753
 1115SOL     OW 4243   3.477   4.041   0.551
 1115SOL    HW1 4244   3.451   3.946   0.564
 1115SOL    HW2 4245   3.541   4.048   0.475
 1116SOL     OW 4246   3.687   6.228   5.950
 1116SOL    HW1 4247   3.633   6.158   5.996
 1116SOL    HW2 4248   3.687   6.311   6.004
 1117SOL     OW 4249   2.190   2.797   0.673
 1117SOL    HW1 4250   2.135   2.880   0.682
 1117SOL    HW2 4251   2.137   2.728   0.624
 1118SOL     OW 4252   1.667   3.448   2.860
 1118SOL    HW1 4253   1.685   3.412   2.952
 1118SOL    HW2 4254   1.656   3.372   2.796
 1119SOL     OW 4255   2.878   3.498   2.447
 1119SOL    HW1 4256   2.865   3.590   2.410
 1119SOL    HW2 4257   2.945   3.449   2.391
 1120SOL     OW 4258   5.119   0.909   4.374
 1120SOL    HW1 4259   5.090   0.987   4.319
 1120SOL    HW2 4260   5.041   0.875   4.427
 1121SOL     OW 4261   5.184   3.281   2.690
 1121SOL    HW1 4262   5.234   3.355   2.644
 1121SOL    HW2 4263   5.091   3.312   2.711
 1122SOL     OW 4264   4.560   5.121   0.552
 1122SOL    HW1 4265   4.549   5.023   0.567
 1122SOL    HW2 4266   4.476   5.158   0.512
 1123SOL     OW 4267   3.763   0.902   2.031
 1123SOL    HW1 4268   3.679   0.912   1.978
 1123SOL    HW2 4269   3.833   0.859   1.974
 1124SOL     OW 4270   0.505   4.890   4.691
 1124SOL    HW1 4271   0.528   4.843   4.605
 1124SOL    HW2 4272   0.589   4.920   4.736
 1125SOL     OW 4273   3.335   3.384   4.782
 1125SOL    HW1 4274   3.326   3.468   4.836
 1125SOL    HW2 4275   3.324   3.304   4.842
 1126SOL     OW 4276   6.330   0.132   2.383
 1126SOL    HW1 4277   6.372   0.211   2.429
 1126SOL    HW2 4278   6.277   0.080   2.450
 1127SOL     OW 4279   1.540   5.225   6.597
 1127SOL    HW1 4280   1.469   5.155   6.586
 1127SOL    HW2 4281   1.629   5.181   6.600
 1128SOL     OW 4282   2.216   1.871   4.103
 1128SOL    HW1 4283   2.304   1.845   4.063
 1128SOL    HW2 4284   2.192   1.963   4.074
 1129SOL     OW 4285   4.949   0.085   6.522
 1129SOL    HW1 4286   4.905   7.019   6.522
 1129SOL    HW2 4287   4.889   0.151   6.568
 1130SOL     OW 4288   0.104   5.182   6.029
 1130SOL    HW1 4289   0.149   5.160   6.116
 1130SOL    HW2 4290   0.103   5.281   6.016
 1131SOL     OW 4291   0.669   5.389   5.830
 1131SOL    HW1 4292   0.604   5.314   5.837
 1131SOL    HW2 4293   0.758   5.353   5.802
 1132SOL     OW 4294   5.347   0.319   5.217
 1132SOL    HW1 4295   5.268   0.280   5.264
 1132SOL    HW2 4296   5.362   0.269   5.131
 1133SOL     OW 4297   6.715   2.595   0.404
 1133SOL    HW1 4298   6.651   2.519   0.397
 1133SOL    HW2 4299   6.666   2.682   0.395
 1134SOL     OW 4300   6.589   2.146   6.121
 1134SOL    HW1 4301   6.607   2.049   6.137
 1134SOL    HW2 4302   6.656   2.181   6.056
 1135SOL     OW 4303   5.866   1.489   3.896
 1135SOL    HW1 4304   5.851   1.588   3.884
 1135SOL    HW2 4305   5.781   1.447   3.930
 1136SOL     OW 4306   3.900   5.497   4.303
 1136SOL    HW1 4307   3.860   5.435   4.371
 1136SOL    HW2 4308   3.857   5.481   4.214
 1137SOL     OW 4309   1.403   0.911   6.170
 1137SOL    HW1 4310   1.417   0.917   6.071
 1137SOL    HW2 4311   1.440   0.824   6.203
 1138SOL     OW 4312   0.328   4.114   5.664
 1138SOL    HW1 4313   0.342   4.072   5.753
 1138SOL    HW2 4314   0.373   4.059   5.593
 1139SOL     OW 4315   0.914   6.346   1.504
 1139SOL    HW1 4316   0.857   6.415   1.548
 1139SOL    HW2 4317   0.923   6.366   1.407
 1140SOL     OW 4318   3.717   1.340   3.721
 1140SOL    HW1 4319   3.812   1.373   3.719
 1140SOL    HW2 4320   3.713   1.253   3.770
 1141SOL     OW 4321   6.492   5.968   5.691
 1141SOL    HW1 4322   6.535   5.878   5.688
 1141SOL    HW2 4323   6.556   6.034   5.731
 1142SOL     OW 4324   6.140   0.668   4.107
 1142SOL    HW1 4325   6.093   0.671   4.019
 1142SOL    HW2 4326   6.116   0.749   4.160
 1143SOL     OW 4327   4.216   1.825   2.321
 1143SOL    HW1 4328   4.149   1.829   2.395
 1143SOL    HW2 4329   4.175   1.860   2.237
 1144SOL     OW 4330   1.391   6.871   5.787
 1144SOL    HW1 4331   1.449   6.820   5.850
 1144SOL    HW2 4332   1.382   6.965   5.818
 1145SOL     OW 4333   1.839   4.909   5.121
 1145SOL    HW1 4334   1.768   4.881   5.056
 1145SOL    HW2 4335   1.826   4.860   5.208
 1146SOL     OW 4336   6.450   2.012   1.039
 1146SOL    HW1 4337   6.503   1.935   1.075
 1146SOL    HW2 4338   6.511   2.079   0.997
 1147SOL     OW 4339   6.646   3.072   2.174
 1147SOL    HW1 4340   6.647   2.981   2.132
 1147SOL    HW2 4341   6.561   3.085   2.224
 1148SOL     OW 4342   4.572   0.957   6.727
 1148SOL    HW1 4343   4.642   1.028   6.731
 1148SOL    HW2 4344   4.570   0.907   6.814
 1149SOL     OW 4345   6.573   2.793   3.113
 1149SOL    HW1 4346   6.533   2.722   3.172
 1149SOL    HW2 4347   6.610   2.750   3.031
 1150SOL     OW 4348   0.998   4.964   5.988
 1150SOL    HW1 4349   1.032   5.058   5.986
 1150SOL    HW2 4350   1.007   4.923   5.897
 1151SOL     OW 4351   4.043   5.466   0.016
 1151SOL    HW1 4352   3.953   5.502   7.018
 1151SOL    HW2 4353   4.045   5.438   0.112
 1152SOL     OW 4354   0.286   1.141   4.490
 1152SOL    HW1 4355   0.229   1.060   4.477
 1152SOL    HW2 4356   0.341   1.131   4.572
 1153SOL     OW 4357   2.570   4.658   2.383
 1153SOL    HW1 4358   2.527   4.748   2.379
 1153SOL    HW2 4359   2.649   4.662   2.445
 1154SOL     OW 4360   1.845   4.045   1.646
 1154SOL    HW1 4361   1.775   4.105   1.608
 1154SOL    HW2 4362   1.806   3.955   1.666
 1155SOL     OW 4363   3.906   6.384   2.450
 1155SOL    HW1 4364   3.962   6.301   2.464
 1155SOL    HW2 4365   3.813   6.357   2.424
 1156SOL     OW 4366   1.312   1.358   3.806
 1156SOL    HW1 4367   1.388   1.424   3.809
 1156SOL    HW2 4368   1.252   1.374   3.884
 1157SOL     OW 4369   0.907   3.304   4.603
 1157SOL    HW1 4370   0.920   3.403   4.608
 1157SOL    HW2 4371   0.811   3.283   4.587
 1158SOL     OW 4372   4.674   5.958   6.745
 1158SOL    HW1 4373   4.697   6.053   6.726
 1158SOL    HW2 4374   4.746   5.898   6.711
 1159SOL     OW 4375   5.165   5.212   2.975
 1159SOL    HW1 4376   5.207   5.157   2.903
 1159SOL    HW2 4377   5.182   5.309   2.957
 1160SOL     OW 4378   2.243   2.602   0.868
 1160SOL    HW1 4379   2.193   2.667   0.810
 1160SOL    HW2 4380   2.238   2.511   0.829
 1161SOL     OW 4381   4.364   0.818   4.487
 1161SOL    HW1 4382   4.360   0.875   4.569
 1161SOL    HW2 4383   4.418   0.736   4.505
 1162SOL     OW 4384   3.829   4.676   1.623
 1162SOL    HW1 4385   3.823   4.602   1.556
 1162SOL    HW2 4386   3.915   4.726   1.610
 1163SOL     OW 4387   4.814   1.675   2.108
 1163SOL    HW1 4388   4.804   1.577   2.094
 1163SOL    HW2 4389   4.813   1.696   2.206
 1164SOL     OW 4390   5.750   3.598   4.307
 1164SOL    HW1 4391   5.749   3.666   4.380
 1164SOL    HW2 4392   5.843   3.565   4.294
 1165SOL     OW 4393   1.388   4.266   2.023
 1165SOL    HW1 4394   1.373   4.175   2.062
 1165SOL    HW2 4395   1.475   4.302   2.056
 1166SOL     OW 4396   3.629   2.417   6.750
 1166SOL    HW1 4397   3.695   2.393   6.680
 1166SOL    HW2 4398   3.536   2.402   6.716
 1167SOL     OW 4399   4.238   1.971   5.003
 1167SOL    HW1 4400   4.204   1.949   5.094
 1167SOL    HW2 4401   4.317   2.033   5.010
 1168SOL     OW 4402   6.442   6.418   3.694
 1168SOL    HW1 4403   6.421   6.362   3.774
 1168SOL    HW2 4404   6.541   6.420   3.680
 1169SOL     OW 4405   0.965   4.212   1.124
 1169SOL    HW1 4406   1.001   4.271   1.197
 1169SOL    HW2 4407   0.868   4.233   1.109
 1170SOL     OW 4408   2.992   1.023   1.330
 1170SOL    HW1 4409   2.895   1.002   1.338
 1170SOL    HW2 4410   3.022   1.006   1.236
 1171SOL     OW 4411   2.839   0.251   0.466
 1171SOL    HW1 4412   2.821   0.233   0.563
 1171SOL    HW2 4413   2.798   0.179   0.411
 1172SOL     OW 4414   2.930   3.273   4.566
 1172SOL    HW1 4415   3.005   3.210   4.585
 1172SOL    HW2 4416   2.888   3.301   4.652
 1173SOL     OW 4417   5.056   0.866   6.417
 1173SOL    HW1 4418   5.004   0.892   6.335
 1173SOL    HW2 4419   5.064   0.945   6.477
 1174SOL     OW 4420   3.305   6.609   0.392
 1174SOL    HW1 4421   3.324   6.517   0.360
 1174SOL    HW2 4422   3.207   6.629   0.383
 1175SOL     OW 4423   0.006   5.324   4.917
 1175SOL    HW1 4424   0.019   5.407   4.862
 1175SOL    HW2 4425   0.075   5.321   4.989
 1176SOL     OW 4426   6.169   3.761   0.991
 1176SOL    HW1 4427   6.206   3.837   1.043
 1176SOL    HW2 4428   6.173   3.678   1.047
 1177SOL     OW 4429   6.247   2.847   0.112
 1177SOL    HW1 4430   6.192   2.878   0.190
 1177SOL    HW2 4431   6.197   2.865   0.027
 1178SOL     OW 4432   5.164   4.100   1.943
 1178SOL    HW1 4433   5.168   4.106   1.843
 1178SOL    HW2 4434   5.196   4.186   1.983
 1179SOL     OW 4435   2.244   5.752   6.181
 1179SOL    HW1 4436   2.290   5.677   6.133
 1179SOL    HW2 4437   2.162   5.779   6.131
 1180SOL     OW 4438   2.196   1.274   3.431
 1180SOL    HW1 4439   2.222   1.343   3.364
 1180SOL    HW2 4440   2.214   1.309   3.523
 1181SOL     OW 4441   1.850   4.014   2.943
 1181SOL    HW1 4442   1.798   4.036   2.860
 1181SOL    HW2 4443   1.897   3.927   2.930
 1182SOL     OW 4444   1.248   3.908   3.139
 1182SOL    HW1 4445   1.182   3.947   3.204
 1182SOL    HW2 4446   1.237   3.809   3.137
 1183SOL     OW 4447   4.348   5.507   0.680
 1183SOL    HW1 4448   4.375   5.603   0.688
 1183SOL    HW2 4449   4.423   5.449   0.711
 1184SOL     OW 4450   3.043   3.084   5.756
 1184SOL    HW1 4451   3.025   3.143   5.678
 1184SOL    HW2 4452   3.127   3.033   5.741
 1185SOL     OW 4453   2.490   1.701   0.117
 1185SOL    HW1 4454   2.409   1.643   0.109
 1185SOL    HW2 4455   2.462   1.797   0.115
 1186SOL     OW 4456   3.523   1.399   5.213
 1186SOL    HW1 4457   3.542   1.306   5.242
 1186SOL    HW2 4458   3.576   1.463   5.268
 1187SOL     OW 4459   0.358   0.993   5.523
 1187SOL    HW1 4460   0.399   1.046   5.598
 1187SOL    HW2 4461   0.367   1.044   5.437
 1188SOL     OW 4462   1.643   0.133   4.828
 1188SOL    HW1 4463   1.620   0.039   4.854
 1188SOL    HW2 4464   1.645   0.191   4.909
 1189SOL     OW 4465   6.920   0.539   0.730
 1189SOL    HW1 4466   7.015   0.511   0.746
 1189SOL    HW2 4467   6.915   0.592   0.646
 1190SOL     OW 4468   4.128   4.766   2.814
 1190SOL    HW1 4469   4.180   4.717   2.745
 1190SOL    HW2 4470   4.087   4.848   2.774
 1191SOL     OW 4471   2.649   5.503   0.653
 1191SOL    HW1 4472   2.583   5.428   0.663
 1191SOL    HW2 4473   2.742   5.466   0.653
 1192SOL     OW 4474   4.329   5.329   1.985
 1192SOL    HW1 4475   4.356   5.425   1.984
 1192SOL    HW2 4476   4.380   5.281   2.057
 1193SOL     OW 4477   4.042   0.122   3.861
 1193SOL    HW1 4478   4.095   0.051   3.908
 1193SOL    HW2 4479   4.105   0.183   3.813
 1194SOL     OW 4480   6.683   0.846   1.385
 1194SOL    HW1 4481   6.724   0.846   1.293
 1194SOL    HW2 4482   6.682   0.752   1.421
 1195SOL     OW 4483   3.442   6.415   6.955
 1195SOL    HW1 4484   3.510   6.441   6.886
 1195SOL    HW2 4485   3.404   6.326   6.934
 1196SOL     OW 4486   0.520   5.274   3.026
 1196SOL    HW1 4487   0.607   5.320   3.041
 1196SOL    HW2 4488   0.485   5.239   3.113
 1197SOL     OW 4489   3.324   5.206   6.423
 1197SOL    HW1 4490   3.341   5.163   6.334
 1197SOL    HW2 4491   3.359   5.148   6.496
 1198SOL     OW 4492   3.707   1.533   2.637
 1198SOL    HW1 4493   3.618   1.513   2.679
 1198SOL    HW2 4494   3.701   1.619   2.587
 1199SOL     OW 4495   2.938   3.753   3.331
 1199SOL    HW1 4496   2.841   3.774   3.337
 1199SOL    HW2 4497   2.978   3.799   3.252
 1200SOL     OW 4498   3.664   3.387   0.763
 1200SOL    HW1 4499   3.633   3.399   0.858
 1200SOL    HW2 4500   3.716   3.302   0.756
 1201SOL     OW 4501   0.899   1.218   4.711
 1201SOL    HW1 4502   0.941   1.269   4.786
 1201SOL    HW2 4503   0.855   1.136   4.747
 1202SOL     OW 4504   5.597   0.480   4.905
 1202SOL    HW1 4505   5.565   0.502   4.813
 1202SOL    HW2 4506   5.552   0.396   4.937
 1203SOL     OW 4507   6.191   6.760   1.735
 1203SOL    HW1 4508   6.159   6.832   1.797
 1203SOL    HW2 4509   6.276   6.789   1.691
 1204SOL     OW 4510   1.673   6.360   6.638
 1204SOL    HW1 4511   1.609   6.431   6.609
 1204SOL    HW2 4512   1.622   6.276   6.659
 1205SOL     OW 4513   1.074   2.517   5.157
 1205SOL    HW1 4514   1.003   2.468   5.207
 1205SOL    HW2 4515   1.048   2.614   5.149
 1206SOL     OW 4516   0.336   1.837   4.506
 1206SOL    HW1 4517   0.342   1.837   4.606
 1206SOL    HW2 4518   0.401   1.771   4.469
 1207SOL     OW 4519   6.054   5.958   6.339
 1207SOL    HW1 4520   6.078   6.015   6.261
 1207SOL    HW2 4521   6.113   5.982   6.417
 1208SOL     OW 4522   3.389   3.833   3.292
 1208SOL    HW1 4523   3.463   3.772   3.316
 1208SOL    HW2 4524   3.327   3.844   3.370
 1209SOL     OW 4525   6.745   4.118   4.872
 1209SOL    HW1 4526   6.708   4.079   4.788
 1209SOL    HW2 4527   6.725   4.216   4.874
 1210SOL     OW 4528   3.215   6.927   2.304
 1210SOL    HW1 4529   3.291   6.990   2.287
 1210SOL    HW2 4530   3.152   6.930   2.227
 1211SOL     OW 4531   1.250   3.154   3.245
 1211SOL    HW1 4532   1.213   3.247   3.246
 1211SOL    HW2 4533   1.273   3.127   3.338
 1212SOL     OW 4534   1.335   3.388   4.021
 1212SOL    HW1 4535   1.397   3.364   3.945
 1212SOL    HW2 4536   1.369   3.347   4.105
 1213SOL     OW 4537   5.726   2.386   5.251
 1213SOL    HW1 4538   5.767   2.329   5.322
 1213SOL    HW2 4539   5.644   2.342   5.216
 1214SOL     OW 4540   1.551   2.328   2.546
 1214SOL    HW1 4541   1.599   2.390   2.484
 1214SOL    HW2 4542   1.490   2.269   2.493
 1215SOL     OW 4543   0.016   5.103   2.159
 1215SOL    HW1 4544   0.074   5.183   2.174
 1215SOL    HW2 4545   0.020   5.077   2.062
 1216SOL     OW 4546   2.749   0.907   1.556
 1216SOL    HW1 4547   2.715   0.872   1.644
 1216SOL    HW2 4548   2.849   0.903   1.555
 1217SOL     OW 4549   2.060   1.433   2.545
 1217SOL    HW1 4550   2.056   1.530   2.522
 1217SOL    HW2 4551   2.048   1.421   2.643
 1218SOL     OW 4552   0.185   3.202   3.539
 1218SOL    HW1 4553   0.093   3.172   3.562
 1218SOL    HW2 4554   0.199   3.195   3.440
 1219SOL     OW 4555   2.645   6.113   3.799
 1219SOL    HW1 4556   2.636   6.087   3.895
 1219SOL    HW2 4557   2.710   6.052   3.754
 1220SOL     OW 4558   5.800   4.364   2.910
 1220SOL    HW1 4559   5.712   4.322   2.931
 1220SOL    HW2 4560   5.806   4.383   2.812
 1221SOL     OW 4561   4.814   3.589   6.095
 1221SOL    HW1 4562   4.842   3.584   6.191
 1221SOL    HW2 4563   4.880   3.642   6.043
 1222SOL     OW 4564   5.665   5.105   1.952
 1222SOL    HW1 4565   5.572   5.125   1.921
 1222SOL    HW2 4566   5.717   5.064   1.877
 1223SOL     OW 4567   6.109   4.966   5.255
 1223SOL    HW1 4568   6.083   4.983   5.160
 1223SOL    HW2 4569   6.033   4.988   5.315
 1224SOL     OW 4570   5.083   5.235   1.531
 1224SOL    HW1 4571   5.144   5.314   1.532
 1224SOL    HW2 4572   5.122   5.162   1.587
 1225SOL     OW 4573   3.991   1.454   6.667
 1225SOL    HW1 4574   4.017   1.358   6.681
 1225SOL    HW2 4575   3.892   1.463   6.676
 1226SOL     OW 4576   5.414   5.434   1.111
 1226SOL    HW1 4577   5.327   5.436   1.061
 1226SOL    HW2 4578   5.442   5.339   1.126
 1227SOL     OW 4579   4.864   4.592   6.561
 1227SOL    HW1 4580   4.853   4.663   6.630
 1227SOL    HW2 4581   4.775   4.571   6.520
 1228SOL     OW 4582   3.668   4.176   4.335
 1228SOL    HW1 4583   3.684   4.245   4.265
 1228SOL    HW2 4584   3.582   4.194   4.381
 1229SOL     OW 4585   2.587   5.946   3.132
 1229SOL    HW1 4586   2.565   5.913   3.040
 1229SOL    HW2 4587   2.582   5.871   3.197
 1230SOL     OW 4588   6.035   5.262   1.539
 1230SOL    HW1 4589   5.968   5.326   1.501
 1230SOL    HW2 4590   5.988   5.188   1.586
 1231SOL     OW 4591   2.236   1.907   6.340
 1231SOL    HW1 4592   2.158   1.895   6.401
 1231SOL    HW2 4593   2.277   1.818   6.320
 1232SOL     OW 4594   3.075   1.301   5.139
 1232SOL    HW1 4595   3.125   1.240   5.078
 1232SOL    HW2 4596   3.023   1.367   5.085
 1233SOL     OW 4597   6.748   5.857   4.963
 1233SOL    HW1 4598   6.784   5.854   4.870
 1233SOL    HW2 4599   6.658   5.901   4.962
 1234SOL     OW 4600   5.972   4.405   6.852
 1234SOL    HW1 4601   5.946   4.343   6.779
 1234SOL    HW2 4602   6.010   4.353   6.928
 1235SOL     OW 4603   6.330   4.660   0.907
 1235SOL    HW1 4604   6.395   4.596   0.949
 1235SOL    HW2 4605   6.281   4.709   0.979
 1236SOL     OW 4606   1.308   1.364   2.196
 1236SOL    HW1 4607   1.358   1.285   2.232
 1236SOL    HW2 4608   1.223   1.333   2.154
 1237SOL     OW 4609   0.853   6.936   4.333
 1237SOL    HW1 4610   0.884   0.003   4.303
 1237SOL    HW2 4611   0.801   6.893   4.260
 1238SOL     OW 4612   0.509   0.669   4.903
 1238SOL    HW1 4613   0.431   0.715   4.946
 1238SOL    HW2 4614   0.548   0.729   4.832
 1239SOL     OW 4615   5.210   5.144   3.972
 1239SOL    HW1 4616   5.126   5.089   3.970
 1239SOL    HW2 4617   5.200   5.221   3.909
 1240SOL     OW 4618   0.759   3.915   1.364
 1240SOL    HW1 4619   0.787   3.849   1.434
 1240SOL    HW2 4620   0.828   3.916   1.291
 1241SOL     OW 4621   4.080   5.223   5.925
 1241SOL    HW1 4622   4.170   5.230   5.882
 1241SOL    HW2 4623   4.079   5.143   5.986
 1242SOL     OW 4624   2.489   5.256   0.946
 1242SOL    HW1 4625   2.426   5.186   0.978
 1242SOL    HW2 4626   2.460   5.289   0.856
 1243SOL     OW 4627   0.833   3.430   3.647
 1243SOL    HW1 4628   0.858   3.513   3.696
 1243SOL    HW2 4629   0.804   3.360   3.712
 1244SOL     OW 4630   6.325   0.126   5.168
 1244SOL    HW1 4631   6.236   0.114   5.212
 1244SOL    HW2 4632   6.346   0.224   5.162
 1245SOL     OW 4633   4.756   6.280   0.865
 1245SOL    HW1 4634   4.734   6.317   0.955
 1245SOL    HW2 4635   4.855   6.266   0.858
 1246SOL     OW 4636   5.037   1.704   1.323
 1246SOL    HW1 4637   4.984   1.730   1.242
 1246SOL    HW2 4638   5.085   1.785   1.358
 1247SOL     OW 4639   6.836   6.870   2.831
 1247SOL    HW1 4640   6.761   6.903   2.773
 1247SOL    HW2 4641   6.861   6.777   2.804
 1248SOL     OW 4642   0.906   6.405   4.432
 1248SOL    HW1 4643   0.848   6.486   4.434
 1248SOL    HW2 4644   1.001   6.433   4.414
 1249SOL     OW 4645   5.996   5.496   6.387
 1249SOL    HW1 4646   6.038   5.579   6.351
 1249SOL    HW2 4647   6.060   5.449   6.447
 1250SOL     OW 4648   0.737   3.854   5.029
 1250SOL    HW1 4649   0.697   3.940   4.998
 1250SOL    HW2 4650   0.707   3.834   5.122
 1251SOL     OW 4651   3.318   0.590   2.599
 1251SOL    HW1 4652   3.277   0.516   2.652
 1251SOL    HW2 4653   3.382   0.641   2.657
 1252SOL     OW 4654   2.173   5.180   6.570
 1252SOL    HW1 4655   2.127   5.170   6.482
 1252SOL    HW2 4656   2.252   5.117   6.573
 1253SOL     OW 4657   3.030   6.693   0.039
 1253SOL    HW1 4658   2.957   6.759   0.025
 1253SOL    HW2 4659   3.074   6.672   6.976
 1254SOL     OW 4660   6.506   1.547   2.982
 1254SOL    HW1 4661   6.485   1.642   3.005
 1254SOL    HW2 4662   6.556   1.504   3.058
 1255SOL     OW 4663   5.966   1.947   5.824
 1255SOL    HW1 4664   6.033   1.891   5.776
 1255SOL    HW2 4665   5.947   1.908   5.914
 1256SOL     OW 4666   0.271   5.658   4.214
 1256SOL    HW1 4667   0.298   5.563   4.232
 1256SOL    HW2 4668   0.223   5.663   4.127
 1257SOL     OW 4669   0.241   6.286   3.421
 1257SOL    HW1 4670   0.267   6.204   3.473
 1257SOL    HW2 4671   0.273   6.368   3.470
 1258SOL     OW 4672   4.828   5.800   6.320
 1258SOL    HW1 4673   4.736   5.762   6.330
 1258SOL    HW2 4674   4.851   5.851   6.404
 1259SOL     OW 4675   5.114   0.575   5.624
 1259SOL    HW1 4676   5.207   0.558   5.658
 1259SOL    HW2 4677   5.104   0.673   5.602
 1260SOL     OW 4678   2.880   1.290   1.093
 1260SOL    HW1 4679   2.951   1.219   1.094
 1260SOL    HW2 4680   2.850   1.308   1.187
 1261SOL     OW 4681   0.028   4.754   4.970
 1261SOL    HW1 4682   0.108   4.706   4.935
 1261SOL    HW2 4683   0.046   4.787   5.062
 1262SOL     OW 4684   4.329   5.787   1.740
 1262SOL    HW1 4685   4.324   5.795   1.640
 1262SOL    HW2 4686   4.408   5.840   1.773
 1263SOL     OW 4687   6.395   2.150   0.602
 1263SOL    HW1 4688   6.469   2.130   0.667
 1263SOL    HW2 4689   6.314   2.178   0.653
 1264SOL     OW 4690   6.247   2.767   4.465
 1264SOL    HW1 4691   6.184   2.840   4.439
 1264SOL    HW2 4692   6.221   2.682   4.420
 1265SOL     OW 4693   6.215   5.852   5.100
 1265SOL    HW1 4694   6.177   5.781   5.042
 1265SOL    HW2 4695   6.143   5.892   5.156
 1266SOL     OW 4696   2.503   0.633   4.011
 1266SOL    HW1 4697   2.550   0.588   4.087
 1266SOL    HW2 4698   2.554   0.714   3.983
 1267SOL     OW 4699   0.106   4.498   2.879
 1267SOL    HW1 4700   0.155   4.529   2.798
 1267SOL    HW2 4701   0.016   4.463   2.853
 1268SOL     OW 4702   5.816   4.076   6.988
 1268SOL    HW1 4703   5.914   4.059   6.973
 1268SOL    HW2 4704   5.804   4.168   0.000
 1269SOL     OW 4705   6.775   5.067   6.137
 1269SOL    HW1 4706   6.744   5.020   6.054
 1269SOL    HW2 4707   6.698   5.115   6.179
 1270SOL     OW 4708   1.405   2.171   4.668
 1270SOL    HW1 4709   1.463   2.108   4.617
 1270SOL    HW2 4710   1.421   2.265   4.638
 1271SOL     OW 4711   4.976   2.727   3.084
 1271SOL    HW1 4712   5.040   2.798   3.114
 1271SOL    HW2 4713   4.925   2.759   3.005
 1272SOL     OW 4714   6.617   6.930   1.778
 1272SOL    HW1 4715   6.534   6.909   1.726
 1272SOL    HW2 4716   6.637   6.855   1.840
 1273SOL     OW 4717   2.548   6.609   6.460
 1273SOL    HW1 4718   2.506   6.584   6.373
 1273SOL    HW2 4719   2.556   6.528   6.518
 1274SOL     OW 4720   5.399   2.386   1.842
 1274SOL    HW1 4721   5.485   2.427   1.871
 1274SOL    HW2 4722   5.417   2.294   1.806
 1275SOL     OW 4723   3.777   1.556   4.023
 1275SOL    HW1 4724   3.793   1.457   4.033
 1275SOL    HW2 4725   3.711   1.571   3.949
 1276SOL     OW 4726   6.064   0.076   2.888
 1276SOL    HW1 4727   5.972   0.045   2.911
 1276SOL    HW2 4728   6.132   0.011   2.922
 1277SOL     OW 4729   0.579   1.534   5.076
 1277SOL    HW1 4730   0.648   1.603   5.054
 1277SOL    HW2 4731   0.563   1.477   4.996
 1278SOL     OW 4732   2.786   1.671   5.567
 1278SOL    HW1 4733   2.776   1.671   5.667
 1278SOL    HW2 4734   2.705   1.715   5.526
 1279SOL     OW 4735   2.241   5.052   0.374
 1279SOL    HW1 4736   2.160   4.995   0.393
 1279SOL    HW2 4737   2.213   5.135   0.325
 1280SOL     OW 4738   1.641   6.056   2.893
 1280SOL    HW1 4739   1.683   5.996   2.961
 1280SOL    HW2 4740   1.618   6.144   2.936
 1281SOL     OW 4741   0.528   6.751   3.926
 1281SOL    HW1 4742   0.620   6.747   3.966
 1281SOL    HW2 4743   0.489   6.659   3.925
 1282SOL     OW 4744   1.247   0.218   2.067
 1282SOL    HW1 4745   1.236   0.150   1.995
 1282SOL    HW2 4746   1.294   0.177   2.145
 1283SOL     OW 4747   5.141   4.505   4.753
 1283SOL    HW1 4748   5.069   4.451   4.796
 1283SOL    HW2 4749   5.152   4.478   4.657
 1284SOL     OW 4750   2.700   1.929   2.696
 1284SOL    HW1 4751   2.623   1.867   2.678
 1284SOL    HW2 4752   2.667   2.024   2.689
 1285SOL     OW 4753   5.765   2.485   6.030
 1285SOL    HW1 4754   5.862   2.494   6.008
 1285SOL    HW2 4755   5.723   2.576   6.034
 1286SOL     OW 4756   6.166   6.491   1.782
 1286SOL    HW1 4757   6.171   6.589   1.762
 1286SOL    HW2 4758   6.244   6.444   1.741
 1287SOL     OW 4759   6.014   4.975   5.878
 1287SOL    HW1 4760   5.967   4.948   5.794
 1287SOL    HW2 4761   6.015   4.898   5.942
 1288SOL     OW 4762   6.702   2.389   3.083
 1288SOL    HW1 4763   6.735   2.480   3.058
 1288SOL    HW2 4764   6.771   2.321   3.060
 1289SOL     OW 4765   0.149   5.299   2.471
 1289SOL    HW1 4766   0.156   5.286   2.570
 1289SOL    HW2 4767   0.054   5.286   2.443
 1290SOL     OW 4768   0.467   6.503   1.390
 1290SOL    HW1 4769   0.468   6.432   1.320
 1290SOL    HW2 4770   0.490   6.463   1.479
 1291SOL     OW 4771   1.419   7.011   0.577
 1291SOL    HW1 4772   1.474   6.969   0.649
 1291SOL    HW2 4773   1.442   6.970   0.489
 1292SOL     OW 4774   1.000   6.230   6.720
 1292SOL    HW1 4775   1.079   6.206   6.776
 1292SOL    HW2 4776   1.030   6.279   6.638
 1293SOL     OW 4777   6.300   2.544   5.931
 1293SOL    HW1 4778   6.318   2.584   6.021
 1293SOL    HW2 4779   6.336   2.604   5.860
 1294SOL     OW 4780   0.157   1.957   3.007
 1294SOL    HW1 4781   0.120   1.873   2.967
 1294SOL    HW2 4782   0.184   1.940   3.102
 1295SOL     OW 4783   5.080   3.403   1.817
 1295SOL    HW1 4784   5.151   3.428   1.883
 1295SOL    HW2 4785   5.052   3.484   1.766
 1296SOL     OW 4786   3.836   2.361   6.558
 1296SOL    HW1 4787   3.828   2.294   6.483
 1296SOL    HW2 4788   3.889   2.321   6.632
 1297SOL     OW 4789   6.682   1.261   6.331
 1297SOL    HW1 4790   6.627   1.234   6.410
 1297SOL    HW2 4791   6.731   1.182   6.295
 1298SOL     OW 4792   6.054   2.966   3.775
 1298SOL    HW1 4793   6.146   2.947   3.808
 1298SOL    HW2 4794   6.057   2.992   3.679
 1299SOL     OW 4795   1.188   3.934   4.457
 1299SOL    HW1 4796   1.282   3.910   4.481
 1299SOL    HW2 4797   1.163   3.888   4.372
 1300SOL     OW 4798   2.786   3.186   1.090
 1300SOL    HW1 4799   2.789   3.283   1.067
 1300SOL    HW2 4800   2.854   3.136   1.036
 1301SOL     OW 4801   0.797   0.547   2.950
 1301SOL    HW1 4802   0.865   0.588   2.888
 1301SOL    HW2 4803   0.749   0.620   2.999
 1302SOL     OW 4804   2.607   5.936   5.283
 1302SOL    HW1 4805   2.527   5.879   5.300
 1302SOL    HW2 4806   2.654   5.904   5.200
 1303SOL     OW 4807   3.849   0.503   1.395
 1303SOL    HW1 4808   3.892   0.505   1.305
 1303SOL    HW2 4809   3.919   0.489   1.465
 1304SOL     OW 4810   3.640   0.500   6.128
 1304SOL    HW1 4811   3.627   0.405   6.156
 1304SOL    HW2 4812   3.651   0.505   6.029
 1305SOL     OW 4813   5.724   6.654   4.729
 1305SOL    HW1 4814   5.647   6.666   4.666
 1305SOL    HW2 4815   5.781   6.736   4.727
 1306SOL     OW 4816   0.804   4.736   4.315
 1306SOL    HW1 4817   0.854   4.654   4.287
 1306SOL    HW2 4818   0.792   4.796   4.235
 1307SOL     OW 4819   1.899   1.974   4.776
 1307SOL    HW1 4820   1.830   2.030   4.730
 1307SOL    HW2 4821   1.911   2.006   4.870
 1308SOL     OW 4822   5.133   5.835   2.991
 1308SOL    HW1 4823   5.122   5.822   3.090
 1308SOL    HW2 4824   5.227   5.814   2.965
 1309SOL     OW 4825   5.854   2.675   5.020
 1309SOL    HW1 4826   5.765   2.653   5.061
 1309SOL    HW2 4827   5.855   2.770   4.991
 1310SOL     OW 4828   4.951   3.682   5.372
 1310SOL    HW1 4829   4.932   3.744   5.447
 1310SOL    HW2 4830   4.978   3.593   5.408
 1311SOL     OW 4831   5.493   5.398   5.456
 1311SOL    HW1 4832   5.479   5.299   5.452
 1311SOL    HW2 4833   5.462   5.439   5.370
 1312SOL     OW 4834   6.656   6.807   2.111
 1312SOL    HW1 4835   6.594   6.737   2.075
 1312SOL    HW2 4836   6.644   6.814   2.210
 1313SOL     OW 4837   3.597   4.850   5.308
 1313SOL    HW1 4838   3.644   4.762   5.298
 1313SOL    HW2 4839   3.508   4.836   5.350
 1314SOL     OW 4840   5.556   1.601   5.250
 1314SOL    HW1 4841   5.574   1.621   5.154
 1314SOL    HW2 4842   5.467   1.555   5.258
 1315SOL     OW 4843   2.109   0.613   2.941
 1315SOL    HW1 4844   2.191   0.668   2.954
 1315SOL    HW2 4845   2.076   0.624   2.848
 1316SOL     OW 4846   3.125   6.479   2.477
 1316SOL    HW1 4847   3.188   6.557   2.486
 1316SOL    HW2 4848   3.090   6.454   2.568
 1317SOL     OW 4849   0.162   4.856   4.141
 1317SOL    HW1 4850   0.100   4.874   4.064
 1317SOL    HW2 4851   0.224   4.782   4.117
 1318SOL     OW 4852   0.440   6.074   1.543
 1318SOL    HW1 4853   0.421   5.998   1.481
 1318SOL    HW2 4854   0.530   6.062   1.585
 1319SOL     OW 4855   6.292   1.101   0.095
 1319SOL    HW1 4856   6.271   1.199   0.089
 1319SOL    HW2 4857   6.351   1.085   0.174
 1320SOL     OW 4858   5.278   5.827   5.620
 1320SOL    HW1 4859   5.357   5.827   5.560
 1320SOL    HW2 4860   5.298   5.772   5.702
 1321SOL     OW 4861   3.168   1.734   6.960
 1321SOL    HW1 4862   3.158   1.830   6.936
 1321SOL    HW2 4863   3.214   1.726   0.025
 1322SOL     OW 4864   5.597   1.261   5.171
 1322SOL    HW1 4865   5.686   1.293   5.138
 1322SOL    HW2 4866   5.526   1.285   5.104
 1323SOL     OW 4867   6.133   0.962   4.180
 1323SOL    HW1 4868   6.204   0.989   4.115
 1323SOL    HW2 4869   6.048   1.010   4.159
 1324SOL     OW 4870   1.033   3.847   0.671
 1324SOL    HW1 4871   1.050   3.772   0.735
 1324SOL    HW2 4872   1.002   3.810   0.583
 1325SOL     OW 4873   3.400   5.482   3.143
 1325SOL    HW1 4874   3.300   5.486   3.140
 1325SOL    HW2 4875   3.430   5.388   3.130
 1326SOL     OW 4876   4.834   4.392   4.473
 1326SOL    HW1 4877   4.832   4.299   4.435
 1326SOL    HW2 4878   4.918   4.438   4.446
 1327SOL     OW 4879   3.277   5.984   3.650
 1327SOL    HW1 4880   3.361   6.011   3.697
 1327SOL    HW2 4881   3.276   6.025   3.559
 1328SOL     OW 4882   1.850   2.216   6.875
 1328SOL    HW1 4883   1.905   2.132   6.875
 1328SOL    HW2 4884   1.809   2.229   6.965
 1329SOL     OW 4885   0.716   0.254   1.360
 1329SOL    HW1 4886   0.736   0.336   1.414
 1329SOL    HW2 4887   0.628   0.216   1.389
 1330SOL     OW 4888   5.646   6.826   0.760
 1330SOL    HW1 4889   5.560   6.860   0.799
 1330SOL    HW2 4890   5.627   6.749   0.700
 1331SOL     OW 4891   0.004   1.115   2.523
 1331SOL    HW1 4892   0.096   1.096   2.557
 1331SOL    HW2 4893   0.002   1.104   2.423
 1332SOL     OW 4894   4.153   1.469   0.970
 1332SOL    HW1 4895   4.246   1.502   0.953
 1332SOL    HW2 4896   4.156   1.371   0.990
 1333SOL     OW 4897   4.102   3.369   4.563
 1333SOL    HW1 4898   4.058   3.457   4.581
 1333SOL    HW2 4899   4.055   3.297   4.614
 1334SOL     OW 4900   0.702   4.104   3.187
 1334SOL    HW1 4901   0.778   4.065   3.239
 1334SOL    HW2 4902   0.616   4.081   3.232
 1335SOL     OW 4903   2.573   4.970   1.904
 1335SOL    HW1 4904   2.563   5.068   1.921
 1335SOL    HW2 4905   2.629   4.929   1.976
 1336SOL     OW 4906   0.310   0.057   4.665
 1336SOL    HW1 4907   0.402   0.025   4.644
 1336SOL    HW2 4908   0.297   0.149   4.628
 1337SOL     OW 4909   2.502   0.528   6.440
 1337SOL    HW1 4910   2.562   0.519   6.361
 1337SOL    HW2 4911   2.547   0.582   6.510
 1338SOL     OW 4912   3.417   5.741   0.606
 1338SOL    HW1 4913   3.345   5.787   0.555
 1338SOL    HW2 4914   3.404   5.757   0.704
 1339SOL     OW 4915   0.379   4.765   5.191
 1339SOL    HW1 4916   0.404   4.716   5.108
 1339SOL    HW2 4917   0.370   4.701   5.267
 1340SOL     OW 4918   2.413   1.235   6.607
 1340SOL    HW1 4919   2.343   1.168   6.585
 1340SOL    HW2 4920   2.427   1.296   6.529
 1341SOL     OW 4921   5.211   1.190   3.532
 1341SOL    HW1 4922   5.219   1.277   3.482
 1341SOL    HW2 4923   5.119   1.153   3.517
 1342SOL     OW 4924   0.859   6.167   1.803
 1342SOL    HW1 4925   0.912   6.247   1.773
 1342SOL    HW2 4926   0.789   6.147   1.735
 1343SOL     OW 4927   3.698   5.515   3.147
 1343SOL    HW1 4928   3.664   5.600   3.186
 1343SOL    HW2 4929   3.622   5.455   3.124
 1344SOL     OW 4930   5.754   1.294   2.370
 1344SOL    HW1 4931   5.724   1.273   2.463
 1344SOL    HW2 4932   5.814   1.373   2.372
 1345SOL     OW 4933   1.292   6.723   3.693
 1345SOL    HW1 4934   1.303   6.624   3.689
 1345SOL    HW2 4935   1.301   6.761   3.601
 1346SOL     OW 4936   0.471   0.636   4.001
 1346SOL    HW1 4937   0.410   0.569   3.960
 1346SOL    HW2 4938   0.474   0.718   3.943
 1347SOL     OW 4939   5.701   0.307   3.317
 1347SOL    HW1 4940   5.713   0.316   3.218
 1347SOL    HW2 4941   5.667   0.216   3.339
 1348SOL     OW 4942   4.105   5.784   4.555
 1348SOL    HW1 4943   4.102   5.758   4.652
 1348SOL    HW2 4944   4.013   5.780   4.516
 1349SOL     OW 4945   4.829   2.478   0.125
 1349SOL    HW1 4946   4.902   2.422   0.084
 1349SOL    HW2 4947   4.806   2.441   0.215
 1350SOL     OW 4948   3.627   6.928   5.603
 1350SOL    HW1 4949   3.653   7.022   5.625
 1350SOL    HW2 4950   3.545   6.929   5.545
 1351SOL     OW 4951   0.625   1.553   4.586
 1351SOL    HW1 4952   0.712   1.512   4.561
 1351SOL    HW2 4953   0.579   1.588   4.504
 1352SOL     OW 4954   0.740   6.708   4.157
 1352SOL    HW1 4955   0.647   6.706   4.196
 1352SOL    HW2 4956   0.782   6.618   4.166
 1353SOL     OW 4957   1.564   3.110   4.191
 1353SOL    HW1 4958   1.592   3.017   4.166
 1353SOL    HW2 4959   1.645   3.168   4.200
 1354SOL     OW 4960   0.326   6.588   0.771
 1354SOL    HW1 4961   0.402   6.581   0.706
 1354SOL    HW2 4962   0.355   6.554   0.860
 1355SOL     OW 4963   4.432   3.368   0.170
 1355SOL    HW1 4964   4.405   3.446   0.227
 1355SOL    HW2 4965   4.384   3.286   0.200
 1356SOL     OW 4966   3.058   3.461   1.595
 1356SOL    HW1 4967   3.020   3.386   1.650
 1356SOL    HW2 4968   3.059   3.434   1.499
 1357SOL     OW 4969   2.701   2.856   5.674
 1357SOL    HW1 4970   2.683   2.916   5.752
 1357SOL    HW2 4971   2.631   2.871   5.604
 1358SOL     OW 4972   2.197   3.431   6.057
 1358SOL    HW1 4973   2.133   3.474   5.994
 1358SOL    HW2 4974   2.169   3.337   6.074
 1359SOL     OW 4975   6.693   0.996   0.120
 1359SOL    HW1 4976   6.774   1.012   0.177
 1359SOL    HW2 4977   6.686   1.069   0.053
 1360SOL     OW 4978   3.259   2.984   4.067
 1360SOL    HW1 4979   3.347   3.031   4.070
 1360SOL    HW2 4980   3.224   2.985   3.973
 1361SOL     OW 4981   1.103   5.844   1.309
 1361SOL    HW1 4982   1.171   5.913   1.336
 1361SOL    HW2 4983   1.143   5.752   1.320
 1362SOL     OW 4984   3.092   2.530   6.465
 1362SOL    HW1 4985   3.118   2.529   6.369
 1362SOL    HW2 4986   3.088   2.437   6.500
 1363SOL     OW 4987   6.849   6.540   1.902
 1363SOL    HW1 4988   6.779   6.469   1.911
 1363SOL    HW2 4989   6.933   6.510   1.947
 1364SOL     OW 4990   0.580   4.056   0.649
 1364SOL    HW1 4991   0.579   3.956   0.655
 1364SOL    HW2 4992   0.650   4.092   0.712
 1365SOL     OW 4993   0.523   3.984   5.365
 1365SOL    HW1 4994   0.431   4.023   5.368
 1365SOL    HW2 4995   0.523   3.906   5.302
 1366SOL     OW 4996   4.804   0.455   0.902
 1366SOL    HW1 4997   4.725   0.469   0.843
 1366SOL    HW2 4998   4.873   0.525   0.883
 1367SOL     OW 4999   1.147   6.632   4.424
 1367SOL    HW1 5000   1.177   6.599   4.513
 1367SOL    HW2 5001   1.218   6.616   4.356
 1368SOL     OW 5002   1.213   6.424   5.227
 1368SOL    HW1 5003   1.179   6.480   5.303
 1368SOL    HW2 5004   1.273   6.480   5.170
 1369SOL     OW 5005   2.762   5.992   3.536
 1369SOL    HW1 5006   2.726   5.913   3.488
 1369SOL    HW2 5007   2.742   6.075   3.484
 1370SOL     OW 5008   6.898   2.482   2.674
 1370SOL    HW1 5009   6.960   2.461   2.750
 1370SOL    HW2 5010   6.845   2.401   2.651
 1371SOL     OW 5011   5.765   1.908   5.631
 1371SOL    HW1 5012   5.839   1.943   5.689
 1371SOL    HW2 5013   5.699   1.860   5.688
 1372SOL     OW 5014   6.170   2.581   0.950
 1372SOL    HW1 5015   6.207   2.547   1.037
 1372SOL    HW2 5016   6.209   2.670   0.930
 1373SOL     OW 5017   5.695   2.307   1.536
 1373SOL    HW1 5018   5.616   2.275   1.587
 1373SOL    HW2 5019   5.742   2.378   1.588
 1374SOL     OW 5020   3.966   4.103   1.476
 1374SOL    HW1 5021   3.988   4.160   1.397
 1374SOL    HW2 5022   4.049   4.084   1.528
 1375SOL     OW 5023   5.485   5.123   3.985
 1375SOL    HW1 5024   5.493   5.025   3.967
 1375SOL    HW2 5025   5.388   5.148   3.988
 1376SOL     OW 5026   2.782   4.588   6.064
 1376SOL    HW1 5027   2.754   4.681   6.086
 1376SOL    HW2 5028   2.712   4.523   6.094
 1377SOL     OW 5029   2.128   1.717   2.725
 1377SOL    HW1 5030   2.098   1.808   2.755
 1377SOL    HW2 5031   2.166   1.667   2.802
 1378SOL     OW 5032   5.465   2.553   4.007
 1378SOL    HW1 5033   5.531   2.625   4.026
 1378SOL    HW2 5034   5.455   2.541   3.909
 1379SOL     OW 5035   4.672   5.557   0.974
 1379SOL    HW1 5036   4.715   5.607   0.899
 1379SOL    HW2 5037   4.693   5.602   1.060
 1380SOL     OW 5038   0.081   6.272   2.487
 1380SOL    HW1 5039   0.042   6.214   2.416
 1380SOL    HW2 5040   0.007   6.309   2.543
 1381SOL     OW 5041   6.039   2.524   6.287
 1381SOL    HW1 5042   6.056   2.616   6.323
 1381SOL    HW2 5043   6.050   2.457   6.360
 1382SOL     OW 5044   4.393   2.867   6.970
 1382SOL    HW1 5045   4.409   2.769   6.981
 1382SOL    HW2 5046   4.442   2.901   6.891
 1383SOL     OW 5047   0.169   0.381   1.454
 1383SOL    HW1 5048   0.122   0.426   1.530
 1383SOL    HW2 5049   0.187   0.447   1.381
 1384SOL     OW 5050   6.476   1.464   1.940
 1384SOL    HW1 5051   6.394   1.515   1.914
 1384SOL    HW2 5052   6.449   1.385   1.996
 1385SOL     OW 5053   0.545   5.526   1.070
 1385SOL    HW1 5054   0.567   5.472   1.151
 1385SOL    HW2 5055   0.617   5.595   1.056
 1386SOL     OW 5056   2.223   5.791   4.276
 1386SOL    HW1 5057   2.182   5.717   4.330
 1386SOL    HW2 5058   2.152   5.854   4.246
 1387SOL     OW 5059   2.477   6.368   1.797
 1387SOL    HW1 5060   2.513   6.350   1.705
 1387SOL    HW2 5061   2.474   6.283   1.849
 1388SOL     OW 5062   0.184   0.742   1.646
 1388SOL    HW1 5063   0.207   0.770   1.552
 1388SOL    HW2 5064   0.109   0.677   1.644
 1389SOL     OW 5065   6.562   1.105   2.237
 1389SOL    HW1 5066   6.483   1.042   2.235
 1389SOL    HW2 5067   6.613   1.097   2.152
 1390SOL     OW 5068   1.162   1.627   5.093
 1390SOL    HW1 5069   1.202   1.546   5.135
 1390SOL    HW2 5070   1.208   1.709   5.127
 1391SOL     OW 5071   0.159   2.937   3.299
 1391SOL    HW1 5072   0.214   2.867   3.254
 1391SOL    HW2 5073   0.075   2.896   3.335
 1392SOL     OW 5074   4.709   4.764   4.535
 1392SOL    HW1 5075   4.670   4.677   4.505
 1392SOL    HW2 5076   4.725   4.763   4.633
 1393SOL     OW 5077   3.146   6.255   6.147
 1393SOL    HW1 5078   3.097   6.338   6.121
 1393SOL    HW2 5079   3.104   6.175   6.103
 1394SOL     OW 5080   1.596   6.455   6.036
 1394SOL    HW1 5081   1.511   6.414   6.069
 1394SOL    HW2 5082   1.609   6.433   5.940
 1395SOL     OW 5083   3.602   4.142   5.458
 1395SOL    HW1 5084   3.656   4.135   5.542
 1395SOL    HW2 5085   3.634   4.219   5.404
 1396SOL     OW 5086   6.099   6.244   4.092
 1396SOL    HW1 5087   6.035   6.283   4.159
 1396SOL    HW2 5088   6.122   6.151   4.118
 1397SOL     OW 5089   4.515   6.269   5.237
 1397SOL    HW1 5090   4.451   6.217   5.293
 1397SOL    HW2 5091   4.503   6.245   5.141
 1398SOL     OW 5092   2.120   1.029   4.080
 1398SOL    HW1 5093   2.166   0.988   4.001
 1398SOL    HW2 5094   2.098   0.957   4.146
 1399SOL     OW 5095   3.232   6.728   1.785
 1399SOL    HW1 5096   3.204   6.635   1.810
 1399SOL    HW2 5097   3.162   6.792   1.815
 1400SOL     OW 5098   2.170   6.836   2.126
 1400SOL    HW1 5099   2.105   6.775   2.081
 1400SOL    HW2 5100   2.260   6.827   2.084
 1401SOL     OW 5101   6.529   1.059   4.458
 1401SOL    HW1 5102   6.525   1.159   4.461
 1401SOL    HW2 5103   6.460   1.021   4.519
 1402SOL     OW 5104   6.990   3.137   0.321
 1402SOL    HW1 5105   6.947   3.220   0.357
 1402SOL    HW2 5106   0.038   3.107   0.384
 1403SOL     OW 5107   3.124   0.862   2.487
 1403SOL    HW1 5108   3.168   0.945   2.520
 1403SOL    HW2 5109   3.156   0.840   2.395
 1404SOL     OW 5110   5.472   1.374   0.362
 1404SOL    HW1 5111   5.385   1.411   0.395
 1404SOL    HW2 5112   5.515   1.320   0.434
 1405SOL     OW 5113   2.585   3.291   0.863
 1405SOL    HW1 5114   2.540   3.213   0.819
 1405SOL    HW2 5115   2.577   3.282   0.963
 1406SOL     OW 5116   1.429   4.072   1.065
 1406SOL    HW1 5117   1.450   4.127   1.146
 1406SOL    HW2 5118   1.337   4.096   1.033
 1407SOL     OW 5119   6.290   2.540   2.886
 1407SOL    HW1 5120   6.257   2.570   2.976
 1407SOL    HW2 5121   6.349   2.461   2.898
 1408SOL     OW 5122   6.387   0.164   6.530
 1408SOL    HW1 5123   6.447   0.145   6.607
 1408SOL    HW2 5124   6.421   0.117   6.448
 1409SOL     OW 5125   0.707   1.285   4.298
 1409SOL    HW1 5126   0.697   1.186   4.288
 1409SOL    HW2 5127   0.704   1.328   4.208
 1410SOL     OW 5128   0.479   2.678   0.193
 1410SOL    HW1 5129   0.478   2.585   0.229
 1410SOL    HW2 5130   0.490   2.676   0.094
 1411SOL     OW 5131   2.016   0.066   1.140
 1411SOL    HW1 5132   2.108   0.102   1.157
 1411SOL    HW2 5133   2.010   6.995   1.172
 1412SOL     OW 5134   1.307   3.227   0.382
 1412SOL    HW1 5135   1.279   3.239   0.477
 1412SOL    HW2 5136   1.307   3.130   0.358
 1413SOL     OW 5137   2.782   0.080   4.385
 1413SOL    HW1 5138   2.848   0.124   4.323
 1413SOL    HW2 5139   2.700   0.055   4.334
 1414SOL     OW 5140   2.332   1.282   1.449
 1414SOL    HW1 5141   2.373   1.373   1.450
 1414SOL    HW2 5142   2.273   1.273   1.369
 1415SOL     OW 5143   4.382   6.036   6.019
 1415SOL    HW1 5144   4.462   5.981   6.043
 1415SOL    HW2 5145   4.362   6.100   6.093
 1416SOL     OW 5146   4.410   5.913   2.414
 1416SOL    HW1 5147   4.495   5.966   2.416
 1416SOL    HW2 5148   4.363   5.920   2.502
 1417SOL     OW 5149   3.180   1.830   5.931
 1417SOL    HW1 5150   3.217   1.916   5.965
 1417SOL    HW2 5151   3.247   1.787   5.871
 1418SOL     OW 5152   3.496   4.047   2.690
 1418SOL    HW1 5153   3.423   4.094   2.641
 1418SOL    HW2 5154   3.457   3.979   2.752
 1419SOL     OW 5155   4.934   6.822   5.004
 1419SOL    HW1 5156   4.858   6.885   4.988
 1419SOL    HW2 5157   5.014   6.873   5.033
 1420SOL     OW 5158   0.765   6.202   2.448
 1420SOL    HW1 5159   0.760   6.257   2.531
 1420SOL    HW2 5160   0.704   6.240   2.379
 1421SOL     OW 5161   3.260   1.066   2.631
 1421SOL    HW1 5162   3.304   0.991   2.681
 1421SOL    HW2 5163   3.329   1.118   2.582
 1422SOL     OW 5164   2.648   6.412   0.206
 1422SOL    HW1 5165   2.634   6.319   0.240
 1422SOL    HW2 5166   2.743   6.439   0.221
 1423SOL     OW 5167   4.481   0.530   2.498
 1423SOL    HW1 5168   4.544   0.602   2.470
 1423SOL    HW2 5169   4.504   0.500   2.591
 1424SOL     OW 5170   6.680   4.832   3.501
 1424SOL    HW1 5171   6.622   4.874   3.431
 1424SOL    HW2 5172   6.629   4.758   3.546
 1425SOL     OW 5173   2.250   6.929   4.683
 1425SOL    HW1 5174   2.288   7.018   4.709
 1425SOL    HW2 5175   2.204   6.889   4.761
 1426SOL     OW 5176   0.899   1.541   5.838
 1426SOL    HW1 5177   0.921   1.603   5.762
 1426SOL    HW2 5178   0.820   1.576   5.888
 1427SOL     OW 5179   5.951   0.634   4.470
 1427SOL    HW1 5180   6.028   0.697   4.474
 1427SOL    HW2 5181   5.984   0.541   4.455
 1428SOL     OW 5182   5.087   1.295   0.116
 1428SOL    HW1 5183   5.152   1.260   0.184
 1428SOL    HW2 5184   5.125   1.377   0.074
 1429SOL     OW 5185   6.356   0.831   0.429
 1429SOL    HW1 5186   6.415   0.757   0.396
 1429SOL    HW2 5187   6.264   0.795   0.447
 1430SOL     OW 5188   2.043   4.928   3.703
 1430SOL    HW1 5189   2.008   5.020   3.686
 1430SOL    HW2 5190   2.045   4.910   3.802
 1431SOL     OW 5191   1.590   0.730   0.742
 1431SOL    HW1 5192   1.497   0.694   0.751
 1431SOL    HW2 5193   1.647   0.663   0.694
 1432SOL     OW 5194   2.101   0.803   2.005
 1432SOL    HW1 5195   2.163   0.756   2.068
 1432SOL    HW2 5196   2.127   0.899   1.998
 1433SOL     OW 5197   4.627   0.754   3.560
 1433SOL    HW1 5198   4.614   0.850   3.584
 1433SOL    HW2 5199   4.553   0.724   3.500
 1434SOL     OW 5200   1.203   0.632   5.513
 1434SOL    HW1 5201   1.190   0.712   5.571
 1434SOL    HW2 5202   1.298   0.600   5.522
 1435SOL     OW 5203   6.938   1.661   3.159
 1435SOL    HW1 5204   0.009   1.627   3.154
 1435SOL    HW2 5205   6.910   1.693   3.068
 1436SOL     OW 5206   4.005   3.564   0.811
 1436SOL    HW1 5207   4.061   3.533   0.734
 1436SOL    HW2 5208   3.966   3.485   0.858
 1437SOL     OW 5209   3.751   1.131   2.425
 1437SOL    HW1 5210   3.822   1.202   2.424
 1437SOL    HW2 5211   3.795   1.041   2.428
 1438SOL     OW 5212   2.226   0.289   1.173
 1438SOL    HW1 5213   2.209   0.287   1.074
 1438SOL    HW2 5214   2.324   0.283   1.189
 1439SOL     OW 5215   0.502   5.616   2.349
 1439SOL    HW1 5216   0.456   5.682   2.408
 1439SOL    HW2 5217   0.444   5.596   2.270
 1440SOL     OW 5218   2.585   3.524   1.660
 1440SOL    HW1 5219   2.515   3.532   1.731
 1440SOL    HW2 5220   2.652   3.455   1.687
 1441SOL     OW 5221   5.636   6.636   0.547
 1441SOL    HW1 5222   5.736   6.632   0.539
 1441SOL    HW2 5223   5.596   6.566   0.488
 1442SOL     OW 5224   5.482   5.806   1.023
 1442SOL    HW1 5225   5.494   5.746   1.103
 1442SOL    HW2 5226   5.385   5.816   1.003
 1443SOL     OW 5227   0.525   2.897   2.703
 1443SOL    HW1 5228   0.524   2.980   2.648
 1443SOL    HW2 5229   0.549   2.919   2.797
 1444SOL     OW 5230   6.359   4.601   6.620
 1444SOL    HW1 5231   6.433   4.641   6.673
 1444SOL    HW2 5232   6.274   4.605   6.673
 1445SOL     OW 5233   1.282   3.204   1.563
 1445SOL    HW1 5234   1.372   3.178   1.597
 1445SOL    HW2 5235   1.250   3.285   1.612
 1446SOL     OW 5236   6.449   6.683   0.710
 1446SOL    HW1 5237   6.448   6.693   0.810
 1446SOL    HW2 5238   6.517   6.745   0.671
 1447SOL     OW 5239   6.126   5.158   4.551
 1447SOL    HW1 5240   6.126   5.065   4.514
 1447SOL    HW2 5241   6.205   5.169   4.612
 1448SOL     OW 5242   1.503   2.902   5.527
 1448SOL    HW1 5243   1.406   2.906   5.500
 1448SOL    HW2 5244   1.509   2.879   5.624
 1449SOL     OW 5245   2.032   3.534   3.650
 1449SOL    HW1 5246   1.955   3.487   3.606
 1449SOL    HW2 5247   2.085   3.469   3.704
 1450SOL     OW 5248   2.194   2.941   4.034
 1450SOL    HW1 5249   2.245   2.857   4.015
 1450SOL    HW2 5250   2.098   2.929   4.007
 1451SOL     OW 5251   2.702   0.785   2.700
 1451SOL    HW1 5252   2.719   0.786   2.601
 1451SOL    HW2 5253   2.699   0.878   2.735
 1452SOL     OW 5254   5.199   2.540   6.386
 1452SOL    HW1 5255   5.120   2.591   6.352
 1452SOL    HW2 5256   5.270   2.536   6.315
 1453SOL     OW 5257   0.096   4.856   5.428
 1453SOL    HW1 5258   0.029   4.915   5.473
 1453SOL    HW2 5259   0.097   4.876   5.330
 1454SOL     OW 5260   3.740   1.950   3.619
 1454SOL    HW1 5261   3.722   1.982   3.712
 1454SOL    HW2 5262   3.679   1.996   3.555
 1455SOL     OW 5263   0.562   5.659   1.757
 1455SOL    HW1 5264   0.658   5.687   1.763
 1455SOL    HW2 5265   0.523   5.693   1.671
 1456SOL     OW 5266   6.591   5.003   4.526
 1456SOL    HW1 5267   6.509   4.955   4.555
 1456SOL    HW2 5268   6.566   5.090   4.484
 1457SOL     OW 5269   1.143   5.192   5.981
 1457SOL    HW1 5270   1.179   5.108   5.939
 1457SOL    HW2 5271   1.218   5.257   5.993
 1458SOL     OW 5272   5.006   5.194   5.283
 1458SOL    HW1 5273   5.058   5.188   5.368
 1458SOL    HW2 5274   4.997   5.103   5.243
 1459SOL     OW 5275   5.427   6.768   5.343
 1459SOL    HW1 5276   5.365   6.727   5.410
 1459SOL    HW2 5277   5.516   6.723   5.348
 1460SOL     OW 5278   1.284   6.175   5.246
 1460SOL    HW1 5279   1.238   6.263   5.240
 1460SOL    HW2 5280   1.349   6.176   5.322
 1461SOL     OW 5281   6.357   3.091   3.534
 1461SOL    HW1 5282   6.413   3.064   3.613
 1461SOL    HW2 5283   6.416   3.103   3.454
 1462SOL     OW 5284   0.548   0.969   1.851
 1462SOL    HW1 5285   0.549   0.963   1.951
 1462SOL    HW2 5286   0.527   1.063   1.823
 1463SOL     OW 5287   1.886   5.890   6.987
 1463SOL    HW1 5288   1.885   5.818   6.917
 1463SOL    HW2 5289   1.908   5.850   0.052
 1464SOL     OW 5290   1.002   3.849   3.927
 1464SOL    HW1 5291   1.098   3.846   3.900
 1464SOL    HW2 5292   0.991   3.912   4.004
 1465SOL     OW 5293   0.409   3.017   3.618
 1465SOL    HW1 5294   0.376   2.980   3.705
 1465SOL    HW2 5295   0.341   3.079   3.580
 1466SOL     OW 5296   5.213   2.415   2.456
 1466SOL    HW1 5297   5.268   2.482   2.506
 1466SOL    HW2 5298   5.116   2.435   2.471
 1467SOL     OW 5299   1.087   1.058   4.278
 1467SOL    HW1 5300   1.130   1.085   4.364
 1467SOL    HW2 5301   1.127   0.972   4.246
 1468SOL     OW 5302   2.453   5.351   2.823
 1468SOL    HW1 5303   2.360   5.344   2.787
 1468SOL    HW2 5304   2.517   5.311   2.758
 1469SOL     OW 5305   6.089   3.865   3.028
 1469SOL    HW1 5306   6.168   3.907   2.985
 1469SOL    HW2 5307   6.021   3.842   2.959
 1470SOL     OW 5308   6.484   1.237   1.502
 1470SOL    HW1 5309   6.512   1.324   1.543
 1470SOL    HW2 5310   6.398   1.249   1.454
 1471SOL     OW 5311   4.920   6.460   1.424
 1471SOL    HW1 5312   5.003   6.491   1.471
 1471SOL    HW2 5313   4.871   6.539   1.387
 1472SOL     OW 5314   1.736   0.106   6.179
 1472SOL    HW1 5315   1.766   0.052   6.101
 1472SOL    HW2 5316   1.765   0.201   6.167
 1473SOL     OW 5317   1.806   5.846   3.786
 1473SOL    HW1 5318   1.887   5.849   3.844
 1473SOL    HW2 5319   1.724   5.844   3.843
 1474SOL     OW 5320   2.789   5.334   1.417
 1474SOL    HW1 5321   2.760   5.251   1.464
 1474SOL    HW2 5322   2.789   5.319   1.318
 1475SOL     OW 5323   5.692   0.032   6.496
 1475SOL    HW1 5324   5.610   0.035   6.553
 1475SOL    HW2 5325   5.748   0.113   6.516
 1476SOL     OW 5326   4.559   0.896   0.799
 1476SOL    HW1 5327   4.474   0.947   0.807
 1476SOL    HW2 5328   4.634   0.960   0.780
 1477SOL     OW 5329   3.435   4.935   1.700
 1477SOL    HW1 5330   3.372   4.998   1.655
 1477SOL    HW2 5331   3.385   4.877   1.765
 1478SOL     OW 5332   4.982   5.287   6.733
 1478SOL    HW1 5333   4.893   5.242   6.737
 1478SOL    HW2 5334   5.050   5.222   6.698
 1479SOL     OW 5335   3.738   4.082   1.609
 1479SOL    HW1 5336   3.835   4.082   1.585
 1479SOL    HW2 5337   3.690   4.149   1.551
 1480SOL     OW 5338   3.282   0.621   4.731
 1480SOL    HW1 5339   3.288   0.630   4.632
 1480SOL    HW2 5340   3.258   0.526   4.754
 1481SOL     OW 5341   5.344   2.603   5.984
 1481SOL    HW1 5342   5.357   2.638   5.891
 1481SOL    HW2 5343   5.324   2.505   5.980
 1482SOL     OW 5344   4.958   1.238   0.938
 1482SOL    HW1 5345   4.908   1.197   1.014
 1482SOL    HW2 5346   5.056   1.227   0.952
 1483SOL     OW 5347   5.895   1.119   6.398
 1483SOL    HW1 5348   5.917   1.084   6.307
 1483SOL    HW2 5349   5.936   1.060   6.468
 1484SOL     OW 5350   3.677   5.806   5.069
 1484SOL    HW1 5351   3.679   5.740   5.144
 1484SOL    HW2 5352   3.616   5.882   5.094
 1485SOL     OW 5353   5.428   2.627   3.242
 1485SOL    HW1 5354   5.406   2.715   3.284
 1485SOL    HW2 5355   5.527   2.611   3.248
 1486SOL     OW 5356   4.730   6.789   3.737
 1486SOL    HW1 5357   4.769   6.711   3.785
 1486SOL    HW2 5358   4.630   6.781   3.736
 1487SOL     OW 5359   6.638   0.500   0.661
 1487SOL    HW1 5360   6.732   0.487   0.694
 1487SOL    HW2 5361   6.576   0.441   0.714
 1488SOL     OW 5362   6.604   1.834   2.474
 1488SOL    HW1 5363   6.579   1.804   2.566
 1488SOL    HW2 5364   6.618   1.755   2.415
 1489SOL     OW 5365   3.511   4.379   0.583
 1489SOL    HW1 5366   3.507   4.422   0.493
 1489SOL    HW2 5367   3.428   4.326   0.599
 1490SOL     OW 5368   6.715   2.551   2.170
 1490SOL    HW1 5369   6.743   2.523   2.262
 1490SOL    HW2 5370   6.649   2.485   2.134
 1491SOL     OW 5371   6.143   2.517   3.769
 1491SOL    HW1 5372   6.196   2.446   3.723
 1491SOL    HW2 5373   6.167   2.518   3.866
 1492SOL     OW 5374   6.352   1.261   3.276
 1492SOL    HW1 5375   6.302   1.317   3.209
 1492SOL    HW2 5376   6.335   1.297   3.368
 1493SOL     OW 5377   4.967   2.158   6.186
 1493SOL    HW1 5378   4.921   2.150   6.274
 1493SOL    HW2 5379   5.054   2.206   6.198
 1494SOL     OW 5380   6.591   4.574   5.547
 1494SOL    HW1 5381   6.509   4.535   5.506
 1494SOL    HW2 5382   6.629   4.510   5.614
 1495SOL     OW 5383   6.917   4.067   4.431
 1495SOL    HW1 5384   6.911   4.016   4.517
 1495SOL    HW2 5385   6.878   4.012   4.357
 1496SOL     OW 5386   6.526   5.644   6.047
 1496SOL    HW1 5387   6.606   5.629   5.988
 1496SOL    HW2 5388   6.519   5.741   6.070
 1497SOL     OW 5389   5.865   2.818   2.610
 1497SOL    HW1 5390   5.913   2.804   2.696
 1497SOL    HW2 5391   5.930   2.818   2.535
 1498SOL     OW 5392   3.373   3.757   0.730
 1498SOL    HW1 5393   3.369   3.761   0.830
 1498SOL    HW2 5394   3.280   3.751   0.693
 1499SOL     OW 5395   0.962   4.398   5.217
 1499SOL    HW1 5396   0.930   4.362   5.130
 1499SOL    HW2 5397   0.885   4.410   5.280
 1500SOL     OW 5398   0.756   6.176   2.064
 1500SOL    HW1 5399   0.793   6.204   1.975
 1500SOL    HW2 5400   0.736   6.257   2.119
 1501SOL     OW 5401   5.942   2.471   0.708
 1501SOL    HW1 5402   5.980   2.440   0.794
 1501SOL    HW2 5403   5.958   2.403   0.637
 1502SOL     OW 5404   6.330   0.060   6.004
 1502SOL    HW1 5405   6.303   0.012   6.088
 1502SOL    HW2 5406   6.383   7.022   5.946
 1503SOL     OW 5407   6.879   4.700   1.216
 1503SOL    HW1 5408   6.971   4.683   1.180
 1503SOL    HW2 5409   6.885   4.725   1.312
 1504SOL     OW 5410   1.732   6.924   2.175
 1504SOL    HW1 5411   1.746   6.829   2.204
 1504SOL    HW2 5412   1.810   6.953   2.119
 1505SOL     OW 5413   5.657   5.513   5.183
 1505SOL    HW1 5414   5.721   5.551   5.250
 1505SOL    HW2 5415   5.685   5.420   5.160
 1506SOL     OW 5416   0.382   1.771   1.002
 1506SOL    HW1 5417   0.383   1.818   0.914
 1506SOL    HW2 5418   0.372   1.673   0.988
 1507SOL     OW 5419   1.129   2.790   4.268
 1507SOL    HW1 5420   1.076   2.871   4.241
 1507SOL    HW2 5421   1.225   2.804   4.246
 1508SOL     OW 5422   1.481   0.422   1.233
 1508SOL    HW1 5423   1.526   0.502   1.273
 1508SOL    HW2 5424   1.386   0.419   1.263
 1509SOL     OW 5425   4.932   0.725   4.221
 1509SOL    HW1 5426   4.922   0.816   4.262
 1509SOL    HW2 5427   5.007   0.727   4.155
 1510SOL     OW 5428   3.561   5.794   4.531
 1510SOL    HW1 5429   3.502   5.735   4.587
 1510SOL    HW2 5430   3.521   5.886   4.527
 1511SOL     OW 5431   3.037   3.469   5.044
 1511SOL    HW1 5432   3.033   3.441   5.140
 1511SOL    HW2 5433   3.024   3.389   4.985
 1512SOL     OW 5434   5.865   6.471   0.922
 1512SOL    HW1 5435   5.820   6.556   0.951
 1512SOL    HW2 5436   5.912   6.485   0.835
 1513SOL     OW 5437   2.779   6.876   6.231
 1513SOL    HW1 5438   2.720   6.917   6.300
 1513SOL    HW2 5439   2.722   6.829   6.163
 1514SOL     OW 5440   2.819   2.688   5.930
 1514SOL    HW1 5441   2.890   2.701   5.998
 1514SOL    HW2 5442   2.767   2.606   5.950
 1515SOL     OW 5443   5.287   1.480   2.190
 1515SOL    HW1 5444   5.336   1.404   2.231
 1515SOL    HW2 5445   5.234   1.528   2.261
 1516SOL     OW 5446   6.078   0.458   5.207
 1516SOL    HW1 5447   6.138   0.524   5.162
 1516SOL    HW2 5448   6.102   0.451   5.304
 1517SOL     OW 5449   3.841   6.159   3.899
 1517SOL    HW1 5450   3.783   6.227   3.945
 1517SOL    HW2 5451   3.787   6.077   3.881
 1518SOL     OW 5452   0.983   3.032   0.161
 1518SOL    HW1 5453   0.973   2.938   0.128
 1518SOL    HW2 5454   0.953   3.037   0.256
 1519SOL     OW 5455   0.307   4.595   6.570
 1519SOL    HW1 5456   0.208   4.600   6.583
 1519SOL    HW2 5457   0.336   4.673   6.514
 1520SOL     OW 5458   0.539   6.208   2.744
 1520SOL    HW1 5459   0.627   6.235   2.706
 1520SOL    HW2 5460   0.477   6.182   2.670
 1521SOL     OW 5461   2.430   4.730   5.939
 1521SOL    HW1 5462   2.489   4.669   5.885
 1521SOL    HW2 5463   2.471   4.745   6.029
 1522SOL     OW 5464   5.376   5.959   4.023
 1522SOL    HW1 5465   5.399   5.890   4.092
 1522SOL    HW2 5466   5.428   6.043   4.042
 1523SOL     OW 5467   3.846   6.514   0.550
 1523SOL    HW1 5468   3.829   6.612   0.547
 1523SOL    HW2 5469   3.809   6.476   0.635
 1524SOL     OW 5470   2.535   1.783   2.999
 1524SOL    HW1 5471   2.542   1.804   2.902
 1524SOL    HW2 5472   2.461   1.836   3.040
 1525SOL     OW 5473   5.490   3.529   6.723
 1525SOL    HW1 5474   5.418   3.594   6.750
 1525SOL    HW2 5475   5.554   3.573   6.661
 1526SOL     OW 5476   1.150   1.168   6.830
 1526SOL    HW1 5477   1.065   1.152   6.880
 1526SOL    HW2 5478   1.228   1.142   6.887
 1527SOL     OW 5479   4.160   1.574   4.307
 1527SOL    HW1 5480   4.161   1.497   4.243
 1527SOL    HW2 5481   4.160   1.660   4.256
 1528SOL     OW 5482   3.777   3.742   2.039
 1528SOL    HW1 5483   3.857   3.784   2.082
 1528SOL    HW2 5484   3.752   3.658   2.088
 1529SOL     OW 5485   4.112   1.167   5.904
 1529SOL    HW1 5486   4.209   1.152   5.887
 1529SOL    HW2 5487   4.090   1.136   5.997
 1530SOL     OW 5488   3.323   6.233   1.224
 1530SOL    HW1 5489   3.286   6.210   1.134
 1530SOL    HW2 5490   3.251   6.275   1.280
 1531SOL     OW 5491   4.196   6.985   3.997
 1531SOL    HW1 5492   4.247   6.977   4.082
 1531SOL    HW2 5493   4.150   6.898   3.977
 1532SOL     OW 5494   3.247   5.827   6.467
 1532SOL    HW1 5495   3.326   5.768   6.487
 1532SOL    HW2 5496   3.272   5.893   6.396
 1533SOL     OW 5497   6.255   5.438   1.596
 1533SOL    HW1 5498   6.183   5.368   1.594
 1533SOL    HW2 5499   6.268   5.470   1.690
 1534SOL     OW 5500   3.707   5.356   6.467
 1534SOL    HW1 5501   3.671   5.358   6.374
 1534SOL    HW2 5502   3.642   5.401   6.528
 1535SOL     OW 5503   5.789   5.704   4.315
 1535SOL    HW1 5504   5.737   5.633   4.363
 1535SOL    HW2 5505   5.887   5.682   4.321
 1536SOL     OW 5506   4.949   2.977   6.024
 1536SOL    HW1 5507   4.954   2.974   5.924
 1536SOL    HW2 5508   4.853   2.967   6.052
 1537SOL     OW 5509   3.206   5.241   2.936
 1537SOL    HW1 5510   3.181   5.290   3.019
 1537SOL    HW2 5511   3.153   5.277   2.859
 1538SOL     OW 5512   2.798   1.496   0.239
 1538SOL    HW1 5513   2.872   1.476   0.174
 1538SOL    HW2 5514   2.822   1.576   0.293
 1539SOL     OW 5515   5.904   3.126   0.405
 1539SOL    HW1 5516   5.908   3.075   0.319
 1539SOL    HW2 5517   5.824   3.186   0.405
 1540SOL     OW 5518   3.306   6.966   4.636
 1540SOL    HW1 5519   3.209   6.983   4.620
 1540SOL    HW2 5520   3.320   6.870   4.657
 1541SOL     OW 5521   3.677   3.255   5.097
 1541SOL    HW1 5522   3.636   3.173   5.136
 1541SOL    HW2 5523   3.662   3.257   4.998
 1542SOL     OW 5524   0.277   0.150   2.766
 1542SOL    HW1 5525   0.371   0.119   2.781
 1542SOL    HW2 5526   0.236   0.095   2.693
 1543SOL     OW 5527   3.224   4.705   0.285
 1543SOL    HW1 5528   3.274   4.727   0.368
 1543SOL    HW2 5529   3.230   4.783   0.221
 1544SOL     OW 5530   3.702   3.353   4.395
 1544SOL    HW1 5531   3.647   3.270   4.398
 1544SOL    HW2 5532   3.674   3.415   4.469
 1545SOL     OW 5533   5.982   6.142   1.802
 1545SOL    HW1 5534   5.931   6.078   1.859
 1545SOL    HW2 5535   5.959   6.126   1.706
 1546SOL     OW 5536   5.201   6.946   5.609
 1546SOL    HW1 5537   5.151   0.009   5.617
 1546SOL    HW2 5538   5.298   6.962   5.627
 1547SOL     OW 5539   1.967   3.283   6.524
 1547SOL    HW1 5540   1.873   3.292   6.557
 1547SOL    HW2 5541   1.999   3.372   6.491
 1548SOL     OW 5542   6.097   2.071   6.770
 1548SOL    HW1 5543   6.104   1.974   6.796
 1548SOL    HW2 5544   6.189   2.111   6.768
 1549SOL     OW 5545   4.569   0.458   4.967
 1549SOL    HW1 5546   4.622   0.533   5.006
 1549SOL    HW2 5547   4.614   0.425   4.884
 1550SOL     OW 5548   3.849   3.085   3.966
 1550SOL    HW1 5549   3.809   3.174   3.944
 1550SOL    HW2 5550   3.787   3.012   3.936
 1551SOL     OW 5551   6.469   4.648   5.852
 1551SOL    HW1 5552   6.463   4.738   5.895
 1551SOL    HW2 5553   6.395   4.636   5.787
 1552SOL     OW 5554   1.584   4.138   1.608
 1552SOL    HW1 5555   1.553   4.218   1.659
 1552SOL    HW2 5556   1.516   4.064   1.618
 1553SOL     OW 5557   1.347   1.498   5.870
 1553SOL    HW1 5558   1.422   1.564   5.865
 1553SOL    HW2 5559   1.305   1.489   5.779
 1554SOL     OW 5560   2.870   1.124   4.036
 1554SOL    HW1 5561   2.947   1.061   4.051
 1554SOL    HW2 5562   2.900   1.200   3.979
 1555SOL     OW 5563   6.793   3.930   5.911
 1555SOL    HW1 5564   6.884   3.899   5.937
 1555SOL    HW2 5565   6.799   3.991   5.833
 1556SOL     OW 5566   2.329   0.768   6.150
 1556SOL    HW1 5567   2.345   0.723   6.062
 1556SOL    HW2 5568   2.231   0.776   6.166
 1557SOL     OW 5569   6.828   2.786   6.716
 1557SOL    HW1 5570   6.839   2.689   6.693
 1557SOL    HW2 5571   6.911   2.836   6.690
 1558SOL     OW 5572   0.205   6.933   4.874
 1558SOL    HW1 5573   0.271   6.929   4.949
 1558SOL    HW2 5574   0.246   6.979   4.796
 1559SOL     OW 5575   1.146   1.912   6.242
 1559SOL    HW1 5576   1.121   1.920   6.339
 1559SOL    HW2 5577   1.110   1.826   6.206
 1560SOL     OW 5578   6.440   0.059   6.264
 1560SOL    HW1 5579   6.514   0.049   6.198
 1560SOL    HW2 5580   6.383   0.136   6.238
 1561SOL     OW 5581   5.853   5.872   2.746
 1561SOL    HW1 5582   5.816   5.843   2.834
 1561SOL    HW2 5583   5.797   5.946   2.708
 1562SOL     OW 5584   5.922   0.963   3.361
 1562SOL    HW1 5585   5.863   0.883   3.354
 1562SOL    HW2 5586   5.870   1.046   3.340
 1563SOL     OW 5587   4.034   7.022   4.837
 1563SOL    HW1 5588   4.025   6.949   4.769
 1563SOL    HW2 5589   3.991   0.081   4.802
 1564SOL     OW 5590   1.724   1.708   2.814
 1564SOL    HW1 5591   1.797   1.690   2.880
 1564SOL    HW2 5592   1.654   1.765   2.856
 1565SOL     OW 5593   5.266   4.336   1.977
 1565SOL    HW1 5594   5.354   4.367   1.940
 1565SOL    HW2 5595   5.192   4.390   1.937
 1566SOL     OW 5596   5.859   4.527   3.300
 1566SOL    HW1 5597   5.899   4.556   3.213
 1566SOL    HW2 5598   5.920   4.553   3.375
 1567SOL     OW 5599   6.378   5.913   5.434
 1567SOL    HW1 5600   6.458   5.937   5.488
 1567SOL    HW2 5601   6.342   5.825   5.466
 1568SOL     OW 5602   0.512   6.635   0.553
 1568SOL    HW1 5603   0.518   6.729   0.518
 1568SOL    HW2 5604   0.591   6.616   0.610
 1569SOL     OW 5605   3.753   6.302   4.925
 1569SOL    HW1 5606   3.789   6.209   4.910
 1569SOL    HW2 5607   3.654   6.298   4.931
 1570SOL     OW 5608   3.444   1.957   1.618
 1570SOL    HW1 5609   3.454   2.008   1.703
 1570SOL    HW2 5610   3.475   1.863   1.631
 1571SOL     OW 5611   6.730   4.331   1.445
 1571SOL    HW1 5612   6.701   4.254   1.389
 1571SOL    HW2 5613   6.657   4.399   1.451
 1572SOL     OW 5614   1.604   6.330   2.125
 1572SOL    HW1 5615   1.579   6.331   2.222
 1572SOL    HW2 5616   1.552   6.258   2.078
 1573SOL     OW 5617   3.923   0.178   1.146
 1573SOL    HW1 5618   3.994   0.247   1.135
 1573SOL    HW2 5619   3.847   0.199   1.084
 1574SOL     OW 5620   6.064   2.702   2.433
 1574SOL    HW1 5621   6.005   2.677   2.356
 1574SOL    HW2 5622   6.099   2.619   2.477
 1575SOL     OW 5623   3.081   2.764   0.517
 1575SOL    HW1 5624   3.117   2.675   0.546
 1575SOL    HW2 5625   3.116   2.785   0.425
 1576SOL     OW 5626   6.797   6.071   3.980
 1576SOL    HW1 5627   6.703   6.106   3.980
 1576SOL    HW2 5628   6.798   5.980   3.938
 1577SOL     OW 5629   1.572   0.518   0.142
 1577SOL    HW1 5630   1.622   0.458   0.204
 1577SOL    HW2 5631   1.637   0.576   0.092
 1578SOL     OW 5632   5.738   5.365   4.482
 1578SOL    HW1 5633   5.751   5.434   4.553
 1578SOL    HW2 5634   5.644   5.330   4.486
 1579SOL     OW 5635   0.776   0.222   3.756
 1579SOL    HW1 5636   0.846   0.171   3.807
 1579SOL    HW2 5637   0.725   0.159   3.698
 1580SOL     OW 5638   3.262   3.927   5.786
 1580SOL    HW1 5639   3.262   3.988   5.707
 1580SOL    HW2 5640   3.208   3.845   5.765
 1581SOL     OW 5641   6.550   4.121   4.417
 1581SOL    HW1 5642   6.475   4.056   4.408
 1581SOL    HW2 5643   6.619   4.085   4.480
 1582SOL     OW 5644   6.018   5.365   4.439
 1582SOL    HW1 5645   6.058   5.282   4.479
 1582SOL    HW2 5646   5.919   5.367   4.459
 1583SOL     OW 5647   1.887   2.651   3.263
 1583SOL    HW1 5648   1.830   2.732   3.277
 1583SOL    HW2 5649   1.888   2.628   3.165
 1584SOL     OW 5650   2.316   0.681   6.770
 1584SOL    HW1 5651   2.303   0.683   6.671
 1584SOL    HW2 5652   2.382   0.752   6.796
 1585SOL     OW 5653   6.345   1.929   5.393
 1585SOL    HW1 5654   6.383   1.993   5.326
 1585SOL    HW2 5655   6.299   1.980   5.465
 1586SOL     OW 5656   3.531   4.023   3.165
 1586SOL    HW1 5657   3.491   3.932   3.175
 1586SOL    HW2 5658   3.459   4.092   3.165
 1587SOL     OW 5659   2.391   6.468   6.753
 1587SOL    HW1 5660   2.426   6.411   6.679
 1587SOL    HW2 5661   2.433   6.440   6.840
 1588SOL     OW 5662   5.932   3.895   1.722
 1588SOL    HW1 5663   6.022   3.932   1.746
 1588SOL    HW2 5664   5.896   3.943   1.642
 1589SOL     OW 5665   5.245   4.272   3.991
 1589SOL    HW1 5666   5.295   4.188   3.968
 1589SOL    HW2 5667   5.189   4.257   4.072
 1590SOL     OW 5668   1.803   0.708   6.150
 1590SOL    HW1 5669   1.837   0.715   6.056
 1590SOL    HW2 5670   1.871   0.661   6.206
 1591SOL     OW 5671   0.476   4.315   1.615
 1591SOL    HW1 5672   0.495   4.223   1.582
 1591SOL    HW2 5673   0.450   4.311   1.711
 1592SOL     OW 5674   2.903   3.421   2.998
 1592SOL    HW1 5675   2.886   3.423   2.900
 1592SOL    HW2 5676   2.949   3.336   3.022
 1593SOL     OW 5677   0.846   5.508   5.603
 1593SOL    HW1 5678   0.892   5.508   5.514
 1593SOL    HW2 5679   0.886   5.437   5.661
 1594SOL     OW 5680   0.164   4.816   3.486
 1594SOL    HW1 5681   0.234   4.780   3.423
 1594SOL    HW2 5682   0.201   4.895   3.535
 1595SOL     OW 5683   0.387   4.931   6.175
 1595SOL    HW1 5684   0.376   5.031   6.174
 1595SOL    HW2 5685   0.303   4.888   6.209
 1596SOL     OW 5686   3.060   5.192   6.732
 1596SOL    HW1 5687   3.113   5.133   6.672
 1596SOL    HW2 5688   2.972   5.212   6.690
 1597SOL     OW 5689   2.413   6.806   1.172
 1597SOL    HW1 5690   2.410   6.707   1.175
 1597SOL    HW2 5691   2.467   6.841   1.249
 1598SOL     OW 5692   0.062   5.572   1.539
 1598SOL    HW1 5693   0.030   5.478   1.536
 1598SOL    HW2 5694   0.107   5.596   1.453
 1599SOL     OW 5695   3.483   5.213   6.791
 1599SOL    HW1 5696   3.572   5.168   6.798
 1599SOL    HW2 5697   3.492   5.309   6.815
 1600SOL     OW 5698   3.670   1.813   4.924
 1600SOL    HW1 5699   3.678   1.740   4.992
 1600SOL    HW2 5700   3.752   1.814   4.866
 1601SOL     OW 5701   1.400   4.936   4.735
 1601SOL    HW1 5702   1.488   4.980   4.752
 1601SOL    HW2 5703   1.329   5.006   4.724
 1602SOL     OW 5704   0.612   4.953   2.935
 1602SOL    HW1 5705   0.556   4.871   2.947
 1602SOL    HW2 5706   0.570   5.011   2.864
 1603SOL     OW 5707   6.404   6.711   1.099
 1603SOL    HW1 5708   6.328   6.668   1.146
 1603SOL    HW2 5709   6.371   6.790   1.047
 1604SOL     OW 5710   0.340   5.697   5.197
 1604SOL    HW1 5711   0.292   5.638   5.262
 1604SOL    HW2 5712   0.432   5.662   5.182
 1605SOL     OW 5713   4.802   6.267   2.981
 1605SOL    HW1 5714   4.880   6.272   2.919
 1605SOL    HW2 5715   4.729   6.214   2.937
 1606SOL     OW 5716   5.061   0.145   6.087
 1606SOL    HW1 5717   5.047   0.061   6.035
 1606SOL    HW2 5718   5.146   0.139   6.138
 1607SOL     OW 5719   4.375   2.295   0.843
 1607SOL    HW1 5720   4.321   2.377   0.824
 1607SOL    HW2 5721   4.472   2.315   0.833
 1608SOL     OW 5722   2.487   0.163   0.588
 1608SOL    HW1 5723   2.431   0.164   0.671
 1608SOL    HW2 5724   2.437   0.117   0.515
 1609SOL     OW 5725   4.899   1.629   5.213
 1609SOL    HW1 5726   4.922   1.532   5.222
 1609SOL    HW2 5727   4.806   1.638   5.179
 1610SOL     OW 5728   5.410   5.715   4.185
 1610SOL    HW1 5729   5.470   5.731   4.263
 1610SOL    HW2 5730   5.450   5.645   4.126
 1611SOL     OW 5731   3.068   3.684   1.000
 1611SOL    HW1 5732   3.043   3.603   0.948
 1611SOL    HW2 5733   3.052   3.766   0.945
 1612SOL     OW 5734   3.469   1.113   4.491
 1612SOL    HW1 5735   3.552   1.155   4.454
 1612SOL    HW2 5736   3.466   1.017   4.464
 1613SOL     OW 5737   1.614   6.070   0.739
 1613SOL    HW1 5738   1.585   6.117   0.656
 1613SOL    HW2 5739   1.713   6.072   0.746
 1614SOL     OW 5740   0.050   2.934   6.647
 1614SOL    HW1 5741   0.121   2.880   6.602
 1614SOL    HW2 5742   0.091   2.987   6.722
 1615SOL     OW 5743   6.289   5.023   6.111
 1615SOL    HW1 5744   6.288   5.055   6.016
 1615SOL    HW2 5745   6.384   5.006   6.139
 1616SOL     OW 5746   2.526   1.722   5.436
 1616SOL    HW1 5747   2.467   1.755   5.510
 1616SOL    HW2 5748   2.489   1.751   5.348
 1617SOL     OW 5749   4.827   0.465   4.106
 1617SOL    HW1 5750   4.822   0.559   4.141
 1617SOL    HW2 5751   4.921   0.445   4.078
 1618SOL     OW 5752   5.596   2.281   1.155
 1618SOL    HW1 5753   5.564   2.352   1.217
 1618SOL    HW2 5754   5.693   2.294   1.137
 1619SOL     OW 5755   1.806   3.370   4.682
 1619SOL    HW1 5756   1.870   3.373   4.759
 1619SOL    HW2 5757   1.745   3.291   4.693
 1620SOL     OW 5758   3.821   5.385   1.595
 1620SOL    HW1 5759   3.834   5.469   1.543
 1620SOL    HW2 5760   3.910   5.344   1.615
 1621SOL     OW 5761   2.029   1.307   1.579
 1621SOL    HW1 5762   1.958   1.378   1.577
 1621SOL    HW2 5763   2.099   1.331   1.647
 1622SOL     OW 5764   2.331   2.205   4.304
 1622SOL    HW1 5765   2.340   2.184   4.207
 1622SOL    HW2 5766   2.420   2.232   4.341
 1623SOL     OW 5767   2.712   2.016   5.199
 1623SOL    HW1 5768   2.705   2.033   5.297
 1623SOL    HW2 5769   2.731   2.103   5.152
 1624SOL     OW 5770   2.595   0.426   0.542
 1624SOL    HW1 5771   2.636   0.461   0.459
 1624SOL    HW2 5772   2.559   0.334   0.526
 1625SOL     OW 5773   6.827   5.358   1.716
 1625SOL    HW1 5774   6.788   5.307   1.792
 1625SOL    HW2 5775   6.888   5.430   1.751
 1626SOL     OW 5776   1.962   2.886   6.054
 1626SOL    HW1 5777   1.931   2.916   6.144
 1626SOL    HW2 5778   2.061   2.895   6.048
 1627SOL     OW 5779   5.177   2.999   3.664
 1627SOL    HW1 5780   5.172   3.083   3.610
 1627SOL    HW2 5781   5.154   2.921   3.606
 1628SOL     OW 5782   2.795   3.154   0.556
 1628SOL    HW1 5783   2.809   3.234   0.614
 1628SOL    HW2 5784   2.883   3.107   0.542
 1629SOL     OW 5785   4.539   2.075   3.317
 1629SOL    HW1 5786   4.579   2.072   3.408
 1629SOL    HW2 5787   4.501   2.167   3.301
 1630SOL     OW 5788   0.248   5.180   4.588
 1630SOL    HW1 5789   0.155   5.198   4.619
 1630SOL    HW2 5790   0.245   5.121   4.507
 1631SOL     OW 5791   0.348   6.505   5.764
 1631SOL    HW1 5792   0.384   6.518   5.856
 1631SOL    HW2 5793   0.351   6.407   5.741
 1632SOL     OW 5794   6.070   0.264   1.568
 1632SOL    HW1 5795   6.063   0.333   1.640
 1632SOL    HW2 5796   6.017   0.294   1.488
 1633SOL     OW 5797   5.476   2.746   3.626
 1633SOL    HW1 5798   5.441   2.778   3.538
 1633SOL    HW2 5799   5.426   2.790   3.700
 1634SOL     OW 5800   3.461   0.998   0.256
 1634SOL    HW1 5801   3.560   1.001   0.244
 1634SOL    HW2 5802   3.440   0.986   0.353
 1635SOL     OW 5803   0.754   5.250   3.475
 1635SOL    HW1 5804   0.714   5.315   3.540
 1635SOL    HW2 5805   0.761   5.293   3.385
 1636SOL     OW 5806   2.509   6.553   1.499
 1636SOL    HW1 5807   2.514   6.582   1.595
 1636SOL    HW2 5808   2.495   6.454   1.495
 1637SOL     OW 5809   0.029   3.342   2.529
 1637SOL    HW1 5810   0.004   3.418   2.589
 1637SOL    HW2 5811   0.031   3.257   2.582
 1638SOL     OW 5812   1.832   3.225   5.326
 1638SOL    HW1 5813   1.749   3.235   5.381
 1638SOL    HW2 5814   1.862   3.130   5.329
 1639SOL     OW 5815   4.562   4.793   2.679
 1639SOL    HW1 5816   4.525   4.831   2.594
 1639SOL    HW2 5817   4.559   4.862   2.751
 1640SOL     OW 5818   6.085   0.240   1.083
 1640SOL    HW1 5819   6.003   0.266   1.133
 1640SOL    HW2 5820   6.067   0.242   0.985
 1641SOL     OW 5821   6.365   2.538   5.592
 1641SOL    HW1 5822   6.295   2.468   5.608
 1641SOL    HW2 5823   6.420   2.550   5.674
 1642SOL     OW 5824   0.026   2.294   1.473
 1642SOL    HW1 5825   6.970   2.348   1.448
 1642SOL    HW2 5826   0.097   2.353   1.509
 1643SOL     OW 5827   3.700   0.910   5.973
 1643SOL    HW1 5828   3.627   0.872   6.029
 1643SOL    HW2 5829   3.673   0.909   5.876
 1644SOL     OW 5830   3.536   1.184   1.430
 1644SOL    HW1 5831   3.615   1.223   1.478
 1644SOL    HW2 5832   3.549   1.086   1.420
 1645SOL     OW 5833   2.107   6.642   5.969
 1645SOL    HW1 5834   2.009   6.624   5.966
 1645SOL    HW2 5835   2.152   6.593   5.894
 1646SOL     OW 5836   0.729   3.735   0.755
 1646SOL    HW1 5837   0.747   3.822   0.802
 1646SOL    HW2 5838   0.667   3.680   0.810
 1647SOL     OW 5839   5.969   2.460   3.525
 1647SOL    HW1 5840   6.037   2.479   3.596
 1647SOL    HW2 5841   5.878   2.486   3.558
 1648SOL     OW 5842   4.669   6.827   2.402
 1648SOL    HW1 5843   4.626   6.912   2.370
 1648SOL    HW2 5844   4.763   6.846   2.429
 1649SOL     OW 5845   3.427   0.323   2.972
 1649SOL    HW1 5846   3.489   0.366   3.038
 1649SOL    HW2 5847   3.463   0.234   2.944
 1650SOL     OW 5848   3.301   6.564   3.940
 1650SOL    HW1 5849   3.388   6.595   3.978
 1650SOL    HW2 5850   3.232   6.637   3.948
 1651SOL     OW 5851   1.508   6.556   1.072
 1651SOL    HW1 5852   1.444   6.524   1.002
 1651SOL    HW2 5853   1.602   6.540   1.041
 1652SOL     OW 5854   2.883   2.941   1.465
 1652SOL    HW1 5855   2.878   2.841   1.469
 1652SOL    HW2 5856   2.818   2.975   1.397
 1653SOL     OW 5857   1.261   5.096   0.879
 1653SOL    HW1 5858   1.320   5.054   0.948
 1653SOL    HW2 5859   1.169   5.107   0.917
 1654SOL     OW 5860   0.300   2.599   3.519
 1654SOL    HW1 5861   0.309   2.515   3.573
 1654SOL    HW2 5862   0.387   2.621   3.477
 1655SOL     OW 5863   5.197   4.867   6.030
 1655SOL    HW1 5864   5.225   4.825   6.116
 1655SOL    HW2 5865   5.275   4.916   5.990
 1656SOL     OW 5866   0.390   3.836   3.526
 1656SOL    HW1 5867   0.488   3.827   3.513
 1656SOL    HW2 5868   0.357   3.916   3.476
 1657SOL     OW 5869   0.917   0.276   5.491
 1657SOL    HW1 5870   1.001   0.266   5.437
 1657SOL    HW2 5871   0.870   0.360   5.465
 1658SOL     OW 5872   6.232   5.849   2.802
 1658SOL    HW1 5873   6.229   5.948   2.813
 1658SOL    HW2 5874   6.219   5.825   2.705
 1659SOL     OW 5875   4.456   2.230   5.588
 1659SOL    HW1 5876   4.530   2.269   5.533
 1659SOL    HW2 5877   4.377   2.291   5.586
 1660SOL     OW 5878   1.771   5.813   3.427
 1660SOL    HW1 5879   1.753   5.719   3.400
 1660SOL    HW2 5880   1.867   5.824   3.453
 1661SOL     OW 5881   3.072   0.115   2.498
 1661SOL    HW1 5882   3.120   0.131   2.584
 1661SOL    HW2 5883   3.107   0.032   2.455
 1662SOL     OW 5884   0.642   0.059   3.589
 1662SOL    HW1 5885   0.563   0.006   3.619
 1662SOL    HW2 5886   0.693   0.008   3.521
 1663SOL     OW 5887   2.808   6.879   3.704
 1663SOL    HW1 5888   2.708   6.875   3.692
 1663SOL    HW2 5889   2.852   6.849   3.619
 1664SOL     OW 5890   2.502   5.667   4.263
 1664SOL    HW1 5891   2.450   5.672   4.348
 1664SOL    HW2 5892   2.446   5.702   4.188
 1665SOL     OW 5893   0.722   6.712   4.905
 1665SOL    HW1 5894   0.763   6.623   4.884
 1665SOL    HW2 5895   0.788   6.785   4.887
 1666SOL     OW 5896   5.605   3.028   6.366
 1666SOL    HW1 5897   5.522   2.975   6.348
 1666SOL    HW2 5898   5.580   3.122   6.389
 1667SOL     OW 5899   6.759   0.513   5.940
 1667SOL    HW1 5900   6.778   0.473   5.850
 1667SOL    HW2 5901   6.801   0.604   5.946
 1668SOL     OW 5902   3.231   0.982   5.227
 1668SOL    HW1 5903   3.203   0.971   5.131
 1668SOL    HW2 5904   3.253   1.077   5.245
 1669SOL     OW 5905   5.656   6.683   6.301
 1669SOL    HW1 5906   5.574   6.629   6.320
 1669SOL    HW2 5907   5.657   6.709   6.204
 1670SOL     OW 5908   5.641   3.754   5.718
 1670SOL    HW1 5909   5.559   3.793   5.759
 1670SOL    HW2 5910   5.617   3.668   5.672
 1671SOL     OW 5911   5.556   4.792   6.760
 1671SOL    HW1 5912   5.476   4.769   6.816
 1671SOL    HW2 5913   5.632   4.732   6.783
 1672SOL     OW 5914   2.220   5.301   2.631
 1672SOL    HW1 5915   2.178   5.235   2.693
 1672SOL    HW2 5916   2.191   5.282   2.537
 1673SOL     OW 5917   6.845   1.483   3.622
 1673SOL    HW1 5918   6.866   1.474   3.719
 1673SOL    HW2 5919   6.759   1.533   3.611
 1674SOL     OW 5920   1.336   5.052   6.499
 1674SOL    HW1 5921   1.247   5.096   6.486
 1674SOL    HW2 5922   1.328   4.981   6.569
 1675SOL     OW 5923   4.763   2.697   6.970
 1675SOL    HW1 5924   4.853   2.740   6.960
 1675SOL    HW2 5925   4.768   2.627   0.017
 1676SOL     OW 5926   2.665   0.930   3.452
 1676SOL    HW1 5927   2.602   0.979   3.392
 1676SOL    HW2 5928   2.641   0.833   3.453
 1677SOL     OW 5929   6.554   0.733   4.781
 1677SOL    HW1 5930   6.487   0.765   4.848
 1677SOL    HW2 5931   6.620   0.673   4.826
 1678SOL     OW 5932   5.057   6.938   1.112
 1678SOL    HW1 5933   4.959   6.924   1.096
 1678SOL    HW2 5934   5.110   6.886   1.046
 1679SOL     OW 5935   6.061   4.256   0.093
 1679SOL    HW1 5936   5.970   4.296   0.083
 1679SOL    HW2 5937   6.060   4.188   0.167
 1680SOL     OW 5938   1.125   2.229   4.754
 1680SOL    HW1 5939   1.219   2.200   4.735
 1680SOL    HW2 5940   1.124   2.327   4.771
 1681SOL     OW 5941   5.689   5.583   1.329
 1681SOL    HW1 5942   5.626   5.581   1.406
 1681SOL    HW2 5943   5.641   5.614   1.246
 1682SOL     OW 5944   6.488   3.512   5.788
 1682SOL    HW1 5945   6.414   3.578   5.798
 1682SOL    HW2 5946   6.563   3.538   5.849
 1683SOL     OW 5947   6.216   5.823   6.866
 1683SOL    HW1 5948   6.267   5.766   6.802
 1683SOL    HW2 5949   6.118   5.818   6.846
 1684SOL     OW 5950   0.522   5.547   4.613
 1684SOL    HW1 5951   0.497   5.497   4.530
 1684SOL    HW2 5952   0.515   5.646   4.596
 1685SOL     OW 5953   1.590   1.811   0.170
 1685SOL    HW1 5954   1.640   1.820   0.084
 1685SOL    HW2 5955   1.636   1.745   0.229
 1686SOL     OW 5956   1.976   6.060   6.530
 1686SOL    HW1 5957   1.974   6.071   6.630
 1686SOL    HW2 5958   1.913   6.126   6.489
 1687SOL     OW 5959   1.516   6.984   1.749
 1687SOL    HW1 5960   1.542   6.911   1.687
 1687SOL    HW2 5961   1.595   0.020   1.765
 1688SOL     OW 5962   0.112   1.649   3.638
 1688SOL    HW1 5963   0.059   1.677   3.559
 1688SOL    HW2 5964   0.083   1.558   3.668
 1689SOL     OW 5965   3.382   1.391   2.785
 1689SOL    HW1 5966   3.287   1.367   2.767
 1689SOL    HW2 5967   3.441   1.312   2.769
 1690SOL     OW 5968   0.262   2.105   0.892
 1690SOL    HW1 5969   0.283   2.007   0.895
 1690SOL    HW2 5970   0.227   2.129   0.802
 1691SOL     OW 5971   4.504   4.850   2.407
 1691SOL    HW1 5972   4.463   4.759   2.397
 1691SOL    HW2 5973   4.439   4.920   2.380
 1692SOL     OW 5974   1.547   0.517   3.764
 1692SOL    HW1 5975   1.647   0.514   3.764
 1692SOL    HW2 5976   1.515   0.546   3.854
 1693SOL     OW 5977   2.727   2.342   3.827
 1693SOL    HW1 5978   2.653   2.370   3.889
 1693SOL    HW2 5979   2.710   2.381   3.736
 1694SOL     OW 5980   4.743   5.974   5.803
 1694SOL    HW1 5981   4.779   6.046   5.863
 1694SOL    HW2 5982   4.704   6.016   5.721
 1695SOL     OW 5983   2.562   1.759   6.108
 1695SOL    HW1 5984   2.621   1.777   6.187
 1695SOL    HW2 5985   2.503   1.838   6.092
 1696SOL     OW 5986   3.317   5.818   1.444
 1696SOL    HW1 5987   3.239   5.823   1.382
 1696SOL    HW2 5988   3.400   5.799   1.392
 1697SOL     OW 5989   1.335   1.315   1.769
 1697SOL    HW1 5990   1.275   1.381   1.815
 1697SOL    HW2 5991   1.288   1.228   1.758
 1698SOL     OW 5992   5.147   2.179   0.914
 1698SOL    HW1 5993   5.176   2.232   0.995
 1698SOL    HW2 5994   5.081   2.233   0.861
 1699SOL     OW 5995   2.535   3.980   1.117
 1699SOL    HW1 5996   2.548   3.935   1.028
 1699SOL    HW2 5997   2.488   4.067   1.103
 1700SOL     OW 5998   6.528   3.048   4.508
 1700SOL    HW1 5999   6.594   3.041   4.583
 1700SOL    HW2 6000   6.540   2.970   4.446
 1701SOL     OW 6001   6.178   3.434   4.647
 1701SOL    HW1 6002   6.202   3.414   4.552
 1701SOL    HW2 6003   6.078   3.435   4.657
 1702SOL     OW 6004   4.796   2.667   1.592
 1702SOL    HW1 6005   4.882   2.715   1.577
 1702SOL    HW2 6006   4.729   2.730   1.631
 1703SOL     OW 6007   2.036   4.585   0.303
 1703SOL    HW1 6008   2.019   4.544   0.392
 1703SOL    HW2 6009   1.950   4.619   0.265
 1704SOL     OW 6010   1.158   1.062   1.825
 1704SOL    HW1 6011   1.113   1.073   1.914
 1704SOL    HW2 6012   1.188   0.967   1.814
 1705SOL     OW 6013   3.941   3.410   2.255
 1705SOL    HW1 6014   3.890   3.337   2.210
 1705SOL    HW2 6015   4.023   3.372   2.298
 1706SOL     OW 6016   2.603   0.676   6.624
 1706SOL    HW1 6017   2.628   0.646   6.716
 1706SOL    HW2 6018   2.649   0.762   6.604
 1707SOL     OW 6019   6.328   1.526   2.760
 1707SOL    HW1 6020   6.252   1.527   2.825
 1707SOL    HW2 6021   6.406   1.479   2.800
 1708SOL     OW 6022   0.385   4.732   2.137
 1708SOL    HW1 6023   0.378   4.722   2.037
 1708SOL    HW2 6024   0.305   4.779   2.172
 1709SOL     OW 6025   3.742   5.872   4.316
 1709SOL    HW1 6026   3.709   5.865   4.222
 1709SOL    HW2 6027   3.664   5.880   4.378
 1710SOL     OW 6028   0.194   6.000   4.137
 1710SOL    HW1 6029   0.163   5.974   4.046
 1710SOL    HW2 6030   0.188   5.921   4.198
 1711SOL     OW 6031   1.601   4.750   5.524
 1711SOL    HW1 6032   1.679   4.738   5.462
 1711SOL    HW2 6033   1.548   4.665   5.528
 1712SOL     OW 6034   1.201   4.748   1.116
 1712SOL    HW1 6035   1.105   4.765   1.096
 1712SOL    HW2 6036   1.251   4.834   1.122
 1713SOL     OW 6037   1.584   3.190   0.254
 1713SOL    HW1 6038   1.579   3.283   0.289
 1713SOL    HW2 6039   1.555   3.126   0.325
 1714SOL     OW 6040   3.649   1.518   0.384
 1714SOL    HW1 6041   3.732   1.540   0.332
 1714SOL    HW2 6042   3.618   1.426   0.360
 1715SOL     OW 6043   0.502   3.316   3.967
 1715SOL    HW1 6044   0.507   3.218   3.948
 1715SOL    HW2 6045   0.411   3.339   4.002
 1716SOL     OW 6046   0.024   6.475   0.393
 1716SOL    HW1 6047   0.102   6.457   0.333
 1716SOL    HW2 6048   0.014   6.400   0.458
 1717SOL     OW 6049   3.541   0.308   6.965
 1717SOL    HW1 6050   3.590   0.366   0.007
 1717SOL    HW2 6051   3.452   0.349   6.944
 1718SOL     OW 6052   1.025   5.092   5.620
 1718SOL    HW1 6053   1.006   5.004   5.663
 1718SOL    HW2 6054   1.029   5.080   5.521
 1719SOL     OW 6055   2.297   3.487   1.452
 1719SOL    HW1 6056   2.304   3.412   1.387
 1719SOL    HW2 6057   2.268   3.451   1.541
 1720SOL     OW 6058   6.586   1.416   1.707
 1720SOL    HW1 6059   6.569   1.426   1.805
 1720SOL    HW2 6060   6.670   1.364   1.693
 1721SOL     OW 6061   2.034   6.229   3.531
 1721SOL    HW1 6062   2.079   6.285   3.461
 1721SOL    HW2 6063   1.994   6.288   3.601
 1722SOL     OW 6064   5.708   6.854   2.212
 1722SOL    HW1 6065   5.657   6.879   2.295
 1722SOL    HW2 6066   5.770   6.778   2.233
 1723SOL     OW 6067   6.364   1.282   2.083
 1723SOL    HW1 6068   6.426   1.226   2.138
 1723SOL    HW2 6069   6.272   1.280   2.124
 1724SOL     OW 6070   4.777   0.435   0.263
 1724SOL    HW1 6071   4.755   0.360   0.327
 1724SOL    HW2 6072   4.876   0.439   0.249
 1725SOL     OW 6073   4.123   5.114   2.146
 1725SOL    HW1 6074   4.177   5.132   2.064
 1725SOL    HW2 6075   4.132   5.191   2.209
 1726SOL     OW 6076   0.170   4.999   4.363
 1726SOL    HW1 6077   0.080   4.989   4.405
 1726SOL    HW2 6078   0.169   4.955   4.273
 1727SOL     OW 6079   3.488   3.103   5.202
 1727SOL    HW1 6080   3.439   3.016   5.194
 1727SOL    HW2 6081   3.538   3.105   5.289
 1728SOL     OW 6082   4.601   4.367   3.512
 1728SOL    HW1 6083   4.696   4.385   3.484
 1728SOL    HW2 6084   4.558   4.306   3.446
 1729SOL     OW 6085   1.913   3.235   2.766
 1729SOL    HW1 6086   1.818   3.248   2.737
 1729SOL    HW2 6087   1.973   3.235   2.686
 1730SOL     OW 6088   5.926   2.201   4.521
 1730SOL    HW1 6089   5.844   2.148   4.501
 1730SOL    HW2 6090   5.988   2.146   4.577
 1731SOL     OW 6091   0.792   5.579   0.287
 1731SOL    HW1 6092   0.725   5.517   0.327
 1731SOL    HW2 6093   0.875   5.579   0.343
 1732SOL     OW 6094   0.378   4.603   6.828
 1732SOL    HW1 6095   0.301   4.593   6.764
 1732SOL    HW2 6096   0.344   4.601   6.922
 1733SOL     OW 6097   1.568   4.031   0.787
 1733SOL    HW1 6098   1.557   3.939   0.750
 1733SOL    HW2 6099   1.546   4.029   0.885
 1734SOL     OW 6100   4.878   2.947   1.144
 1734SOL    HW1 6101   4.978   2.944   1.151
 1734SOL    HW2 6102   4.838   2.872   1.198
 1735SOL     OW 6103   5.981   5.672   1.571
 1735SOL    HW1 6104   5.889   5.710   1.562
 1735SOL    HW2 6105   5.978   5.573   1.553
 1736SOL     OW 6106   3.044   3.919   0.858
 1736SOL    HW1 6107   3.065   3.874   0.771
 1736SOL    HW2 6108   2.947   3.945   0.860
 1737SOL     OW 6109   1.314   5.895   3.872
 1737SOL    HW1 6110   1.408   5.930   3.883
 1737SOL    HW2 6111   1.298   5.872   3.777
 1738SOL     OW 6112   1.094   2.127   1.528
 1738SOL    HW1 6113   1.170   2.190   1.514
 1738SOL    HW2 6114   1.129   2.034   1.536
 1739SOL     OW 6115   3.959   2.159   5.633
 1739SOL    HW1 6116   3.955   2.236   5.569
 1739SOL    HW2 6117   3.945   2.192   5.726
 1740SOL     OW 6118   1.011   1.032   5.649
 1740SOL    HW1 6119   0.958   1.012   5.731
 1740SOL    HW2 6120   1.043   1.126   5.651
 1741SOL     OW 6121   1.803   0.748   2.837
 1741SOL    HW1 6122   1.816   0.674   2.771
 1741SOL    HW2 6123   1.721   0.729   2.892
 1742SOL     OW 6124   5.820   6.683   4.429
 1742SOL    HW1 6125   5.858   6.626   4.355
 1742SOL    HW2 6126   5.738   6.639   4.466
 1743SOL     OW 6127   4.761   1.047   0.473
 1743SOL    HW1 6128   4.849   1.013   0.441
 1743SOL    HW2 6129   4.714   1.093   0.398
 1744SOL     OW 6130   3.057   0.774   1.561
 1744SOL    HW1 6131   2.994   0.700   1.539
 1744SOL    HW2 6132   3.150   0.747   1.535
 1745SOL     OW 6133   6.918   3.098   4.484
 1745SOL    HW1 6134   7.018   3.102   4.484
 1745SOL    HW2 6135   6.881   3.190   4.473
 1746SOL     OW 6136   2.837   0.524   5.872
 1746SOL    HW1 6137   2.837   0.531   5.972
 1746SOL    HW2 6138   2.827   0.428   5.845
 1747SOL     OW 6139   4.561   0.825   6.997
 1747SOL    HW1 6140   4.561   0.865   0.065
 1747SOL    HW2 6141   4.491   0.753   6.992
 1748SOL     OW 6142   6.240   1.666   1.907
 1748SOL    HW1 6143   6.235   1.595   1.837
 1748SOL    HW2 6144   6.284   1.747   1.869
 1749SOL     OW 6145   4.571   0.109   6.310
 1749SOL    HW1 6146   4.571   0.155   6.398
 1749SOL    HW2 6147   4.664   0.104   6.275
 1750SOL     OW 6148   5.140   0.434   3.400
 1750SOL    HW1 6149   5.190   0.437   3.313
 1750SOL    HW2 6150   5.130   0.527   3.435
 1751SOL     OW 6151   2.035   5.832   3.937
 1751SOL    HW1 6152   2.023   5.894   4.014
 1751SOL    HW2 6153   2.041   5.738   3.970
 1752SOL     OW 6154   6.668   2.216   0.326
 1752SOL    HW1 6155   6.613   2.144   0.368
 1752SOL    HW2 6156   6.633   2.305   0.355
 1753SOL     OW 6157   2.640   0.088   2.453
 1753SOL    HW1 6158   2.619   0.022   2.525
 1753SOL    HW2 6159   2.556   0.117   2.409
 1754SOL     OW 6160   3.960   2.501   1.035
 1754SOL    HW1 6161   3.958   2.460   1.126
 1754SOL    HW2 6162   3.897   2.452   0.974
 1755SOL     OW 6163   4.969   3.498   0.098
 1755SOL    HW1 6164   5.057   3.513   0.144
 1755SOL    HW2 6165   4.965   3.403   0.066
 1756SOL     OW 6166   5.776   5.614   4.624
 1756SOL    HW1 6167   5.693   5.663   4.652
 1756SOL    HW2 6168   5.855   5.675   4.632
 1757SOL     OW 6169   3.496   0.174   5.213
 1757SOL    HW1 6170   3.412   0.228   5.209
 1757SOL    HW2 6171   3.486   0.091   5.159
 1758SOL     OW 6172   2.711   1.145   3.244
 1758SOL    HW1 6173   2.729   1.215   3.312
 1758SOL    HW2 6174   2.780   1.073   3.250
 1759SOL     OW 6175   0.207   5.632   6.134
 1759SOL    HW1 6176   0.240   5.580   6.213
 1759SOL    HW2 6177   0.256   5.719   6.128
 1760SOL     OW 6178   5.542   0.489   2.195
 1760SOL    HW1 6179   5.582   0.557   2.133
 1760SOL    HW2 6180   5.615   0.446   2.248
 1761SOL     OW 6181   6.321   2.802   1.236
 1761SOL    HW1 6182   6.273   2.723   1.274
 1761SOL    HW2 6183   6.255   2.864   1.194
 1762SOL     OW 6184   5.935   2.080   0.238
 1762SOL    HW1 6185   5.903   2.126   0.321
 1762SOL    HW2 6186   5.895   1.989   0.233
 1763SOL     OW 6187   1.853   4.045   3.641
 1763SOL    HW1 6188   1.777   4.069   3.701
 1763SOL    HW2 6189   1.937   4.037   3.695
 1764SOL     OW 6190   6.520   2.911   4.166
 1764SOL    HW1 6191   6.421   2.907   4.149
 1764SOL    HW2 6192   6.542   2.862   4.250
 1765SOL     OW 6193   2.497   2.686   6.137
 1765SOL    HW1 6194   2.556   2.767   6.133
 1765SOL    HW2 6195   2.412   2.704   6.087
 1766SOL     OW 6196   6.097   3.124   5.491
 1766SOL    HW1 6197   6.095   3.052   5.421
 1766SOL    HW2 6198   6.004   3.147   5.519
 1767SOL     OW 6199   5.524   3.755   2.123
 1767SOL    HW1 6200   5.613   3.794   2.100
 1767SOL    HW2 6201   5.467   3.753   2.041
 1768SOL     OW 6202   5.849   6.253   3.955
 1768SOL    HW1 6203   5.943   6.265   3.986
 1768SOL    HW2 6204   5.787   6.304   4.014
 1769SOL     OW 6205   5.804   1.544   3.193
 1769SOL    HW1 6206   5.760   1.542   3.284
 1769SOL    HW2 6207   5.885   1.485   3.194
 1770SOL     OW 6208   2.721   5.243   5.082
 1770SOL    HW1 6209   2.698   5.317   5.145
 1770SOL    HW2 6210   2.819   5.244   5.062
 1771SOL     OW 6211   5.203   6.339   6.360
 1771SOL    HW1 6212   5.244   6.421   6.320
 1771SOL    HW2 6213   5.137   6.365   6.430
 1772SOL     OW 6214   3.572   6.221   2.457
 1772SOL    HW1 6215   3.606   6.220   2.363
 1772SOL    HW2 6216   3.502   6.151   2.468
 1773SOL     OW 6217   0.838   5.422   6.921
 1773SOL    HW1 6218   0.855   5.360   6.844
 1773SOL    HW2 6219   0.818   5.513   6.886
 1774SOL     OW 6220   3.342   5.023   1.993
 1774SOL    HW1 6221   3.435   4.992   1.971
 1774SOL    HW2 6222   3.276   4.966   1.945
 1775SOL     OW 6223   0.641   4.647   1.824
 1775SOL    HW1 6224   0.651   4.687   1.733
 1775SOL    HW2 6225   0.711   4.683   1.884
 1776SOL     OW 6226   3.157   5.497   4.941
 1776SOL    HW1 6227   3.231   5.563   4.943
 1776SOL    HW2 6228   3.070   5.545   4.929
 1777SOL     OW 6229   3.503   5.909   0.247
 1777SOL    HW1 6230   3.442   5.830   0.250
 1777SOL    HW2 6231   3.458   5.984   0.200
 1778SOL     OW 6232   6.204   3.744   5.585
 1778SOL    HW1 6233   6.232   3.772   5.492
 1778SOL    HW2 6234   6.143   3.666   5.579
 1779SOL     OW 6235   3.391   6.660   5.537
 1779SOL    HW1 6236   3.432   6.635   5.449
 1779SOL    HW2 6237   3.462   6.668   5.606
 1780SOL     OW 6238   3.339   3.627   6.464
 1780SOL    HW1 6239   3.298   3.697   6.405
 1780SOL    HW2 6240   3.275   3.550   6.474
 1781SOL     OW 6241   3.927   5.406   3.016
 1781SOL    HW1 6242   3.860   5.464   3.061
 1781SOL    HW2 6243   3.914   5.411   2.917
 1782SOL     OW 6244   3.426   1.808   4.158
 1782SOL    HW1 6245   3.516   1.832   4.194
 1782SOL    HW2 6246   3.383   1.890   4.119
 1783SOL     OW 6247   1.430   5.379   0.248
 1783SOL    HW1 6248   1.381   5.408   0.165
 1783SOL    HW2 6249   1.398   5.288   0.275
 1784SOL     OW 6250   3.447   6.340   5.347
 1784SOL    HW1 6251   3.482   6.362   5.438
 1784SOL    HW2 6252   3.473   6.411   5.283
 1785SOL     OW 6253   6.072   4.540   2.825
 1785SOL    HW1 6254   6.034   4.552   2.916
 1785SOL    HW2 6255   5.998   4.531   2.758
 1786SOL     OW 6256   3.257   2.719   1.076
 1786SOL    HW1 6257   3.185   2.768   1.125
 1786SOL    HW2 6258   3.311   2.665   1.142
 1787SOL     OW 6259   3.675   0.226   6.191
 1787SOL    HW1 6260   3.771   0.228   6.164
 1787SOL    HW2 6261   3.664   0.169   6.273
 1788SOL     OW 6262   1.823   4.746   5.346
 1788SOL    HW1 6263   1.870   4.719   5.429
 1788SOL    HW2 6264   1.844   4.682   5.272
 1789SOL     OW 6265   5.999   1.175   6.721
 1789SOL    HW1 6266   6.090   1.147   6.752
 1789SOL    HW2 6267   5.989   1.154   6.624
 1790SOL     OW 6268   3.844   6.746   2.793
 1790SOL    HW1 6269   3.808   6.686   2.722
 1790SOL    HW2 6270   3.944   6.746   2.790
 1791SOL     OW 6271   0.563   0.099   2.778
 1791SOL    HW1 6272   0.612   0.169   2.726
 1791SOL    HW2 6273   0.624   0.059   2.847
 1792SOL     OW 6274   1.359   3.372   5.541
 1792SOL    HW1 6275   1.459   3.363   5.548
 1792SOL    HW2 6276   1.316   3.283   5.557
 1793SOL     OW 6277   0.465   0.414   3.531
 1793SOL    HW1 6278   0.550   0.459   3.556
 1793SOL    HW2 6279   0.480   0.356   3.451
 1794SOL     OW 6280   4.584   5.894   6.138
 1794SOL    HW1 6281   4.574   5.830   6.214
 1794SOL    HW2 6282   4.629   5.849   6.061
 1795SOL     OW 6283   0.495   3.438   0.629
 1795SOL    HW1 6284   0.442   3.494   0.693
 1795SOL    HW2 6285   0.442   3.422   0.546
 1796SOL     OW 6286   3.263   0.286   6.571
 1796SOL    HW1 6287   3.316   0.208   6.604
 1796SOL    HW2 6288   3.170   0.256   6.550
 1797SOL     OW 6289   0.671   0.301   1.090
 1797SOL    HW1 6290   0.697   0.274   1.183
 1797SOL    HW2 6291   0.681   0.400   1.080
 1798SOL     OW 6292   5.692   2.573   3.159
 1798SOL    HW1 6293   5.757   2.622   3.101
 1798SOL    HW2 6294   5.667   2.486   3.115
 1799SOL     OW 6295   1.453   1.846   6.439
 1799SOL    HW1 6296   1.367   1.897   6.447
 1799SOL    HW2 6297   1.444   1.777   6.367
 1800SOL     OW 6298   3.966   5.387   2.366
 1800SOL    HW1 6299   4.043   5.436   2.324
 1800SOL    HW2 6300   3.885   5.445   2.364
 1801SOL     OW 6301   5.782   6.718   0.992
 1801SOL    HW1 6302   5.729   6.742   0.910
 1801SOL    HW2 6303   5.875   6.754   0.983
 1802SOL     OW 6304   5.523   5.529   4.030
 1802SOL    HW1 6305   5.489   5.469   3.958
 1802SOL    HW2 6306   5.609   5.571   4.000
 1803SOL     OW 6307   6.354   5.361   1.105
 1803SOL    HW1 6308   6.351   5.316   1.194
 1803SOL    HW2 6309   6.314   5.453   1.113
 1804SOL     OW 6310   3.148   3.157   5.153
 1804SOL    HW1 6311   3.081   3.228   5.176
 1804SOL    HW2 6312   3.165   3.100   5.233
 1805SOL     OW 6313   4.951   3.245   6.771
 1805SOL    HW1 6314   5.034   3.232   6.826
 1805SOL    HW2 6315   4.956   3.187   6.690
 1806SOL     OW 6316   0.657   6.768   1.473
 1806SOL    HW1 6317   0.680   6.679   1.433
 1806SOL    HW2 6318   0.741   6.820   1.487
 1807SOL     OW 6319   5.871   1.342   5.052
 1807SOL    HW1 6320   5.934   1.278   5.007
 1807SOL    HW2 6321   5.922   1.398   5.117
 1808SOL     OW 6322   1.574   4.912   3.860
 1808SOL    HW1 6323   1.569   4.911   3.960
 1808SOL    HW2 6324   1.508   4.847   3.823
 1809SOL     OW 6325   3.483   6.845   6.411
 1809SOL    HW1 6326   3.577   6.835   6.445
 1809SOL    HW2 6327   3.430   6.764   6.435
 1810SOL     OW 6328   3.320   6.212   2.885
 1810SOL    HW1 6329   3.384   6.175   2.953
 1810SOL    HW2 6330   3.367   6.219   2.797
 1811SOL     OW 6331   6.105   5.179   3.233
 1811SOL    HW1 6332   6.127   5.273   3.260
 1811SOL    HW2 6333   6.182   5.119   3.256
 1812SOL     OW 6334   4.018   5.177   6.401
 1812SOL    HW1 6335   3.943   5.242   6.394
 1812SOL    HW2 6336   4.013   5.130   6.489
 1813SOL     OW 6337   6.266   4.711   5.682
 1813SOL    HW1 6338   6.280   4.788   5.620
 1813SOL    HW2 6339   6.174   4.675   5.669
 1814SOL     OW 6340   4.909   6.894   1.864
 1814SOL    HW1 6341   4.963   6.815   1.893
 1814SOL    HW2 6342   4.960   6.978   1.880
 1815SOL     OW 6343   0.500   0.753   2.995
 1815SOL    HW1 6344   0.520   0.689   3.069
 1815SOL    HW2 6345   0.452   0.833   3.032
 1816SOL     OW 6346   0.549   4.353   0.175
 1816SOL    HW1 6347   0.602   4.274   0.207
 1816SOL    HW2 6348   0.452   4.335   0.187
 1817SOL     OW 6349   2.147   5.780   1.952
 1817SOL    HW1 6350   2.049   5.798   1.940
 1817SOL    HW2 6351   2.196   5.866   1.963
 1818SOL     OW 6352   2.589   1.333   3.065
 1818SOL    HW1 6353   2.524   1.400   3.100
 1818SOL    HW2 6354   2.619   1.273   3.139
 1819SOL     OW 6355   1.631   4.452   2.055
 1819SOL    HW1 6356   1.609   4.492   1.966
 1819SOL    HW2 6357   1.615   4.520   2.126
 1820SOL     OW 6358   5.127   0.129   2.861
 1820SOL    HW1 6359   5.138   0.030   2.873
 1820SOL    HW2 6360   5.045   0.158   2.911
 1821SOL     OW 6361   2.963   1.977   3.039
 1821SOL    HW1 6362   2.974   1.920   2.957
 1821SOL    HW2 6363   2.869   2.012   3.043
 1822SOL     OW 6364   3.536   3.080   1.638
 1822SOL    HW1 6365   3.562   3.085   1.735
 1822SOL    HW2 6366   3.618   3.089   1.581
 1823SOL     OW 6367   4.115   6.762   2.518
 1823SOL    HW1 6368   4.144   6.680   2.569
 1823SOL    HW2 6369   4.174   6.775   2.439
 1824SOL     OW 6370   5.088   2.670   1.324
 1824SOL    HW1 6371   5.111   2.597   1.388
 1824SOL    HW2 6372   5.172   2.717   1.295
 1825SOL     OW 6373   1.174   0.743   1.283
 1825SOL    HW1 6374   1.260   0.764   1.237
 1825SOL    HW2 6375   1.145   0.821   1.339
 1826SOL     OW 6376   3.145   6.655   6.764
 1826SOL    HW1 6377   3.054   6.686   6.736
 1826SOL    HW2 6378   3.180   6.590   6.696
 1827SOL     OW 6379   6.396   6.896   1.605
 1827SOL    HW1 6380   6.439   6.867   1.520
 1827SOL    HW2 6381   6.358   6.988   1.594
 1828SOL     OW 6382   1.699   2.218   0.072
 1828SOL    HW1 6383   1.629   2.183   0.009
 1828SOL    HW2 6384   1.695   2.168   0.158
 1829SOL     OW 6385   6.363   5.545   1.376
 1829SOL    HW1 6386   6.438   5.606   1.402
 1829SOL    HW2 6387   6.324   5.503   1.458
 1830SOL     OW 6388   5.160   6.400   4.075
 1830SOL    HW1 6389   5.071   6.438   4.097
 1830SOL    HW2 6390   5.215   6.391   4.158
 1831SOL     OW 6391   4.801   0.503   2.754
 1831SOL    HW1 6392   4.899   0.502   2.772
 1831SOL    HW2 6393   4.765   0.595   2.772
 1832SOL     OW 6394   5.265   2.825   0.524
 1832SOL    HW1 6395   5.211   2.866   0.597
 1832SOL    HW2 6396   5.305   2.739   0.556
 1833SOL     OW 6397   5.572   1.756   5.720
 1833SOL    HW1 6398   5.639   1.685   5.742
 1833SOL    HW2 6399   5.524   1.731   5.636
 1834SOL     OW 6400   2.770   3.587   0.424
 1834SOL    HW1 6401   2.714   3.644   0.363
 1834SOL    HW2 6402   2.710   3.523   0.473
 1835SOL     OW 6403   1.477   4.431   0.218
 1835SOL    HW1 6404   1.564   4.430   0.169
 1835SOL    HW2 6405   1.480   4.501   0.289
 1836SOL     OW 6406   0.454   5.711   0.777
 1836SOL    HW1 6407   0.358   5.737   0.787
 1836SOL    HW2 6408   0.507   5.750   0.852
 1837SOL     OW 6409   1.428   2.922   4.915
 1837SOL    HW1 6410   1.508   2.948   4.969
 1837SOL    HW2 6411   1.451   2.845   4.855
 1838SOL     OW 6412   6.717   2.597   4.499
 1838SOL    HW1 6413   6.772   2.601   4.582
 1838SOL    HW2 6414   6.642   2.532   4.512
 1839SOL     OW 6415   6.968   2.110   6.010
 1839SOL    HW1 6416   6.918   2.029   5.979
 1839SOL    HW2 6417   6.904   2.187   6.019
 1840SOL     OW 6418   1.410   4.989   1.101
 1840SOL    HW1 6419   1.405   5.004   1.200
 1840SOL    HW2 6420   1.495   5.027   1.066
 1841SOL     OW 6421   1.671   2.736   3.703
 1841SOL    HW1 6422   1.716   2.679   3.773
 1841SOL    HW2 6423   1.629   2.677   3.634
 1842SOL     OW 6424   1.055   4.438   7.022
 1842SOL    HW1 6425   0.962   4.402   7.013
 1842SOL    HW2 6426   1.121   4.369   6.994
 1843SOL     OW 6427   3.173   1.898   4.656
 1843SOL    HW1 6428   3.234   1.886   4.735
 1843SOL    HW2 6429   3.215   1.859   4.575
 1844SOL     OW 6430   4.979   3.218   3.975
 1844SOL    HW1 6431   4.978   3.316   3.955
 1844SOL    HW2 6432   5.073   3.187   3.987
 1845SOL     OW 6433   4.278   0.574   0.191
 1845SOL    HW1 6434   4.286   0.608   0.097
 1845SOL    HW2 6435   4.369   0.572   0.233
 1846SOL     OW 6436   3.287   1.213   5.406
 1846SOL    HW1 6437   3.386   1.208   5.422
 1846SOL    HW2 6438   3.258   1.309   5.407
 1847SOL     OW 6439   0.970   7.014   0.455
 1847SOL    HW1 6440   0.877   6.983   0.476
 1847SOL    HW2 6441   0.973   0.025   0.361
 1848SOL     OW 6442   3.403   6.663   2.080
 1848SOL    HW1 6443   3.316   6.633   2.118
 1848SOL    HW2 6444   3.403   6.762   2.069
 1849SOL     OW 6445   2.287   1.631   6.340
 1849SOL    HW1 6446   2.210   1.599   6.396
 1849SOL    HW2 6447   2.315   1.558   6.278
 1850SOL     OW 6448   5.754   1.689   2.084
 1850SOL    HW1 6449   5.748   1.782   2.047
 1850SOL    HW2 6450   5.664   1.646   2.081
 1851SOL     OW 6451   6.847   2.922   2.768
 1851SOL    HW1 6452   6.892   2.864   2.700
 1851SOL    HW2 6453   6.792   2.865   2.829
 1852SOL     OW 6454   5.322   3.141   6.945
 1852SOL    HW1 6455   5.373   3.209   6.892
 1852SOL    HW2 6456   5.353   3.049   6.920
 1853SOL     OW 6457   1.651   4.643   0.675
 1853SOL    HW1 6458   1.669   4.742   0.672
 1853SOL    HW2 6459   1.568   4.626   0.727
 1854SOL     OW 6460   3.009   6.056   4.239
 1854SOL    HW1 6461   2.977   5.962   4.244
 1854SOL    HW2 6462   3.017   6.084   4.143
 1855SOL     OW 6463   4.870   4.697   2.067
 1855SOL    HW1 6464   4.853   4.669   2.162
 1855SOL    HW2 6465   4.953   4.752   2.063
 1856SOL     OW 6466   4.771   2.487   5.595
 1856SOL    HW1 6467   4.803   2.394   5.579
 1856SOL    HW2 6468   4.771   2.538   5.509
 1857SOL     OW 6469   4.845   1.252   3.054
 1857SOL    HW1 6470   4.943   1.253   3.075
 1857SOL    HW2 6471   4.800   1.324   3.107
 1858SOL     OW 6472   5.062   4.353   3.774
 1858SOL    HW1 6473   4.970   4.382   3.800
 1858SOL    HW2 6474   5.121   4.354   3.854
 1859SOL     OW 6475   5.254   1.561   2.972
 1859SOL    HW1 6476   5.258   1.635   2.905
 1859SOL    HW2 6477   5.164   1.560   3.016
 1860SOL     OW 6478   4.471   1.531   4.780
 1860SOL    HW1 6479   4.389   1.474   4.771
 1860SOL    HW2 6480   4.448   1.614   4.832
 1861SOL     OW 6481   5.766   6.610   2.597
 1861SOL    HW1 6482   5.866   6.613   2.596
 1861SOL    HW2 6483   5.734   6.544   2.529
 1862SOL     OW 6484   2.117   1.680   0.099
 1862SOL    HW1 6485   2.135   1.771   0.063
 1862SOL    HW2 6486   2.201   1.625   0.095
 1863SOL     OW 6487   2.750   3.283   1.616
 1863SOL    HW1 6488   2.836   3.234   1.605
 1863SOL    HW2 6489   2.674   3.220   1.603
 1864SOL     OW 6490   1.141   6.411   4.103
 1864SOL    HW1 6491   1.166   6.321   4.069
 1864SOL    HW2 6492   1.111   6.468   4.026
 1865SOL     OW 6493   4.570   1.911   6.617
 1865SOL    HW1 6494   4.517   1.897   6.700
 1865SOL    HW2 6495   4.510   1.901   6.537
 1866SOL     OW 6496   4.739   5.181   2.894
 1866SOL    HW1 6497   4.785   5.267   2.915
 1866SOL    HW2 6498   4.797   5.126   2.834
 1867SOL     OW 6499   1.151   4.040   6.789
 1867SOL    HW1 6500   1.090   3.963   6.808
 1867SOL    HW2 6501   1.220   4.012   6.721
 1868SOL     OW 6502   5.915   3.785   4.786
 1868SOL    HW1 6503   5.975   3.843   4.731
 1868SOL    HW2 6504   5.951   3.691   4.787
 1869SOL     OW 6505   6.062   1.201   4.658
 1869SOL    HW1 6506   6.010   1.166   4.736
 1869SOL    HW2 6507   6.127   1.270   4.690
 1870SOL     OW 6508   1.944   5.381   4.649
 1870SOL    HW1 6509   2.040   5.407   4.640
 1870SOL    HW2 6510   1.937   5.297   4.704
 1871SOL     OW 6511   1.096   0.368   0.638
 1871SOL    HW1 6512   1.096   0.268   0.639
 1871SOL    HW2 6513   1.156   0.401   0.566
 1872SOL     OW 6514   2.381   4.794   0.344
 1872SOL    HW1 6515   2.384   4.723   0.414
 1872SOL    HW2 6516   2.345   4.879   0.383
 1873SOL     OW 6517   4.502   1.646   0.150
 1873SOL    HW1 6518   4.517   1.651   0.249
 1873SOL    HW2 6519   4.551   1.566   0.114
 1874SOL     OW 6520   0.751   2.766   2.466
 1874SOL    HW1 6521   0.757   2.734   2.561
 1874SOL    HW2 6522   0.712   2.694   2.409
 1875SOL     OW 6523   0.831   6.691   0.308
 1875SOL    HW1 6524   0.908   6.747   0.275
 1875SOL    HW2 6525   0.810   6.716   0.402
 1876SOL     OW 6526   2.107   6.782   4.886
 1876SOL    HW1 6527   2.033   6.773   4.820
 1876SOL    HW2 6528   2.072   6.824   4.970
 1877SOL     OW 6529   0.764   6.687   3.389
 1877SOL    HW1 6530   0.744   6.656   3.296
 1877SOL    HW2 6531   0.681   6.680   3.445
 1878SOL     OW 6532   5.958   2.707   5.711
 1878SOL    HW1 6533   6.017   2.648   5.766
 1878SOL    HW2 6534   6.013   2.757   5.644
 1879SOL     OW 6535   1.441   4.299   5.481
 1879SOL    HW1 6536   1.532   4.295   5.522
 1879SOL    HW2 6537   1.376   4.246   5.535
 1880SOL     OW 6538   6.061   0.694   5.485
 1880SOL    HW1 6539   6.042   0.720   5.580
 1880SOL    HW2 6540   5.982   0.647   5.447
 1881SOL     OW 6541   6.711   2.214   6.754
 1881SOL    HW1 6542   6.698   2.199   6.852
 1881SOL    HW2 6543   6.772   2.144   6.718
 1882SOL     OW 6544   0.716   5.140   6.298
 1882SOL    HW1 6545   0.670   5.113   6.214
 1882SOL    HW2 6546   0.683   5.082   6.374
 1883SOL     OW 6547   6.992   1.809   4.152
 1883SOL    HW1 6548   7.008   1.830   4.055
 1883SOL    HW2 6549   0.051   1.768   4.191
 1884SOL     OW 6550   6.778   3.152   1.475
 1884SOL    HW1 6551   6.756   3.056   1.495
 1884SOL    HW2 6552   6.725   3.212   1.534
 1885SOL     OW 6553   1.925   1.919   4.491
 1885SOL    HW1 6554   1.938   1.938   4.588
 1885SOL    HW2 6555   2.013   1.896   4.450
 1886SOL     OW 6556   1.294   6.964   3.298
 1886SOL    HW1 6557   1.297   0.030   3.340
 1886SOL    HW2 6558   1.336   6.897   3.360
 1887SOL     OW 6559   1.623   6.629   5.680
 1887SOL    HW1 6560   1.539   6.596   5.638
 1887SOL    HW2 6561   1.698   6.566   5.661
 1888SOL     OW 6562   2.548   1.142   2.320
 1888SOL    HW1 6563   2.467   1.166   2.268
 1888SOL    HW2 6564   2.603   1.224   2.337
 1889SOL     OW 6565   0.188   3.219   3.258
 1889SOL    HW1 6566   0.144   3.129   3.262
 1889SOL    HW2 6567   0.258   3.218   3.187
 1890SOL     OW 6568   0.539   5.952   4.161
 1890SOL    HW1 6569   0.509   5.895   4.237
 1890SOL    HW2 6570   0.587   5.895   4.094
 1891SOL     OW 6571   3.650   3.242   3.347
 1891SOL    HW1 6572   3.734   3.227   3.294
 1891SOL    HW2 6573   3.591   3.162   3.339
 1892SOL     OW 6574   0.724   0.678   2.368
 1892SOL    HW1 6575   0.646   0.617   2.383
 1892SOL    HW2 6576   0.718   0.755   2.431
 1893SOL     OW 6577   3.747   3.260   4.650
 1893SOL    HW1 6578   3.683   3.235   4.578
 1893SOL    HW2 6579   3.814   3.186   4.663
 1894SOL     OW 6580   2.951   3.246   4.005
 1894SOL    HW1 6581   2.973   3.245   4.103
 1894SOL    HW2 6582   2.873   3.186   3.989
 1895SOL     OW 6583   1.933   6.071   6.797
 1895SOL    HW1 6584   2.003   6.118   6.851
 1895SOL    HW2 6585   1.890   6.000   6.854
 1896SOL     OW 6586   5.456   2.737   0.799
 1896SOL    HW1 6587   5.527   2.667   0.794
 1896SOL    HW2 6588   5.496   2.827   0.780
 1897SOL     OW 6589   1.656   4.519   4.247
 1897SOL    HW1 6590   1.613   4.485   4.162
 1897SOL    HW2 6591   1.726   4.454   4.276
 1898SOL     OW 6592   1.455   6.342   3.752
 1898SOL    HW1 6593   1.414   6.339   3.843
 1898SOL    HW2 6594   1.553   6.364   3.760
 1899SOL     OW 6595   0.636   0.351   2.317
 1899SOL    HW1 6596   0.608   0.406   2.395
 1899SOL    HW2 6597   0.574   0.274   2.307
 1900SOL     OW 6598   2.389   6.941   0.083
 1900SOL    HW1 6599   2.391   6.870   0.013
 1900SOL    HW2 6600   2.417   6.902   0.171
 1901SOL     OW 6601   2.729   3.682   0.942
 1901SOL    HW1 6602   2.799   3.628   0.896
 1901SOL    HW2 6603   2.734   3.777   0.910
 1902SOL     OW 6604   1.340   6.992   3.989
 1902SOL    HW1 6605   1.277   0.045   3.977
 1902SOL    HW2 6606   1.289   6.911   4.018
 1903SOL     OW 6607   0.754   2.461   4.144
 1903SOL    HW1 6608   0.832   2.523   4.131
 1903SOL    HW2 6609   0.778   2.390   4.210
 1904SOL     OW 6610   5.744   5.398   1.583
 1904SOL    HW1 6611   5.668   5.369   1.641
 1904SOL    HW2 6612   5.715   5.394   1.487
 1905SOL     OW 6613   0.478   1.115   4.061
 1905SOL    HW1 6614   0.393   1.164   4.082
 1905SOL    HW2 6615   0.545   1.180   4.026
 1906SOL     OW 6616   1.613   6.953   5.182
 1906SOL    HW1 6617   1.642   6.969   5.276
 1906SOL    HW2 6618   1.514   6.967   5.174
 1907SOL     OW 6619   5.652   2.617   0.431
 1907SOL    HW1 6620   5.584   2.681   0.467
 1907SOL    HW2 6621   5.715   2.666   0.370
 1908SOL     OW 6622   3.045   1.491   1.165
 1908SOL    HW1 6623   2.978   1.426   1.129
 1908SOL    HW2 6624   3.137   1.458   1.147
 1909SOL     OW 6625   6.752   5.205   4.927
 1909SOL    HW1 6626   6.812   5.284   4.922
 1909SOL    HW2 6627   6.803   5.122   4.903
 1910SOL     OW 6628   6.965   6.306   5.466
 1910SOL    HW1 6629   0.017   6.336   5.408
 1910SOL    HW2 6630   6.938   6.214   5.439
 1911SOL     OW 6631   6.703   5.361   4.066
 1911SOL    HW1 6632   6.646   5.384   3.987
 1911SOL    HW2 6633   6.655   5.295   4.123
 1912SOL     OW 6634   2.948   5.533   2.076
 1912SOL    HW1 6635   2.999   5.603   2.126
 1912SOL    HW2 6636   2.883   5.488   2.138
 1913SOL     OW 6637   3.693   4.287   6.519
 1913SOL    HW1 6638   3.638   4.343   6.457
 1913SOL    HW2 6639   3.639   4.210   6.552
 1914SOL     OW 6640   2.831   4.625   6.454
 1914SOL    HW1 6641   2.902   4.569   6.413
 1914SOL    HW2 6642   2.872   4.689   6.518
 1915SOL     OW 6643   4.242   2.402   5.573
 1915SOL    HW1 6644   4.199   2.357   5.651
 1915SOL    HW2 6645   4.293   2.482   5.605
 1916SOL     OW 6646   4.097   1.186   2.508
 1916SOL    HW1 6647   4.021   1.123   2.524
 1916SOL    HW2 6648   4.076   1.245   2.430
 1917SOL     OW 6649   2.129   4.249   1.360
 1917SOL    HW1 6650   2.215   4.200   1.367
 1917SOL    HW2 6651   2.054   4.184   1.345
 1918SOL     OW 6652   5.670   2.395   3.712
 1918SOL    HW1 6653   5.577   2.431   3.716
 1918SOL    HW2 6654   5.702   2.378   3.805
 1919SOL     OW 6655   6.702   2.286   0.056
 1919SOL    HW1 6656   6.704   2.245   0.148
 1919SOL    HW2 6657   6.648   2.369   0.057
 1920SOL     OW 6658   4.382   2.990   1.218
 1920SOL    HW1 6659   4.432   2.921   1.165
 1920SOL    HW2 6660   4.422   3.080   1.201
 1921SOL     OW 6661   2.307   2.553   6.940
 1921SOL    HW1 6662   2.215   2.567   6.977
 1921SOL    HW2 6663   2.344   2.641   6.911
 1922SOL     OW 6664   2.995   3.250   2.310
 1922SOL    HW1 6665   2.920   3.227   2.248
 1922SOL    HW2 6666   3.038   3.167   2.344
 1923SOL     OW 6667   4.027   0.686   4.578
 1923SOL    HW1 6668   3.932   0.665   4.603
 1923SOL    HW2 6669   4.087   0.667   4.655
 1924SOL     OW 6670   4.443   0.917   6.480
 1924SOL    HW1 6671   4.462   0.916   6.578
 1924SOL    HW2 6672   4.529   0.915   6.429
 1925SOL     OW 6673   1.402   3.391   0.993
 1925SOL    HW1 6674   1.483   3.396   0.934
 1925SOL    HW2 6675   1.415   3.322   1.063
 1926SOL     OW 6676   4.026   0.272   1.597
 1926SOL    HW1 6677   4.029   0.370   1.618
 1926SOL    HW2 6678   4.118   0.240   1.574
 1927SOL     OW 6679   2.228   5.204   1.398
 1927SOL    HW1 6680   2.323   5.212   1.369
 1927SOL    HW2 6681   2.180   5.141   1.338
 1928SOL     OW 6682   5.167   4.594   3.452
 1928SOL    HW1 6683   5.115   4.539   3.386
 1928SOL    HW2 6684   5.150   4.691   3.435
 1929SOL     OW 6685   3.229   0.000   2.980
 1929SOL    HW1 6686   3.148   6.972   3.009
 1929SOL    HW2 6687   3.234   0.086   3.032
 1930SOL     OW 6688   4.159   3.246   6.868
 1930SOL    HW1 6689   4.119   3.296   6.945
 1930SOL    HW2 6690   4.244   3.291   6.840
 1931SOL     OW 6691   6.754   1.895   4.602
 1931SOL    HW1 6692   6.713   1.820   4.653
 1931SOL    HW2 6693   6.780   1.968   4.665
 1932SOL     OW 6694   4.415   2.159   2.200
 1932SOL    HW1 6695   4.332   2.186   2.152
 1932SOL    HW2 6696   4.418   2.205   2.289
 1933SOL     OW 6697   0.931   0.785   1.140
 1933SOL    HW1 6698   1.022   0.742   1.147
 1933SOL    HW2 6699   0.940   0.874   1.095
 1934SOL     OW 6700   6.989   0.567   0.039
 1934SOL    HW1 6701   6.993   0.569   6.963
 1934SOL    HW2 6702   0.004   0.481   0.072
 1935SOL     OW 6703   6.806   5.123   3.780
 1935SOL    HW1 6704   6.802   5.097   3.876
 1935SOL    HW2 6705   6.776   5.217   3.769
 1936SOL     OW 6706   4.581   2.591   5.838
 1936SOL    HW1 6707   4.655   2.657   5.825
 1936SOL    HW2 6708   4.619   2.500   5.855
 1937SOL     OW 6709   6.223   4.953   6.523
 1937SOL    HW1 6710   6.290   4.919   6.588
 1937SOL    HW2 6711   6.154   5.007   6.571
 1938SOL     OW 6712   6.883   3.178   6.550
 1938SOL    HW1 6713   6.942   3.098   6.539
 1938SOL    HW2 6714   6.787   3.149   6.541
 1939SOL     OW 6715   1.359   0.562   4.649
 1939SOL    HW1 6716   1.267   0.566   4.687
 1939SOL    HW2 6717   1.381   0.467   4.626
 1940SOL     OW 6718   0.020   5.133   0.600
 1940SOL    HW1 6719   0.107   5.084   0.600
 1940SOL    HW2 6720   7.021   5.162   0.693
 1941SOL     OW 6721   5.139   1.387   4.521
 1941SOL    HW1 6722   5.099   1.463   4.572
 1941SOL    HW2 6723   5.149   1.413   4.425
 1942SOL     OW 6724   6.181   4.077   2.860
 1942SOL    HW1 6725   6.108   4.068   2.793
 1942SOL    HW2 6726   6.269   4.063   2.815
 1943SOL     OW 6727   0.634   2.396   3.011
 1943SOL    HW1 6728   0.634   2.495   3.004
 1943SOL    HW2 6729   0.555   2.366   3.064
 1944SOL     OW 6730   0.207   2.904   3.820
 1944SOL    HW1 6731   0.165   2.846   3.750
 1944SOL    HW2 6732   0.149   2.984   3.835
 1945SOL     OW 6733   4.721   1.325   1.766
 1945SOL    HW1 6734   4.707   1.420   1.793
 1945SOL    HW2 6735   4.667   1.266   1.827
 1946SOL     OW 6736   6.620   5.848   0.905
 1946SOL    HW1 6737   6.558   5.909   0.857
 1946SOL    HW2 6738   6.639   5.768   0.848
 1947SOL     OW 6739   6.287   4.909   3.462
 1947SOL    HW1 6740   6.325   4.992   3.422
 1947SOL    HW2 6741   6.202   4.885   3.414
 1948SOL     OW 6742   5.175   3.440   3.757
 1948SOL    HW1 6743   5.076   3.438   3.774
 1948SOL    HW2 6744   5.212   3.529   3.783
 1949SOL     OW 6745   3.389   5.007   6.619
 1949SOL    HW1 6746   3.423   5.075   6.684
 1949SOL    HW2 6747   3.467   4.955   6.582
 1950SOL     OW 6748   3.882   3.886   3.289
 1950SOL    HW1 6749   3.890   3.852   3.383
 1950SOL    HW2 6750   3.811   3.836   3.241
 1951SOL     OW 6751   5.826   4.875   5.693
 1951SOL    HW1 6752   5.738   4.830   5.676
 1951SOL    HW2 6753   5.899   4.826   5.645
 1952SOL     OW 6754   6.306   5.626   0.282
 1952SOL    HW1 6755   6.313   5.573   0.198
 1952SOL    HW2 6756   6.396   5.629   0.327
 1953SOL     OW 6757   0.472   1.355   0.022
 1953SOL    HW1 6758   0.437   1.262   0.015
 1953SOL    HW2 6759   0.401   1.420   7.020
 1954SOL     OW 6760   4.682   6.883   2.055
 1954SOL    HW1 6761   4.773   6.842   2.047
 1954SOL    HW2 6762   4.667   6.945   1.978
 1955SOL     OW 6763   6.675   2.150   4.070
 1955SOL    HW1 6764   6.598   2.173   4.011
 1955SOL    HW2 6765   6.698   2.053   4.059
 1956SOL     OW 6766   5.383   0.558   1.769
 1956SOL    HW1 6767   5.405   0.493   1.842
 1956SOL    HW2 6768   5.446   0.636   1.774
 1957SOL     OW 6769   6.409   2.124   4.560
 1957SOL    HW1 6770   6.399   2.219   4.531
 1957SOL    HW2 6771   6.424   2.120   4.658
 1958SOL     OW 6772   4.108   1.679   0.531
 1958SOL    HW1 6773   4.093   1.774   0.504
 1958SOL    HW2 6774   4.046   1.655   0.605
 1959SOL     OW 6775   0.864   1.937   5.185
 1959SOL    HW1 6776   0.891   2.018   5.133
 1959SOL    HW2 6777   0.945   1.885   5.210
 1960SOL     OW 6778   5.883   4.182   4.412
 1960SOL    HW1 6779   5.890   4.207   4.315
 1960SOL    HW2 6780   5.844   4.259   4.463
 1961SOL     OW 6781   6.995   3.693   3.767
 1961SOL    HW1 6782   0.027   3.769   3.733
 1961SOL    HW2 6783   6.899   3.721   3.770
 1962SOL     OW 6784   1.072   0.317   2.564
 1962SOL    HW1 6785   1.079   0.245   2.632
 1962SOL    HW2 6786   0.980   0.317   2.523
 1963SOL     OW 6787   0.332   2.534   6.985
 1963SOL    HW1 6788   0.274   2.453   6.983
 1963SOL    HW2 6789   0.283   2.609   0.006
 1964SOL     OW 6790   5.563   3.786   0.432
 1964SOL    HW1 6791   5.627   3.722   0.390
 1964SOL    HW2 6792   5.470   3.767   0.400
 1965SOL     OW 6793   6.247   4.176   3.884
 1965SOL    HW1 6794   6.185   4.246   3.847
 1965SOL    HW2 6795   6.262   4.106   3.815
 1966SOL     OW 6796   1.406   4.572   7.000
 1966SOL    HW1 6797   1.403   4.501   0.046
 1966SOL    HW2 6798   1.470   4.545   6.928
 1967SOL     OW 6799   6.409   3.272   4.395
 1967SOL    HW1 6800   6.452   3.209   4.459
 1967SOL    HW2 6801   6.423   3.239   4.301
 1968SOL     OW 6802   2.777   1.804   5.059
 1968SOL    HW1 6803   2.852   1.832   5.000
 1968SOL    HW2 6804   2.742   1.883   5.109
 1969SOL     OW 6805   1.513   6.055   1.006
 1969SOL    HW1 6806   1.531   6.134   1.064
 1969SOL    HW2 6807   1.557   6.068   0.917
 1970SOL     OW 6808   5.358   5.598   4.492
 1970SOL    HW1 6809   5.356   5.571   4.588
 1970SOL    HW2 6810   5.329   5.694   4.484
 1971SOL     OW 6811   1.640   5.381   5.255
 1971SOL    HW1 6812   1.603   5.414   5.342
 1971SOL    HW2 6813   1.639   5.281   5.254
 1972SOL     OW 6814   5.652   2.526   2.472
 1972SOL    HW1 6815   5.610   2.497   2.386
 1972SOL    HW2 6816   5.611   2.612   2.503
 1973SOL     OW 6817   2.852   2.513   1.121
 1973SOL    HW1 6818   2.862   2.444   1.050
 1973SOL    HW2 6819   2.797   2.476   1.197
 1974SOL     OW 6820   2.581   5.801   5.038
 1974SOL    HW1 6821   2.559   5.872   4.971
 1974SOL    HW2 6822   2.673   5.766   5.021
 1975SOL     OW 6823   1.998   2.685   3.498
 1975SOL    HW1 6824   1.933   2.760   3.507
 1975SOL    HW2 6825   2.006   2.658   3.402
 1976SOL     OW 6826   0.914   0.597   5.543
 1976SOL    HW1 6827   0.859   0.650   5.608
 1976SOL    HW2 6828   1.009   0.594   5.575
 1977SOL     OW 6829   1.862   4.393   6.207
 1977SOL    HW1 6830   1.837   4.303   6.171
 1977SOL    HW2 6831   1.817   4.464   6.152
 1978SOL     OW 6832   3.179   0.026   2.040
 1978SOL    HW1 6833   3.196   0.119   2.072
 1978SOL    HW2 6834   3.083   0.001   2.057
 1979SOL     OW 6835   6.134   4.394   5.942
 1979SOL    HW1 6836   6.203   4.448   5.990
 1979SOL    HW2 6837   6.179   4.318   5.894
 1980SOL     OW 6838   3.699   1.086   1.102
 1980SOL    HW1 6839   3.737   1.006   1.057
 1980SOL    HW2 6840   3.621   1.059   1.159
 1981SOL     OW 6841   3.793   2.080   2.703
 1981SOL    HW1 6842   3.695   2.064   2.694
 1981SOL    HW2 6843   3.833   2.098   2.613
 1982SOL     OW 6844   0.965   2.940   5.722
 1982SOL    HW1 6845   1.009   3.019   5.680
 1982SOL    HW2 6846   0.874   2.965   5.755
 1983SOL     OW 6847   0.521   0.923   2.157
 1983SOL    HW1 6848   0.452   0.995   2.152
 1983SOL    HW2 6849   0.500   0.862   2.233
 1984SOL     OW 6850   4.127   3.124   5.649
 1984SOL    HW1 6851   4.138   3.093   5.555
 1984SOL    HW2 6852   4.207   3.097   5.703
 1985SOL     OW 6853   6.296   3.166   3.023
 1985SOL    HW1 6854   6.253   3.247   3.063
 1985SOL    HW2 6855   6.258   3.084   3.066
 1986SOL     OW 6856   3.245   3.016   2.073
 1986SOL    HW1 6857   3.218   3.071   1.993
 1986SOL    HW2 6858   3.272   2.924   2.043
 1987SOL     OW 6859   2.176   1.060   0.947
 1987SOL    HW1 6860   2.113   1.133   0.921
 1987SOL    HW2 6861   2.169   1.043   1.045
 1988SOL     OW 6862   0.649   1.948   1.568
 1988SOL    HW1 6863   0.633   1.863   1.518
 1988SOL    HW2 6864   0.571   1.967   1.627
 1989SOL     OW 6865   2.820   4.817   4.721
 1989SOL    HW1 6866   2.892   4.847   4.783
 1989SOL    HW2 6867   2.852   4.822   4.627
 1990SOL     OW 6868   4.036   0.233   0.061
 1990SOL    HW1 6869   4.037   0.151   0.004
 1990SOL    HW2 6870   4.095   0.220   0.140
 1991SOL     OW 6871   2.540   5.766   1.543
 1991SOL    HW1 6872   2.538   5.678   1.494
 1991SOL    HW2 6873   2.481   5.761   1.623
 1992SOL     OW 6874   1.208   6.648   2.630
 1992SOL    HW1 6875   1.137   6.582   2.603
 1992SOL    HW2 6876   1.290   6.598   2.660
 1993SOL     OW 6877   2.183   2.194   3.032
 1993SOL    HW1 6878   2.116   2.269   3.035
 1993SOL    HW2 6879   2.226   2.191   2.942
 1994SOL     OW 6880   3.699   2.761   0.643
 1994SOL    HW1 6881   3.784   2.723   0.605
 1994SOL    HW2 6882   3.625   2.694   0.634
 1995SOL     OW 6883   5.401   1.384   3.786
 1995SOL    HW1 6884   5.307   1.393   3.752
 1995SOL    HW2 6885   5.460   1.353   3.712
 1996SOL     OW 6886   4.516   0.606   0.939
 1996SOL    HW1 6887   4.548   0.695   0.906
 1996SOL    HW2 6888   4.428   0.617   0.984
 1997SOL     OW 6889   3.674   1.310   4.223
 1997SOL    HW1 6890   3.577   1.298   4.204
 1997SOL    HW2 6891   3.727   1.280   4.144
 1998SOL     OW 6892   2.318   3.938   1.850
 1998SOL    HW1 6893   2.246   3.918   1.916
 1998SOL    HW2 6894   2.309   4.032   1.819
 1999SOL     OW 6895   0.817   0.362   0.129
 1999SOL    HW1 6896   0.755   0.437   0.103
 1999SOL    HW2 6897   0.867   0.388   0.211
 2000SOL     OW 6898   4.498   4.503   5.682
 2000SOL    HW1 6899   4.551   4.559   5.618
 2000SOL    HW2 6900   4.489   4.551   5.768
 2001SOL     OW 6901   2.356   2.321   1.306
 2001SOL    HW1 6902   2.374   2.406   1.356
 2001SOL    HW2 6903   2.410   2.247   1.346
 2002SOL     OW 6904   6.923   5.450   0.524
 2002SOL    HW1 6905   6.873   5.366   0.544
 2002SOL    HW2 6906   7.012   5.447   0.569
 2003SOL     OW 6907   5.588   5.389   2.531
 2003SOL    HW1 6908   5.644   5.363   2.609
 2003SOL    HW2 6909   5.645   5.392   2.449
 2004SOL     OW 6910   3.684   6.769   3.003
 2004SOL    HW1 6911   3.651   6.676   3.018
 2004SOL    HW2 6912   3.746   6.770   2.924
 2005SOL     OW 6913   1.520   6.129   0.317
 2005SOL    HW1 6914   1.478   6.165   0.400
 2005SOL    HW2 6915   1.568   6.202   0.269
 2006SOL     OW 6916   5.592   6.346   2.191
 2006SOL    HW1 6917   5.532   6.388   2.258
 2006SOL    HW2 6918   5.603   6.406   2.112
 2007SOL     OW 6919   5.228   4.778   6.728
 2007SOL    HW1 6920   5.178   4.838   6.790
 2007SOL    HW2 6921   5.171   4.699   6.704
 2008SOL     OW 6922   2.079   3.365   3.150
 2008SOL    HW1 6923   2.065   3.285   3.092
 2008SOL    HW2 6924   2.038   3.348   3.240
 2009SOL     OW 6925   6.311   6.929   2.571
 2009SOL    HW1 6926   6.344   6.875   2.493
 2009SOL    HW2 6927   6.335   6.882   2.656
 2010SOL     OW 6928   0.015   1.852   1.836
 2010SOL    HW1 6929   6.982   1.778   1.799
 2010SOL    HW2 6930   0.082   1.880   1.768
 2011SOL     OW 6931   0.800   6.973   4.597
 2011SOL    HW1 6932   0.702   6.989   4.612
 2011SOL    HW2 6933   0.823   6.993   4.502
 2012SOL     OW 6934   0.865   3.084   1.293
 2012SOL    HW1 6935   0.820   3.131   1.369
 2012SOL    HW2 6936   0.960   3.113   1.287
 2013SOL     OW 6937   0.556   2.716   1.774
 2013SOL    HW1 6938   0.458   2.728   1.792
 2013SOL    HW2 6939   0.597   2.662   1.848
 2014SOL     OW 6940   4.176   0.647   4.813
 2014SOL    HW1 6941   4.181   0.557   4.857
 2014SOL    HW2 6942   4.171   0.717   4.884
 2015SOL     OW 6943   4.006   0.111   1.835
 2015SOL    HW1 6944   3.912   0.082   1.852
 2015SOL    HW2 6945   4.012   0.157   1.747
 2016SOL     OW 6946   1.943   0.706   4.527
 2016SOL    HW1 6947   1.960   0.801   4.552
 2016SOL    HW2 6948   1.885   0.664   4.597
 2017SOL     OW 6949   3.919   6.300   3.684
 2017SOL    HW1 6950   3.883   6.252   3.764
 2017SOL    HW2 6951   4.017   6.318   3.698
 2018SOL     OW 6952   1.098   0.643   4.413
 2018SOL    HW1 6953   1.121   0.659   4.509
 2018SOL    HW2 6954   1.166   0.581   4.372
 2019SOL     OW 6955   5.494   5.386   6.548
 2019SOL    HW1 6956   5.505   5.294   6.510
 2019SOL    HW2 6957   5.519   5.385   6.645
 2020SOL     OW 6958   1.920   6.633   6.918
 2020SOL    HW1 6959   1.976   6.654   6.838
 2020SOL    HW2 6960   1.874   6.545   6.904
 2021SOL     OW 6961   0.307   6.282   4.140
 2021SOL    HW1 6962   0.214   6.254   4.117
 2021SOL    HW2 6963   0.349   6.215   4.201
 2022SOL     OW 6964   1.779   3.408   3.873
 2022SOL    HW1 6965   1.765   3.503   3.845
 2022SOL    HW2 6966   1.877   3.390   3.882
 2023SOL     OW 6967   6.600   6.380   6.920
 2023SOL    HW1 6968   6.571   6.416   7.009
 2023SOL    HW2 6969   6.584   6.281   6.918
 2024SOL     OW 6970   0.381   6.037   3.905
 2024SOL    HW1 6971   0.374   6.029   4.005
 2024SOL    HW2 6972   0.435   6.117   3.882
 2025SOL     OW 6973   1.717   5.774   4.937
 2025SOL    HW1 6974   1.711   5.836   4.858
 2025SOL    HW2 6975   1.738   5.682   4.905
 2026SOL     OW 6976   0.065   0.193   6.075
 2026SOL    HW1 6977   0.151   0.240   6.058
 2026SOL    HW2 6978   7.018   0.230   6.015
 2027SOL     OW 6979   6.980   6.369   2.194
 2027SOL    HW1 6980   7.018   6.282   2.163
 2027SOL    HW2 6981   7.001   6.441   2.128
 2028SOL     OW 6982   2.980   4.901   4.925
 2028SOL    HW1 6983   2.971   4.857   5.014
 2028SOL    HW2 6984   3.003   4.997   4.937
 2029SOL     OW 6985   6.226   2.953   6.101
 2029SOL    HW1 6986   6.195   3.010   6.026
 2029SOL    HW2 6987   6.163   2.963   6.178
 2030SOL     OW 6988   2.641   6.882   2.589
 2030SOL    HW1 6989   2.727   6.834   2.605
 2030SOL    HW2 6990   2.570   6.844   2.647
 2031SOL     OW 6991   0.903   6.199   4.707
 2031SOL    HW1 6992   0.952   6.183   4.622
 2031SOL    HW2 6993   0.858   6.289   4.703
 2032SOL     OW 6994   2.453   3.054   5.770
 2032SOL    HW1 6995   2.493   3.113   5.699
 2032SOL    HW2 6996   2.429   2.966   5.730
 2033SOL     OW 6997   2.227   1.522   0.452
 2033SOL    HW1 6998   2.220   1.458   0.528
 2033SOL    HW2 6999   2.138   1.567   0.439
 2034SOL     OW 7000   0.700   4.347   5.319
 2034SOL    HW1 7001   0.721   4.249   5.328
 2034SOL    HW2 7002   0.627   4.359   5.253
 2035SOL     OW 7003   5.213   6.683   3.249
 2035SOL    HW1 7004   5.235   6.781   3.253
 2035SOL    HW2 7005   5.297   6.630   3.262
 2036SOL     OW 7006   0.239   4.982   6.440
 2036SOL    HW1 7007   0.317   4.962   6.499
 2036SOL    HW2 7008   0.213   4.899   6.390
 2037SOL     OW 7009   0.877   2.501   6.988
 2037SOL    HW1 7010   0.861   2.487   6.891
 2037SOL    HW2 7011   0.873   2.599   7.010
 2038SOL     OW 7012   0.710   0.799   6.201
 2038SOL    HW1 7013   0.704   0.811   6.102
 2038SOL    HW2 7014   0.678   0.882   6.246
 2039SOL     OW 7015   5.226   6.297   3.628
 2039SOL    HW1 7016   5.171   6.368   3.584
 2039SOL    HW2 7017   5.314   6.335   3.656
 2040SOL     OW 7018   2.359   1.955   0.168
 2040SOL    HW1 7019   2.400   1.958   0.259
 2040SOL    HW2 7020   2.311   2.042   0.151
 2041SOL     OW 7021   2.558   0.196   6.599
 2041SOL    HW1 7022   2.474   0.244   6.574
 2041SOL    HW2 7023   2.612   0.253   6.660
 2042SOL     OW 7024   6.069   1.089   5.745
 2042SOL    HW1 7025   6.129   1.100   5.666
 2042SOL    HW2 7026   6.012   1.170   5.756
 2043SOL     OW 7027   0.750   3.940   0.931
 2043SOL    HW1 7028   0.807   3.889   0.994
 2043SOL    HW2 7029   0.658   3.950   0.969
 2044SOL     OW 7030   4.054   0.542   1.591
 2044SOL    HW1 7031   4.145   0.537   1.633
 2044SOL    HW2 7032   4.029   0.637   1.575
 2045SOL     OW 7033   2.103   6.203   4.942
 2045SOL    HW1 7034   2.200   6.186   4.923
 2045SOL    HW2 7035   2.087   6.301   4.951
 2046SOL     OW 7036   0.756   3.256   5.350
 2046SOL    HW1 7037   0.791   3.163   5.343
 2046SOL    HW2 7038   0.784   3.308   5.269
 2047SOL     OW 7039   0.143   0.095   0.656
 2047SOL    HW1 7040   0.175   0.026   0.591
 2047SOL    HW2 7041   0.220   0.151   0.686
 2048SOL     OW 7042   1.873   1.839   3.753
 2048SOL    HW1 7043   1.803   1.780   3.714
 2048SOL    HW2 7044   1.947   1.852   3.687
 2049SOL     OW 7045   4.578   2.670   4.951
 2049SOL    HW1 7046   4.663   2.696   4.906
 2049SOL    HW2 7047   4.520   2.750   4.963
 2050SOL     OW 7048   0.813   0.941   3.407
 2050SOL    HW1 7049   0.781   0.869   3.467
 2050SOL    HW2 7050   0.909   0.926   3.384
 2051SOL     OW 7051   2.755   6.358   0.583
 2051SOL    HW1 7052   2.728   6.441   0.631
 2051SOL    HW2 7053   2.851   6.338   0.601
 2052SOL     OW 7054   0.910   4.263   0.589
 2052SOL    HW1 7055   0.915   4.220   0.679
 2052SOL    HW2 7056   0.952   4.202   0.521
 2053SOL     OW 7057   6.631   5.306   2.564
 2053SOL    HW1 7058   6.701   5.347   2.623
 2053SOL    HW2 7059   6.542   5.346   2.587
 2054SOL     OW 7060   3.133   4.039   2.822
 2054SOL    HW1 7061   3.178   4.060   2.735
 2054SOL    HW2 7062   3.046   3.992   2.804
 2055SOL     OW 7063   3.680   2.618   5.295
 2055SOL    HW1 7064   3.748   2.658   5.357
 2055SOL    HW2 7065   3.595   2.670   5.301
 2056SOL     OW 7066   2.960   5.084   1.413
 2056SOL    HW1 7067   2.964   5.146   1.491
 2056SOL    HW2 7068   2.907   5.125   1.339
 2057SOL     OW 7069   5.278   3.189   3.978
 2057SOL    HW1 7070   5.285   3.096   4.013
 2057SOL    HW2 7071   5.288   3.188   3.878
 2058SOL     OW 7072   6.394   6.580   3.450
 2058SOL    HW1 7073   6.424   6.675   3.441
 2058SOL    HW2 7074   6.420   6.545   3.540
 2059SOL     OW 7075   1.857   1.609   5.129
 2059SOL    HW1 7076   1.938   1.646   5.083
 2059SOL    HW2 7077   1.871   1.609   5.228
 2060SOL     OW 7078   1.813   2.944   6.561
 2060SOL    HW1 7079   1.773   3.021   6.611
 2060SOL    HW2 7080   1.897   2.915   6.606
 2061SOL     OW 7081   1.608   2.484   3.238
 2061SOL    HW1 7082   1.592   2.526   3.328
 2061SOL    HW2 7083   1.683   2.419   3.244
 2062SOL     OW 7084   6.263   5.084   4.293
 2062SOL    HW1 7085   6.331   5.012   4.302
 2062SOL    HW2 7086   6.172   5.047   4.310
 2063SOL     OW 7087   0.734   2.109   3.863
 2063SOL    HW1 7088   0.648   2.074   3.902
 2063SOL    HW2 7089   0.720   2.133   3.767
 2064SOL     OW 7090   0.775   3.069   4.025
 2064SOL    HW1 7091   0.684   3.071   3.982
 2064SOL    HW2 7092   0.778   2.997   4.093
 2065SOL     OW 7093   4.023   3.609   5.752
 2065SOL    HW1 7094   3.925   3.622   5.764
 2065SOL    HW2 7095   4.042   3.512   5.738
 2066SOL     OW 7096   1.203   3.379   5.302
 2066SOL    HW1 7097   1.140   3.375   5.380
 2066SOL    HW2 7098   1.295   3.353   5.332
 2067SOL     OW 7099   6.695   4.750   1.627
 2067SOL    HW1 7100   6.745   4.708   1.704
 2067SOL    HW2 7101   6.670   4.843   1.651
 2068SOL     OW 7102   4.509   0.602   4.361
 2068SOL    HW1 7103   4.510   0.504   4.380
 2068SOL    HW2 7104   4.445   0.620   4.287
 2069SOL     OW 7105   0.201   1.152   3.419
 2069SOL    HW1 7106   0.134   1.087   3.382
 2069SOL    HW2 7107   0.271   1.170   3.351
 2070SOL     OW 7108   1.407   4.997   1.385
 2070SOL    HW1 7109   1.404   4.906   1.426
 2070SOL    HW2 7110   1.494   5.041   1.408
 2071SOL     OW 7111   0.485   2.076   5.666
 2071SOL    HW1 7112   0.396   2.063   5.710
 2071SOL    HW2 7113   0.510   2.173   5.668
 2072SOL     OW 7114   5.424   4.479   5.860
 2072SOL    HW1 7115   5.327   4.505   5.864
 2072SOL    HW2 7116   5.450   4.464   5.765
 2073SOL     OW 7117   3.514   5.839   6.665
 2073SOL    HW1 7118   3.557   5.815   6.752
 2073SOL    HW2 7119   3.415   5.846   6.678
 2074SOL     OW 7120   2.165   4.693   5.792
 2074SOL    HW1 7121   2.225   4.730   5.863
 2074SOL    HW2 7122   2.218   4.633   5.732
 2075SOL     OW 7123   5.659   2.555   1.357
 2075SOL    HW1 7124   5.719   2.629   1.325
 2075SOL    HW2 7125   5.714   2.482   1.396
 2076SOL     OW 7126   6.339   6.454   4.467
 2076SOL    HW1 7127   6.394   6.502   4.398
 2076SOL    HW2 7128   6.246   6.492   4.467
 2077SOL     OW 7129   6.433   4.709   0.656
 2077SOL    HW1 7130   6.416   4.708   0.755
 2077SOL    HW2 7131   6.387   4.788   0.615
 2078SOL     OW 7132   0.710   3.417   5.556
 2078SOL    HW1 7133   0.620   3.409   5.599
 2078SOL    HW2 7134   0.717   3.350   5.482
 2079SOL     OW 7135   5.354   0.978   2.772
 2079SOL    HW1 7136   5.272   1.029   2.799
 2079SOL    HW2 7137   5.348   0.885   2.807
 2080SOL     OW 7138   2.479   3.383   6.259
 2080SOL    HW1 7139   2.467   3.392   6.160
 2080SOL    HW2 7140   2.534   3.459   6.293
 2081SOL     OW 7141   6.417   6.293   1.865
 2081SOL    HW1 7142   6.372   6.204   1.857
 2081SOL    HW2 7143   6.413   6.340   1.777
 2082SOL     OW 7144   6.815   5.565   4.301
 2082SOL    HW1 7145   6.883   5.549   4.373
 2082SOL    HW2 7146   6.797   5.479   4.253
 2083SOL     OW 7147   0.105   6.713   4.027
 2083SOL    HW1 7148   0.061   6.623   4.038
 2083SOL    HW2 7149   0.048   6.771   3.969
 2084SOL     OW 7150   6.576   1.770   1.122
 2084SOL    HW1 7151   6.657   1.742   1.172
 2084SOL    HW2 7152   6.532   1.689   1.083
 2085SOL     OW 7153   6.389   6.261   0.677
 2085SOL    HW1 7154   6.465   6.301   0.626
 2085SOL    HW2 7155   6.391   6.294   0.772
 2086SOL     OW 7156   4.776   1.006   6.997
 2086SOL    HW1 7157   4.774   1.065   6.917
 2086SOL    HW2 7158   4.719   0.925   6.980
 2087SOL     OW 7159   4.123   1.489   0.042
 2087SOL    HW1 7160   4.098   1.564   7.005
 2087SOL    HW2 7161   4.130   1.404   7.013
 2088SOL     OW 7162   0.422   4.634   5.499
 2088SOL    HW1 7163   0.485   4.614   5.575
 2088SOL    HW2 7164   0.365   4.712   5.524
 2089SOL     OW 7165   2.321   3.836   6.336
 2089SOL    HW1 7166   2.393   3.797   6.393
 2089SOL    HW2 7167   2.246   3.868   6.395
 2090SOL     OW 7168   5.288   3.052   6.050
 2090SOL    HW1 7169   5.318   2.997   6.128
 2090SOL    HW2 7170   5.244   3.136   6.083
 2091SOL     OW 7171   5.801   6.336   0.324
 2091SOL    HW1 7172   5.880   6.395   0.308
 2091SOL    HW2 7173   5.831   6.247   0.357
 2092SOL     OW 7174   3.689   3.504   2.217
 2092SOL    HW1 7175   3.637   3.555   2.286
 2092SOL    HW2 7176   3.783   3.492   2.248
 2093SOL     OW 7177   4.338   0.741   1.603
 2093SOL    HW1 7178   4.426   0.769   1.566
 2093SOL    HW2 7179   4.272   0.731   1.529
 2094SOL     OW 7180   5.478   2.103   6.900
 2094SOL    HW1 7181   5.561   2.047   6.901
 2094SOL    HW2 7182   5.500   2.196   6.874
 2095SOL     OW 7183   5.499   5.440   4.289
 2095SOL    HW1 7184   5.463   5.517   4.341
 2095SOL    HW2 7185   5.510   5.466   4.193
 2096SOL     OW 7186   4.153   6.757   1.915
 2096SOL    HW1 7187   4.109   6.783   2.001
 2096SOL    HW2 7188   4.125   6.664   1.889
 2097SOL     OW 7189   0.885   5.663   5.827
 2097SOL    HW1 7190   0.883   5.593   5.755
 2097SOL    HW2 7191   0.927   5.625   5.909
 2098SOL     OW 7192   3.315   6.353   3.715
 2098SOL    HW1 7193   3.216   6.344   3.722
 2098SOL    HW2 7194   3.342   6.446   3.743
 2099SOL     OW 7195   4.409   2.245   6.806
 2099SOL    HW1 7196   4.338   2.186   6.844
 2099SOL    HW2 7197   4.367   2.312   6.745
 2100SOL     OW 7198   4.952   0.267   0.748
 2100SOL    HW1 7199   4.892   0.342   0.777
 2100SOL    HW2 7200   4.997   0.228   0.829
 2101SOL     OW 7201   1.040   0.542   2.785
 2101SOL    HW1 7202   1.065   0.478   2.711
 2101SOL    HW2 7203   1.062   0.500   2.873
 2102SOL     OW 7204   4.249   2.531   1.010
 2102SOL    HW1 7205   4.162   2.530   1.059
 2102SOL    HW2 7206   4.236   2.567   0.918
 2103SOL     OW 7207   1.950   6.222   0.527
 2103SOL    HW1 7208   2.015   6.148   0.547
 2103SOL    HW2 7209   1.877   6.187   0.469
 2104SOL     OW 7210   1.848   3.443   3.318
 2104SOL    HW1 7211   1.807   3.408   3.403
 2104SOL    HW2 7212   1.822   3.539   3.306
 2105SOL     OW 7213   5.915   0.231   5.195
 2105SOL    HW1 7214   5.973   0.312   5.184
 2105SOL    HW2 7215   5.968   0.157   5.236
 2106SOL     OW 7216   4.033   3.132   1.397
 2106SOL    HW1 7217   3.966   3.143   1.324
 2106SOL    HW2 7218   4.080   3.045   1.387
 2107SOL     OW 7219   5.017   4.623   4.999
 2107SOL    HW1 7220   5.047   4.582   4.913
 2107SOL    HW2 7221   5.017   4.723   4.990
 2108SOL     OW 7222   4.969   0.338   4.924
 2108SOL    HW1 7223   5.067   0.352   4.917
 2108SOL    HW2 7224   4.921   0.422   4.898
 2109SOL     OW 7225   2.817   6.513   2.459
 2109SOL    HW1 7226   2.871   6.479   2.383
 2109SOL    HW2 7227   2.720   6.506   2.437
 2110SOL     OW 7228   3.294   6.040   0.098
 2110SOL    HW1 7229   3.205   6.084   0.095
 2110SOL    HW2 7230   3.355   6.084   0.033
 2111SOL     OW 7231   1.033   2.520   5.997
 2111SOL    HW1 7232   1.089   2.566   5.928
 2111SOL    HW2 7233   1.092   2.467   6.058
 2112SOL     OW 7234   0.952   0.033   6.714
 2112SOL    HW1 7235   0.947   0.093   6.794
 2112SOL    HW2 7236   0.995   0.082   6.638
 2113SOL     OW 7237   6.601   1.460   4.789
 2113SOL    HW1 7238   6.687   1.412   4.776
 2113SOL    HW2 7239   6.526   1.394   4.789
 2114SOL     OW 7240   2.123   1.308   5.693
 2114SOL    HW1 7241   2.170   1.237   5.641
 2114SOL    HW2 7242   2.108   1.275   5.787
 2115SOL     OW 7243   6.702   5.572   3.119
 2115SOL    HW1 7244   6.707   5.523   3.206
 2115SOL    HW2 7245   6.767   5.648   3.119
 2116SOL     OW 7246   1.568   1.637   6.664
 2116SOL    HW1 7247   1.531   1.625   6.572
 2116SOL    HW2 7248   1.569   1.734   6.688
 2117SOL     OW 7249   6.710   2.276   2.672
 2117SOL    HW1 7250   6.619   2.295   2.709
 2117SOL    HW2 7251   6.707   2.192   2.618
 2118SOL     OW 7252   0.129   2.158   2.579
 2118SOL    HW1 7253   0.219   2.182   2.615
 2118SOL    HW2 7254   0.104   2.067   2.611
 2119SOL     OW 7255   0.176   2.559   0.482
 2119SOL    HW1 7256   0.142   2.646   0.446
 2119SOL    HW2 7257   0.265   2.539   0.441
 2120SOL     OW 7258   5.863   2.196   0.813
 2120SOL    HW1 7259   5.865   2.130   0.888
 2120SOL    HW2 7260   5.771   2.235   0.806
 2121SOL     OW 7261   1.916   6.820   1.073
 2121SOL    HW1 7262   1.903   6.877   0.992
 2121SOL    HW2 7263   1.836   6.760   1.084
 2122SOL     OW 7264   6.282   0.434   4.576
 2122SOL    HW1 7265   6.278   0.412   4.479
 2122SOL    HW2 7266   6.376   0.424   4.609
 2123SOL     OW 7267   1.362   5.369   3.050
 2123SOL    HW1 7268   1.334   5.283   3.007
 2123SOL    HW2 7269   1.392   5.351   3.144
 2124SOL     OW 7270   4.290   3.446   6.391
 2124SOL    HW1 7271   4.316   3.452   6.295
 2124SOL    HW2 7272   4.367   3.472   6.449
 2125SOL     OW 7273   1.822   5.616   4.240
 2125SOL    HW1 7274   1.821   5.535   4.299
 2125SOL    HW2 7275   1.760   5.685   4.278
 2126SOL     OW 7276   2.666   3.768   0.189
 2126SOL    HW1 7277   2.629   3.752   0.097
 2126SOL    HW2 7278   2.760   3.801   0.181
 2127SOL     OW 7279   1.014   3.340   4.279
 2127SOL    HW1 7280   0.916   3.344   4.298
 2127SOL    HW2 7281   1.063   3.307   4.360
 2128SOL     OW 7282   5.036   2.746   2.390
 2128SOL    HW1 7283   5.071   2.695   2.469
 2128SOL    HW2 7284   4.965   2.810   2.421
 2129SOL     OW 7285   4.835   4.883   4.324
 2129SOL    HW1 7286   4.792   4.961   4.278
 2129SOL    HW2 7287   4.772   4.847   4.393
 2130SOL     OW 7288   2.065   0.697   1.185
 2130SOL    HW1 7289   2.044   0.790   1.154
 2130SOL    HW2 7290   2.163   0.688   1.200
 2131SOL     OW 7291   5.865   0.774   6.021
 2131SOL    HW1 7292   5.947   0.743   6.070
 2131SOL    HW2 7293   5.784   0.755   6.075
 2132SOL     OW 7294   2.606   2.669   6.830
 2132SOL    HW1 7295   2.566   2.753   6.865
 2132SOL    HW2 7296   2.543   2.625   6.767
 2133SOL     OW 7297   3.773   2.116   1.155
 2133SOL    HW1 7298   3.771   2.021   1.124
 2133SOL    HW2 7299   3.821   2.121   1.243
 2134SOL     OW 7300   2.086   6.079   5.384
 2134SOL    HW1 7301   2.065   6.109   5.477
 2134SOL    HW2 7302   2.125   6.155   5.332
 2135SOL     OW 7303   1.025   5.794   3.938
 2135SOL    HW1 7304   0.996   5.734   3.864
 2135SOL    HW2 7305   1.121   5.776   3.959
 2136SOL     OW 7306   1.362   4.916   3.618
 2136SOL    HW1 7307   1.355   4.881   3.525
 2136SOL    HW2 7308   1.291   4.874   3.675
 2137SOL     OW 7309   1.154   1.365   4.893
 2137SOL    HW1 7310   1.148   1.268   4.917
 2137SOL    HW2 7311   1.239   1.403   4.929
 2138SOL     OW 7312   1.175   2.751   5.822
 2138SOL    HW1 7313   1.227   2.801   5.891
 2138SOL    HW2 7314   1.099   2.807   5.790
 2139SOL     OW 7315   2.573   0.243   4.852
 2139SOL    HW1 7316   2.630   0.257   4.771
 2139SOL    HW2 7317   2.575   0.146   4.878
 2140SOL     OW 7318   1.708   6.093   3.691
 2140SOL    HW1 7319   1.765   6.011   3.682
 2140SOL    HW2 7320   1.669   6.116   3.602
 2141SOL     OW 7321   6.791   1.697   6.613
 2141SOL    HW1 7322   6.863   1.737   6.556
 2141SOL    HW2 7323   6.702   1.729   6.582
 2142SOL     OW 7324   3.286   1.044   3.718
 2142SOL    HW1 7325   3.256   0.948   3.716
 2142SOL    HW2 7326   3.213   1.103   3.684
 2143SOL     OW 7327   4.032   6.236   7.015
 2143SOL    HW1 7328   4.111   6.208   0.046
 2143SOL    HW2 7329   4.063   6.259   6.922
 2144SOL     OW 7330   0.879   0.900   1.763
 2144SOL    HW1 7331   0.977   0.881   1.764
 2144SOL    HW2 7332   0.847   0.915   1.856
 2145SOL     OW 7333   3.171   5.850   2.533
 2145SOL    HW1 7334   3.139   5.756   2.519
 2145SOL    HW2 7335   3.120   5.891   2.608
 2146SOL     OW 7336   2.816   2.468   0.694
 2146SOL    HW1 7337   2.904   2.489   0.651
 2146SOL    HW2 7338   2.745   2.464   0.624
 2147SOL     OW 7339   0.314   0.756   5.237
 2147SOL    HW1 7340   0.303   0.712   5.148
 2147SOL    HW2 7341   0.231   0.741   5.292
 2148SOL     OW 7342   5.390   3.610   4.032
 2148SOL    HW1 7343   5.341   3.528   4.063
 2148SOL    HW2 7344   5.328   3.668   3.980
 2149SOL     OW 7345   3.245   0.128   2.732
 2149SOL    HW1 7346   3.230   0.068   2.811
 2149SOL    HW2 7347   3.233   0.223   2.760
 2150SOL     OW 7348   4.138   0.534   3.095
 2150SOL    HW1 7349   4.129   0.548   2.996
 2150SOL    HW2 7350   4.210   0.593   3.131
 2151SOL     OW 7351   3.340   4.070   5.516
 2151SOL    HW1 7352   3.302   3.999   5.458
 2151SOL    HW2 7353   3.439   4.076   5.501
 2152SOL     OW 7354   6.371   6.888   2.079
 2152SOL    HW1 7355   6.461   6.918   2.107
 2152SOL    HW2 7356   6.336   6.949   2.008
 2153SOL     OW 7357   4.809   2.132   3.249
 2153SOL    HW1 7358   4.818   2.184   3.334
 2153SOL    HW2 7359   4.745   2.180   3.188
 2154SOL     OW 7360   4.218   6.619   5.254
 2154SOL    HW1 7361   4.221   6.653   5.348
 2154SOL    HW2 7362   4.195   6.521   5.255
 2155SOL     OW 7363   6.169   4.251   6.705
 2155SOL    HW1 7364   6.077   4.217   6.687
 2155SOL    HW2 7365   6.173   4.349   6.685
 2156SOL     OW 7366   0.139   0.725   1.128
 2156SOL    HW1 7367   0.200   0.647   1.144
 2156SOL    HW2 7368   0.061   0.695   1.074
 2157SOL     OW 7369   6.341   1.290   4.167
 2157SOL    HW1 7370   6.282   1.300   4.247
 2157SOL    HW2 7371   6.332   1.198   4.130
 2158SOL     OW 7372   4.622   6.865   3.000
 2158SOL    HW1 7373   4.590   6.835   2.910
 2158SOL    HW2 7374   4.602   6.795   3.068
 2159SOL     OW 7375   2.224   0.190   5.120
 2159SOL    HW1 7376   2.269   0.279   5.114
 2159SOL    HW2 7377   2.125   0.204   5.128
 2160SOL     OW 7378   2.823   2.860   0.814
 2160SOL    HW1 7379   2.881   2.780   0.794
 2160SOL    HW2 7380   2.746   2.861   0.750
 2161SOL     OW 7381   5.402   2.488   3.731
 2161SOL    HW1 7382   5.411   2.580   3.693
 2161SOL    HW2 7383   5.310   2.476   3.768
 2162SOL     OW 7384   1.790   0.917   0.912
 2162SOL    HW1 7385   1.731   0.975   0.855
 2162SOL    HW2 7386   1.735   0.847   0.957
 2163SOL     OW 7387   2.223   1.712   1.375
 2163SOL    HW1 7388   2.187   1.738   1.465
 2163SOL    HW2 7389   2.157   1.655   1.327
 2164SOL     OW 7390   0.100   0.069   1.242
 2164SOL    HW1 7391   0.157   0.137   1.197
 2164SOL    HW2 7392   0.149   7.006   1.248
 2165SOL     OW 7393   2.965   0.185   1.818
 2165SOL    HW1 7394   3.029   0.230   1.880
 2165SOL    HW2 7395   2.905   0.124   1.869
 2166SOL     OW 7396   6.030   2.520   5.967
 2166SOL    HW1 7397   6.123   2.537   5.935
 2166SOL    HW2 7398   6.030   2.514   6.067
 2167SOL     OW 7399   2.629   1.147   1.507
 2167SOL    HW1 7400   2.555   1.149   1.574
 2167SOL    HW2 7401   2.667   1.054   1.502
 2168SOL     OW 7402   5.995   6.266   4.532
 2168SOL    HW1 7403   6.084   6.222   4.540
 2168SOL    HW2 7404   5.992   6.348   4.590
 2169SOL     OW 7405   6.585   1.363   5.981
 2169SOL    HW1 7406   6.581   1.305   6.062
 2169SOL    HW2 7407   6.664   1.337   5.925
 2170SOL     OW 7408   5.389   4.271   4.594
 2170SOL    HW1 7409   5.298   4.232   4.605
 2170SOL    HW2 7410   5.396   4.355   4.649
 2171SOL     OW 7411   6.824   3.364   0.422
 2171SOL    HW1 7412   6.901   3.416   0.384
 2171SOL    HW2 7413   6.738   3.401   0.385
 2172SOL     OW 7414   2.675   0.299   1.663
 2172SOL    HW1 7415   2.761   0.265   1.627
 2172SOL    HW2 7416   2.681   0.398   1.676
 2173SOL     OW 7417   4.721   2.082   4.819
 2173SOL    HW1 7418   4.687   2.084   4.725
 2173SOL    HW2 7419   4.731   1.987   4.849
 2174SOL     OW 7420   1.410   5.541   5.134
 2174SOL    HW1 7421   1.418   5.640   5.123
 2174SOL    HW2 7422   1.500   5.503   5.158
 2175SOL     OW 7423   1.662   6.168   6.011
 2175SOL    HW1 7424   1.622   6.168   6.103
 2175SOL    HW2 7425   1.615   6.237   5.955
 2176SOL     OW 7426   1.541   2.845   2.210
 2176SOL    HW1 7427   1.541   2.881   2.116
 2176SOL    HW2 7428   1.473   2.772   2.217
 2177SOL     OW 7429   0.425   2.245   1.734
 2177SOL    HW1 7430   0.477   2.241   1.649
 2177SOL    HW2 7431   0.467   2.185   1.802
 2178SOL     OW 7432   6.734   6.226   0.850
 2178SOL    HW1 7433   6.819   6.190   0.888
 2178SOL    HW2 7434   6.746   6.243   0.752
 2179SOL     OW 7435   1.158   3.820   4.219
 2179SOL    HW1 7436   1.093   3.886   4.180
 2179SOL    HW2 7437   1.146   3.731   4.176
 2180SOL     OW 7438   3.667   2.666   1.341
 2180SOL    HW1 7439   3.692   2.762   1.349
 2180SOL    HW2 7440   3.726   2.611   1.400
 2181SOL     OW 7441   4.087   6.785   1.449
 2181SOL    HW1 7442   4.022   6.838   1.394
 2181SOL    HW2 7443   4.131   6.845   1.515
 2182SOL     OW 7444   5.640   2.326   0.426
 2182SOL    HW1 7445   5.574   2.297   0.495
 2182SOL    HW2 7446   5.658   2.424   0.435
 2183SOL     OW 7447   2.769   2.731   0.086
 2183SOL    HW1 7448   2.715   2.689   0.160
 2183SOL    HW2 7449   2.753   2.681   0.001
 2184SOL     OW 7450   4.287   3.185   6.044
 2184SOL    HW1 7451   4.326   3.274   6.066
 2184SOL    HW2 7452   4.190   3.195   6.025
 2185SOL     OW 7453   0.171   6.941   2.130
 2185SOL    HW1 7454   0.093   6.905   2.078
 2185SOL    HW2 7455   0.229   6.865   2.160
 2186SOL     OW 7456   0.419   4.265   3.087
 2186SOL    HW1 7457   0.364   4.300   3.163
 2186SOL    HW2 7458   0.364   4.201   3.033
 2187SOL     OW 7459   6.160   1.470   6.472
 2187SOL    HW1 7460   6.210   1.433   6.550
 2187SOL    HW2 7461   6.224   1.494   6.399
 2188SOL     OW 7462   4.897   1.138   3.672
 2188SOL    HW1 7463   4.852   1.064   3.723
 2188SOL    HW2 7464   4.986   1.156   3.713
 2189SOL     OW 7465   2.909   0.108   6.828
 2189SOL    HW1 7466   2.864   0.195   6.841
 2189SOL    HW2 7467   2.899   0.079   6.732
 2190SOL     OW 7468   4.761   2.462   1.078
 2190SOL    HW1 7469   4.842   2.516   1.101
 2190SOL    HW2 7470   4.743   2.397   1.151
 2191SOL     OW 7471   2.811   2.075   0.091
 2191SOL    HW1 7472   2.802   1.976   0.089
 2191SOL    HW2 7473   2.808   2.107   0.186
 2192SOL     OW 7474   3.888   5.171   2.544
 2192SOL    HW1 7475   3.831   5.094   2.515
 2192SOL    HW2 7476   3.891   5.239   2.472
 2193SOL     OW 7477   6.454   5.942   4.946
 2193SOL    HW1 7478   6.355   5.932   4.937
 2193SOL    HW2 7479   6.487   6.009   4.880
 2194SOL     OW 7480   2.923   0.287   1.568
 2194SOL    HW1 7481   3.006   0.278   1.514
 2194SOL    HW2 7482   2.940   0.254   1.661
 2195SOL     OW 7483   0.959   5.271   2.239
 2195SOL    HW1 7484   0.916   5.361   2.238
 2195SOL    HW2 7485   0.892   5.202   2.268
 2196SOL     OW 7486   4.449   2.925   0.221
 2196SOL    HW1 7487   4.427   2.903   0.127
 2196SOL    HW2 7488   4.490   2.845   0.265
 2197SOL     OW 7489   4.448   4.313   6.858
 2197SOL    HW1 7490   4.430   4.246   6.785
 2197SOL    HW2 7491   4.547   4.330   6.862
 2198SOL     OW 7492   5.971   4.400   0.547
 2198SOL    HW1 7493   6.059   4.426   0.585
 2198SOL    HW2 7494   5.911   4.366   0.620
 2199SOL     OW 7495   4.358   1.299   2.880
 2199SOL    HW1 7496   4.344   1.259   2.789
 2199SOL    HW2 7497   4.432   1.251   2.927
 2200SOL     OW 7498   2.667   6.895   4.605
 2200SOL    HW1 7499   2.683   6.950   4.524
 2200SOL    HW2 7500   2.754   6.875   4.650
 2201SOL     OW 7501   4.853   4.128   3.915
 2201SOL    HW1 7502   4.781   4.143   3.847
 2201SOL    HW2 7503   4.850   4.200   3.984
 2202SOL     OW 7504   5.000   5.969   3.876
 2202SOL    HW1 7505   5.087   6.004   3.841
 2202SOL    HW2 7506   5.010   5.873   3.903
 2203SOL     OW 7507   2.937   1.830   2.801
 2203SOL    HW1 7508   2.873   1.892   2.755
 2203SOL    HW2 7509   2.968   1.760   2.737
 2204SOL     OW 7510   2.686   2.881   0.336
 2204SOL    HW1 7511   2.594   2.912   0.310
 2204SOL    HW2 7512   2.754   2.945   0.301
 2205SOL     OW 7513   2.562   0.941   1.962
 2205SOL    HW1 7514   2.521   1.012   1.906
 2205SOL    HW2 7515   2.495   0.868   1.978
 2206SOL     OW 7516   1.941   2.862   0.030
 2206SOL    HW1 7517   2.039   2.865   0.048
 2206SOL    HW2 7518   1.918   2.927   6.981
 2207SOL     OW 7519   0.794   4.727   4.871
 2207SOL    HW1 7520   0.832   4.754   4.959
 2207SOL    HW2 7521   0.808   4.801   4.805
 2208SOL     OW 7522   6.714   4.877   2.153
 2208SOL    HW1 7523   6.635   4.817   2.139
 2208SOL    HW2 7524   6.692   4.968   2.119
 2209SOL     OW 7525   1.139   0.048   1.871
 2209SOL    HW1 7526   1.077   0.115   1.830
 2209SOL    HW2 7527   1.177   7.014   1.799
 2210SOL     OW 7528   2.321   5.285   3.422
 2210SOL    HW1 7529   2.289   5.276   3.517
 2210SOL    HW2 7530   2.266   5.226   3.363
 2211SOL     OW 7531   0.003   1.741   5.375
 2211SOL    HW1 7532   6.959   1.701   5.314
 2211SOL    HW2 7533   7.006   1.838   5.390
 2212SOL     OW 7534   1.861   0.237   6.528
 2212SOL    HW1 7535   1.801   0.177   6.476
 2212SOL    HW2 7536   1.936   0.268   6.469
 2213SOL     OW 7537   3.783   0.224   3.192
 2213SOL    HW1 7538   3.810   0.188   3.102
 2213SOL    HW2 7539   3.723   0.303   3.180
 2214SOL     OW 7540   4.451   0.368   4.497
 2214SOL    HW1 7541   4.465   0.408   4.587
 2214SOL    HW2 7542   4.355   0.378   4.470
 2215SOL     OW 7543   5.796   2.229   5.456
 2215SOL    HW1 7544   5.747   2.143   5.442
 2215SOL    HW2 7545   5.844   2.226   5.544
 2216SOL     OW 7546   2.843   0.852   2.476
 2216SOL    HW1 7547   2.938   0.878   2.487
 2216SOL    HW2 7548   2.808   0.887   2.389
 2217SOL     OW 7549   4.284   1.121   1.978
 2217SOL    HW1 7550   4.185   1.110   1.984
 2217SOL    HW2 7551   4.318   1.160   2.064
 2218SOL     OW 7552   1.601   0.047   3.256
 2218SOL    HW1 7553   1.638   7.003   3.193
 2218SOL    HW2 7554   1.634   0.138   3.231
 2219SOL     OW 7555   1.253   2.672   2.800
 2219SOL    HW1 7556   1.184   2.639   2.865
 2219SOL    HW2 7557   1.302   2.593   2.762
 2220SOL     OW 7558   0.551   0.227   2.019
 2220SOL    HW1 7559   0.515   0.246   1.927
 2220SOL    HW2 7560   0.634   0.172   2.011
 2221SOL     OW 7561   0.433   0.913   6.734
 2221SOL    HW1 7562   0.533   0.915   6.736
 2221SOL    HW2 7563   0.402   0.852   6.661
 2222SOL     OW 7564   6.474   5.691   3.227
 2222SOL    HW1 7565   6.538   5.654   3.160
 2222SOL    HW2 7566   6.400   5.739   3.180
 2223SOL     OW 7567   6.663   6.326   1.825
 2223SOL    HW1 7568   6.567   6.316   1.853
 2223SOL    HW2 7569   6.668   6.385   1.745
 2224SOL     OW 7570   1.050   4.421   1.733
 2224SOL    HW1 7571   0.989   4.388   1.804
 2224SOL    HW2 7572   1.079   4.344   1.675
 2225SOL     OW 7573   0.331   4.140   1.093
 2225SOL    HW1 7574   0.232   4.141   1.084
 2225SOL    HW2 7575   0.370   4.224   1.056
 2226SOL     OW 7576   4.074   3.745   2.101
 2226SOL    HW1 7577   4.154   3.801   2.076
 2226SOL    HW2 7578   4.060   3.750   2.200
 2227SOL     OW 7579   0.933   2.954   4.781
 2227SOL    HW1 7580   0.926   3.053   4.791
 2227SOL    HW2 7581   1.010   2.921   4.836
 2228SOL     OW 7582   3.384   5.039   4.446
 2228SOL    HW1 7583   3.298   5.002   4.482
 2228SOL    HW2 7584   3.377   5.048   4.347
 2229SOL     OW 7585   5.850   6.410   3.361
 2229SOL    HW1 7586   5.947   6.432   3.350
 2229SOL    HW2 7587   5.801   6.437   3.278
 2230SOL     OW 7588   2.503   5.317   1.972
 2230SOL    HW1 7589   2.541   5.376   2.043
 2230SOL    HW2 7590   2.468   5.373   1.897
 2231SOL     OW 7591   2.844   6.340   1.059
 2231SOL    HW1 7592   2.800   6.288   1.132
 2231SOL    HW2 7593   2.793   6.327   0.974
 2232SOL     OW 7594   5.332   2.830   3.820
 2232SOL    HW1 7595   5.323   2.851   3.918
 2232SOL    HW2 7596   5.270   2.889   3.768
 2233SOL     OW 7597   2.515   1.493   6.180
 2233SOL    HW1 7598   2.610   1.465   6.165
 2233SOL    HW2 7599   2.499   1.582   6.139
 2234SOL     OW 7600   3.422   2.587   1.263
 2234SOL    HW1 7601   3.512   2.631   1.263
 2234SOL    HW2 7602   3.417   2.520   1.337
 2235SOL     OW 7603   2.484   2.056   1.561
 2235SOL    HW1 7604   2.492   2.153   1.582
 2235SOL    HW2 7605   2.418   2.014   1.623
 2236SOL     OW 7606   0.902   4.783   6.417
 2236SOL    HW1 7607   0.933   4.730   6.496
 2236SOL    HW2 7608   0.954   4.756   6.336
 2237SOL     OW 7609   5.974   3.155   4.241
 2237SOL    HW1 7610   5.923   3.105   4.171
 2237SOL    HW2 7611   6.011   3.090   4.308
 2238SOL     OW 7612   6.393   6.299   0.974
 2238SOL    HW1 7613   6.473   6.344   1.013
 2238SOL    HW2 7614   6.356   6.234   1.041
 2239SOL     OW 7615   6.280   6.067   2.110
 2239SOL    HW1 7616   6.294   6.157   2.150
 2239SOL    HW2 7617   6.279   6.074   2.011
 2240SOL     OW 7618   5.633   3.530   1.714
 2240SOL    HW1 7619   5.578   3.594   1.768
 2240SOL    HW2 7620   5.709   3.579   1.672
 2241SOL     OW 7621   1.548   6.955   2.657
 2241SOL    HW1 7622   1.580   6.862   2.679
 2241SOL    HW2 7623   1.590   6.985   2.571
 2242SOL     OW 7624   3.415   1.913   2.280
 2242SOL    HW1 7625   3.367   1.914   2.368
 2242SOL    HW2 7626   3.498   1.969   2.287
 2243SOL     OW 7627   2.526   0.078   5.253
 2243SOL    HW1 7628   2.451   0.017   5.226
 2243SOL    HW2 7629   2.512   0.168   5.211
 2244SOL     OW 7630   3.178   1.399   4.786
 2244SOL    HW1 7631   3.084   1.433   4.783
 2244SOL    HW2 7632   3.238   1.467   4.828
 2245SOL     OW 7633   0.385   2.342   1.989
 2245SOL    HW1 7634   0.390   2.306   1.896
 2245SOL    HW2 7635   0.301   2.394   2.000
 2246SOL     OW 7636   1.651   4.809   4.965
 2246SOL    HW1 7637   1.676   4.747   4.891
 2246SOL    HW2 7638   1.570   4.774   5.012
 2247SOL     OW 7639   1.885   1.253   4.497
 2247SOL    HW1 7640   1.830   1.176   4.465
 2247SOL    HW2 7641   1.980   1.241   4.469
 2248SOL     OW 7642   4.316   3.895   5.794
 2248SOL    HW1 7643   4.355   3.875   5.883
 2248SOL    HW2 7644   4.369   3.849   5.723
 2249SOL     OW 7645   3.740   5.353   5.082
 2249SOL    HW1 7646   3.664   5.311   5.131
 2249SOL    HW2 7647   3.711   5.379   4.990
 2250SOL     OW 7648   4.662   4.968   1.551
 2250SOL    HW1 7649   4.592   5.037   1.529
 2250SOL    HW2 7650   4.735   5.011   1.605
 2251SOL     OW 7651   0.307   0.275   5.934
 2251SOL    HW1 7652   0.312   0.342   5.859
 2251SOL    HW2 7653   0.346   0.188   5.903
 2252SOL     OW 7654   3.451   0.653   6.274
 2252SOL    HW1 7655   3.495   0.595   6.206
 2252SOL    HW2 7656   3.465   0.749   6.249
 2253SOL     OW 7657   1.069   3.082   6.469
 2253SOL    HW1 7658   0.996   3.106   6.533
 2253SOL    HW2 7659   1.063   2.985   6.446
 2254SOL     OW 7660   1.784   4.960   6.305
 2254SOL    HW1 7661   1.819   4.946   6.212
 2254SOL    HW2 7662   1.686   4.982   6.301
 2255SOL     OW 7663   5.739   3.566   0.019
 2255SOL    HW1 7664   5.815   3.604   0.072
 2255SOL    HW2 7665   5.670   3.529   0.081
 2256SOL     OW 7666   2.781   4.673   2.545
 2256SOL    HW1 7667   2.834   4.688   2.461
 2256SOL    HW2 7668   2.785   4.755   2.602
 2257SOL     OW 7669   1.815   3.611   4.101
 2257SOL    HW1 7670   1.823   3.653   4.010
 2257SOL    HW2 7671   1.898   3.630   4.154
 2258SOL     OW 7672   1.817   5.035   5.666
 2258SOL    HW1 7673   1.775   5.125   5.683
 2258SOL    HW2 7674   1.749   4.973   5.629
 2259SOL     OW 7675   6.598   3.279   6.505
 2259SOL    HW1 7676   6.523   3.286   6.571
 2259SOL    HW2 7677   6.580   3.204   6.441
 2260SOL     OW 7678   4.108   3.466   1.323
 2260SOL    HW1 7679   4.009   3.454   1.315
 2260SOL    HW2 7680   4.140   3.420   1.406
 2261SOL     OW 7681   2.817   6.653   4.893
 2261SOL    HW1 7682   2.810   6.558   4.862
 2261SOL    HW2 7683   2.740   6.675   4.954
 2262SOL     OW 7684   3.216   1.776   3.098
 2262SOL    HW1 7685   3.296   1.765   3.158
 2262SOL    HW2 7686   3.192   1.873   3.092
 2263SOL     OW 7687   0.709   4.136   5.804
 2263SOL    HW1 7688   0.616   4.124   5.837
 2263SOL    HW2 7689   0.708   4.192   5.721
 2264SOL     OW 7690   3.053   3.682   2.945
 2264SOL    HW1 7691   2.982   3.638   3.000
 2264SOL    HW2 7692   3.086   3.619   2.875
 2265SOL     OW 7693   1.008   6.701   3.505
 2265SOL    HW1 7694   1.010   6.602   3.523
 2265SOL    HW2 7695   0.934   6.721   3.441
 2266SOL     OW 7696   6.695   0.355   6.340
 2266SOL    HW1 7697   6.748   0.313   6.266
 2266SOL    HW2 7698   6.598   0.352   6.318
 2267SOL     OW 7699   5.685   1.963   5.382
 2267SOL    HW1 7700   5.592   1.939   5.354
 2267SOL    HW2 7701   5.699   1.936   5.477
 2268SOL     OW 7702   6.718   5.344   6.582
 2268SOL    HW1 7703   6.737   5.392   6.667
 2268SOL    HW2 7704   6.781   5.376   6.511
 2269SOL     OW 7705   0.492   6.849   3.307
 2269SOL    HW1 7706   0.571   6.910   3.317
 2269SOL    HW2 7707   0.486   6.788   3.386
 2270SOL     OW 7708   3.485   3.216   3.044
 2270SOL    HW1 7709   3.582   3.209   3.066
 2270SOL    HW2 7710   3.467   3.166   2.959
 2271SOL     OW 7711   0.768   4.652   2.948
 2271SOL    HW1 7712   0.730   4.718   3.013
 2271SOL    HW2 7713   0.731   4.562   2.967
 2272SOL     OW 7714   5.267   2.018   5.749
 2272SOL    HW1 7715   5.275   1.925   5.786
 2272SOL    HW2 7716   5.209   2.073   5.809
 2273SOL     OW 7717   0.665   1.152   3.310
 2273SOL    HW1 7718   0.719   1.080   3.354
 2273SOL    HW2 7719   0.718   1.193   3.236
 2274SOL     OW 7720   0.841   3.936   2.947
 2274SOL    HW1 7721   0.766   3.991   2.985
 2274SOL    HW2 7722   0.836   3.938   2.847
 2275SOL     OW 7723   4.969   6.359   3.842
 2275SOL    HW1 7724   5.052   6.401   3.879
 2275SOL    HW2 7725   4.991   6.269   3.806
 2276SOL     OW 7726   2.959   5.944   2.263
 2276SOL    HW1 7727   3.042   5.888   2.259
 2276SOL    HW2 7728   2.984   6.040   2.249
 2277SOL     OW 7729   2.848   3.732   1.263
 2277SOL    HW1 7730   2.936   3.768   1.295
 2277SOL    HW2 7731   2.856   3.708   1.167
 2278SOL     OW 7732   5.272   6.752   1.490
 2278SOL    HW1 7733   5.340   6.783   1.424
 2278SOL    HW2 7734   5.195   6.815   1.490
 2279SOL     OW 7735   5.890   3.804   5.814
 2279SOL    HW1 7736   5.795   3.792   5.783
 2279SOL    HW2 7737   5.935   3.714   5.817
 2280SOL     OW 7738   5.773   0.152   6.122
 2280SOL    HW1 7739   5.827   0.149   6.038
 2280SOL    HW2 7740   5.807   0.224   6.181
 2281SOL     OW 7741   2.493   1.654   0.398
 2281SOL    HW1 7742   2.400   1.616   0.404
 2281SOL    HW2 7743   2.520   1.660   0.302
 2282SOL     OW 7744   4.238   6.052   2.091
 2282SOL    HW1 7745   4.199   5.988   2.026
 2282SOL    HW2 7746   4.175   6.128   2.106
 2283SOL     OW 7747   0.140   3.950   2.030
 2283SOL    HW1 7748   0.148   4.049   2.038
 2283SOL    HW2 7749   0.165   3.907   2.116
 2284SOL     OW 7750   2.512   2.207   2.352
 2284SOL    HW1 7751   2.445   2.279   2.367
 2284SOL    HW2 7752   2.591   2.244   2.302
 2285SOL     OW 7753   1.758   3.721   6.826
 2285SOL    HW1 7754   1.711   3.641   6.862
 2285SOL    HW2 7755   1.782   3.782   6.902
 2286SOL     OW 7756   6.187   6.556   4.230
 2286SOL    HW1 7757   6.156   6.609   4.310
 2286SOL    HW2 7758   6.269   6.597   4.192
 2287SOL     OW 7759   1.990   2.255   0.626
 2287SOL    HW1 7760   2.015   2.225   0.534
 2287SOL    HW2 7761   2.071   2.294   0.671
 2288SOL     OW 7762   2.387   5.273   4.759
 2288SOL    HW1 7763   2.346   5.221   4.834
 2288SOL    HW2 7764   2.485   5.284   4.775
 2289SOL     OW 7765   4.146   1.161   0.119
 2289SOL    HW1 7766   4.068   1.209   0.159
 2289SOL    HW2 7767   4.141   1.167   0.019
 2290SOL     OW 7768   3.538   3.797   3.885
 2290SOL    HW1 7769   3.517   3.827   3.791
 2290SOL    HW2 7770   3.634   3.815   3.905
 2291SOL     OW 7771   1.750   2.051   6.650
 2291SOL    HW1 7772   1.832   2.026   6.703
 2291SOL    HW2 7773   1.774   2.060   6.554
 2292SOL     OW 7774   4.822   1.705   2.862
 2292SOL    HW1 7775   4.826   1.774   2.934
 2292SOL    HW2 7776   4.897   1.720   2.797
 2293SOL     OW 7777   0.550   0.969   0.216
 2293SOL    HW1 7778   0.606   0.922   0.148
 2293SOL    HW2 7779   0.456   0.935   0.211
 2294SOL     OW 7780   0.292   0.767   5.964
 2294SOL    HW1 7781   0.194   0.776   5.982
 2294SOL    HW2 7782   0.311   0.676   5.927
 2295SOL     OW 7783   6.103   6.033   1.336
 2295SOL    HW1 7784   6.067   6.050   1.244
 2295SOL    HW2 7785   6.148   5.944   1.338
 2296SOL     OW 7786   3.852   5.195   4.265
 2296SOL    HW1 7787   3.941   5.205   4.310
 2296SOL    HW2 7788   3.783   5.168   4.333
 2297SOL     OW 7789   5.658   4.033   5.050
 2297SOL    HW1 7790   5.745   4.083   5.055
 2297SOL    HW2 7791   5.677   3.936   5.033
 2298SOL     OW 7792   2.979   3.246   4.897
 2298SOL    HW1 7793   3.060   3.201   4.861
 2298SOL    HW2 7794   2.912   3.177   4.926
 2299SOL     OW 7795   5.426   3.055   4.281
 2299SOL    HW1 7796   5.440   3.154   4.283
 2299SOL    HW2 7797   5.350   3.030   4.340
 2300SOL     OW 7798   5.463   6.990   1.928
 2300SOL    HW1 7799   5.545   7.019   1.879
 2300SOL    HW2 7800   5.481   6.902   1.973
 2301SOL     OW 7801   3.948   3.258   4.950
 2301SOL    HW1 7802   3.877   3.232   5.016
 2301SOL    HW2 7803   3.929   3.349   4.915
 2302SOL     OW 7804   6.195   3.281   6.245
 2302SOL    HW1 7805   6.223   3.359   6.300
 2302SOL    HW2 7806   6.275   3.239   6.203
 2303SOL     OW 7807   2.957   2.323   6.828
 2303SOL    HW1 7808   2.892   2.393   6.858
 2303SOL    HW2 7809   3.012   2.293   6.906
 2304SOL     OW 7810   6.945   6.878   2.367
 2304SOL    HW1 7811   6.846   6.886   2.374
 2304SOL    HW2 7812   6.972   6.783   2.382
 2305SOL     OW 7813   2.565   6.946   5.669
 2305SOL    HW1 7814   2.521   7.005   5.738
 2305SOL    HW2 7815   2.607   7.003   5.599
 2306SOL     OW 7816   2.036   4.781   4.662
 2306SOL    HW1 7817   2.062   4.834   4.742
 2306SOL    HW2 7818   2.067   4.687   4.672
 2307SOL     OW 7819   6.628   3.539   5.109
 2307SOL    HW1 7820   6.615   3.445   5.075
 2307SOL    HW2 7821   6.584   3.548   5.198
 2308SOL     OW 7822   1.044   5.723   2.209
 2308SOL    HW1 7823   1.094   5.727   2.296
 2308SOL    HW2 7824   0.983   5.803   2.202
 2309SOL     OW 7825   2.524   0.760   4.458
 2309SOL    HW1 7826   2.501   0.777   4.554
 2309SOL    HW2 7827   2.531   0.661   4.442
 2310SOL     OW 7828   4.782   6.718   0.868
 2310SOL    HW1 7829   4.811   6.789   0.932
 2310SOL    HW2 7830   4.684   6.701   0.880
 2311SOL     OW 7831   2.325   5.910   0.986
 2311SOL    HW1 7832   2.255   5.951   1.044
 2311SOL    HW2 7833   2.325   5.811   0.997
 2312SOL     OW 7834   3.199   4.826   2.218
 2312SOL    HW1 7835   3.207   4.824   2.118
 2312SOL    HW2 7836   3.269   4.768   2.259
 2313SOL     OW 7837   5.129   4.478   1.802
 2313SOL    HW1 7838   5.030   4.474   1.789
 2313SOL    HW2 7839   5.163   4.568   1.775
 2314SOL     OW 7840   2.728   4.845   4.218
 2314SOL    HW1 7841   2.679   4.761   4.196
 2314SOL    HW2 7842   2.767   4.883   4.134
 2315SOL     OW 7843   5.189   2.097   6.537
 2315SOL    HW1 7844   5.236   2.182   6.561
 2315SOL    HW2 7845   5.245   2.019   6.562
 2316SOL     OW 7846   4.912   3.273   2.009
 2316SOL    HW1 7847   4.951   3.284   1.917
 2316SOL    HW2 7848   4.836   3.208   2.006
 2317SOL     OW 7849   0.821   6.195   3.032
 2317SOL    HW1 7850   0.846   6.122   2.969
 2317SOL    HW2 7851   0.879   6.190   3.113
 2318SOL     OW 7852   0.298   1.430   4.279
 2318SOL    HW1 7853   0.279   1.361   4.350
 2318SOL    HW2 7854   0.215   1.482   4.261
 2319SOL     OW 7855   1.472   4.633   2.208
 2319SOL    HW1 7856   1.392   4.606   2.154
 2319SOL    HW2 7857   1.466   4.592   2.299
 2320SOL     OW 7858   6.726   4.841   4.736
 2320SOL    HW1 7859   6.710   4.890   4.650
 2320SOL    HW2 7860   6.654   4.864   4.801
 2321SOL     OW 7861   3.646   4.927   4.823
 2321SOL    HW1 7862   3.730   4.952   4.873
 2321SOL    HW2 7863   3.572   4.912   4.889
 2322SOL     OW 7864   3.106   0.542   5.201
 2322SOL    HW1 7865   3.122   0.598   5.120
 2322SOL    HW2 7866   3.036   0.585   5.258
 2323SOL     OW 7867   4.866   3.603   2.143
 2323SOL    HW1 7868   4.938   3.603   2.213
 2323SOL    HW2 7869   4.854   3.510   2.108
 2324SOL     OW 7870   0.835   4.720   3.415
 2324SOL    HW1 7871   0.899   4.650   3.382
 2324SOL    HW2 7872   0.857   4.808   3.373
 2325SOL     OW 7873   0.341   2.116   0.178
 2325SOL    HW1 7874   0.296   2.189   0.230
 2325SOL    HW2 7875   0.325   2.028   0.223
 2326SOL     OW 7876   0.857   4.168   0.208
 2326SOL    HW1 7877   0.885   4.136   0.299
 2326SOL    HW2 7878   0.935   4.163   0.146
 2327SOL     OW 7879   5.075   1.660   3.553
 2327SOL    HW1 7880   5.148   1.711   3.508
 2327SOL    HW2 7881   5.106   1.629   3.643
 2328SOL     OW 7882   6.423   5.730   3.476
 2328SOL    HW1 7883   6.478   5.810   3.499
 2328SOL    HW2 7884   6.443   5.702   3.382
 2329SOL     OW 7885   0.432   5.389   2.794
 2329SOL    HW1 7886   0.437   5.485   2.821
 2329SOL    HW2 7887   0.468   5.332   2.867
 2330SOL     OW 7888   0.766   4.268   1.501
 2330SOL    HW1 7889   0.721   4.267   1.412
 2330SOL    HW2 7890   0.706   4.227   1.570
 2331SOL     OW 7891   1.342   4.328   6.014
 2331SOL    HW1 7892   1.290   4.270   5.951
 2331SOL    HW2 7893   1.439   4.324   5.991
 2332SOL     OW 7894   5.335   2.459   5.365
 2332SOL    HW1 7895   5.249   2.456   5.415
 2332SOL    HW2 7896   5.402   2.512   5.417
 2333SOL     OW 7897   3.122   4.934   4.067
 2333SOL    HW1 7898   3.157   4.950   3.975
 2333SOL    HW2 7899   3.023   4.917   4.063
 2334SOL     OW 7900   2.549   0.111   7.017
 2334SOL    HW1 7901   2.488   0.040   0.028
 2334SOL    HW2 7902   2.556   0.104   6.918
 2335SOL     OW 7903   4.577   5.232   4.620
 2335SOL    HW1 7904   4.671   5.234   4.654
 2335SOL    HW2 7905   4.542   5.138   4.624
 2336SOL     OW 7906   4.313   3.010   5.812
 2336SOL    HW1 7907   4.305   3.073   5.889
 2336SOL    HW2 7908   4.335   2.918   5.845
 2337SOL     OW 7909   6.246   0.401   4.319
 2337SOL    HW1 7910   6.228   0.329   4.252
 2337SOL    HW2 7911   6.342   0.428   4.314
 2338SOL     OW 7912   1.340   6.999   6.660
 2338SOL    HW1 7913   1.306   6.914   6.700
 2338SOL    HW2 7914   1.310   0.052   6.716
 2339SOL     OW 7915   4.400   5.050   0.025
 2339SOL    HW1 7916   4.489   5.065   0.069
 2339SOL    HW2 7917   4.390   5.114   6.973
 2340SOL     OW 7918   3.901   4.959   3.901
 2340SOL    HW1 7919   3.850   4.923   3.980
 2340SOL    HW2 7920   3.991   4.916   3.897
 2341SOL     OW 7921   5.839   4.689   6.539
 2341SOL    HW1 7922   5.835   4.658   6.634
 2341SOL    HW2 7923   5.746   4.694   6.502
 2342SOL     OW 7924   6.700   0.215   4.919
 2342SOL    HW1 7925   6.654   0.180   4.838
 2342SOL    HW2 7926   6.717   0.140   4.983
 2343SOL     OW 7927   0.742   0.322   0.610
 2343SOL    HW1 7928   0.701   0.407   0.644
 2343SOL    HW2 7929   0.793   0.341   0.526
 2344SOL     OW 7930   3.016   1.494   3.043
 2344SOL    HW1 7931   3.025   1.493   3.143
 2344SOL    HW2 7932   2.949   1.563   3.017
 2345SOL     OW 7933   1.410   1.750   2.445
 2345SOL    HW1 7934   1.367   1.836   2.474
 2345SOL    HW2 7935   1.508   1.764   2.432
 2346SOL     OW 7936   4.842   3.192   5.315
 2346SOL    HW1 7937   4.823   3.107   5.364
 2346SOL    HW2 7938   4.787   3.266   5.354
 2347SOL     OW 7939   1.609   3.395   0.837
 2347SOL    HW1 7940   1.561   3.401   0.750
 2347SOL    HW2 7941   1.708   3.397   0.822
 2348SOL     OW 7942   2.955   6.764   1.557
 2348SOL    HW1 7943   3.002   6.850   1.535
 2348SOL    HW2 7944   2.865   6.785   1.594
 2349SOL     OW 7945   4.585   4.298   6.244
 2349SOL    HW1 7946   4.613   4.361   6.172
 2349SOL    HW2 7947   4.650   4.304   6.320
 2350SOL     OW 7948   2.338   5.831   5.389
 2350SOL    HW1 7949   2.241   5.839   5.366
 2350SOL    HW2 7950   2.379   5.756   5.337
 2351SOL     OW 7951   1.890   5.188   3.325
 2351SOL    HW1 7952   1.901   5.278   3.367
 2351SOL    HW2 7953   1.980   5.150   3.303
 2352SOL     OW 7954   5.807   4.267   0.772
 2352SOL    HW1 7955   5.774   4.352   0.813
 2352SOL    HW2 7956   5.729   4.204   0.759
 2353SOL     OW 7957   2.207   3.566   6.576
 2353SOL    HW1 7958   2.132   3.608   6.627
 2353SOL    HW2 7959   2.252   3.497   6.632
 2354SOL     OW 7960   4.083   1.939   2.094
 2354SOL    HW1 7961   3.986   1.959   2.079
 2354SOL    HW2 7962   4.125   2.012   2.147
 2355SOL     OW 7963   0.422   1.622   1.872
 2355SOL    HW1 7964   0.344   1.625   1.933
 2355SOL    HW2 7965   0.390   1.631   1.777
 2356SOL     OW 7966   3.094   5.236   3.864
 2356SOL    HW1 7967   3.015   5.240   3.924
 2356SOL    HW2 7968   3.163   5.301   3.894
 2357SOL     OW 7969   0.343   4.646   0.734
 2357SOL    HW1 7970   0.428   4.683   0.697
 2357SOL    HW2 7971   0.332   4.674   0.829
 2358SOL     OW 7972   3.382   1.534   4.992
 2358SOL    HW1 7973   3.433   1.493   5.068
 2358SOL    HW2 7974   3.336   1.617   5.023
 2359SOL     OW 7975   2.127   1.981   5.601
 2359SOL    HW1 7976   2.200   1.914   5.593
 2359SOL    HW2 7977   2.153   2.065   5.553
 2360SOL     OW 7978   3.221   5.281   0.517
 2360SOL    HW1 7979   3.138   5.236   0.484
 2360SOL    HW2 7980   3.297   5.215   0.518
 2361SOL     OW 7981   3.561   5.927   1.249
 2361SOL    HW1 7982   3.541   5.959   1.157
 2361SOL    HW2 7983   3.608   5.999   1.300
 2362SOL     OW 7984   3.489   4.905   3.999
 2362SOL    HW1 7985   3.470   4.934   4.092
 2362SOL    HW2 7986   3.403   4.901   3.947
 2363SOL     OW 7987   1.761   4.141   0.618
 2363SOL    HW1 7988   1.785   4.058   0.569
 2363SOL    HW2 7989   1.682   4.124   0.677
 2364SOL     OW 7990   3.996   1.710   2.469
 2364SOL    HW1 7991   3.928   1.734   2.400
 2364SOL    HW2 7992   3.955   1.717   2.560
 2365SOL     OW 7993   5.039   4.312   2.613
 2365SOL    HW1 7994   4.998   4.392   2.570
 2365SOL    HW2 7995   4.970   4.240   2.622
 2366SOL     OW 7996   3.172   5.227   5.723
 2366SOL    HW1 7997   3.129   5.171   5.653
 2366SOL    HW2 7998   3.232   5.294   5.680
 2367SOL     OW 7999   5.986   5.211   5.995
 2367SOL    HW1 8000   6.004   5.130   5.939
 2367SOL    HW2 8001   5.997   5.187   6.092
 2368SOL     OW 8002   5.461   0.990   5.288
 2368SOL    HW1 8003   5.479   0.893   5.269
 2368SOL    HW2 8004   5.543   1.032   5.328
 2369SOL     OW 8005   3.718   2.016   4.105
 2369SOL    HW1 8006   3.727   1.919   4.128
 2369SOL    HW2 8007   3.660   2.060   4.173
 2370SOL     OW 8008   5.141   1.833   1.756
 2370SOL    HW1 8009   5.135   1.736   1.734
 2370SOL    HW2 8010   5.113   1.847   1.851
 2371SOL     OW 8011   1.271   6.551   1.596
 2371SOL    HW1 8012   1.326   6.588   1.671
 2371SOL    HW2 8013   1.231   6.464   1.623
 2372SOL     OW 8014   6.704   6.836   6.535
 2372SOL    HW1 8015   6.608   6.811   6.544
 2372SOL    HW2 8016   6.711   6.924   6.489
 2373SOL     OW 8017   5.747   4.491   5.930
 2373SOL    HW1 8018   5.766   4.589   5.918
 2373SOL    HW2 8019   5.807   4.454   6.001
 2374SOL     OW 8020   6.062   6.662   2.466
 2374SOL    HW1 8021   6.091   6.618   2.551
 2374SOL    HW2 8022   6.078   6.760   2.472
 2375SOL     OW 8023   2.245   0.591   4.373
 2375SOL    HW1 8024   2.283   0.507   4.334
 2375SOL    HW2 8025   2.268   0.669   4.314
 2376SOL     OW 8026   5.061   1.908   2.951
 2376SOL    HW1 8027   4.966   1.938   2.959
 2376SOL    HW2 8028   5.111   1.935   3.033
 2377SOL     OW 8029   4.548   3.417   5.701
 2377SOL    HW1 8030   4.562   3.331   5.750
 2377SOL    HW2 8031   4.450   3.436   5.694
 2378SOL     OW 8032   0.907   1.767   0.221
 2378SOL    HW1 8033   0.962   1.708   0.162
 2378SOL    HW2 8034   0.847   1.824   0.165
 2379SOL     OW 8035   0.148   5.340   2.188
 2379SOL    HW1 8036   0.198   5.425   2.174
 2379SOL    HW2 8037   0.157   5.310   2.283
 2380SOL     OW 8038   4.731   5.120   6.769
 2380SOL    HW1 8039   4.691   5.158   6.853
 2380SOL    HW2 8040   4.659   5.101   6.703
 2381SOL     OW 8041   2.209   4.035   3.491
 2381SOL    HW1 8042   2.232   3.940   3.468
 2381SOL    HW2 8043   2.169   4.038   3.583
 2382SOL     OW 8044   0.008   5.140   2.972
 2382SOL    HW1 8045   0.091   5.192   2.995
 2382SOL    HW2 8046   6.952   5.198   2.982
 2383SOL     OW 8047   5.325   4.204   6.093
 2383SOL    HW1 8048   5.346   4.136   6.164
 2383SOL    HW2 8049   5.250   4.262   6.123
 2384SOL     OW 8050   0.405   2.001   2.866
 2384SOL    HW1 8051   0.393   1.965   2.774
 2384SOL    HW2 8052   0.328   1.973   2.923
 2385SOL     OW 8053   0.246   1.350   0.725
 2385SOL    HW1 8054   0.175   1.315   0.664
 2385SOL    HW2 8055   0.232   1.448   0.739
 2386SOL     OW 8056   5.840   6.163   4.744
 2386SOL    HW1 8057   5.897   6.091   4.782
 2386SOL    HW2 8058   5.884   6.201   4.663
 2387SOL     OW 8059   0.922   1.156   4.087
 2387SOL    HW1 8060   0.852   1.087   4.099
 2387SOL    HW2 8061   1.000   1.135   4.146
 2388SOL     OW 8062   0.490   3.212   5.325
 2388SOL    HW1 8063   0.445   3.193   5.412
 2388SOL    HW2 8064   0.588   3.229   5.341
 2389SOL     OW 8065   4.534   5.587   3.029
 2389SOL    HW1 8066   4.457   5.650   3.019
 2389SOL    HW2 8067   4.594   5.620   3.102
 2390SOL     OW 8068   4.566   2.594   6.634
 2390SOL    HW1 8069   4.637   2.662   6.654
 2390SOL    HW2 8070   4.608   2.504   6.629
 2391SOL     OW 8071   3.685   4.708   6.403
 2391SOL    HW1 8072   3.643   4.755   6.481
 2391SOL    HW2 8073   3.633   4.625   6.382
 2392SOL     OW 8074   4.387   4.803   5.880
 2392SOL    HW1 8075   4.393   4.719   5.935
 2392SOL    HW2 8076   4.357   4.878   5.938
 2393SOL     OW 8077   4.577   4.501   0.747
 2393SOL    HW1 8078   4.628   4.586   0.738
 2393SOL    HW2 8079   4.510   4.509   0.821
 2394SOL     OW 8080   0.350   1.756   3.745
 2394SOL    HW1 8081   0.266   1.730   3.698
 2394SOL    HW2 8082   0.370   1.852   3.728
 2395SOL     OW 8083   0.866   3.258   3.854
 2395SOL    HW1 8084   0.842   3.189   3.923
 2395SOL    HW2 8085   0.937   3.319   3.891
 2396SOL     OW 8086   0.186   0.130   6.920
 2396SOL    HW1 8087   0.154   0.094   7.008
 2396SOL    HW2 8088   0.137   0.084   6.846
 2397SOL     OW 8089   1.185   3.787   4.995
 2397SOL    HW1 8090   1.237   3.714   5.039
 2397SOL    HW2 8091   1.225   3.876   5.020
 2398SOL     OW 8092   4.130   6.761   3.835
 2398SOL    HW1 8093   4.205   6.700   3.861
 2398SOL    HW2 8094   4.135   6.779   3.737
 2399SOL     OW 8095   3.206   2.115   2.914
 2399SOL    HW1 8096   3.274   2.116   2.988
 2399SOL    HW2 8097   3.124   2.067   2.946
 2400SOL     OW 8098   1.859   3.923   0.487
 2400SOL    HW1 8099   1.878   3.858   0.413
 2400SOL    HW2 8100   1.899   3.889   0.572
 2401SOL     OW 8101   1.757   6.238   6.397
 2401SOL    HW1 8102   1.835   6.260   6.340
 2401SOL    HW2 8103   1.724   6.321   6.443
 2402SOL     OW 8104   0.982   3.800   2.215
 2402SOL    HW1 8105   0.915   3.731   2.243
 2402SOL    HW2 8106   0.935   3.872   2.164
 2403SOL     OW 8107   3.219   3.626   4.875
 2403SOL    HW1 8108   3.190   3.598   4.967
 2403SOL    HW2 8109   3.139   3.659   4.824
 2404SOL     OW 8110   6.017   1.467   1.212
 2404SOL    HW1 8111   5.944   1.413   1.253
 2404SOL    HW2 8112   6.054   1.420   1.132
 2405SOL     OW 8113   1.768   3.382   0.511
 2405SOL    HW1 8114   1.816   3.469   0.518
 2405SOL    HW2 8115   1.697   3.388   0.441
 2406SOL     OW 8116   3.289   5.357   4.523
 2406SOL    HW1 8117   3.382   5.327   4.500
 2406SOL    HW2 8118   3.251   5.299   4.594
 2407SOL     OW 8119   3.079   1.233   3.323
 2407SOL    HW1 8120   3.146   1.191   3.262
 2407SOL    HW2 8121   3.076   1.332   3.307
 2408SOL     OW 8122   2.402   0.167   5.485
 2408SOL    HW1 8123   2.338   0.241   5.463
 2408SOL    HW2 8124   2.419   0.113   5.402
 2409SOL     OW 8125   0.936   3.362   0.416
 2409SOL    HW1 8126   0.877   3.419   0.474
 2409SOL    HW2 8127   1.004   3.419   0.371
 2410SOL     OW 8128   0.036   3.190   4.140
 2410SOL    HW1 8129   6.962   3.187   4.118
 2410SOL    HW2 8130   0.051   3.155   4.232
 2411SOL     OW 8131   3.128   1.985   6.870
 2411SOL    HW1 8132   3.208   2.021   6.823
 2411SOL    HW2 8133   3.077   2.061   6.911
 2412SOL     OW 8134   3.164   1.436   5.580
 2412SOL    HW1 8135   3.238   1.383   5.621
 2412SOL    HW2 8136   3.125   1.498   5.649
 2413SOL     OW 8137   0.452   2.936   0.250
 2413SOL    HW1 8138   0.470   2.837   0.242
 2413SOL    HW2 8139   0.475   2.981   0.163
 2414SOL     OW 8140   6.487   1.214   4.856
 2414SOL    HW1 8141   6.489   1.226   4.955
 2414SOL    HW2 8142   6.567   1.162   4.827
 2415SOL     OW 8143   2.794   4.847   6.154
 2415SOL    HW1 8144   2.891   4.861   6.135
 2415SOL    HW2 8145   2.769   4.893   6.240
 2416SOL     OW 8146   0.063   2.216   3.008
 2416SOL    HW1 8147   0.104   2.125   3.020
 2416SOL    HW2 8148   7.000   2.206   2.958
 2417SOL     OW 8149   2.802   2.664   1.472
 2417SOL    HW1 8150   2.717   2.691   1.427
 2417SOL    HW2 8151   2.835   2.578   1.434
 2418SOL     OW 8152   4.986   3.884   6.625
 2418SOL    HW1 8153   5.054   3.835   6.570
 2418SOL    HW2 8154   5.020   3.895   6.718
 2419SOL     OW 8155   2.884   0.634   3.309
 2419SOL    HW1 8156   2.798   0.668   3.348
 2419SOL    HW2 8157   2.874   0.622   3.211
 2420SOL     OW 8158   1.186   4.077   2.526
 2420SOL    HW1 8159   1.179   4.035   2.617
 2420SOL    HW2 8160   1.199   4.005   2.458
 2421SOL     OW 8161   3.336   6.671   3.553
 2421SOL    HW1 8162   3.409   6.704   3.493
 2421SOL    HW2 8163   3.278   6.608   3.501
 2422SOL     OW 8164   4.491   4.722   1.030
 2422SOL    HW1 8165   4.572   4.770   1.061
 2422SOL    HW2 8166   4.490   4.630   1.069
 2423SOL     OW 8167   2.343   5.586   3.558
 2423SOL    HW1 8168   2.281   5.562   3.632
 2423SOL    HW2 8169   2.399   5.507   3.534
 2424SOL     OW 8170   4.820   6.753   6.112
 2424SOL    HW1 8171   4.868   6.825   6.063
 2424SOL    HW2 8172   4.761   6.703   6.048
 2425SOL     OW 8173   4.663   5.470   5.204
 2425SOL    HW1 8174   4.711   5.450   5.118
 2425SOL    HW2 8175   4.577   5.418   5.207
 2426SOL     OW 8176   2.479   2.539   5.129
 2426SOL    HW1 8177   2.575   2.569   5.134
 2426SOL    HW2 8178   2.475   2.440   5.137
 2427SOL     OW 8179   5.161   0.978   0.493
 2427SOL    HW1 8180   5.150   0.958   0.590
 2427SOL    HW2 8181   5.078   0.950   0.444
 2428SOL     OW 8182   1.620   1.453   2.838
 2428SOL    HW1 8183   1.687   1.429   2.908
 2428SOL    HW2 8184   1.639   1.545   2.804
 2429SOL     OW 8185   6.554   5.270   1.587
 2429SOL    HW1 8186   6.630   5.305   1.532
 2429SOL    HW2 8187   6.553   5.316   1.676
 2430SOL     OW 8188   6.529   0.871   6.471
 2430SOL    HW1 8189   6.613   0.923   6.458
 2430SOL    HW2 8190   6.518   0.849   6.568
 2431SOL     OW 8191   0.607   2.991   1.758
 2431SOL    HW1 8192   0.595   2.892   1.764
 2431SOL    HW2 8193   0.650   3.025   1.842
 2432SOL     OW 8194   2.311   5.164   2.104
 2432SOL    HW1 8195   2.252   5.169   2.023
 2432SOL    HW2 8196   2.399   5.207   2.084
 2433SOL     OW 8197   6.951   3.880   5.397
 2433SOL    HW1 8198   6.896   3.918   5.323
 2433SOL    HW2 8199   6.901   3.890   5.483
 2434SOL     OW 8200   4.554   0.867   2.742
 2434SOL    HW1 8201   4.578   0.964   2.735
 2434SOL    HW2 8202   4.629   0.817   2.784
 2435SOL     OW 8203   5.819   6.846   6.993
 2435SOL    HW1 8204   5.838   6.757   6.952
 2435SOL    HW2 8205   5.862   6.850   0.060
 2436SOL     OW 8206   0.441   2.724   0.673
 2436SOL    HW1 8207   0.464   2.684   0.584
 2436SOL    HW2 8208   0.407   2.817   0.660
 2437SOL     OW 8209   6.945   3.730   1.764
 2437SOL    HW1 8210   6.913   3.654   1.820
 2437SOL    HW2 8211   6.866   3.778   1.726
 2438SOL     OW 8212   3.662   1.805   4.520
 2438SOL    HW1 8213   3.585   1.865   4.497
 2438SOL    HW2 8214   3.650   1.716   4.476
 2439SOL     OW 8215   1.778   5.394   1.380
 2439SOL    HW1 8216   1.805   5.372   1.286
 2439SOL    HW2 8217   1.760   5.493   1.387
 2440SOL     OW 8218   6.604   1.041   5.498
 2440SOL    HW1 8219   6.508   1.030   5.522
 2440SOL    HW2 8220   6.638   1.128   5.534
 2441SOL     OW 8221   5.860   0.833   0.864
 2441SOL    HW1 8222   5.900   0.913   0.909
 2441SOL    HW2 8223   5.798   0.863   0.791
 2442SOL     OW 8224   5.468   2.771   1.854
 2442SOL    HW1 8225   5.436   2.702   1.918
 2442SOL    HW2 8226   5.430   2.754   1.763
 2443SOL     OW 8227   0.518   3.454   1.377
 2443SOL    HW1 8228   0.504   3.553   1.378
 2443SOL    HW2 8229   0.430   3.408   1.394
 2444SOL     OW 8230   3.357   5.399   2.560
 2444SOL    HW1 8231   3.346   5.468   2.631
 2444SOL    HW2 8232   3.397   5.317   2.599
 2445SOL     OW 8233   0.520   1.628   1.241
 2445SOL    HW1 8234   0.533   1.566   1.318
 2445SOL    HW2 8235   0.426   1.621   1.208
 2446SOL     OW 8236   0.842   5.667   1.815
 2446SOL    HW1 8237   0.889   5.604   1.876
 2446SOL    HW2 8238   0.868   5.761   1.839
 2447SOL     OW 8239   2.110   0.045   0.054
 2447SOL    HW1 8240   2.060   6.992   0.014
 2447SOL    HW2 8241   2.208   0.029   0.046
 2448SOL     OW 8242   5.442   1.085   4.723
 2448SOL    HW1 8243   5.472   1.054   4.814
 2448SOL    HW2 8244   5.342   1.085   4.719
 2449SOL     OW 8245   1.313   4.387   1.496
 2449SOL    HW1 8246   1.360   4.464   1.540
 2449SOL    HW2 8247   1.278   4.325   1.566
 2450SOL     OW 8248   1.216   6.555   4.984
 2450SOL    HW1 8249   1.215   6.455   4.980
 2450SOL    HW2 8250   1.188   6.593   4.895
 2451SOL     OW 8251   1.314   6.805   5.520
 2451SOL    HW1 8252   1.327   6.814   5.618
 2451SOL    HW2 8253   1.399   6.770   5.479
 2452SOL     OW 8254   2.409   1.946   3.311
 2452SOL    HW1 8255   2.405   2.044   3.328
 2452SOL    HW2 8256   2.337   1.920   3.246
 2453SOL     OW 8257   0.999   1.278   5.927
 2453SOL    HW1 8258   1.063   1.272   5.850
 2453SOL    HW2 8259   0.953   1.366   5.925
 2454SOL     OW 8260   3.607   6.278   1.212
 2454SOL    HW1 8261   3.619   6.248   1.307
 2454SOL    HW2 8262   3.512   6.264   1.184
 2455SOL     OW 8263   4.263   2.567   0.737
 2455SOL    HW1 8264   4.168   2.573   0.706
 2455SOL    HW2 8265   4.321   2.535   0.662
 2456SOL     OW 8266   0.502   3.379   5.734
 2456SOL    HW1 8267   0.537   3.456   5.787
 2456SOL    HW2 8268   0.403   3.388   5.722
 2457SOL     OW 8269   4.153   1.862   5.245
 2457SOL    HW1 8270   4.055   1.845   5.238
 2457SOL    HW2 8271   4.200   1.775   5.260
 2458SOL     OW 8272   0.684   6.975   2.985
 2458SOL    HW1 8273   0.651   6.885   3.012
 2458SOL    HW2 8274   0.784   6.975   2.986
 2459SOL     OW 8275   1.904   6.778   0.277
 2459SOL    HW1 8276   1.988   6.755   0.327
 2459SOL    HW2 8277   1.907   6.875   0.252
 2460SOL     OW 8278   0.864   0.935   5.011
 2460SOL    HW1 8279   0.846   1.029   5.038
 2460SOL    HW2 8280   0.783   0.879   5.030
 2461SOL     OW 8281   4.624   1.049   3.509
 2461SOL    HW1 8282   4.629   1.139   3.466
 2461SOL    HW2 8283   4.600   1.059   3.605
 2462SOL     OW 8284   0.293   4.962   0.238
 2462SOL    HW1 8285   0.208   4.926   0.198
 2462SOL    HW2 8286   0.345   5.011   0.168
 2463SOL     OW 8287   6.233   0.579   0.079
 2463SOL    HW1 8288   6.284   0.664   0.067
 2463SOL    HW2 8289   6.142   0.588   0.038
 2464SOL     OW 8290   0.710   2.222   4.298
 2464SOL    HW1 8291   0.647   2.284   4.344
 2464SOL    HW2 8292   0.658   2.149   4.254
 2465SOL     OW 8293   6.988   6.725   5.926
 2465SOL    HW1 8294   6.966   6.640   5.879
 2465SOL    HW2 8295   0.047   6.712   5.981
 2466SOL     OW 8296   0.902   1.747   1.580
 2466SOL    HW1 8297   0.811   1.749   1.539
 2466SOL    HW2 8298   0.911   1.823   1.645
 2467SOL     OW 8299   6.075   2.520   5.405
 2467SOL    HW1 8300   6.034   2.491   5.319
 2467SOL    HW2 8301   6.125   2.605   5.392
 2468SOL     OW 8302   3.874   6.764   5.433
 2468SOL    HW1 8303   3.826   6.713   5.362
 2468SOL    HW2 8304   3.855   6.725   5.522
 2469SOL     OW 8305   3.762   1.960   5.433
 2469SOL    HW1 8306   3.683   2.001   5.386
 2469SOL    HW2 8307   3.836   1.946   5.367
 2470SOL     OW 8308   2.697   5.137   6.159
 2470SOL    HW1 8309   2.730   5.100   6.247
 2470SOL    HW2 8310   2.774   5.143   6.095
 2471SOL     OW 8311   2.806   5.663   1.867
 2471SOL    HW1 8312   2.855   5.696   1.948
 2471SOL    HW2 8313   2.763   5.576   1.888
 2472SOL     OW 8314   4.934   1.678   3.293
 2472SOL    HW1 8315   4.966   1.648   3.383
 2472SOL    HW2 8316   4.869   1.753   3.303
 2473SOL     OW 8317   0.404   4.282   4.062
 2473SOL    HW1 8318   0.482   4.324   4.017
 2473SOL    HW2 8319   0.329   4.271   3.997
 2474SOL     OW 8320   0.896   5.913   1.899
 2474SOL    HW1 8321   0.921   5.996   1.850
 2474SOL    HW2 8322   0.903   5.929   1.997
 2475SOL     OW 8323   4.526   0.884   0.235
 2475SOL    HW1 8324   4.467   0.818   0.188
 2475SOL    HW2 8325   4.587   0.836   0.298
 2476SOL     OW 8326   4.902   0.757   0.621
 2476SOL    HW1 8327   4.923   0.809   0.704
 2476SOL    HW2 8328   4.913   0.817   0.541
 2477SOL     OW 8329   4.073   0.305   2.941
 2477SOL    HW1 8330   4.100   0.374   3.008
 2477SOL    HW2 8331   3.975   0.288   2.948
 2478SOL     OW 8332   5.067   0.125   4.731
 2478SOL    HW1 8333   4.996   0.172   4.783
 2478SOL    HW2 8334   5.153   0.175   4.738
 2479SOL     OW 8335   6.150   2.970   0.402
 2479SOL    HW1 8336   6.155   2.877   0.438
 2479SOL    HW2 8337   6.063   3.012   0.428
 2480SOL     OW 8338   3.492   2.379   1.481
 2480SOL    HW1 8339   3.590   2.373   1.463
 2480SOL    HW2 8340   3.472   2.344   1.572
 2481SOL     OW 8341   3.215   0.303   1.445
 2481SOL    HW1 8342   3.238   0.333   1.537
 2481SOL    HW2 8343   3.260   0.216   1.425
 2482SOL     OW 8344   6.166   3.540   6.842
 2482SOL    HW1 8345   6.072   3.564   6.819
 2482SOL    HW2 8346   6.228   3.607   6.801
 2483SOL     OW 8347   1.451   2.637   0.751
 2483SOL    HW1 8348   1.386   2.648   0.675
 2483SOL    HW2 8349   1.455   2.541   0.778
 2484SOL     OW 8350   4.605   1.302   0.916
 2484SOL    HW1 8351   4.654   1.381   0.877
 2484SOL    HW2 8352   4.672   1.235   0.948
 2485SOL     OW 8353   6.899   2.016   6.715
 2485SOL    HW1 8354   6.968   1.944   6.712
 2485SOL    HW2 8355   6.944   2.104   6.729
 2486SOL     OW 8356   6.759   5.451   4.710
 2486SOL    HW1 8357   6.696   5.515   4.667
 2486SOL    HW2 8358   6.709   5.370   4.741
 2487SOL     OW 8359   4.981   6.666   6.578
 2487SOL    HW1 8360   5.060   6.700   6.628
 2487SOL    HW2 8361   4.965   6.723   6.498
 2488SOL     OW 8362   6.206   4.093   0.541
 2488SOL    HW1 8363   6.250   4.005   0.562
 2488SOL    HW2 8364   6.115   4.096   0.582
 2489SOL     OW 8365   6.603   5.825   4.649
 2489SOL    HW1 8366   6.701   5.816   4.666
 2489SOL    HW2 8367   6.579   5.921   4.640
 2490SOL     OW 8368   2.618   5.734   3.303
 2490SOL    HW1 8369   2.569   5.766   3.384
 2490SOL    HW2 8370   2.570   5.655   3.264
 2491SOL     OW 8371   3.512   4.681   1.494
 2491SOL    HW1 8372   3.447   4.605   1.493
 2491SOL    HW2 8373   3.494   4.742   1.417
 2492SOL     OW 8374   6.914   4.854   1.460
 2492SOL    HW1 8375   6.839   4.848   1.526
 2492SOL    HW2 8376   7.001   4.840   1.508
 2493SOL     OW 8377   5.500   6.891   1.030
 2493SOL    HW1 8378   5.482   6.988   1.045
 2493SOL    HW2 8379   5.594   6.869   1.055
 2494SOL     OW 8380   6.358   3.806   2.572
 2494SOL    HW1 8381   6.392   3.884   2.625
 2494SOL    HW2 8382   6.433   3.766   2.520
 2495SOL     OW 8383   0.283   4.590   3.094
 2495SOL    HW1 8384   0.312   4.512   3.149
 2495SOL    HW2 8385   0.199   4.567   3.046
 2496SOL     OW 8386   5.952   4.498   6.125
 2496SOL    HW1 8387   5.999   4.538   6.204
 2496SOL    HW2 8388   6.017   4.444   6.072
 2497SOL     OW 8389   0.412   0.519   2.131
 2497SOL    HW1 8390   0.494   0.474   2.167
 2497SOL    HW2 8391   0.353   0.451   2.088
 2498SOL     OW 8392   2.283   4.222   6.033
 2498SOL    HW1 8393   2.303   4.319   6.022
 2498SOL    HW2 8394   2.184   4.207   6.032
 2499SOL     OW 8395   6.519   3.552   2.052
 2499SOL    HW1 8396   6.470   3.620   2.107
 2499SOL    HW2 8397   6.557   3.482   2.112
 2500SOL     OW 8398   3.172   3.816   0.349
 2500SOL    HW1 8399   3.265   3.801   0.315
 2500SOL    HW2 8400   3.106   3.785   0.280
 2501SOL     OW 8401   6.054   5.264   6.723
 2501SOL    HW1 8402   5.966   5.280   6.679
 2501SOL    HW2 8403   6.072   5.336   6.790
 2502SOL     OW 8404   3.008   5.183   4.295
 2502SOL    HW1 8405   3.049   5.123   4.363
 2502SOL    HW2 8406   2.938   5.239   4.340
 2503SOL     OW 8407   2.516   6.979   6.017
 2503SOL    HW1 8408   2.472   0.005   5.943
 2503SOL    HW2 8409   2.604   6.943   5.986
 2504SOL     OW 8410   3.487   6.800   3.751
 2504SOL    HW1 8411   3.539   6.816   3.667
 2504SOL    HW2 8412   3.409   6.741   3.732
 2505SOL     OW 8413   0.544   5.160   3.695
 2505SOL    HW1 8414   0.627   5.158   3.640
 2505SOL    HW2 8415   0.477   5.221   3.653
 2506SOL     OW 8416   5.306   5.519   6.083
 2506SOL    HW1 8417   5.269   5.606   6.115
 2506SOL    HW2 8418   5.405   5.519   6.096
 2507SOL     OW 8419   6.584   3.585   1.348
 2507SOL    HW1 8420   6.678   3.571   1.380
 2507SOL    HW2 8421   6.542   3.496   1.330
 2508SOL     OW 8422   5.262   1.726   4.512
 2508SOL    HW1 8423   5.193   1.656   4.530
 2508SOL    HW2 8424   5.301   1.712   4.421
 2509SOL     OW 8425   6.796   4.026   5.635
 2509SOL    HW1 8426   6.748   4.096   5.583
 2509SOL    HW2 8427   6.895   4.039   5.625
 2510SOL     OW 8428   3.340   4.123   1.964
 2510SOL    HW1 8429   3.372   4.058   2.033
 2510SOL    HW2 8430   3.418   4.156   1.911
 2511SOL     OW 8431   1.899   0.635   5.183
 2511SOL    HW1 8432   1.869   0.715   5.131
 2511SOL    HW2 8433   1.991   0.651   5.219
 2512SOL     OW 8434   3.638   5.323   4.149
 2512SOL    HW1 8435   3.615   5.378   4.229
 2512SOL    HW2 8436   3.688   5.241   4.179
 2513SOL     OW 8437   2.392   5.421   5.869
 2513SOL    HW1 8438   2.414   5.324   5.882
 2513SOL    HW2 8439   2.352   5.457   5.953
 2514SOL     OW 8440   1.595   2.370   2.814
 2514SOL    HW1 8441   1.593   2.469   2.806
 2514SOL    HW2 8442   1.582   2.329   2.723
 2515SOL     OW 8443   1.196   1.404   1.178
 2515SOL    HW1 8444   1.126   1.425   1.110
 2515SOL    HW2 8445   1.181   1.312   1.215
 2516SOL     OW 8446   5.975   1.560   4.176
 2516SOL    HW1 8447   5.924   1.506   4.243
 2516SOL    HW2 8448   5.975   1.512   4.088
 2517SOL     OW 8449   1.752   1.483   4.148
 2517SOL    HW1 8450   1.763   1.544   4.227
 2517SOL    HW2 8451   1.836   1.482   4.094
 2518SOL     OW 8452   2.844   5.215   1.178
 2518SOL    HW1 8453   2.847   5.125   1.136
 2518SOL    HW2 8454   2.900   5.279   1.125
 2519SOL     OW 8455   1.155   1.187   0.851
 2519SOL    HW1 8456   1.171   1.266   0.792
 2519SOL    HW2 8457   1.236   1.171   0.908
 2520SOL     OW 8458   2.611   2.191   0.606
 2520SOL    HW1 8459   2.634   2.286   0.586
 2520SOL    HW2 8460   2.668   2.131   0.551
 2521SOL     OW 8461   4.819   1.223   5.431
 2521SOL    HW1 8462   4.789   1.206   5.338
 2521SOL    HW2 8463   4.739   1.228   5.491
 2522SOL     OW 8464   0.894   2.682   6.189
 2522SOL    HW1 8465   0.932   2.594   6.160
 2522SOL    HW2 8466   0.969   2.747   6.202
 2523SOL     OW 8467   2.180   4.920   6.774
 2523SOL    HW1 8468   2.165   4.840   6.832
 2523SOL    HW2 8469   2.175   5.003   6.829
 2524SOL     OW 8470   1.817   6.981   3.936
 2524SOL    HW1 8471   1.843   6.983   4.033
 2524SOL    HW2 8472   1.784   6.890   3.912
 2525SOL     OW 8473   6.780   2.364   4.733
 2525SOL    HW1 8474   6.715   2.322   4.670
 2525SOL    HW2 8475   6.764   2.463   4.735
 2526SOL     OW 8476   0.857   6.627   1.280
 2526SOL    HW1 8477   0.865   6.679   1.196
 2526SOL    HW2 8478   0.864   6.529   1.260
 2527SOL     OW 8479   5.061   4.721   6.408
 2527SOL    HW1 8480   5.035   4.817   6.406
 2527SOL    HW2 8481   4.998   4.670   6.467
 2528SOL     OW 8482   4.446   5.827   6.703
 2528SOL    HW1 8483   4.372   5.894   6.693
 2528SOL    HW2 8484   4.534   5.872   6.683
 2529SOL     OW 8485   0.286   6.856   6.770
 2529SOL    HW1 8486   0.260   6.759   6.771
 2529SOL    HW2 8487   0.210   6.911   6.735
 2530SOL     OW 8488   1.843   5.690   6.279
 2530SOL    HW1 8489   1.885   5.601   6.299
 2530SOL    HW2 8490   1.889   5.730   6.199
 2531SOL     OW 8491   6.489   5.264   5.857
 2531SOL    HW1 8492   6.438   5.226   5.780
 2531SOL    HW2 8493   6.585   5.236   5.851
 2532SOL     OW 8494   5.949   6.451   1.357
 2532SOL    HW1 8495   5.921   6.534   1.309
 2532SOL    HW2 8496   5.906   6.449   1.448
 2533SOL     OW 8497   5.084   1.053   3.315
 2533SOL    HW1 8498   5.039   1.047   3.225
 2533SOL    HW2 8499   5.138   0.970   3.330
 2534SOL     OW 8500   4.494   1.855   3.027
 2534SOL    HW1 8501   4.452   1.802   2.954
 2534SOL    HW2 8502   4.438   1.848   3.110
 2535SOL     OW 8503   3.768   2.765   6.220
 2535SOL    HW1 8504   3.749   2.769   6.318
 2535SOL    HW2 8505   3.711   2.832   6.172
 2536SOL     OW 8506   1.255   0.472   0.442
 2536SOL    HW1 8507   1.263   0.387   0.391
 2536SOL    HW2 8508   1.274   0.549   0.382
 2537SOL     OW 8509   4.254   0.462   6.722
 2537SOL    HW1 8510   4.247   0.393   6.650
 2537SOL    HW2 8511   4.254   0.416   6.811
 2538SOL     OW 8512   6.625   3.494   3.895
 2538SOL    HW1 8513   6.688   3.535   3.961
 2538SOL    HW2 8514   6.545   3.458   3.944
 2539SOL     OW 8515   5.108   1.956   5.363
 2539SOL    HW1 8516   5.152   1.924   5.280
 2539SOL    HW2 8517   5.089   1.878   5.423
 2540SOL     OW 8518   3.610   1.739   2.113
 2540SOL    HW1 8519   3.545   1.799   2.160
 2540SOL    HW2 8520   3.565   1.653   2.090
 2541SOL     OW 8521   3.485   6.255   4.949
 2541SOL    HW1 8522   3.398   6.244   4.901
 2541SOL    HW2 8523   3.502   6.176   5.007
 2542SOL     OW 8524   1.507   5.041   6.276
 2542SOL    HW1 8525   1.428   5.034   6.336
 2542SOL    HW2 8526   1.491   5.111   6.206
 2543SOL     OW 8527   1.994   1.018   3.725
 2543SOL    HW1 8528   2.002   1.104   3.776
 2543SOL    HW2 8529   2.045   0.946   3.773
 2544SOL     OW 8530   0.985   4.614   0.254
 2544SOL    HW1 8531   1.025   4.575   0.171
 2544SOL    HW2 8532   1.019   4.564   0.334
 2545SOL     OW 8533   2.559   6.169   3.248
 2545SOL    HW1 8534   2.644   6.197   3.292
 2545SOL    HW2 8535   2.573   6.084   3.198
 2546SOL     OW 8536   6.160   1.745   1.298
 2546SOL    HW1 8537   6.112   1.661   1.271
 2546SOL    HW2 8538   6.162   1.807   1.220
 2547SOL     OW 8539   0.302   3.889   4.973
 2547SOL    HW1 8540   0.257   3.810   5.015
 2547SOL    HW2 8541   0.381   3.858   4.920
 2548SOL     OW 8542   0.824   6.683   4.441
 2548SOL    HW1 8543   0.803   6.703   4.537
 2548SOL    HW2 8544   0.864   6.763   4.398
 2549SOL     OW 8545   6.874   2.521   0.944
 2549SOL    HW1 8546   6.839   2.543   0.853
 2549SOL    HW2 8547   6.854   2.426   0.966
 2550SOL     OW 8548   6.035   6.018   0.221
 2550SOL    HW1 8549   6.056   5.994   0.316
 2550SOL    HW2 8550   6.063   5.943   0.160
 2551SOL     OW 8551   1.501   4.195   6.886
 2551SOL    HW1 8552   1.600   4.187   6.896
 2551SOL    HW2 8553   1.477   4.190   6.789
 2552SOL     OW 8554   2.044   5.942   3.578
 2552SOL    HW1 8555   2.059   6.038   3.556
 2552SOL    HW2 8556   2.039   5.931   3.678
 2553SOL     OW 8557   3.571   3.623   6.963
 2553SOL    HW1 8558   3.612   3.630   6.872
 2553SOL    HW2 8559   3.631   3.571   7.023
 2554SOL     OW 8560   1.436   1.513   6.876
 2554SOL    HW1 8561   1.490   1.569   6.813
 2554SOL    HW2 8562   1.339   1.534   6.864
 2555SOL     OW 8563   6.176   1.882   0.068
 2555SOL    HW1 8564   6.088   1.848   0.102
 2555SOL    HW2 8565   6.176   1.982   0.071
 2556SOL     OW 8566   3.012   6.288   0.672
 2556SOL    HW1 8567   3.072   6.332   0.740
 2556SOL    HW2 8568   3.040   6.193   0.660
 2557SOL     OW 8569   2.308   4.000   6.877
 2557SOL    HW1 8570   2.246   3.922   6.884
 2557SOL    HW2 8571   2.312   4.047   6.965
 2558SOL     OW 8572   4.255   0.303   6.117
 2558SOL    HW1 8573   4.253   0.377   6.049
 2558SOL    HW2 8574   4.345   0.300   6.160
 2559SOL     OW 8575   0.259   4.812   4.799
 2559SOL    HW1 8576   0.350   4.788   4.765
 2559SOL    HW2 8577   0.264   4.898   4.849
 2560SOL     OW 8578   5.994   2.096   6.532
 2560SOL    HW1 8579   6.040   2.088   6.620
 2560SOL    HW2 8580   6.019   2.018   6.474
 2561SOL     OW 8581   3.198   5.233   4.781
 2561SOL    HW1 8582   3.250   5.154   4.814
 2561SOL    HW2 8583   3.174   5.292   4.858
 2562SOL     OW 8584   1.846   3.938   6.985
 2562SOL    HW1 8585   1.799   4.022   7.013
 2562SOL    HW2 8586   1.927   3.924   0.018
 2563SOL     OW 8587   2.219   1.268   0.262
 2563SOL    HW1 8588   2.317   1.278   0.281
 2563SOL    HW2 8589   2.174   1.224   0.341
 2564SOL     OW 8590   2.084   5.396   1.511
 2564SOL    HW1 8591   1.988   5.380   1.491
 2564SOL    HW2 8592   2.137   5.313   1.491
 2565SOL     OW 8593   2.046   0.369   0.883
 2565SOL    HW1 8594   2.015   0.446   0.939
 2565SOL    HW2 8595   2.120   0.401   0.823
 2566SOL     OW 8596   1.700   6.438   6.921
 2566SOL    HW1 8597   1.689   6.423   6.823
 2566SOL    HW2 8598   1.646   6.518   6.948
 2567SOL     OW 8599   1.219   6.215   0.080
 2567SOL    HW1 8600   1.283   6.269   0.135
 2567SOL    HW2 8601   1.136   6.268   0.062
 2568SOL     OW 8602   4.729   2.810   6.728
 2568SOL    HW1 8603   4.754   2.763   6.812
 2568SOL    HW2 8604   4.640   2.855   6.740
 2569SOL     OW 8605   2.620   0.425   3.111
 2569SOL    HW1 8606   2.644   0.521   3.126
 2569SOL    HW2 8607   2.673   0.368   3.173
 2570SOL     OW 8608   5.501   2.031   6.158
 2570SOL    HW1 8609   5.550   2.115   6.134
 2570SOL    HW2 8610   5.403   2.048   6.159
 2571SOL     OW 8611   1.165   4.128   4.666
 2571SOL    HW1 8612   1.140   4.222   4.642
 2571SOL    HW2 8613   1.162   4.070   4.584
 2572SOL     OW 8614   1.996   4.860   3.091
 2572SOL    HW1 8615   1.944   4.896   3.013
 2572SOL    HW2 8616   1.940   4.864   3.173
 2573SOL     OW 8617   1.068   0.198   1.018
 2573SOL    HW1 8618   1.045   0.286   0.977
 2573SOL    HW2 8619   1.117   0.142   0.951
 2574SOL     OW 8620   6.615   3.088   6.968
 2574SOL    HW1 8621   6.714   3.075   6.976
 2574SOL    HW2 8622   6.597   3.176   6.924
 2575SOL     OW 8623   0.049   5.447   5.977
 2575SOL    HW1 8624   0.119   5.500   6.026
 2575SOL    HW2 8625   0.014   5.501   5.900
 2576SOL     OW 8626   4.274   6.102   3.857
 2576SOL    HW1 8627   4.372   6.082   3.857
 2576SOL    HW2 8628   4.223   6.018   3.839
 2577SOL     OW 8629   2.445   4.396   2.287
 2577SOL    HW1 8630   2.461   4.301   2.261
 2577SOL    HW2 8631   2.516   4.454   2.249
 2578SOL     OW 8632   3.960   2.140   4.128
 2578SOL    HW1 8633   3.991   2.139   4.033
 2578SOL    HW2 8634   3.870   2.184   4.133
 2579SOL     OW 8635   1.064   6.389   3.621
 2579SOL    HW1 8636   1.076   6.291   3.609
 2579SOL    HW2 8637   1.139   6.438   3.577
 2580SOL     OW 8638   1.598   2.578   6.303
 2580SOL    HW1 8639   1.613   2.598   6.399
 2580SOL    HW2 8640   1.660   2.504   6.274
 2581SOL     OW 8641   3.712   0.223   5.401
 2581SOL    HW1 8642   3.629   0.212   5.346
 2581SOL    HW2 8643   3.692   0.201   5.497
 2582SOL     OW 8644   0.011   3.042   1.761
 2582SOL    HW1 8645   0.058   3.130   1.766
 2582SOL    HW2 8646   0.063   2.980   1.702
 2583SOL     OW 8647   5.787   0.154   0.897
 2583SOL    HW1 8648   5.791   0.247   0.934
 2583SOL    HW2 8649   5.702   0.110   0.925
 2584SOL     OW 8650   4.728   4.801   5.813
 2584SOL    HW1 8651   4.821   4.837   5.810
 2584SOL    HW2 8652   4.680   4.827   5.730
 2585SOL     OW 8653   3.337   5.509   6.201
 2585SOL    HW1 8654   3.254   5.485   6.253
 2585SOL    HW2 8655   3.398   5.564   6.259
 2586SOL     OW 8656   2.211   0.677   4.011
 2586SOL    HW1 8657   2.158   0.701   4.092
 2586SOL    HW2 8658   2.303   0.650   4.039
 2587SOL     OW 8659   6.712   1.177   3.641
 2587SOL    HW1 8660   6.704   1.245   3.715
 2587SOL    HW2 8661   6.801   1.132   3.647
 2588SOL     OW 8662   4.079   0.799   6.146
 2588SOL    HW1 8663   4.033   0.858   6.212
 2588SOL    HW2 8664   4.176   0.794   6.168
 2589SOL     OW 8665   1.676   6.581   0.192
 2589SOL    HW1 8666   1.631   6.610   0.107
 2589SOL    HW2 8667   1.774   6.596   0.185
 2590SOL     OW 8668   2.898   6.070   0.962
 2590SOL    HW1 8669   2.852   6.007   1.025
 2590SOL    HW2 8670   2.834   6.099   0.892
 2591SOL     OW 8671   5.991   5.629   4.037
 2591SOL    HW1 8672   5.975   5.618   4.135
 2591SOL    HW2 8673   6.056   5.703   4.021
 2592SOL     OW 8674   2.240   3.982   0.785
 2592SOL    HW1 8675   2.146   3.995   0.817
 2592SOL    HW2 8676   2.278   3.900   0.827
 2593SOL     OW 8677   3.287   4.242   0.634
 2593SOL    HW1 8678   3.195   4.234   0.595
 2593SOL    HW2 8679   3.334   4.155   0.628
 2594SOL     OW 8680   1.455   3.843   4.472
 2594SOL    HW1 8681   1.524   3.789   4.424
 2594SOL    HW2 8682   1.467   3.833   4.571
 2595SOL     OW 8683   1.757   1.004   2.758
 2595SOL    HW1 8684   1.827   1.069   2.729
 2595SOL    HW2 8685   1.801   0.922   2.797
 2596SOL     OW 8686   1.200   2.487   6.810
 2596SOL    HW1 8687   1.220   2.543   6.729
 2596SOL    HW2 8688   1.162   2.399   6.780
 2597SOL     OW 8689   6.970   5.986   6.087
 2597SOL    HW1 8690   6.889   5.931   6.067
 2597SOL    HW2 8691   7.001   5.966   6.181
 2598SOL     OW 8692   5.353   2.646   2.568
 2598SOL    HW1 8693   5.405   2.594   2.637
 2598SOL    HW2 8694   5.406   2.726   2.540
 2599SOL     OW 8695   2.797   6.291   1.560
 2599SOL    HW1 8696   2.844   6.379   1.562
 2599SOL    HW2 8697   2.861   6.220   1.529
 2600SOL     OW 8698   6.158   4.278   4.285
 2600SOL    HW1 8699   6.145   4.187   4.244
 2600SOL    HW2 8700   6.084   4.338   4.255
 2601SOL     OW 8701   6.977   1.707   3.416
 2601SOL    HW1 8702   6.934   1.626   3.455
 2601SOL    HW2 8703   6.983   1.697   3.316
 2602SOL     OW 8704   1.493   4.324   3.484
 2602SOL    HW1 8705   1.545   4.256   3.433
 2602SOL    HW2 8706   1.541   4.348   3.568
 2603SOL     OW 8707   3.189   6.430   2.883
 2603SOL    HW1 8708   3.226   6.338   2.880
 2603SOL    HW2 8709   3.259   6.496   2.857
 2604SOL     OW 8710   4.977   2.583   3.319
 2604SOL    HW1 8711   4.887   2.551   3.351
 2604SOL    HW2 8712   4.967   2.621   3.227
 2605SOL     OW 8713   2.132   3.945   1.593
 2605SOL    HW1 8714   2.187   3.938   1.676
 2605SOL    HW2 8715   2.044   3.989   1.615
 2606SOL     OW 8716   4.525   3.403   1.456
 2606SOL    HW1 8717   4.435   3.364   1.437
 2606SOL    HW2 8718   4.537   3.413   1.555
 2607SOL     OW 8719   2.664   2.353   1.310
 2607SOL    HW1 8720   2.626   2.405   1.234
 2607SOL    HW2 8721   2.679   2.258   1.281
 2608SOL     OW 8722   2.666   4.904   5.621
 2608SOL    HW1 8723   2.668   4.807   5.599
 2608SOL    HW2 8724   2.590   4.923   5.683
 2609SOL     OW 8725   6.802   2.688   0.683
 2609SOL    HW1 8726   6.789   2.651   0.592
 2609SOL    HW2 8727   6.900   2.692   0.704
 2610SOL     OW 8728   1.423   4.662   4.604
 2610SOL    HW1 8729   1.423   4.611   4.689
 2610SOL    HW2 8730   1.380   4.751   4.618
 2611SOL     OW 8731   5.199   7.010   6.616
 2611SOL    HW1 8732   5.163   6.926   6.659
 2611SOL    HW2 8733   5.124   0.052   6.606
 2612SOL     OW 8734   6.401   0.334   5.469
 2612SOL    HW1 8735   6.435   0.362   5.380
 2612SOL    HW2 8736   6.307   0.368   5.481
 2613SOL     OW 8737   0.943   6.567   6.919
 2613SOL    HW1 8738   0.845   6.586   6.914
 2613SOL    HW2 8739   0.994   6.653   6.908
 2614SOL     OW 8740   6.534   1.209   6.539
 2614SOL    HW1 8741   6.486   1.274   6.597
 2614SOL    HW2 8742   6.599   1.156   6.594
 2615SOL     OW 8743   0.719   3.262   0.228
 2615SOL    HW1 8744   0.788   3.297   0.292
 2615SOL    HW2 8745   0.712   3.324   0.150
 2616SOL     OW 8746   1.394   0.918   5.563
 2616SOL    HW1 8747   1.357   0.967   5.484
 2616SOL    HW2 8748   1.320   0.887   5.622
 2617SOL     OW 8749   5.120   0.137   0.945
 2617SOL    HW1 8750   5.066   0.139   1.029
 2617SOL    HW2 8751   5.193   0.070   0.954
 2618SOL     OW 8752   0.922   6.284   5.899
 2618SOL    HW1 8753   0.825   6.295   5.918
 2618SOL    HW2 8754   0.971   6.265   5.985
 2619SOL     OW 8755   5.575   1.135   2.087
 2619SOL    HW1 8756   5.498   1.174   2.138
 2619SOL    HW2 8757   5.630   1.077   2.147
 2620SOL     OW 8758   5.607   0.976   1.165
 2620SOL    HW1 8759   5.633   1.043   1.095
 2620SOL    HW2 8760   5.582   1.024   1.249
 2621SOL     OW 8761   1.367   6.685   1.812
 2621SOL    HW1 8762   1.462   6.682   1.783
 2621SOL    HW2 8763   1.359   6.737   1.897
 2622SOL     OW 8764   3.583   3.510   6.466
 2622SOL    HW1 8765   3.558   3.413   6.464
 2622SOL    HW2 8766   3.500   3.566   6.476
 2623SOL     OW 8767   0.803   6.450   3.719
 2623SOL    HW1 8768   0.776   6.540   3.753
 2623SOL    HW2 8769   0.901   6.451   3.698
 2624SOL     OW 8770   0.241   1.665   5.238
 2624SOL    HW1 8771   0.290   1.592   5.285
 2624SOL    HW2 8772   0.152   1.680   5.282
 2625SOL     OW 8773   2.242   4.927   6.194
 2625SOL    HW1 8774   2.172   4.855   6.196
 2625SOL    HW2 8775   2.322   4.893   6.145
 2626SOL     OW 8776   6.959   5.621   0.080
 2626SOL    HW1 8777   6.925   5.563   0.154
 2626SOL    HW2 8778   6.923   5.714   0.091
 2627SOL     OW 8779   2.166   0.464   6.034
 2627SOL    HW1 8780   2.117   0.502   6.112
 2627SOL    HW2 8781   2.141   0.369   6.022
 2628SOL     OW 8782   0.606   4.391   1.902
 2628SOL    HW1 8783   0.697   4.363   1.934
 2628SOL    HW2 8784   0.613   4.478   1.853
 2629SOL     OW 8785   3.380   3.683   2.660
 2629SOL    HW1 8786   3.376   3.739   2.577
 2629SOL    HW2 8787   3.351   3.738   2.738
 2630SOL     OW 8788   3.932   0.818   4.075
 2630SOL    HW1 8789   3.916   0.719   4.083
 2630SOL    HW2 8790   3.872   0.856   4.005
 2631SOL     OW 8791   5.997   0.584   6.979
 2631SOL    HW1 8792   5.908   0.582   7.023
 2631SOL    HW2 8793   6.009   0.500   6.925
 2632SOL     OW 8794   5.432   4.582   2.418
 2632SOL    HW1 8795   5.437   4.659   2.355
 2632SOL    HW2 8796   5.347   4.532   2.403
 2633SOL     OW 8797   0.346   3.340   6.023
 2633SOL    HW1 8798   0.405   3.339   6.104
 2633SOL    HW2 8799   0.252   3.317   6.050
 2634SOL     OW 8800   0.392   0.521   5.811
 2634SOL    HW1 8801   0.469   0.574   5.847
 2634SOL    HW2 8802   0.399   0.514   5.712
 2635SOL     OW 8803   4.939   5.377   3.506
 2635SOL    HW1 8804   5.035   5.404   3.501
 2635SOL    HW2 8805   4.889   5.416   3.429
 2636SOL     OW 8806   4.003   5.801   5.341
 2636SOL    HW1 8807   4.101   5.819   5.333
 2636SOL    HW2 8808   3.984   5.707   5.316
 2637SOL     OW 8809   1.139   0.960   3.442
 2637SOL    HW1 8810   1.235   0.975   3.467
 2637SOL    HW2 8811   1.135   0.898   3.364
 2638SOL     OW 8812   0.764   6.420   4.694
 2638SOL    HW1 8813   0.817   6.504   4.684
 2638SOL    HW2 8814   0.717   6.400   4.609
 2639SOL     OW 8815   4.446   4.799   5.330
 2639SOL    HW1 8816   4.460   4.864   5.256
 2639SOL    HW2 8817   4.479   4.839   5.416
 2640SOL     OW 8818   1.990   0.320   3.646
 2640SOL    HW1 8819   2.027   0.271   3.725
 2640SOL    HW2 8820   2.066   0.351   3.588
 2641SOL     OW 8821   6.092   2.349   6.541
 2641SOL    HW1 8822   6.190   2.332   6.537
 2641SOL    HW2 8823   6.042   2.262   6.541
 2642SOL     OW 8824   6.123   0.711   3.644
 2642SOL    HW1 8825   6.141   0.809   3.649
 2642SOL    HW2 8826   6.208   0.662   3.625
 2643SOL     OW 8827   2.182   4.653   3.621
 2643SOL    HW1 8828   2.180   4.557   3.647
 2643SOL    HW2 8829   2.125   4.667   3.540
 2644SOL     OW 8830   4.874   5.229   4.711
 2644SOL    HW1 8831   4.930   5.198   4.634
 2644SOL    HW2 8832   4.934   5.256   4.787
 2645SOL     OW 8833   5.101   5.831   3.614
 2645SOL    HW1 8834   5.168   5.856   3.684
 2645SOL    HW2 8835   5.068   5.738   3.633
 2646SOL     OW 8836   1.078   2.843   6.273
 2646SOL    HW1 8837   1.177   2.848   6.286
 2646SOL    HW2 8838   1.048   2.918   6.214
 2647SOL     OW 8839   5.178   0.336   2.249
 2647SOL    HW1 8840   5.078   0.338   2.244
 2647SOL    HW2 8841   5.216   0.354   2.159
 2648SOL     OW 8842   0.665   0.005   6.689
 2648SOL    HW1 8843   0.637   7.005   6.596
 2648SOL    HW2 8844   0.763   0.022   6.691
 2649SOL     OW 8845   4.984   1.575   3.042
 2649SOL    HW1 8846   4.966   1.606   3.135
 2649SOL    HW2 8847   4.917   1.616   2.980
 2650SOL     OW 8848   2.925   6.289   4.375
 2650SOL    HW1 8849   2.963   6.207   4.333
 2650SOL    HW2 8850   2.996   6.360   4.380
 2651SOL     OW 8851   4.543   2.085   4.590
 2651SOL    HW1 8852   4.477   2.010   4.599
 2651SOL    HW2 8853   4.516   2.145   4.514
 2652SOL     OW 8854   4.978   4.235   5.411
 2652SOL    HW1 8855   4.910   4.249   5.338
 2652SOL    HW2 8856   4.942   4.271   5.497
 2653SOL     OW 8857   2.698   5.916   0.153
 2653SOL    HW1 8858   2.606   5.954   0.156
 2653SOL    HW2 8859   2.742   5.942   0.066
 2654SOL     OW 8860   6.476   1.208   0.505
 2654SOL    HW1 8861   6.378   1.225   0.512
 2654SOL    HW2 8862   6.494   1.144   0.430
 2655SOL     OW 8863   5.197   6.764   2.679
 2655SOL    HW1 8864   5.214   6.786   2.775
 2655SOL    HW2 8865   5.170   6.847   2.630
 2656SOL     OW 8866   4.679   6.119   3.321
 2656SOL    HW1 8867   4.580   6.109   3.309
 2656SOL    HW2 8868   4.716   6.038   3.367
 2657SOL     OW 8869   0.429   3.797   6.924
 2657SOL    HW1 8870   0.397   3.798   7.018
 2657SOL    HW2 8871   0.400   3.882   6.878
 2658SOL     OW 8872   3.441   5.364   0.873
 2658SOL    HW1 8873   3.541   5.356   0.872
 2658SOL    HW2 8874   3.415   5.457   0.900
 2659SOL     OW 8875   0.150   1.981   5.154
 2659SOL    HW1 8876   0.224   2.001   5.218
 2659SOL    HW2 8877   0.183   1.991   5.060
 2660SOL     OW 8878   0.634   1.800   1.929
 2660SOL    HW1 8879   0.555   1.761   1.884
 2660SOL    HW2 8880   0.700   1.728   1.950
 2661SOL     OW 8881   1.203   1.113   1.188
 2661SOL    HW1 8882   1.108   1.084   1.181
 2661SOL    HW2 8883   1.252   1.087   1.105
 2662SOL     OW 8884   3.021   1.678   2.268
 2662SOL    HW1 8885   3.088   1.621   2.315
 2662SOL    HW2 8886   2.995   1.755   2.326
 2663SOL     OW 8887   4.167   6.957   0.363
 2663SOL    HW1 8888   4.072   6.928   0.371
 2663SOL    HW2 8889   4.220   6.924   0.441
 2664SOL     OW 8890   4.762   3.892   5.352
 2664SOL    HW1 8891   4.706   3.814   5.379
 2664SOL    HW2 8892   4.708   3.976   5.357
 2665SOL     OW 8893   2.097   3.662   4.148
 2665SOL    HW1 8894   2.154   3.580   4.141
 2665SOL    HW2 8895   2.093   3.691   4.243
 2666SOL     OW 8896   1.794   4.252   1.972
 2666SOL    HW1 8897   1.737   4.328   2.000
 2666SOL    HW2 8898   1.749   4.200   1.900
 2667SOL     OW 8899   6.996   2.989   4.870
 2667SOL    HW1 8900   6.988   2.977   4.969
 2667SOL    HW2 8901   6.908   2.968   4.827
 2668SOL     OW 8902   6.238   0.671   3.073
 2668SOL    HW1 8903   6.237   0.573   3.093
 2668SOL    HW2 8904   6.265   0.686   2.978
 2669SOL     OW 8905   2.459   0.567   0.097
 2669SOL    HW1 8906   2.360   0.565   0.110
 2669SOL    HW2 8907   2.504   0.522   0.175
 2670SOL     OW 8908   0.359   0.272   6.421
 2670SOL    HW1 8909   0.416   0.323   6.485
 2670SOL    HW2 8910   0.262   0.292   6.439
 2671SOL     OW 8911   5.287   4.652   6.176
 2671SOL    HW1 8912   5.338   4.578   6.133
 2671SOL    HW2 8913   5.303   4.650   6.275
 2672SOL     OW 8914   3.507   1.479   2.084
 2672SOL    HW1 8915   3.575   1.440   2.145
 2672SOL    HW2 8916   3.478   1.411   2.017
 2673SOL     OW 8917   3.586   0.861   2.672
 2673SOL    HW1 8918   3.669   0.880   2.724
 2673SOL    HW2 8919   3.508   0.855   2.735
 2674SOL     OW 8920   0.450   5.602   2.998
 2674SOL    HW1 8921   0.457   5.543   3.079
 2674SOL    HW2 8922   0.461   5.698   3.025
 2675SOL     OW 8923   4.906   0.932   3.935
 2675SOL    HW1 8924   4.817   0.963   3.967
 2675SOL    HW2 8925   4.893   0.857   3.870
 2676SOL     OW 8926   3.857   4.042   3.806
 2676SOL    HW1 8927   3.763   4.076   3.813
 2676SOL    HW2 8928   3.920   4.119   3.797
 2677SOL     OW 8929   2.250   5.703   1.460
 2677SOL    HW1 8930   2.202   5.667   1.540
 2677SOL    HW2 8931   2.309   5.633   1.421
 2678SOL     OW 8932   3.636   1.831   3.040
 2678SOL    HW1 8933   3.696   1.752   3.026
 2678SOL    HW2 8934   3.600   1.861   2.951
 2679SOL     OW 8935   2.136   3.093   2.474
 2679SOL    HW1 8936   2.207   3.023   2.479
 2679SOL    HW2 8937   2.109   3.106   2.378
 2680SOL     OW 8938   5.916   1.791   0.252
 2680SOL    HW1 8939   5.856   1.768   0.175
 2680SOL    HW2 8940   5.962   1.708   0.283
 2681SOL     OW 8941   1.750   2.384   3.908
 2681SOL    HW1 8942   1.794   2.323   3.841
 2681SOL    HW2 8943   1.716   2.330   3.984
 2682SOL     OW 8944   3.841   4.518   1.384
 2682SOL    HW1 8945   3.937   4.491   1.382
 2682SOL    HW2 8946   3.783   4.436   1.384
 2683SOL     OW 8947   2.305   4.232   1.894
 2683SOL    HW1 8948   2.331   4.210   1.988
 2683SOL    HW2 8949   2.205   4.241   1.889
 2684SOL     OW 8950   6.725   0.132   4.026
 2684SOL    HW1 8951   6.814   0.091   4.006
 2684SOL    HW2 8952   6.691   0.181   3.945
 2685SOL     OW 8953   0.794   6.044   5.486
 2685SOL    HW1 8954   0.742   5.992   5.554
 2685SOL    HW2 8955   0.738   6.119   5.451
 2686SOL     OW 8956   0.822   1.015   5.449
 2686SOL    HW1 8957   0.781   1.100   5.417
 2686SOL    HW2 8958   0.872   1.031   5.534
 2687SOL     OW 8959   4.059   1.851   1.379
 2687SOL    HW1 8960   4.063   1.830   1.477
 2687SOL    HW2 8961   4.058   1.950   1.366
 2688SOL     OW 8962   3.906   2.605   6.595
 2688SOL    HW1 8963   3.827   2.662   6.575
 2688SOL    HW2 8964   3.881   2.509   6.585
 2689SOL     OW 8965   1.131   4.165   3.514
 2689SOL    HW1 8966   1.067   4.129   3.445
 2689SOL    HW2 8967   1.110   4.261   3.531
 2690SOL     OW 8968   4.650   1.482   5.942
 2690SOL    HW1 8969   4.664   1.541   6.022
 2690SOL    HW2 8970   4.561   1.437   5.949
 2691SOL     OW 8971   7.022   3.331   5.672
 2691SOL    HW1 8972   6.972   3.337   5.585
 2691SOL    HW2 8973   6.992   3.249   5.721
 2692SOL     OW 8974   2.437   5.884   2.301
 2692SOL    HW1 8975   2.481   5.886   2.390
 2692SOL    HW2 8976   2.429   5.789   2.270
 2693SOL     OW 8977   1.353   6.139   3.567
 2693SOL    HW1 8978   1.401   6.207   3.622
 2693SOL    HW2 8979   1.360   6.163   3.470
 2694SOL     OW 8980   2.863   0.217   2.358
 2694SOL    HW1 8981   2.950   0.177   2.390
 2694SOL    HW2 8982   2.788   0.180   2.412
 2695SOL     OW 8983   0.370   5.318   3.582
 2695SOL    HW1 8984   0.332   5.301   3.491
 2695SOL    HW2 8985   0.319   5.392   3.626
 2696SOL     OW 8986   4.780   5.133   6.291
 2696SOL    HW1 8987   4.768   5.166   6.197
 2696SOL    HW2 8988   4.758   5.207   6.355
 2697SOL     OW 8989   4.285   2.472   6.729
 2697SOL    HW1 8990   4.256   2.496   6.636
 2697SOL    HW2 8991   4.383   2.484   6.737
 2698SOL     OW 8992   1.426   5.360   6.356
 2698SOL    HW1 8993   1.328   5.354   6.334
 2698SOL    HW2 8994   1.457   5.274   6.395
 2699SOL     OW 8995   2.838   6.426   2.048
 2699SOL    HW1 8996   2.867   6.399   2.140
 2699SOL    HW2 8997   2.819   6.344   1.994
 2700SOL     OW 8998   4.089   1.557   1.578
 2700SOL    HW1 8999   4.172   1.610   1.560
 2700SOL    HW2 9000   4.055   1.518   1.492
 2701SOL     OW 9001   4.845   2.985   4.812
 2701SOL    HW1 9002   4.792   2.902   4.799
 2701SOL    HW2 9003   4.833   3.019   4.906
 2702SOL     OW 9004   2.485   1.044   4.771
 2702SOL    HW1 9005   2.568   1.078   4.727
 2702SOL    HW2 9006   2.478   1.082   4.864
 2703SOL     OW 9007   2.543   6.716   2.265
 2703SOL    HW1 9008   2.549   6.645   2.335
 2703SOL    HW2 9009   2.564   6.805   2.306
 2704SOL     OW 9010   5.260   0.495   3.147
 2704SOL    HW1 9011   5.296   0.407   3.115
 2704SOL    HW2 9012   5.299   0.569   3.093
 2705SOL     OW 9013   0.559   0.304   5.471
 2705SOL    HW1 9014   0.523   0.250   5.396
 2705SOL    HW2 9015   0.592   0.243   5.544
 2706SOL     OW 9016   6.510   3.651   3.443
 2706SOL    HW1 9017   6.595   3.702   3.460
 2706SOL    HW2 9018   6.525   3.554   3.462
 2707SOL     OW 9019   4.592   1.248   3.275
 2707SOL    HW1 9020   4.645   1.329   3.249
 2707SOL    HW2 9021   4.577   1.191   3.195
 2708SOL     OW 9022   5.300   3.630   5.942
 2708SOL    HW1 9023   5.346   3.719   5.938
 2708SOL    HW2 9024   5.322   3.586   6.028
 2709SOL     OW 9025   5.368   1.551   5.823
 2709SOL    HW1 9026   5.303   1.557   5.747
 2709SOL    HW2 9027   5.370   1.638   5.872
 2710SOL     OW 9028   0.698   2.692   5.021
 2710SOL    HW1 9029   0.722   2.669   4.926
 2710SOL    HW2 9030   0.616   2.749   5.021
 2711SOL     OW 9031   3.844   1.267   1.920
 2711SOL    HW1 9032   3.768   1.331   1.908
 2711SOL    HW2 9033   3.847   1.237   2.015
 2712SOL     OW 9034   4.472   6.143   2.219
 2712SOL    HW1 9035   4.525   6.083   2.278
 2712SOL    HW2 9036   4.405   6.090   2.168
 2713SOL     OW 9037   3.980   5.055   5.160
 2713SOL    HW1 9038   3.904   5.074   5.222
 2713SOL    HW2 9039   4.039   4.984   5.200
 2714SOL     OW 9040   3.364   4.729   6.402
 2714SOL    HW1 9041   3.307   4.761   6.478
 2714SOL    HW2 9042   3.406   4.808   6.357
 2715SOL     OW 9043   4.241   0.282   6.524
 2715SOL    HW1 9044   4.327   0.232   6.524
 2715SOL    HW2 9045   4.169   0.225   6.486
 2716SOL     OW 9046   3.891   1.429   2.872
 2716SOL    HW1 9047   3.828   1.465   2.803
 2716SOL    HW2 9048   3.901   1.330   2.861
 2717SOL     OW 9049   0.965   1.698   2.077
 2717SOL    HW1 9050   0.937   1.664   2.167
 2717SOL    HW2 9051   1.010   1.786   2.088
 2718SOL     OW 9052   0.067   1.011   5.576
 2718SOL    HW1 9053   0.055   1.095   5.629
 2718SOL    HW2 9054   0.164   1.000   5.554
 2719SOL     OW 9055   1.295   4.903   3.014
 2719SOL    HW1 9056   1.253   4.831   2.958
 2719SOL    HW2 9057   1.254   4.991   2.991
 2720SOL     OW 9058   1.870   6.442   6.101
 2720SOL    HW1 9059   1.770   6.442   6.091
 2720SOL    HW2 9060   1.894   6.483   6.189
 2721SOL     OW 9061   2.614   6.619   1.760
 2721SOL    HW1 9062   2.643   6.648   1.851
 2721SOL    HW2 9063   2.565   6.532   1.767
 2722SOL     OW 9064   3.972   5.582   6.395
 2722SOL    HW1 9065   3.964   5.535   6.307
 2722SOL    HW2 9066   3.991   5.515   6.467
 2723SOL     OW 9067   3.367   6.168   6.591
 2723SOL    HW1 9068   3.436   6.111   6.546
 2723SOL    HW2 9069   3.278   6.154   6.547
 2724SOL     OW 9070   0.307   6.248   0.737
 2724SOL    HW1 9071   0.234   6.316   0.748
 2724SOL    HW2 9072   0.364   6.273   0.659
 2725SOL     OW 9073   5.979   4.037   4.645
 2725SOL    HW1 9074   5.982   4.078   4.553
 2725SOL    HW2 9075   5.903   4.077   4.696
 2726SOL     OW 9076   6.579   1.657   2.215
 2726SOL    HW1 9077   6.487   1.696   2.215
 2726SOL    HW2 9078   6.604   1.632   2.121
 2727SOL     OW 9079   1.531   5.325   3.719
 2727SOL    HW1 9080   1.589   5.243   3.721
 2727SOL    HW2 9081   1.580   5.399   3.673
 2728SOL     OW 9082   4.677   5.469   5.902
 2728SOL    HW1 9083   4.587   5.474   5.859
 2728SOL    HW2 9084   4.715   5.561   5.911
 2729SOL     OW 9085   5.673   0.607   6.415
 2729SOL    HW1 9086   5.769   0.620   6.442
 2729SOL    HW2 9087   5.660   0.512   6.386
 2730SOL     OW 9088   1.495   5.642   2.331
 2730SOL    HW1 9089   1.492   5.581   2.252
 2730SOL    HW2 9090   1.557   5.606   2.400
 2731SOL     OW 9091   2.941   3.717   4.014
 2731SOL    HW1 9092   2.985   3.659   4.082
 2731SOL    HW2 9093   2.888   3.788   4.060
 2732SOL     OW 9094   5.695   0.646   2.023
 2732SOL    HW1 9095   5.693   0.562   1.969
 2732SOL    HW2 9096   5.790   0.674   2.037
 2733SOL     OW 9097   0.873   5.753   6.881
 2733SOL    HW1 9098   0.779   5.732   6.856
 2733SOL    HW2 9099   0.882   5.753   6.981
 2734SOL     OW 9100   3.444   6.010   2.639
 2734SOL    HW1 9101   3.345   5.999   2.633
 2734SOL    HW2 9102   3.481   5.946   2.708
 2735SOL     OW 9103   0.506   1.395   1.438
 2735SOL    HW1 9104   0.436   1.324   1.423
 2735SOL    HW2 9105   0.592   1.365   1.398
 2736SOL     OW 9106   5.069   4.296   3.135
 2736SOL    HW1 9107   5.117   4.264   3.053
 2736SOL    HW2 9108   5.130   4.289   3.214
 2737SOL     OW 9109   2.966   0.700   5.377
 2737SOL    HW1 9110   3.000   0.791   5.402
 2737SOL    HW2 9111   2.870   0.706   5.350
 2738SOL     OW 9112   5.481   5.914   1.382
 2738SOL    HW1 9113   5.484   5.823   1.340
 2738SOL    HW2 9114   5.394   5.958   1.359
 2739SOL     OW 9115   6.768   5.267   1.330
 2739SOL    HW1 9116   6.774   5.168   1.320
 2739SOL    HW2 9117   6.859   5.305   1.344
 2740SOL     OW 9118   0.104   5.825   3.032
 2740SOL    HW1 9119   0.159   5.786   3.106
 2740SOL    HW2 9120   0.130   5.783   2.945
 2741SOL     OW 9121   1.272   0.312   5.693
 2741SOL    HW1 9122   1.320   0.273   5.615
 2741SOL    HW2 9123   1.205   0.246   5.728
 2742SOL     OW 9124   3.164   5.799   1.984
 2742SOL    HW1 9125   3.167   5.717   1.927
 2742SOL    HW2 9126   3.206   5.780   2.072
 2743SOL     OW 9127   5.476   1.866   2.000
 2743SOL    HW1 9128   5.390   1.912   2.021
 2743SOL    HW2 9129   5.505   1.889   1.907
 2744SOL     OW 9130   3.251   4.103   2.568
 2744SOL    HW1 9131   3.207   4.183   2.527
 2744SOL    HW2 9132   3.255   4.029   2.501
 2745SOL     OW 9133   0.498   6.016   0.231
 2745SOL    HW1 9134   0.473   5.977   0.319
 2745SOL    HW2 9135   0.597   6.034   0.229
 2746SOL     OW 9136   1.601   1.220   3.316
 2746SOL    HW1 9137   1.613   1.121   3.308
 2746SOL    HW2 9138   1.594   1.260   3.225
 2747SOL     OW 9139   3.747   4.847   0.848
 2747SOL    HW1 9140   3.805   4.774   0.885
 2747SOL    HW2 9141   3.662   4.853   0.901
 2748SOL     OW 9142   4.450   0.118   0.377
 2748SOL    HW1 9143   4.428   0.032   0.423
 2748SOL    HW2 9144   4.501   0.178   0.439
 2749SOL     OW 9145   3.166   1.748   0.501
 2749SOL    HW1 9146   3.140   1.655   0.527
 2749SOL    HW2 9147   3.113   1.814   0.554
 2750SOL     OW 9148   3.415   5.399   2.271
 2750SOL    HW1 9149   3.422   5.489   2.227
 2750SOL    HW2 9150   3.366   5.409   2.358
 2751SOL     OW 9151   5.779   5.303   1.270
 2751SOL    HW1 9152   5.756   5.401   1.267
 2751SOL    HW2 9153   5.730   5.255   1.197
 2752SOL     OW 9154   4.143   5.000   0.143
 2752SOL    HW1 9155   4.118   5.001   0.239
 2752SOL    HW2 9156   4.234   5.040   0.132
 2753SOL     OW 9157   5.604   5.616   5.552
 2753SOL    HW1 9158   5.560   5.542   5.501
 2753SOL    HW2 9159   5.629   5.584   5.643
 2754SOL     OW 9160   1.173   0.062   6.033
 2754SOL    HW1 9161   1.158   0.133   6.102
 2754SOL    HW2 9162   1.260   0.078   5.987
 2755SOL     OW 9163   3.302   0.813   2.260
 2755SOL    HW1 9164   3.286   0.866   2.177
 2755SOL    HW2 9165   3.380   0.850   2.309
 2756SOL     OW 9166   4.817   5.721   0.289
 2756SOL    HW1 9167   4.724   5.701   0.319
 2756SOL    HW2 9168   4.872   5.637   0.291
 2757SOL     OW 9169   0.162   4.934   1.284
 2757SOL    HW1 9170   0.089   4.957   1.220
 2757SOL    HW2 9171   0.155   4.838   1.309
 2758SOL     OW 9172   3.929   0.242   6.148
 2758SOL    HW1 9173   4.017   0.194   6.137
 2758SOL    HW2 9174   3.946   0.334   6.183
 2759SOL     OW 9175   5.018   5.291   4.934
 2759SOL    HW1 9176   5.070   5.312   5.017
 2759SOL    HW2 9177   5.005   5.375   4.881
 2760SOL     OW 9178   2.409   6.315   3.916
 2760SOL    HW1 9179   2.371   6.320   3.823
 2760SOL    HW2 9180   2.481   6.383   3.926
 2761SOL     OW 9181   1.965   5.214   3.698
 2761SOL    HW1 9182   1.959   5.283   3.769
 2761SOL    HW2 9183   1.873   5.186   3.671
 2762SOL     OW 9184   1.315   0.121   4.884
 2762SOL    HW1 9185   1.216   0.109   4.874
 2762SOL    HW2 9186   1.334   0.202   4.941
 2763SOL     OW 9187   4.916   2.388   2.208
 2763SOL    HW1 9188   4.969   2.469   2.186
 2763SOL    HW2 9189   4.952   2.309   2.158
 2764SOL     OW 9190   6.695   1.104   1.999
 2764SOL    HW1 9191   6.624   1.082   1.932
 2764SOL    HW2 9192   6.771   1.041   1.989
 2765SOL     OW 9193   5.001   1.987   2.254
 2765SOL    HW1 9194   4.905   1.971   2.276
 2765SOL    HW2 9195   5.012   2.079   2.218
 2766SOL     OW 9196   5.881   0.264   2.741
 2766SOL    HW1 9197   5.811   0.214   2.690
 2766SOL    HW2 9198   5.924   0.204   2.808
 2767SOL     OW 9199   6.427   4.329   5.536
 2767SOL    HW1 9200   6.509   4.336   5.594
 2767SOL    HW2 9201   6.351   4.295   5.591
 2768SOL     OW 9202   5.928   1.533   6.587
 2768SOL    HW1 9203   5.867   1.483   6.526
 2768SOL    HW2 9204   6.019   1.539   6.544
 2769SOL     OW 9205   1.043   4.351   1.351
 2769SOL    HW1 9206   1.060   4.292   1.430
 2769SOL    HW2 9207   1.112   4.424   1.349
 2770SOL     OW 9208   6.291   6.071   1.783
 2770SOL    HW1 9209   6.217   6.131   1.750
 2770SOL    HW2 9210   6.261   5.976   1.777
 2771SOL     OW 9211   4.789   0.652   1.316
 2771SOL    HW1 9212   4.730   0.706   1.376
 2771SOL    HW2 9213   4.810   0.705   1.234
 2772SOL     OW 9214   3.340   2.818   6.311
 2772SOL    HW1 9215   3.396   2.764   6.374
 2772SOL    HW2 9216   3.246   2.821   6.344
 2773SOL     OW 9217   3.854   4.536   0.235
 2773SOL    HW1 9218   3.816   4.499   0.319
 2773SOL    HW2 9219   3.938   4.489   0.211
 2774SOL     OW 9220   5.539   3.297   2.611
 2774SOL    HW1 9221   5.463   3.357   2.636
 2774SOL    HW2 9222   5.625   3.348   2.613
 2775SOL     OW 9223   0.059   6.655   2.328
 2775SOL    HW1 9224   0.070   6.588   2.254
 2775SOL    HW2 9225   0.133   6.722   2.322
 2776SOL     OW 9226   3.355   6.005   5.871
 2776SOL    HW1 9227   3.419   5.955   5.812
 2776SOL    HW2 9228   3.402   6.035   5.954
 2777SOL     OW 9229   3.368   0.717   3.294
 2777SOL    HW1 9230   3.394   0.758   3.207
 2777SOL    HW2 9231   3.442   0.730   3.360
 2778SOL     OW 9232   2.281   2.058   4.555
 2778SOL    HW1 9233   2.369   2.018   4.581
 2778SOL    HW2 9234   2.294   2.122   4.479
 2779SOL     OW 9235   5.720   0.783   0.402
 2779SOL    HW1 9236   5.636   0.810   0.354
 2779SOL    HW2 9237   5.798   0.799   0.342
 2780SOL     OW 9238   4.532   5.677   0.381
 2780SOL    HW1 9239   4.523   5.638   0.290
 2780SOL    HW2 9240   4.597   5.622   0.435
 2781SOL     OW 9241   4.870   4.315   0.410
 2781SOL    HW1 9242   4.841   4.324   0.505
 2781SOL    HW2 9243   4.804   4.258   0.361
 2782SOL     OW 9244   2.863   2.074   6.245
 2782SOL    HW1 9245   2.870   1.985   6.290
 2782SOL    HW2 9246   2.796   2.130   6.292
 2783SOL     OW 9247   0.046   4.063   5.645
 2783SOL    HW1 9248   0.050   4.156   5.682
 2783SOL    HW2 9249   0.137   4.034   5.617
 2784SOL     OW 9250   2.014   2.092   2.076
 2784SOL    HW1 9251   2.085   2.147   2.119
 2784SOL    HW2 9252   2.026   2.092   1.977
 2785SOL     OW 9253   6.278   1.475   1.712
 2785SOL    HW1 9254   6.350   1.404   1.717
 2785SOL    HW2 9255   6.248   1.484   1.617
 2786SOL     OW 9256   3.469   7.017   0.677
 2786SOL    HW1 9257   3.389   0.053   0.676
 2786SOL    HW2 9258   3.538   0.028   0.613
 2787SOL     OW 9259   1.949   2.510   5.547
 2787SOL    HW1 9260   1.923   2.604   5.571
 2787SOL    HW2 9261   1.942   2.498   5.448
 2788SOL     OW 9262   0.905   3.580   0.583
 2788SOL    HW1 9263   0.983   3.533   0.624
 2788SOL    HW2 9264   0.869   3.647   0.647
 2789SOL     OW 9265   7.013   2.055   4.498
 2789SOL    HW1 9266   0.015   2.075   4.592
 2789SOL    HW2 9267   7.012   2.140   4.445
 2790SOL     OW 9268   4.263   5.886   3.442
 2790SOL    HW1 9269   4.187   5.949   3.456
 2790SOL    HW2 9270   4.291   5.888   3.346
 2791SOL     OW 9271   2.248   3.050   3.351
 2791SOL    HW1 9272   2.227   3.004   3.265
 2791SOL    HW2 9273   2.196   3.136   3.356
 2792SOL     OW 9274   1.205   2.575   4.850
 2792SOL    HW1 9275   1.237   2.533   4.765
 2792SOL    HW2 9276   1.116   2.537   4.874
 2793SOL     OW 9277   5.467   1.010   3.843
 2793SOL    HW1 9278   5.549   1.064   3.862
 2793SOL    HW2 9279   5.451   1.008   3.745
 2794SOL     OW 9280   0.666   0.768   0.912
 2794SOL    HW1 9281   0.719   0.810   0.838
 2794SOL    HW2 9282   0.665   0.829   0.992
 2795SOL     OW 9283   2.045   4.153   1.839
 2795SOL    HW1 9284   2.002   4.111   1.758
 2795SOL    HW2 9285   1.976   4.203   1.891
 2796SOL     OW 9286   5.186   4.033   2.633
 2796SOL    HW1 9287   5.129   4.024   2.552
 2796SOL    HW2 9288   5.267   4.088   2.611
 2797SOL     OW 9289   4.324   4.807   5.030
 2797SOL    HW1 9290   4.256   4.812   5.103
 2797SOL    HW2 9291   4.335   4.711   5.003
 2798SOL     OW 9292   1.449   3.554   4.344
 2798SOL    HW1 9293   1.370   3.582   4.400
 2798SOL    HW2 9294   1.448   3.455   4.331
 2799SOL     OW 9295   6.433   5.507   5.757
 2799SOL    HW1 9296   6.419   5.480   5.661
 2799SOL    HW2 9297   6.467   5.430   5.809
 2800SOL     OW 9298   3.051   2.943   6.818
 2800SOL    HW1 9299   3.060   2.850   6.784
 2800SOL    HW2 9300   3.067   3.008   6.743
 2801SOL     OW 9301   4.622   5.723   2.315
 2801SOL    HW1 9302   4.582   5.733   2.406
 2801SOL    HW2 9303   4.678   5.804   2.294
 2802SOL     OW 9304   5.405   0.902   5.994
 2802SOL    HW1 9305   5.468   0.941   5.927
 2802SOL    HW2 9306   5.396   0.966   6.071
 2803SOL     OW 9307   2.005   5.810   6.035
 2803SOL    HW1 9308   1.981   5.747   5.961
 2803SOL    HW2 9309   2.000   5.904   6.003
 2804SOL     OW 9310   6.891   4.427   2.789
 2804SOL    HW1 9311   6.850   4.492   2.725
 2804SOL    HW2 9312   6.842   4.429   2.876
 2805SOL     OW 9313   5.294   4.117   6.514
 2805SOL    HW1 9314   5.248   4.042   6.467
 2805SOL    HW2 9315   5.359   4.080   6.580
 2806SOL     OW 9316   7.002   5.598   3.261
 2806SOL    HW1 9317   0.059   5.628   3.211
 2806SOL    HW2 9318   6.994   5.650   3.347
 2807SOL     OW 9319   4.173   4.841   3.705
 2807SOL    HW1 9320   4.149   4.791   3.788
 2807SOL    HW2 9321   4.234   4.917   3.728
 2808SOL     OW 9322   4.748   6.530   3.896
 2808SOL    HW1 9323   4.670   6.469   3.896
 2808SOL    HW2 9324   4.833   6.477   3.900
 2809SOL     OW 9325   4.892   3.343   0.865
 2809SOL    HW1 9326   4.980   3.390   0.867
 2809SOL    HW2 9327   4.861   3.328   0.959
 2810SOL     OW 9328   1.769   0.680   5.560
 2810SOL    HW1 9329   1.747   0.631   5.476
 2810SOL    HW2 9330   1.766   0.778   5.543
 2811SOL     OW 9331   0.169   1.183   3.938
 2811SOL    HW1 9332   0.142   1.087   3.945
 2811SOL    HW2 9333   0.198   1.202   3.844
 2812SOL     OW 9334   5.247   3.631   2.891
 2812SOL    HW1 9335   5.328   3.573   2.903
 2812SOL    HW2 9336   5.260   3.688   2.810
 2813SOL     OW 9337   6.380   0.891   6.137
 2813SOL    HW1 9338   6.366   0.818   6.205
 2813SOL    HW2 9339   6.293   0.911   6.092
 2814SOL     OW 9340   5.093   4.125   5.137
 2814SOL    HW1 9341   5.167   4.095   5.077
 2814SOL    HW2 9342   5.099   4.225   5.148
 2815SOL     OW 9343   0.367   1.062   5.256
 2815SOL    HW1 9344   0.377   1.099   5.164
 2815SOL    HW2 9345   0.343   0.965   5.250
 2816SOL     OW 9346   5.707   6.256   3.511
 2816SOL    HW1 9347   5.720   6.160   3.486
 2816SOL    HW2 9348   5.775   6.312   3.463
 2817SOL     OW 9349   1.063   2.178   1.180
 2817SOL    HW1 9350   1.025   2.223   1.261
 2817SOL    HW2 9351   0.988   2.147   1.121
 2818SOL     OW 9352   6.861   4.368   5.249
 2818SOL    HW1 9353   6.770   4.395   5.281
 2818SOL    HW2 9354   6.890   4.429   5.175
 2819SOL     OW 9355   6.516   2.805   0.428
 2819SOL    HW1 9356   6.417   2.819   0.434
 2819SOL    HW2 9357   6.554   2.867   0.359
 2820SOL     OW 9358   6.517   2.780   4.425
 2820SOL    HW1 9359   6.576   2.700   4.435
 2820SOL    HW2 9360   6.423   2.756   4.448
 2821SOL     OW 9361   1.378   3.306   4.647
 2821SOL    HW1 9362   1.295   3.329   4.596
 2821SOL    HW2 9363   1.440   3.254   4.589
 2822SOL     OW 9364   3.337   1.602   6.754
 2822SOL    HW1 9365   3.254   1.546   6.757
 2822SOL    HW2 9366   3.322   1.686   6.805
 2823SOL     OW 9367   2.150   6.406   3.379
 2823SOL    HW1 9368   2.144   6.499   3.417
 2823SOL    HW2 9369   2.172   6.412   3.281
 2824SOL     OW 9370   2.959   1.708   4.821
 2824SOL    HW1 9371   3.024   1.695   4.746
 2824SOL    HW2 9372   2.987   1.785   4.877
 2825SOL     OW 9373   6.655   6.359   1.083
 2825SOL    HW1 9374   6.661   6.307   1.168
 2825SOL    HW2 9375   6.666   6.296   1.005
 2826SOL     OW 9376   4.798   2.322   4.715
 2826SOL    HW1 9377   4.810   2.241   4.772
 2826SOL    HW2 9378   4.703   2.353   4.721
 2827SOL     OW 9379   5.775   0.994   5.551
 2827SOL    HW1 9380   5.742   0.981   5.457
 2827SOL    HW2 9381   5.857   1.052   5.550
 2828SOL     OW 9382   3.309   2.072   6.030
 2828SOL    HW1 9383   3.341   2.163   6.002
 2828SOL    HW2 9384   3.366   2.039   6.105
 2829SOL     OW 9385   1.836   6.885   6.982
 2829SOL    HW1 9386   1.843   6.787   6.962
 2829SOL    HW2 9387   1.811   6.934   6.898
 2830SOL     OW 9388   3.657   3.200   6.695
 2830SOL    HW1 9389   3.687   3.130   6.631
 2830SOL    HW2 9390   3.562   3.182   6.722
 2831SOL     OW 9391   5.931   5.952   4.378
 2831SOL    HW1 9392   5.874   5.871   4.362
 2831SOL    HW2 9393   5.975   5.945   4.468
 2832SOL     OW 9394   0.528   0.705   1.748
 2832SOL    HW1 9395   0.617   0.660   1.760
 2832SOL    HW2 9396   0.528   0.792   1.797
 2833SOL     OW 9397   5.930   3.181   2.155
 2833SOL    HW1 9398   5.855   3.144   2.100
 2833SOL    HW2 9399   5.939   3.127   2.239
 2834SOL     OW 9400   3.511   0.936   6.197
 2834SOL    HW1 9401   3.581   0.991   6.241
 2834SOL    HW2 9402   3.433   0.994   6.173
 2835SOL     OW 9403   0.872   6.603   2.890
 2835SOL    HW1 9404   0.952   6.650   2.852
 2835SOL    HW2 9405   0.902   6.533   2.955
 2836SOL     OW 9406   6.634   0.768   0.573
 2836SOL    HW1 9407   6.664   0.674   0.592
 2836SOL    HW2 9408   6.678   0.801   0.489
 2837SOL     OW 9409   5.822   3.154   3.528
 2837SOL    HW1 9410   5.855   3.219   3.459
 2837SOL    HW2 9411   5.897   3.097   3.559
 2838SOL     OW 9412   2.886   5.170   3.523
 2838SOL    HW1 9413   2.901   5.193   3.427
 2838SOL    HW2 9414   2.862   5.252   3.575
 2839SOL     OW 9415   4.959   2.013   1.233
 2839SOL    HW1 9416   4.910   2.097   1.258
 2839SOL    HW2 9417   4.897   1.950   1.186
 2840SOL     OW 9418   6.841   1.762   5.663
 2840SOL    HW1 9419   6.892   1.684   5.628
 2840SOL    HW2 9420   6.823   1.826   5.589
 2841SOL     OW 9421   0.616   6.031   1.309
 2841SOL    HW1 9422   0.527   6.019   1.265
 2841SOL    HW2 9423   0.681   6.071   1.244
 2842SOL     OW 9424   6.200   3.349   3.547
 2842SOL    HW1 9425   6.140   3.332   3.625
 2842SOL    HW2 9426   6.289   3.305   3.563
 2843SOL     OW 9427   4.185   1.908   4.757
 2843SOL    HW1 9428   4.186   1.926   4.855
 2843SOL    HW2 9429   4.166   1.992   4.707
 2844SOL     OW 9430   6.961   3.820   6.167
 2844SOL    HW1 9431   7.024   3.761   6.117
 2844SOL    HW2 9432   6.890   3.765   6.210
 2845SOL     OW 9433   6.110   4.218   5.257
 2845SOL    HW1 9434   6.010   4.221   5.250
 2845SOL    HW2 9435   6.137   4.166   5.338
 2846SOL     OW 9436   4.583   1.693   6.405
 2846SOL    HW1 9437   4.517   1.723   6.335
 2846SOL    HW2 9438   4.533   1.653   6.482
 2847SOL     OW 9439   4.918   4.720   4.069
 2847SOL    HW1 9440   5.011   4.745   4.043
 2847SOL    HW2 9441   4.880   4.790   4.130
 2848SOL     OW 9442   0.876   5.623   5.119
 2848SOL    HW1 9443   0.859   5.716   5.085
 2848SOL    HW2 9444   0.966   5.620   5.162
 2849SOL     OW 9445   2.106   2.395   1.667
 2849SOL    HW1 9446   2.099   2.401   1.567
 2849SOL    HW2 9447   2.190   2.347   1.692
 2850SOL     OW 9448   3.651   1.269   0.011
 2850SOL    HW1 9449   3.725   1.203   7.020
 2850SOL    HW2 9450   3.579   1.254   6.967
 2851SOL     OW 9451   2.382   4.507   6.494
 2851SOL    HW1 9452   2.290   4.547   6.503
 2851SOL    HW2 9453   2.402   4.451   6.573
 2852SOL     OW 9454   0.612   3.521   6.387
 2852SOL    HW1 9455   0.575   3.597   6.440
 2852SOL    HW2 9456   0.712   3.531   6.380
 2853SOL     OW 9457   3.230   3.596   1.326
 2853SOL    HW1 9458   3.154   3.532   1.329
 2853SOL    HW2 9459   3.265   3.613   1.419
 2854SOL     OW 9460   1.832   1.342   3.534
 2854SOL    HW1 9461   1.800   1.282   3.607
 2854SOL    HW2 9462   1.876   1.288   3.463
 2855SOL     OW 9463   2.779   1.179   5.010
 2855SOL    HW1 9464   2.839   1.139   4.942
 2855SOL    HW2 9465   2.823   1.175   5.100
 2856SOL     OW 9466   2.557   2.198   4.704
 2856SOL    HW1 9467   2.549   2.105   4.667
 2856SOL    HW2 9468   2.489   2.212   4.776
 2857SOL     OW 9469   2.870   3.378   2.715
 2857SOL    HW1 9470   2.831   3.409   2.628
 2857SOL    HW2 9471   2.947   3.316   2.697
 2858SOL     OW 9472   6.309   3.511   2.992
 2858SOL    HW1 9473   6.246   3.509   2.915
 2858SOL    HW2 9474   6.260   3.544   3.073
 2859SOL     OW 9475   6.161   6.689   0.297
 2859SOL    HW1 9476   6.080   6.737   0.265
 2859SOL    HW2 9477   6.243   6.738   0.268
 2860SOL     OW 9478   4.233   1.351   1.709
 2860SOL    HW1 9479   4.157   1.405   1.674
 2860SOL    HW2 9480   4.263   1.388   1.798
 2861SOL     OW 9481   3.417   5.889   5.490
 2861SOL    HW1 9482   3.465   5.810   5.528
 2861SOL    HW2 9483   3.326   5.860   5.458
 2862SOL     OW 9484   5.504   0.741   4.608
 2862SOL    HW1 9485   5.491   0.817   4.546
 2862SOL    HW2 9486   5.591   0.751   4.656
 2863SOL     OW 9487   6.050   1.776   6.847
 2863SOL    HW1 9488   6.053   1.677   6.833
 2863SOL    HW2 9489   6.111   1.801   6.922
 2864SOL     OW 9490   3.070   1.104   6.942
 2864SOL    HW1 9491   3.080   1.008   6.968
 2864SOL    HW2 9492   3.035   1.110   6.849
 2865SOL     OW 9493   4.721   4.992   4.891
 2865SOL    HW1 9494   4.627   5.018   4.914
 2865SOL    HW2 9495   4.766   5.067   4.844
 2866SOL     OW 9496   0.307   6.587   6.505
 2866SOL    HW1 9497   0.245   6.547   6.573
 2866SOL    HW2 9498   0.281   6.681   6.488
 2867SOL     OW 9499   6.514   4.208   3.758
 2867SOL    HW1 9500   6.537   4.247   3.668
 2867SOL    HW2 9501   6.422   4.235   3.783
 2868SOL     OW 9502   1.429   4.774   5.979
 2868SOL    HW1 9503   1.412   4.740   6.072
 2868SOL    HW2 9504   1.527   4.789   5.967
 2869SOL     OW 9505   6.191   1.778   2.462
 2869SOL    HW1 9506   6.145   1.789   2.551
 2869SOL    HW2 9507   6.228   1.686   2.454
 2870SOL     OW 9508   4.916   1.944   2.630
 2870SOL    HW1 9509   5.009   1.931   2.595
 2870SOL    HW2 9510   4.914   2.023   2.691
 2871SOL     OW 9511   1.504   1.927   5.643
 2871SOL    HW1 9512   1.490   1.863   5.567
 2871SOL    HW2 9513   1.592   1.907   5.687
 2872SOL     OW 9514   2.621   6.445   4.078
 2872SOL    HW1 9515   2.711   6.455   4.035
 2872SOL    HW2 9516   2.627   6.377   4.151
 2873SOL     OW 9517   6.997   5.318   1.493
 2873SOL    HW1 9518   6.929   5.317   1.566
 2873SOL    HW2 9519   0.040   5.246   1.508
 2874SOL     OW 9520   5.959   1.963   2.155
 2874SOL    HW1 9521   5.868   1.984   2.120
 2874SOL    HW2 9522   5.958   1.964   2.255
 2875SOL     OW 9523   3.495   5.117   0.207
 2875SOL    HW1 9524   3.512   5.202   0.257
 2875SOL    HW2 9525   3.473   5.044   0.273
 2876SOL     OW 9526   6.923   1.258   2.116
 2876SOL    HW1 9527   6.832   1.234   2.081
 2876SOL    HW2 9528   6.967   1.320   2.051
 2877SOL     OW 9529   2.421   3.156   6.029
 2877SOL    HW1 9530   2.443   3.132   5.935
 2877SOL    HW2 9531   2.414   3.256   6.036
 2878SOL     OW 9532   3.340   4.511   6.641
 2878SOL    HW1 9533   3.351   4.574   6.565
 2878SOL    HW2 9534   3.298   4.559   6.718
 2879SOL     OW 9535   5.325   5.102   0.002
 2879SOL    HW1 9536   5.263   5.051   0.062
 2879SOL    HW2 9537   5.419   5.083   0.028
 2880SOL     OW 9538   1.145   6.283   1.600
 2880SOL    HW1 9539   1.177   6.207   1.543
 2880SOL    HW2 9540   1.055   6.312   1.570
 2881SOL     OW 9541   6.936   6.803   0.585
 2881SOL    HW1 9542   6.943   6.801   0.486
 2881SOL    HW2 9543   6.899   6.717   0.618
 2882SOL     OW 9544   6.504   3.143   3.322
 2882SOL    HW1 9545   6.550   3.228   3.346
 2882SOL    HW2 9546   6.466   3.151   3.230
 2883SOL     OW 9547   4.499   6.996   2.254
 2883SOL    HW1 9548   4.572   6.998   2.186
 2883SOL    HW2 9549   4.461   0.064   2.265
 2884SOL     OW 9550   1.238   5.955   3.048
 2884SOL    HW1 9551   1.221   6.046   3.009
 2884SOL    HW2 9552   1.295   5.965   3.130
 2885SOL     OW 9553   0.398   2.115   3.528
 2885SOL    HW1 9554   0.326   2.082   3.468
 2885SOL    HW2 9555   0.474   2.151   3.473
 2886SOL     OW 9556   2.265   2.693   5.996
 2886SOL    HW1 9557   2.237   2.776   6.044
 2886SOL    HW2 9558   2.269   2.711   5.898
 2887SOL     OW 9559   1.857   1.020   4.846
 2887SOL    HW1 9560   1.926   0.987   4.781
 2887SOL    HW2 9561   1.822   1.109   4.815
 2888SOL     OW 9562   6.667   5.083   6.616
 2888SOL    HW1 9563   6.727   5.041   6.683
 2888SOL    HW2 9564   6.701   5.175   6.593
 2889SOL     OW 9565   0.886   0.260   2.376
 2889SOL    HW1 9566   0.967   0.295   2.329
 2889SOL    HW2 9567   0.804   0.300   2.337
 2890SOL     OW 9568   3.668   0.312   0.994
 2890SOL    HW1 9569   3.581   0.342   1.032
 2890SOL    HW2 9570   3.655   0.225   0.947
 2891SOL     OW 9571   2.678   5.103   3.802
 2891SOL    HW1 9572   2.738   5.030   3.767
 2891SOL    HW2 9573   2.733   5.180   3.833
 2892SOL     OW 9574   4.574   4.235   5.698
 2892SOL    HW1 9575   4.521   4.183   5.765
 2892SOL    HW2 9576   4.539   4.328   5.692
 2893SOL     OW 9577   2.688   0.642   6.248
 2893SOL    HW1 9578   2.760   0.630   6.316
 2893SOL    HW2 9579   2.703   0.578   6.172
 2894SOL     OW 9580   3.393   3.387   0.638
 2894SOL    HW1 9581   3.484   3.410   0.670
 2894SOL    HW2 9582   3.399   3.339   0.550
 2895SOL     OW 9583   3.109   3.797   6.265
 2895SOL    HW1 9584   3.042   3.867   6.291
 2895SOL    HW2 9585   3.167   3.832   6.191
 2896SOL     OW 9586   2.249   5.487   1.264
 2896SOL    HW1 9587   2.225   5.442   1.350
 2896SOL    HW2 9588   2.338   5.455   1.234
 2897SOL     OW 9589   1.637   6.543   3.990
 2897SOL    HW1 9590   1.549   6.588   4.006
 2897SOL    HW2 9591   1.696   6.603   3.938
 2898SOL     OW 9592   2.782   5.440   2.294
 2898SOL    HW1 9593   2.749   5.524   2.337
 2898SOL    HW2 9594   2.708   5.373   2.290
 2899SOL     OW 9595   6.833   6.972   0.050
 2899SOL    HW1 9596   6.874   6.881   0.052
 2899SOL    HW2 9597   6.798   6.991   6.982
 2900SOL     OW 9598   2.142   5.424   6.035
 2900SOL    HW1 9599   2.092   5.341   6.058
 2900SOL    HW2 9600   2.097   5.470   5.958
 2901SOL     OW 9601   2.874   1.203   1.716
 2901SOL    HW1 9602   2.876   1.302   1.729
 2901SOL    HW2 9603   2.808   1.180   1.645
 2902SOL     OW 9604   5.904   6.050   1.544
 2902SOL    HW1 9605   5.966   6.039   1.466
 2902SOL    HW2 9606   5.824   6.102   1.515
 2903SOL     OW 9607   2.194   2.229   2.221
 2903SOL    HW1 9608   2.131   2.304   2.239
 2903SOL    HW2 9609   2.174   2.153   2.283
 2904SOL     OW 9610   1.820   3.354   5.054
 2904SOL    HW1 9611   1.826   3.298   5.137
 2904SOL    HW2 9612   1.890   3.425   5.057
 2905SOL     OW 9613   1.736   2.554   1.342
 2905SOL    HW1 9614   1.785   2.535   1.427
 2905SOL    HW2 9615   1.638   2.548   1.358
 2906SOL     OW 9616   5.614   5.883   1.945
 2906SOL    HW1 9617   5.592   5.857   1.851
 2906SOL    HW2 9618   5.575   5.973   1.965
 2907SOL     OW 9619   6.569   0.992   3.837
 2907SOL    HW1 9620   6.638   0.990   3.910
 2907SOL    HW2 9621   6.606   1.040   3.758
 2908SOL     OW 9622   4.061   6.484   4.591
 2908SOL    HW1 9623   4.009   6.504   4.508
 2908SOL    HW2 9624   4.147   6.439   4.566
 2909SOL     OW 9625   2.083   5.588   4.993
 2909SOL    HW1 9626   2.095   5.514   5.060
 2909SOL    HW2 9627   2.010   5.564   4.929
 2910SOL     OW 9628   5.686   6.401   6.209
 2910SOL    HW1 9629   5.633   6.392   6.125
 2910SOL    HW2 9630   5.679   6.495   6.243
 2911SOL     OW 9631   1.402   3.868   3.480
 2911SOL    HW1 9632   1.474   3.888   3.414
 2911SOL    HW2 9633   1.394   3.945   3.544
 2912SOL     OW 9634   2.467   5.710   0.722
 2912SOL    HW1 9635   2.542   5.651   0.692
 2912SOL    HW2 9636   2.497   5.805   0.720
 2913SOL     OW 9637   1.139   2.919   3.194
 2913SOL    HW1 9638   1.174   3.013   3.198
 2913SOL    HW2 9639   1.177   2.867   3.270
 2914SOL     OW 9640   5.383   5.642   5.823
 2914SOL    HW1 9641   5.370   5.550   5.785
 2914SOL    HW2 9642   5.408   5.635   5.919
 2915SOL     OW 9643   4.591   1.270   4.297
 2915SOL    HW1 9644   4.664   1.260   4.230
 2915SOL    HW2 9645   4.520   1.331   4.261
 2916SOL     OW 9646   5.127   5.959   4.283
 2916SOL    HW1 9647   5.071   6.026   4.234
 2916SOL    HW2 9648   5.121   5.870   4.237
 2917SOL     OW 9649   4.836   0.979   2.629
 2917SOL    HW1 9650   4.825   1.056   2.692
 2917SOL    HW2 9651   4.893   0.909   2.672
 2918SOL     OW 9652   6.742   3.762   3.783
 2918SOL    HW1 9653   6.694   3.847   3.802
 2918SOL    HW2 9654   6.694   3.686   3.827
 2919SOL     OW 9655   6.752   5.820   0.130
 2919SOL    HW1 9656   6.674   5.793   0.187
 2919SOL    HW2 9657   6.808   5.887   0.179
 2920SOL     OW 9658   4.462   2.316   3.484
 2920SOL    HW1 9659   4.367   2.305   3.455
 2920SOL    HW2 9660   4.467   2.318   3.584
 2921SOL     OW 9661   0.821   0.141   2.036
 2921SOL    HW1 9662   0.879   0.155   1.956
 2921SOL    HW2 9663   0.866   0.078   2.099
 2922SOL     OW 9664   4.407   6.758   5.464
 2922SOL    HW1 9665   4.322   6.806   5.443
 2922SOL    HW2 9666   4.475   6.823   5.498
 2923SOL     OW 9667   6.381   4.085   1.612
 2923SOL    HW1 9668   6.397   4.104   1.515
 2923SOL    HW2 9669   6.300   4.137   1.642
 2924SOL     OW 9670   6.441   1.209   5.145
 2924SOL    HW1 9671   6.342   1.209   5.134
 2924SOL    HW2 9672   6.466   1.273   5.218
 2925SOL     OW 9673   5.477   4.301   1.187
 2925SOL    HW1 9674   5.391   4.334   1.147
 2925SOL    HW2 9675   5.489   4.204   1.164
 2926SOL     OW 9676   0.161   1.036   4.788
 2926SOL    HW1 9677   0.121   1.117   4.830
 2926SOL    HW2 9678   0.257   1.054   4.766
 2927SOL     OW 9679   0.374   2.471   2.870
 2927SOL    HW1 9680   0.383   2.496   2.966
 2927SOL    HW2 9681   0.429   2.533   2.814
 2928SOL     OW 9682   6.199   6.467   0.926
 2928SOL    HW1 9683   6.183   6.511   1.014
 2928SOL    HW2 9684   6.276   6.404   0.934
 2929SOL     OW 9685   0.794   6.821   6.163
 2929SOL    HW1 9686   0.782   6.744   6.225
 2929SOL    HW2 9687   0.891   6.829   6.137
 2930SOL     OW 9688   3.652   6.537   4.828
 2930SOL    HW1 9689   3.708   6.459   4.856
 2930SOL    HW2 9690   3.561   6.528   4.867
 2931SOL     OW 9691   4.138   6.095   5.886
 2931SOL    HW1 9692   4.221   6.078   5.939
 2931SOL    HW2 9693   4.152   6.068   5.791
 2932SOL     OW 9694   1.135   4.657   1.864
 2932SOL    HW1 9695   1.100   4.581   1.810
 2932SOL    HW2 9696   1.181   4.622   1.946
 2933SOL     OW 9697   4.791   1.900   3.397
 2933SOL    HW1 9698   4.770   1.990   3.359
 2933SOL    HW2 9699   4.852   1.910   3.475
 2934SOL     OW 9700   2.678   0.517   0.290
 2934SOL    HW1 9701   2.724   0.499   0.203
 2934SOL    HW2 9702   2.730   0.585   0.342
 2935SOL     OW 9703   6.051   2.101   1.221
 2935SOL    HW1 9704   6.143   2.127   1.249
 2935SOL    HW2 9705   6.054   2.013   1.173
 2936SOL     OW 9706   4.021   6.083   0.721
 2936SOL    HW1 9707   4.006   6.116   0.627
 2936SOL    HW2 9708   4.101   6.023   0.723
 2937SOL     OW 9709   2.981   4.737   0.868
 2937SOL    HW1 9710   3.061   4.682   0.845
 2937SOL    HW2 9711   2.939   4.702   0.951
 2938SOL     OW 9712   4.877   5.362   5.683
 2938SOL    HW1 9713   4.951   5.397   5.741
 2938SOL    HW2 9714   4.794   5.355   5.737
 2939SOL     OW 9715   0.303   6.245   5.694
 2939SOL    HW1 9716   0.336   6.169   5.749
 2939SOL    HW2 9717   0.296   6.217   5.598
 2940SOL     OW 9718   4.479   0.455   5.543
 2940SOL    HW1 9719   4.567   0.481   5.582
 2940SOL    HW2 9720   4.405   0.487   5.602
 2941SOL     OW 9721   2.110   2.379   4.991
 2941SOL    HW1 9722   2.152   2.352   5.078
 2941SOL    HW2 9723   2.118   2.304   4.925
 2942SOL     OW 9724   3.516   6.458   4.212
 2942SOL    HW1 9725   3.565   6.404   4.280
 2942SOL    HW2 9726   3.487   6.398   4.137
 2943SOL     OW 9727   6.036   4.225   3.384
 2943SOL    HW1 9728   6.026   4.239   3.286
 2943SOL    HW2 9729   6.029   4.313   3.431
 2944SOL     OW 9730   3.715   5.893   5.933
 2944SOL    HW1 9731   3.697   5.808   5.982
 2944SOL    HW2 9732   3.795   5.939   5.974
 2945SOL     OW 9733   3.178   3.002   3.471
 2945SOL    HW1 9734   3.160   3.054   3.555
 2945SOL    HW2 9735   3.091   2.980   3.426
 2946SOL     OW 9736   6.633   6.094   6.195
 2946SOL    HW1 9737   6.649   5.995   6.187
 2946SOL    HW2 9738   6.716   6.143   6.170
 2947SOL     OW 9739   6.565   4.709   6.807
 2947SOL    HW1 9740   6.657   4.688   6.773
 2947SOL    HW2 9741   6.562   4.693   6.906
 2948SOL     OW 9742   6.431   4.564   4.899
 2948SOL    HW1 9743   6.369   4.642   4.883
 2948SOL    HW2 9744   6.385   4.479   4.875
 2949SOL     OW 9745   1.208   6.543   0.249
 2949SOL    HW1 9746   1.126   6.493   0.220
 2949SOL    HW2 9747   1.190   6.587   0.337
 2950SOL     OW 9748   4.931   3.524   4.257
 2950SOL    HW1 9749   4.894   3.440   4.297
 2950SOL    HW2 9750   5.027   3.534   4.284
 2951SOL     OW 9751   6.642   1.097   1.334
 2951SOL    HW1 9752   6.635   1.002   1.365
 2951SOL    HW2 9753   6.585   1.155   1.393
 2952SOL     OW 9754   1.522   3.360   2.194
 2952SOL    HW1 9755   1.621   3.351   2.204
 2952SOL    HW2 9756   1.476   3.292   2.251
 2953SOL     OW 9757   5.807   0.931   2.615
 2953SOL    HW1 9758   5.806   1.021   2.657
 2953SOL    HW2 9759   5.714   0.906   2.586
 2954SOL     OW 9760   6.233   7.000   1.862
 2954SOL    HW1 9761   6.263   0.043   1.794
 2954SOL    HW2 9762   6.180   0.021   1.933
 2955SOL     OW 9763   6.471   3.012   0.775
 2955SOL    HW1 9764   6.494   3.089   0.715
 2955SOL    HW2 9765   6.554   2.961   0.797
 2956SOL     OW 9766   6.644   5.599   2.525
 2956SOL    HW1 9767   6.601   5.515   2.492
 2956SOL    HW2 9768   6.606   5.677   2.475
 2957SOL     OW 9769   0.897   3.756   1.152
 2957SOL    HW1 9770   0.887   3.658   1.168
 2957SOL    HW2 9771   0.991   3.777   1.126
 2958SOL     OW 9772   2.630   4.634   5.753
 2958SOL    HW1 9773   2.706   4.688   5.788
 2958SOL    HW2 9774   2.655   4.595   5.665
 2959SOL     OW 9775   3.786   5.502   6.935
 2959SOL    HW1 9776   3.716   5.433   6.949
 2959SOL    HW2 9777   3.746   5.581   6.888
 2960SOL     OW 9778   2.228   1.885   6.963
 2960SOL    HW1 9779   2.245   1.918   6.870
 2960SOL    HW2 9780   2.293   1.926   0.002
 2961SOL     OW 9781   5.591   2.899   4.414
 2961SOL    HW1 9782   5.519   2.965   4.391
 2961SOL    HW2 9783   5.650   2.886   4.335
 2962SOL     OW 9784   4.096   1.162   3.653
 2962SOL    HW1 9785   4.196   1.153   3.648
 2962SOL    HW2 9786   4.055   1.108   3.579
 2963SOL     OW 9787   2.033   2.836   4.538
 2963SOL    HW1 9788   2.045   2.823   4.637
 2963SOL    HW2 9789   2.087   2.915   4.508
 2964SOL     OW 9790   3.372   6.241   0.658
 2964SOL    HW1 9791   3.304   6.183   0.613
 2964SOL    HW2 9792   3.325   6.318   0.702
 2965SOL     OW 9793   0.813   2.400   5.879
 2965SOL    HW1 9794   0.840   2.383   5.784
 2965SOL    HW2 9795   0.881   2.459   5.922
 2966SOL     OW 9796   4.548   4.463   3.913
 2966SOL    HW1 9797   4.647   4.475   3.904
 2966SOL    HW2 9798   4.501   4.524   3.850
 2967SOL     OW 9799   5.553   1.743   4.012
 2967SOL    HW1 9800   5.639   1.794   4.007
 2967SOL    HW2 9801   5.573   1.645   4.004
 2968SOL     OW 9802   6.878   4.036   3.381
 2968SOL    HW1 9803   6.857   3.995   3.293
 2968SOL    HW2 9804   6.858   3.971   3.454
 2969SOL     OW 9805   4.598   1.519   5.228
 2969SOL    HW1 9806   4.561   1.574   5.303
 2969SOL    HW2 9807   4.565   1.425   5.235
 2970SOL     OW 9808   1.222   4.541   6.615
 2970SOL    HW1 9809   1.132   4.498   6.599
 2970SOL    HW2 9810   1.234   4.558   6.712
 2971SOL     OW 9811   5.290   3.186   3.279
 2971SOL    HW1 9812   5.265   3.232   3.194
 2971SOL    HW2 9813   5.258   3.240   3.357
 2972SOL     OW 9814   0.425   3.837   5.701
 2972SOL    HW1 9815   0.393   3.791   5.618
 2972SOL    HW2 9816   0.525   3.842   5.699
 2973SOL     OW 9817   5.271   5.884   4.492
 2973SOL    HW1 9818   5.216   5.911   4.413
 2973SOL    HW2 9819   5.220   5.903   4.576
 2974SOL     OW 9820   0.482   3.615   2.174
 2974SOL    HW1 9821   0.384   3.623   2.160
 2974SOL    HW2 9822   0.502   3.530   2.224
 2975SOL     OW 9823   0.311   0.897   4.983
 2975SOL    HW1 9824   0.240   0.920   4.917
 2975SOL    HW2 9825   0.370   0.976   4.998
 2976SOL     OW 9826   3.831   0.224   2.314
 2976SOL    HW1 9827   3.845   0.283   2.235
 2976SOL    HW2 9828   3.764   0.266   2.375
 2977SOL     OW 9829   3.257   6.464   4.282
 2977SOL    HW1 9830   3.231   6.559   4.264
 2977SOL    HW2 9831   3.357   6.458   4.287
 2978SOL     OW 9832   4.515   6.099   7.018
 2978SOL    HW1 9833   4.491   6.005   6.994
 2978SOL    HW2 9834   4.590   6.130   6.960
 2979SOL     OW 9835   3.414   0.476   3.413
 2979SOL    HW1 9836   3.372   0.558   3.374
 2979SOL    HW2 9837   3.344   0.406   3.429
 2980SOL     OW 9838   6.752   6.566   4.192
 2980SOL    HW1 9839   6.806   6.485   4.214
 2980SOL    HW2 9840   6.807   6.630   4.139
 2981SOL     OW 9841   2.242   0.991   5.204
 2981SOL    HW1 9842   2.264   0.970   5.299
 2981SOL    HW2 9843   2.146   1.018   5.198
 2982SOL     OW 9844   4.585   6.820   2.723
 2982SOL    HW1 9845   4.533   6.885   2.669
 2982SOL    HW2 9846   4.556   6.727   2.701
 2983SOL     OW 9847   6.443   0.260   3.386
 2983SOL    HW1 9848   6.450   0.172   3.339
 2983SOL    HW2 9849   6.404   0.328   3.324
 2984SOL     OW 9850   5.381   4.862   1.949
 2984SOL    HW1 9851   5.456   4.847   2.013
 2984SOL    HW2 9852   5.293   4.845   1.995
 2985SOL     OW 9853   6.420   2.115   3.117
 2985SOL    HW1 9854   6.502   2.078   3.159
 2985SOL    HW2 9855   6.347   2.120   3.185
 2986SOL     OW 9856   2.231   3.763   5.196
 2986SOL    HW1 9857   2.276   3.839   5.150
 2986SOL    HW2 9858   2.254   3.677   5.151
 2987SOL     OW 9859   4.534   2.424   4.787
 2987SOL    HW1 9860   4.447   2.376   4.797
 2987SOL    HW2 9861   4.522   2.520   4.814
 2988SOL     OW 9862   0.772   0.472   2.047
 2988SOL    HW1 9863   0.737   0.385   2.080
 2988SOL    HW2 9864   0.754   0.544   2.114
 2989SOL     OW 9865   6.482   4.704   1.221
 2989SOL    HW1 9866   6.553   4.699   1.152
 2989SOL    HW2 9867   6.425   4.785   1.206
 2990SOL     OW 9868   3.509   0.606   1.173
 2990SOL    HW1 9869   3.528   0.511   1.199
 2990SOL    HW2 9870   3.431   0.608   1.110
 2991SOL     OW 9871   6.407   4.292   0.515
 2991SOL    HW1 9872   6.331   4.230   0.534
 2991SOL    HW2 9873   6.493   4.242   0.520
 2992SOL     OW 9874   4.015   4.478   6.352
 2992SOL    HW1 9875   4.106   4.459   6.316
 2992SOL    HW2 9876   4.011   4.450   6.448
 2993SOL     OW 9877   1.621   5.164   1.062
 2993SOL    HW1 9878   1.555   5.231   1.027
 2993SOL    HW2 9879   1.712   5.204   1.061
 2994SOL     OW 9880   4.437   6.615   0.110
 2994SOL    HW1 9881   4.459   6.571   0.024
 2994SOL    HW2 9882   4.432   6.547   0.183
 2995SOL     OW 9883   2.370   1.267   6.119
 2995SOL    HW1 9884   2.434   1.344   6.119
 2995SOL    HW2 9885   2.388   1.209   6.199
 2996SOL     OW 9886   4.081   5.496   5.520
 2996SOL    HW1 9887   4.119   5.577   5.564
 2996SOL    HW2 9888   4.155   5.435   5.491
 2997SOL     OW 9889   5.477   6.560   0.141
 2997SOL    HW1 9890   5.377   6.566   0.147
 2997SOL    HW2 9891   5.513   6.516   0.224
 2998SOL     OW 9892   6.521   5.684   5.104
 2998SOL    HW1 9893   6.621   5.672   5.104
 2998SOL    HW2 9894   6.478   5.603   5.144
 2999SOL     OW 9895   3.114   6.132   2.695
 2999SOL    HW1 9896   3.147   6.144   2.789
 2999SOL    HW2 9897   3.060   6.211   2.668
 3000SOL     OW 9898   1.865   2.973   4.834
 3000SOL    HW1 9899   1.954   3.019   4.830
 3000SOL    HW2 9900   1.795   3.035   4.801
 3001SOL     OW 9901   4.449   0.157   5.922
 3001SOL    HW1 9902   4.371   0.150   5.861
 3001SOL    HW2 9903   4.419   0.196   6.010
 3002SOL     OW 9904   4.275   0.053   5.326
 3002SOL    HW1 9905   4.323   0.074   5.412
 3002SOL    HW2 9906   4.233   6.986   5.333
 3003SOL     OW 9907   2.332   0.375   6.576
 3003SOL    HW1 9908   2.397   0.442   6.541
 3003SOL    HW2 9909   2.301   0.404   6.667
 3004SOL     OW 9910   6.303   3.087   4.662
 3004SOL    HW1 9911   6.382   3.065   4.604
 3004SOL    HW2 9912   6.292   3.017   4.732
 3005SOL     OW 9913   4.535   2.431   1.621
 3005SOL    HW1 9914   4.521   2.342   1.577
 3005SOL    HW2 9915   4.536   2.503   1.551
 3006SOL     OW 9916   5.628   0.523   1.506
 3006SOL    HW1 9917   5.533   0.545   1.531
 3006SOL    HW2 9918   5.629   0.436   1.456
 3007SOL     OW 9919   6.393   5.436   2.086
 3007SOL    HW1 9920   6.393   5.351   2.138
 3007SOL    HW2 9921   6.370   5.512   2.148
 3008SOL     OW 9922   3.373   5.574   5.944
 3008SOL    HW1 9923   3.471   5.555   5.930
 3008SOL    HW2 9924   3.348   5.552   6.038
 3009SOL     OW 9925   1.563   0.643   3.262
 3009SOL    HW1 9926   1.602   0.597   3.342
 3009SOL    HW2 9927   1.464   0.627   3.259
 3010SOL     OW 9928   4.182   6.913   1.667
 3010SOL    HW1 9929   4.218   7.000   1.701
 3010SOL    HW2 9930   4.141   6.862   1.743
 3011SOL     OW 9931   5.671   0.847   0.015
 3011SOL    HW1 9932   5.759   0.892   7.023
 3011SOL    HW2 9933   5.598   0.915   0.018
 3012SOL     OW 9934   6.933   4.075   2.520
 3012SOL    HW1 9935   6.911   4.147   2.454
 3012SOL    HW2 9936   6.925   3.986   2.475
 3013SOL     OW 9937   5.766   4.685   2.246
 3013SOL    HW1 9938   5.813   4.663   2.332
 3013SOL    HW2 9939   5.708   4.608   2.220
 3014SOL     OW 9940   4.474   1.209   5.090
 3014SOL    HW1 9941   4.449   1.132   5.032
 3014SOL    HW2 9942   4.412   1.214   5.168
 3015SOL     OW 9943   3.044   2.656   6.736
 3015SOL    HW1 9944   3.095   2.653   6.650
 3015SOL    HW2 9945   2.981   2.578   6.740
 3016SOL     OW 9946   3.707   6.339   3.479
 3016SOL    HW1 9947   3.774   6.335   3.553
 3016SOL    HW2 9948   3.719   6.423   3.427
 3017SOL     OW 9949   0.080   6.026   1.240
 3017SOL    HW1 9950   0.020   5.967   1.186
 3017SOL    HW2 9951   0.169   6.032   1.197
 3018SOL     OW 9952   3.598   6.497   6.714
 3018SOL    HW1 9953   3.563   6.465   6.626
 3018SOL    HW2 9954   3.697   6.483   6.717
 3019SOL     OW 9955   4.888   0.369   2.266
 3019SOL    HW1 9956   4.886   0.467   2.244
 3019SOL    HW2 9957   4.833   0.353   2.349
 3020SOL     OW 9958   1.226   1.966   0.769
 3020SOL    HW1 9959   1.196   2.052   0.728
 3020SOL    HW2 9960   1.315   1.941   0.731
 3021SOL     OW 9961   3.156   1.167   6.633
 3021SOL    HW1 9962   3.059   1.156   6.654
 3021SOL    HW2 9963   3.171   1.254   6.587
 3022SOL     OW 9964   4.904   6.801   2.993
 3022SOL    HW1 9965   4.804   6.794   3.000
 3022SOL    HW2 9966   4.927   6.843   2.905
 3023SOL     OW 9967   5.480   6.487   2.400
 3023SOL    HW1 9968   5.485   6.571   2.453
 3023SOL    HW2 9969   5.387   6.476   2.363
 3024SOL     OW 9970   3.082   6.216   0.050
 3024SOL    HW1 9971   3.036   6.299   0.082
 3024SOL    HW2 9972   3.142   6.239   6.997
 3025SOL     OW 9973   1.881   2.163   1.408
 3025SOL    HW1 9974   1.958   2.099   1.405
 3025SOL    HW2 9975   1.895   2.235   1.341
 3026SOL     OW 9976   2.298   4.569   1.142
 3026SOL    HW1 9977   2.368   4.532   1.204
 3026SOL    HW2 9978   2.209   4.535   1.169
 3027SOL     OW 9979   1.243   1.891   3.876
 3027SOL    HW1 9980   1.301   1.824   3.831
 3027SOL    HW2 9981   1.186   1.846   3.945
 3028SOL     OW 9982   1.602   0.066   4.560
 3028SOL    HW1 9983   1.579   0.098   4.652
 3028SOL    HW2 9984   1.567   6.997   4.548
 3029SOL     OW 9985   5.272   6.668   5.642
 3029SOL    HW1 9986   5.230   6.612   5.714
 3029SOL    HW2 9987   5.235   6.761   5.647
 3030SOL     OW 9988   1.238   1.904   5.494
 3030SOL    HW1 9989   1.219   1.893   5.591
 3030SOL    HW2 9990   1.250   2.001   5.473
 3031SOL     OW 9991   1.318   4.868   6.696
 3031SOL    HW1 9992   1.299   4.772   6.713
 3031SOL    HW2 9993   1.248   4.925   6.739
 3032SOL     OW 9994   4.536   0.349   6.210
 3032SOL    HW1 9995   4.529   0.399   6.296
 3032SOL    HW2 9996   4.532   0.251   6.229
 3033SOL     OW 9997   5.592   4.064   6.550
 3033SOL    HW1 9998   5.618   4.018   6.636
 3033SOL    HW2 9999   5.657   4.040   6.479
 3034SOL     OW10000   2.386   0.189   4.448
 3034SOL    HW110001   2.339   0.115   4.400
 3034SOL    HW210002   2.365   0.184   4.545
 3035SOL     OW10003   6.375   0.536   0.346
 3035SOL    HW110004   6.467   0.508   0.321
 3035SOL    HW210005   6.312   0.511   0.272
 3036SOL     OW10006   1.325   4.642   6.339
 3036SOL    HW110007   1.247   4.677   6.287
 3036SOL    HW210008   1.294   4.616   6.430
 3037SOL     OW10009   6.701   6.413   5.572
 3037SOL    HW110010   6.793   6.373   5.569
 3037SOL    HW210011   6.685   6.453   5.662
 3038SOL     OW10012   5.517   0.412   5.957
 3038SOL    HW110013   5.461   0.472   6.015
 3038SOL    HW210014   5.606   0.397   6.000
 3039SOL     OW10015   0.619   4.988   1.258
 3039SOL    HW110016   0.572   4.915   1.208
 3039SOL    HW210017   0.655   4.951   1.344
 3040SOL     OW10018   2.643   3.208   6.454
 3040SOL    HW110019   2.549   3.175   6.446
 3040SOL    HW210020   2.651   3.298   6.410
 3041SOL     OW10021   1.670   2.157   5.636
 3041SOL    HW110022   1.711   2.094   5.570
 3041SOL    HW210023   1.625   2.104   5.709
 3042SOL     OW10024   4.598   0.772   1.551
 3042SOL    HW110025   4.606   0.871   1.565
 3042SOL    HW210026   4.664   0.725   1.610
 3043SOL     OW10027   0.008   5.163   0.330
 3043SOL    HW110028   0.065   5.218   0.268
 3043SOL    HW210029   0.029   5.187   0.424
 3044SOL     OW10030   3.387   4.281   6.294
 3044SOL    HW110031   3.338   4.243   6.216
 3044SOL    HW210032   3.386   4.214   6.369
 3045SOL     OW10033   5.956   2.246   3.333
 3045SOL    HW110034   5.857   2.251   3.317
 3045SOL    HW210035   5.977   2.283   3.423
 3046SOL     OW10036   2.126   2.514   6.168
 3046SOL    HW110037   2.037   2.559   6.158
 3046SOL    HW210038   2.195   2.566   6.116
 3047SOL     OW10039   6.513   4.706   2.101
 3047SOL    HW110040   6.515   4.606   2.097
 3047SOL    HW210041   6.471   4.742   2.018
 3048SOL     OW10042   3.343   2.529   1.711
 3048SOL    HW110043   3.396   2.590   1.652
 3048SOL    HW210044   3.247   2.529   1.683
 3049SOL     OW10045   1.023   0.344   2.149
 3049SOL    HW110046   1.101   0.287   2.124
 3049SOL    HW210047   0.982   0.382   2.066
 3050SOL     OW10048   4.014   5.553   3.791
 3050SOL    HW110049   4.019   5.466   3.840
 3050SOL    HW210050   3.940   5.609   3.828
 3051SOL     OW10051   2.531   4.408   5.922
 3051SOL    HW110052   2.588   4.361   5.989
 3051SOL    HW210053   2.588   4.465   5.863
 3052SOL     OW10054   4.339   6.533   3.132
 3052SOL    HW110055   4.243   6.560   3.140
 3052SOL    HW210056   4.348   6.463   3.061
 3053SOL     OW10057   5.192   6.509   0.165
 3053SOL    HW110058   5.172   6.424   0.214
 3053SOL    HW210059   5.134   6.582   0.201
 3054SOL     OW10060   1.155   3.728   6.445
 3054SOL    HW110061   1.190   3.653   6.500
 3054SOL    HW210062   1.173   3.710   6.348
 3055SOL     OW10063   6.438   6.321   3.060
 3055SOL    HW110064   6.448   6.420   3.064
 3055SOL    HW210065   6.385   6.290   3.140
 3056SOL     OW10066   6.836   0.862   1.025
 3056SOL    HW110067   6.854   0.764   1.028
 3056SOL    HW210068   6.872   0.906   1.106
 3057SOL     OW10069   5.997   5.723   2.551
 3057SOL    HW110070   6.027   5.634   2.586
 3057SOL    HW210071   5.958   5.776   2.625
 3058SOL     OW10072   6.296   5.036   1.529
 3058SOL    HW110073   6.243   5.113   1.493
 3058SOL    HW210074   6.350   4.996   1.455
 3059SOL     OW10075   1.818   2.984   4.503
 3059SOL    HW110076   1.849   3.049   4.433
 3059SOL    HW210077   1.895   2.926   4.531
 3060SOL     OW10078   6.374   6.960   0.942
 3060SOL    HW110079   6.335   7.020   0.872
 3060SOL    HW210080   6.344   6.990   1.032
 3061SOL     OW10081   0.071   0.006   6.269
 3061SOL    HW110082   7.010   6.979   6.257
 3061SOL    HW210083   0.085   0.066   6.190
 3062SOL     OW10084   2.771   6.323   6.885
 3062SOL    HW110085   2.777   6.226   6.908
 3062SOL    HW210086   2.699   6.365   6.941
 3063SOL     OW10087   2.097   4.941   1.437
 3063SOL    HW110088   2.003   4.964   1.462
 3063SOL    HW210089   2.115   4.845   1.458
 3064SOL     OW10090   6.399   3.971   3.057
 3064SOL    HW110091   6.424   3.989   2.962
 3064SOL    HW210092   6.424   3.878   3.081
 3065SOL     OW10093   1.735   0.899   0.483
 3065SOL    HW110094   1.664   0.906   0.553
 3065SOL    HW210095   1.823   0.926   0.521
 3066SOL     OW10096   6.045   4.943   1.601
 3066SOL    HW110097   6.002   4.952   1.511
 3066SOL    HW210098   6.140   4.973   1.596
 3067SOL     OW10099   5.381   0.071   3.901
 3067SOL    HW110100   5.447   0.000   3.923
 3067SOL    HW210101   5.291   0.029   3.886
 3068SOL     OW10102   6.010   4.910   0.335
 3068SOL    HW110103   6.109   4.895   0.341
 3068SOL    HW210104   5.989   5.003   0.365
 3069SOL     OW10105   0.707   5.612   2.908
 3069SOL    HW110106   0.689   5.644   2.815
 3069SOL    HW210107   0.621   5.605   2.958
 3070SOL     OW10108   4.055   1.146   4.287
 3070SOL    HW110109   3.972   1.189   4.324
 3070SOL    HW210110   4.092   1.083   4.355
 3071SOL     OW10111   6.139   6.431   3.390
 3071SOL    HW110112   6.232   6.448   3.359
 3071SOL    HW210113   6.129   6.461   3.485
 3072SOL     OW10114   0.690   0.340   2.721
 3072SOL    HW110115   0.785   0.360   2.744
 3072SOL    HW210116   0.630   0.399   2.774
 3073SOL     OW10117   1.458   3.547   4.812
 3073SOL    HW110118   1.536   3.526   4.871
 3073SOL    HW210119   1.439   3.469   4.753
 3074SOL     OW10120   4.990   3.018   5.756
 3074SOL    HW110121   4.916   3.000   5.692
 3074SOL    HW210122   5.009   3.116   5.760
 3075SOL     OW10123   2.316   5.728   1.725
 3075SOL    HW110124   2.273   5.707   1.813
 3075SOL    HW210125   2.318   5.827   1.712
 3076SOL     OW10126   0.425   0.445   5.257
 3076SOL    HW110127   0.348   0.508   5.253
 3076SOL    HW210128   0.399   0.364   5.308
 3077SOL     OW10129   5.125   4.848   3.659
 3077SOL    HW110130   5.050   4.896   3.706
 3077SOL    HW210131   5.109   4.851   3.561
 3078SOL     OW10132   1.968   3.200   1.201
 3078SOL    HW110133   1.876   3.197   1.162
 3078SOL    HW210134   1.981   3.120   1.260
 3079SOL     OW10135   6.351   2.271   5.902
 3079SOL    HW110136   6.357   2.366   5.932
 3079SOL    HW210137   6.285   2.264   5.827
 3080SOL     OW10138   6.635   5.411   0.978
 3080SOL    HW110139   6.563   5.369   1.033
 3080SOL    HW210140   6.687   5.475   1.034
 3081SOL     OW10141   6.850   4.709   5.634
 3081SOL    HW110142   6.853   4.801   5.673
 3081SOL    HW210143   6.756   4.686   5.608
 3082SOL     OW10144   2.799   0.037   2.712
 3082SOL    HW110145   2.850   0.030   2.627
 3082SOL    HW210146   2.701   0.028   2.693
 3083SOL     OW10147   3.170   0.404   1.981
 3083SOL    HW110148   3.156   0.367   2.073
 3083SOL    HW210149   3.250   0.464   1.980
 3084SOL     OW10150   5.074   6.351   4.925
 3084SOL    HW110151   4.988   6.349   4.975
 3084SOL    HW210152   5.065   6.298   4.841
 3085SOL     OW10153   0.841   5.611   1.538
 3085SOL    HW110154   0.795   5.672   1.474
 3085SOL    HW210155   0.819   5.638   1.632
 3086SOL     OW10156   5.132   1.153   3.827
 3086SOL    HW110157   5.140   1.184   3.922
 3086SOL    HW210158   5.181   1.217   3.767
 3087SOL     OW10159   6.189   3.000   3.224
 3087SOL    HW110160   6.234   2.934   3.284
 3087SOL    HW210161   6.166   3.083   3.276
 3088SOL     OW10162   2.873   4.719   5.847
 3088SOL    HW110163   2.936   4.783   5.892
 3088SOL    HW210164   2.852   4.644   5.909
 3089SOL     OW10165   1.872   2.433   0.443
 3089SOL    HW110166   1.903   2.390   0.528
 3089SOL    HW210167   1.772   2.432   0.440
 3090SOL     OW10168   0.956   1.771   1.042
 3090SOL    HW110169   0.857   1.760   1.044
 3090SOL    HW210170   0.989   1.791   1.134
 3091SOL     OW10171   2.703   6.913   0.442
 3091SOL    HW110172   2.635   6.858   0.393
 3091SOL    HW210173   2.689   6.901   0.541
 3092SOL     OW10174   4.628   6.016   0.823
 3092SOL    HW110175   4.550   6.033   0.763
 3092SOL    HW210176   4.693   6.092   0.816
 3093SOL     OW10177   4.980   5.701   4.013
 3093SOL    HW110178   4.883   5.707   4.036
 3093SOL    HW210179   5.032   5.676   4.095
 3094SOL     OW10180   3.000   5.594   5.501
 3094SOL    HW110181   2.927   5.549   5.450
 3094SOL    HW210182   2.990   5.575   5.598
 3095SOL     OW10183   3.228   4.915   5.228
 3095SOL    HW110184   3.144   4.869   5.198
 3095SOL    HW210185   3.269   4.864   5.304
 3096SOL     OW10186   1.073   0.603   5.843
 3096SOL    HW110187   1.164   0.567   5.823
 3096SOL    HW210188   1.004   0.535   5.817
 3097SOL     OW10189   1.401   2.775   0.058
 3097SOL    HW110190   1.468   2.734   0.120
 3097SOL    HW210191   1.315   2.724   0.061
 3098SOL     OW10192   3.908   2.188   0.705
 3098SOL    HW110193   3.865   2.116   0.650
 3098SOL    HW210194   4.003   2.199   0.676
 3099SOL     OW10195   0.909   6.363   5.462
 3099SOL    HW110196   0.955   6.317   5.537
 3099SOL    HW210197   0.957   6.343   5.376
 3100SOL     OW10198   6.655   6.858   0.632
 3100SOL    HW110199   6.749   6.831   0.610
 3100SOL    HW210200   6.639   6.951   0.599
 3101SOL     OW10201   4.564   6.949   0.737
 3101SOL    HW110202   4.541   6.860   0.777
 3101SOL    HW210203   4.662   6.964   0.746
 3102SOL     OW10204   1.842   4.980   1.308
 3102SOL    HW110205   1.886   4.997   1.220
 3102SOL    HW210206   1.771   5.048   1.324
 3103SOL     OW10207   3.817   3.173   2.424
 3103SOL    HW110208   3.723   3.207   2.424
 3103SOL    HW210209   3.837   3.130   2.336
 3104SOL     OW10210   6.699   5.518   3.401
 3104SOL    HW110211   6.611   5.471   3.410
 3104SOL    HW210212   6.706   5.587   3.473
 3105SOL     OW10213   6.376   6.632   4.039
 3105SOL    HW110214   6.437   6.593   3.969
 3105SOL    HW210215   6.334   6.716   4.004
 3106SOL     OW10216   6.960   2.578   4.364
 3106SOL    HW110217   6.950   2.597   4.266
 3106SOL    HW210218   6.875   2.600   4.412
 3107SOL     OW10219   3.017   0.007   4.582
 3107SOL    HW110220   2.966   6.958   4.626
 3107SOL    HW210221   2.955   0.060   4.523
 3108SOL     OW10222   3.797   0.468   3.695
 3108SOL    HW110223   3.851   0.406   3.638
 3108SOL    HW210224   3.857   0.520   3.755
 3109SOL     OW10225   5.098   5.684   3.283
 3109SOL    HW110226   5.075   5.781   3.293
 3109SOL    HW210227   5.197   5.673   3.293
 3110SOL     OW10228   0.619   3.122   2.383
 3110SOL    HW110229   0.567   3.047   2.343
 3110SOL    HW210230   0.700   3.086   2.428
 3111SOL     OW10231   6.787   4.489   3.652
 3111SOL    HW110232   6.806   4.470   3.556
 3111SOL    HW210233   6.702   4.542   3.659
 3112SOL     OW10234   3.697   3.632   6.703
 3112SOL    HW110235   3.780   3.680   6.674
 3112SOL    HW210236   3.659   3.581   6.625
 3113SOL     OW10237   3.393   0.021   3.868
 3113SOL    HW110238   3.306   0.031   3.820
 3113SOL    HW210239   3.442   6.966   3.831
 3114SOL     OW10240   5.406   5.657   0.747
 3114SOL    HW110241   5.439   5.725   0.681
 3114SOL    HW210242   5.484   5.620   0.799
 3115SOL     OW10243   2.594   3.622   1.299
 3115SOL    HW110244   2.551   3.605   1.210
 3115SOL    HW210245   2.684   3.662   1.285
 3116SOL     OW10246   0.042   1.909   6.999
 3116SOL    HW110247   0.083   1.919   6.909
 3116SOL    HW210248   0.005   1.997   0.005
 3117SOL     OW10249   3.971   3.921   4.771
 3117SOL    HW110250   3.956   3.840   4.714
 3117SOL    HW210251   4.061   3.960   4.751
 3118SOL     OW10252   5.383   4.298   0.355
 3118SOL    HW110253   5.444   4.219   0.353
 3118SOL    HW210254   5.426   4.372   0.406
 3119SOL     OW10255   1.407   4.578   5.510
 3119SOL    HW110256   1.409   4.478   5.499
 3119SOL    HW210257   1.327   4.615   5.463
 3120SOL     OW10258   3.429   5.502   5.335
 3120SOL    HW110259   3.413   5.433   5.265
 3120SOL    HW210260   3.351   5.564   5.340
 3121SOL     OW10261   0.404   6.878   2.718
 3121SOL    HW110262   0.475   6.948   2.722
 3121SOL    HW210263   0.445   6.788   2.712
 3122SOL     OW10264   3.246   5.828   1.016
 3122SOL    HW110265   3.330   5.779   0.993
 3122SOL    HW210266   3.173   5.799   0.953
 3123SOL     OW10267   3.768   6.907   4.364
 3123SOL    HW110268   3.687   6.963   4.349
 3123SOL    HW210269   3.748   6.812   4.339
 3124SOL     OW10270   4.021   0.123   6.463
 3124SOL    HW110271   3.987   0.031   6.444
 3124SOL    HW210272   3.949   0.190   6.447
 3125SOL     OW10273   6.881   1.864   5.902
 3125SOL    HW110274   6.972   1.822   5.907
 3125SOL    HW210275   6.838   1.843   5.815
 3126SOL     OW10276   4.328   5.864   0.446
 3126SOL    HW110277   4.407   5.809   0.419
 3126SOL    HW210278   4.255   5.803   0.478
 3127SOL     OW10279   0.603   1.341   3.636
 3127SOL    HW110280   0.516   1.375   3.673
 3127SOL    HW210281   0.608   1.242   3.648
 3128SOL     OW10282   1.241   1.708   0.486
 3128SOL    HW110283   1.315   1.768   0.456
 3128SOL    HW210284   1.264   1.613   0.464
 3129SOL     OW10285   0.892   3.066   5.100
 3129SOL    HW110286   0.989   3.073   5.074
 3129SOL    HW210287   0.837   3.118   5.035
 3130SOL     OW10288   1.682   5.617   3.219
 3130SOL    HW110289   1.713   5.568   3.138
 3130SOL    HW210290   1.664   5.552   3.293
 3131SOL     OW10291   6.905   3.274   3.511
 3131SOL    HW110292   6.895   3.363   3.555
 3131SOL    HW210293   6.947   3.285   3.421
 3132SOL     OW10294   5.298   6.156   5.469
 3132SOL    HW110295   5.210   6.157   5.515
 3132SOL    HW210296   5.371   6.165   5.537
 3133SOL     OW10297   2.997   1.532   3.322
 3133SOL    HW110298   2.953   1.618   3.298
 3133SOL    HW210299   2.931   1.471   3.364
 3134SOL     OW10300   4.799   2.795   2.554
 3134SOL    HW110301   4.762   2.759   2.468
 3134SOL    HW210302   4.806   2.894   2.548
 3135SOL     OW10303   3.268   1.524   3.438
 3135SOL    HW110304   3.193   1.518   3.373
 3135SOL    HW210305   3.340   1.460   3.412
 3136SOL     OW10306   5.923   6.622   5.175
 3136SOL    HW110307   5.911   6.540   5.119
 3136SOL    HW210308   5.964   6.597   5.262
 3137SOL     OW10309   6.215   1.782   4.407
 3137SOL    HW110310   6.146   1.794   4.335
 3137SOL    HW210311   6.306   1.794   4.368
 3138SOL     OW10312   5.518   1.228   5.484
 3138SOL    HW110313   5.597   1.247   5.426
 3138SOL    HW210314   5.434   1.249   5.433
 3139SOL     OW10315   4.883   6.080   5.253
 3139SOL    HW110316   4.917   5.992   5.222
 3139SOL    HW210317   4.848   6.072   5.346
 3140SOL     OW10318   6.381   6.494   6.749
 3140SOL    HW110319   6.388   6.589   6.718
 3140SOL    HW210320   6.423   6.485   6.839
 3141SOL     OW10321   1.139   4.831   0.361
 3141SOL    HW110322   1.076   4.765   0.321
 3141SOL    HW210323   1.089   4.893   0.422
 3142SOL     OW10324   3.985   6.609   0.098
 3142SOL    HW110325   3.968   6.528   0.154
 3142SOL    HW210326   3.899   6.651   0.072
 3143SOL     OW10327   6.818   1.469   0.663
 3143SOL    HW110328   6.808   1.555   0.614
 3143SOL    HW210329   6.862   1.486   0.751
 3144SOL     OW10330   1.472   3.719   6.740
 3144SOL    HW110331   1.420   3.773   6.674
 3144SOL    HW210332   1.565   3.755   6.748
 3145SOL     OW10333   3.695   6.739   3.928
 3145SOL    HW110334   3.621   6.736   3.860
 3145SOL    HW210335   3.718   6.835   3.946
 3146SOL     OW10336   2.288   0.469   3.644
 3146SOL    HW110337   2.261   0.443   3.737
 3146SOL    HW210338   2.346   0.397   3.605
 3147SOL     OW10339   4.155   3.621   0.184
 3147SOL    HW110340   4.240   3.606   0.234
 3147SOL    HW210341   4.118   3.711   0.207
 3148SOL     OW10342   3.547   5.732   4.845
 3148SOL    HW110343   3.576   5.799   4.777
 3148SOL    HW210344   3.611   5.733   4.922
 3149SOL     OW10345   3.767   6.716   5.715
 3149SOL    HW110346   3.687   6.657   5.720
 3149SOL    HW210347   3.739   6.808   5.688
 3150SOL     OW10348   6.065   0.217   4.582
 3150SOL    HW110349   6.135   0.287   4.599
 3150SOL    HW210350   6.060   0.197   4.485
 3151SOL     OW10351   3.566   0.633   6.897
 3151SOL    HW110352   3.546   0.712   6.955
 3151SOL    HW210353   3.641   0.654   6.835
 3152SOL     OW10354   1.683   4.919   0.623
 3152SOL    HW110355   1.723   5.010   0.641
 3152SOL    HW210356   1.586   4.929   0.604
 3153SOL     OW10357   6.949   4.394   2.512
 3153SOL    HW110358   6.983   4.387   2.606
 3153SOL    HW210359   7.024   4.375   2.448
 3154SOL     OW10360   5.706   2.352   6.720
 3154SOL    HW110361   5.752   2.284   6.777
 3154SOL    HW210362   5.678   2.309   6.633
 3155SOL     OW10363   5.254   5.899   0.313
 3155SOL    HW110364   5.252   5.801   0.333
 3155SOL    HW210365   5.171   5.942   0.348
 3156SOL     OW10366   3.644   3.710   3.309
 3156SOL    HW110367   3.647   3.674   3.216
 3156SOL    HW210368   3.696   3.650   3.369
 3157SOL     OW10369   2.186   3.122   4.241
 3157SOL    HW110370   2.176   3.067   4.157
 3157SOL    HW210371   2.220   3.064   4.315
 3158SOL     OW10372   4.828   5.947   0.996
 3158SOL    HW110373   4.904   5.955   0.932
 3158SOL    HW210374   4.743   5.976   0.952
 3159SOL     OW10375   5.520   4.789   1.056
 3159SOL    HW110376   5.502   4.760   1.150
 3159SOL    HW210377   5.449   4.853   1.027
 3160SOL     OW10378   5.408   4.289   6.892
 3160SOL    HW110379   5.320   4.253   6.862
 3160SOL    HW210380   5.450   4.340   6.817
 3161SOL     OW10381   0.974   1.936   2.901
 3161SOL    HW110382   0.878   1.909   2.900
 3161SOL    HW210383   1.018   1.902   2.984
 3162SOL     OW10384   6.437   6.325   6.551
 3162SOL    HW110385   6.363   6.344   6.486
 3162SOL    HW210386   6.416   6.369   6.639
 3163SOL     OW10387   2.340   4.034   5.663
 3163SOL    HW110388   2.340   3.960   5.731
 3163SOL    HW210389   2.375   3.998   5.576
 3164SOL     OW10390   5.812   5.287   6.559
 3164SOL    HW110391   5.793   5.189   6.568
 3164SOL    HW210392   5.768   5.321   6.476
 3165SOL     OW10393   0.096   2.832   1.584
 3165SOL    HW110394   0.001   2.800   1.585
 3165SOL    HW210395   0.121   2.859   1.492
 3166SOL     OW10396   5.547   3.040   5.996
 3166SOL    HW110397   5.555   3.060   5.899
 3166SOL    HW210398   5.470   3.092   6.034
 3167SOL     OW10399   0.713   4.513   2.391
 3167SOL    HW110400   0.708   4.480   2.485
 3167SOL    HW210401   0.662   4.452   2.330
 3168SOL     OW10402   5.566   2.968   0.762
 3168SOL    HW110403   5.651   2.981   0.710
 3168SOL    HW210404   5.561   3.037   0.834
 3169SOL     OW10405   1.240   1.679   4.825
 3169SOL    HW110406   1.299   1.625   4.764
 3169SOL    HW210407   1.217   1.626   4.906
 3170SOL     OW10408   4.178   0.907   6.556
 3170SOL    HW110409   4.264   0.908   6.505
 3170SOL    HW210410   4.146   0.813   6.567
 3171SOL     OW10411   6.434   6.299   3.362
 3171SOL    HW110412   6.512   6.243   3.333
 3171SOL    HW210413   6.468   6.384   3.404
 3172SOL     OW10414   6.111   0.016   5.711
 3172SOL    HW110415   6.161   7.021   5.795
 3172SOL    HW210416   6.045   6.966   5.694
 3173SOL     OW10417   1.964   0.973   1.137
 3173SOL    HW110418   1.933   0.951   1.044
 3173SOL    HW210419   1.903   1.042   1.176
 3174SOL     OW10420   1.447   4.087   5.774
 3174SOL    HW110421   1.409   4.013   5.829
 3174SOL    HW210422   1.459   4.168   5.832
 3175SOL     OW10423   0.132   5.779   0.910
 3175SOL    HW110424   0.146   5.842   0.835
 3175SOL    HW210425   0.035   5.752   0.913
 3176SOL     OW10426   0.680   5.002   6.533
 3176SOL    HW110427   0.628   5.048   6.604
 3176SOL    HW210428   0.728   4.924   6.572
 3177SOL     OW10429   6.723   6.997   4.651
 3177SOL    HW110430   6.668   6.914   4.658
 3177SOL    HW210431   6.663   0.052   4.637
 3178SOL     OW10432   2.035   3.011   1.665
 3178SOL    HW110433   1.988   2.938   1.616
 3178SOL    HW210434   2.125   3.026   1.624
 3179SOL     OW10435   1.253   2.483   3.225
 3179SOL    HW110436   1.277   2.476   3.128
 3179SOL    HW210437   1.297   2.409   3.276
 3180SOL     OW10438   5.909   1.244   5.421
 3180SOL    HW110439   5.848   1.285   5.489
 3180SOL    HW210440   5.946   1.316   5.362
 3181SOL     OW10441   0.691   1.978   2.855
 3181SOL    HW110442   0.595   2.003   2.861
 3181SOL    HW210443   0.738   2.043   2.794
 3182SOL     OW10444   1.463   4.709   5.126
 3182SOL    HW110445   1.448   4.792   5.180
 3182SOL    HW210446   1.443   4.629   5.182
 3183SOL     OW10447   3.818   3.474   1.161
 3183SOL    HW110448   3.736   3.425   1.191
 3183SOL    HW210449   3.848   3.438   1.072
 3184SOL     OW10450   2.783   1.386   2.891
 3184SOL    HW110451   2.706   1.370   2.953
 3184SOL    HW210452   2.832   1.467   2.921
 3185SOL     OW10453   0.167   6.390   5.977
 3185SOL    HW110454   0.144   6.374   6.073
 3185SOL    HW210455   0.262   6.421   5.971
 3186SOL     OW10456   3.291   0.324   1.733
 3186SOL    HW110457   3.341   0.238   1.725
 3186SOL    HW210458   3.237   0.323   1.818
 3187SOL     OW10459   3.238   4.829   0.011
 3187SOL    HW110460   3.272   4.922   0.003
 3187SOL    HW210461   3.138   4.830   0.012
 3188SOL     OW10462   4.620   0.249   3.120
 3188SOL    HW110463   4.687   0.190   3.165
 3188SOL    HW210464   4.560   0.193   3.063
 3189SOL     OW10465   0.939   0.712   1.486
 3189SOL    HW110466   1.014   0.663   1.442
 3189SOL    HW210467   0.940   0.694   1.585
 3190SOL     OW10468   0.751   6.484   1.918
 3190SOL    HW110469   0.718   6.440   2.001
 3190SOL    HW210470   0.840   6.525   1.936
 3191SOL     OW10471   3.301   0.653   1.005
 3191SOL    HW110472   3.241   0.687   1.078
 3191SOL    HW210473   3.249   0.648   0.920
 3192SOL     OW10474   6.255   2.359   3.596
 3192SOL    HW110475   6.202   2.275   3.589
 3192SOL    HW210476   6.346   2.345   3.556
 3193SOL     OW10477   4.718   4.180   0.229
 3193SOL    HW110478   4.722   4.112   0.156
 3193SOL    HW210479   4.635   4.165   0.284
 3194SOL     OW10480   1.511   4.560   5.793
 3194SOL    HW110481   1.462   4.631   5.843
 3194SOL    HW210482   1.488   4.566   5.696
 3195SOL     OW10483   0.715   3.730   3.190
 3195SOL    HW110484   0.722   3.773   3.100
 3195SOL    HW210485   0.805   3.724   3.232
 3196SOL     OW10486   0.333   6.691   5.278
 3196SOL    HW110487   0.317   6.648   5.367
 3196SOL    HW210488   0.415   6.651   5.237
 3197SOL     OW10489   0.965   4.008   4.166
 3197SOL    HW110490   0.910   3.979   4.243
 3197SOL    HW210491   1.035   4.073   4.197
 3198SOL     OW10492   6.317   0.827   7.021
 3198SOL    HW110493   6.289   0.917   0.031
 3198SOL    HW210494   6.256   0.798   6.948
 3199SOL     OW10495   3.886   2.140   2.948
 3199SOL    HW110496   3.848   2.111   2.861
 3199SOL    HW210497   3.826   2.110   3.022
 3200SOL     OW10498   6.599   2.213   0.932
 3200SOL    HW110499   6.694   2.229   0.906
 3200SOL    HW210500   6.551   2.301   0.937
 3201SOL     OW10501   4.605   4.386   2.797
 3201SOL    HW110502   4.638   4.304   2.844
 3201SOL    HW210503   4.519   4.416   2.839
 3202SOL     OW10504   1.950   5.643   1.733
 3202SOL    HW110505   1.938   5.713   1.804
 3202SOL    HW210506   1.940   5.686   1.643
 3203SOL     OW10507   6.390   0.344   1.747
 3203SOL    HW110508   6.426   0.385   1.831
 3203SOL    HW210509   6.458   0.351   1.674
 3204SOL     OW10510   6.490   5.834   1.699
 3204SOL    HW110511   6.510   5.859   1.794
 3204SOL    HW210512   6.492   5.916   1.642
 3205SOL     OW10513   1.516   3.850   2.916
 3205SOL    HW110514   1.508   3.879   3.011
 3205SOL    HW210515   1.567   3.919   2.865
 3206SOL     OW10516   1.716   6.704   0.466
 3206SOL    HW110517   1.776   6.748   0.400
 3206SOL    HW210518   1.695   6.611   0.436
 3207SOL     OW10519   1.308   1.087   3.845
 3207SOL    HW110520   1.225   1.060   3.797
 3207SOL    HW210521   1.330   1.182   3.823
 3208SOL     OW10522   6.250   0.624   5.063
 3208SOL    HW110523   6.190   0.647   4.986
 3208SOL    HW210524   6.318   0.696   5.076
 3209SOL     OW10525   2.788   0.213   2.934
 3209SOL    HW110526   2.802   0.154   2.854
 3209SOL    HW210527   2.766   0.156   3.013
 3210SOL     OW10528   0.007   4.818   2.938
 3210SOL    HW110529   0.008   4.719   2.920
 3210SOL    HW210530   0.012   4.834   3.036
 3211SOL     OW10531   1.043   4.423   2.173
 3211SOL    HW110532   0.983   4.498   2.199
 3211SOL    HW210533   1.059   4.363   2.251
 3212SOL     OW10534   5.005   3.217   5.123
 3212SOL    HW110535   4.937   3.205   5.195
 3212SOL    HW210536   5.002   3.311   5.090
 3213SOL     OW10537   5.676   6.263   1.748
 3213SOL    HW110538   5.591   6.233   1.705
 3213SOL    HW210539   5.670   6.248   1.847
 3214SOL     OW10540   4.072   4.372   5.955
 3214SOL    HW110541   4.095   4.396   5.861
 3214SOL    HW210542   4.115   4.437   6.017
 3215SOL     OW10543   6.276   1.491   0.371
 3215SOL    HW110544   6.346   1.518   0.437
 3215SOL    HW210545   6.225   1.412   0.407
 3216SOL     OW10546   5.971   6.477   4.695
 3216SOL    HW110547   5.890   6.535   4.696
 3216SOL    HW210548   6.043   6.519   4.751
 3217SOL     OW10549   6.526   3.880   0.481
 3217SOL    HW110550   6.435   3.846   0.507
 3217SOL    HW210551   6.595   3.811   0.503
 3218SOL     OW10552   3.206   0.909   2.029
 3218SOL    HW110553   3.245   0.880   1.942
 3218SOL    HW210554   3.117   0.953   2.012
 3219SOL     OW10555   6.833   6.742   3.943
 3219SOL    HW110556   6.793   6.746   3.852
 3219SOL    HW210557   6.780   6.800   4.005
 3220SOL     OW10558   6.250   2.727   5.453
 3220SOL    HW110559   6.298   2.649   5.493
 3220SOL    HW210560   6.270   2.810   5.504
 3221SOL     OW10561   4.123   0.174   2.396
 3221SOL    HW110562   4.114   0.123   2.481
 3221SOL    HW210563   4.061   0.253   2.398
 3222SOL     OW10564   6.018   3.369   2.689
 3222SOL    HW110565   6.096   3.428   2.670
 3222SOL    HW210566   5.978   3.393   2.778
 3223SOL     OW10567   2.642   4.589   4.141
 3223SOL    HW110568   2.549   4.556   4.120
 3223SOL    HW210569   2.702   4.510   4.158
 3224SOL     OW10570   3.785   5.845   1.487
 3224SOL    HW110571   3.873   5.838   1.533
 3224SOL    HW210572   3.773   5.768   1.424
 3225SOL     OW10573   2.575   2.404   1.007
 3225SOL    HW110574   2.570   2.496   0.968
 3225SOL    HW210575   2.483   2.371   1.027
 3226SOL     OW10576   0.135   0.944   4.363
 3226SOL    HW110577   0.044   0.941   4.322
 3226SOL    HW210578   0.205   0.945   4.291
 3227SOL     OW10579   2.042   1.874   5.283
 3227SOL    HW110580   2.136   1.852   5.259
 3227SOL    HW210581   2.022   1.840   5.375
 3228SOL     OW10582   5.134   3.359   4.799
 3228SOL    HW110583   5.091   3.413   4.871
 3228SOL    HW210584   5.186   3.284   4.839
 3229SOL     OW10585   3.762   2.128   5.130
 3229SOL    HW110586   3.843   2.186   5.139
 3229SOL    HW210587   3.738   2.118   5.033
 3230SOL     OW10588   1.677   0.591   4.064
 3230SOL    HW110589   1.638   0.510   4.108
 3230SOL    HW210590   1.773   0.573   4.041
 3231SOL     OW10591   5.264   5.601   0.333
 3231SOL    HW110592   5.226   5.536   0.267
 3231SOL    HW210593   5.195   5.623   0.402
 3232SOL     OW10594   2.330   4.242   3.125
 3232SOL    HW110595   2.296   4.297   3.049
 3232SOL    HW210596   2.394   4.173   3.090
 3233SOL     OW10597   1.895   3.802   0.959
 3233SOL    HW110598   1.845   3.731   1.009
 3233SOL    HW210599   1.835   3.880   0.942
 3234SOL     OW10600   6.322   1.823   4.883
 3234SOL    HW110601   6.303   1.824   4.785
 3234SOL    HW210602   6.261   1.889   4.929
 3235SOL     OW10603   5.804   0.705   2.387
 3235SOL    HW110604   5.756   0.727   2.472
 3235SOL    HW210605   5.886   0.763   2.379
 3236SOL     OW10606   0.631   2.552   2.009
 3236SOL    HW110607   0.649   2.457   1.985
 3236SOL    HW210608   0.567   2.555   2.086
 3237SOL     OW10609   3.458   6.055   4.575
 3237SOL    HW110610   3.398   6.069   4.496
 3237SOL    HW210611   3.526   6.129   4.578
 3238SOL     OW10612   6.048   6.789   6.525
 3238SOL    HW110613   6.095   6.724   6.465
 3238SOL    HW210614   5.951   6.794   6.500
 3239SOL     OW10615   0.631   5.958   5.673
 3239SOL    HW110616   0.585   5.879   5.634
 3239SOL    HW210617   0.698   5.928   5.740
 3240SOL     OW10618   0.084   1.824   4.758
 3240SOL    HW110619   0.057   1.824   4.662
 3240SOL    HW210620   0.038   1.749   4.806
 3241SOL     OW10621   4.979   0.387   5.453
 3241SOL    HW110622   5.034   0.455   5.502
 3241SOL    HW210623   4.951   0.315   5.517
 3242SOL     OW10624   3.137   6.797   0.724
 3242SOL    HW110625   3.215   6.806   0.787
 3242SOL    HW210626   3.160   6.840   0.637
 3243SOL     OW10627   3.542   5.091   0.563
 3243SOL    HW110628   3.580   5.179   0.536
 3243SOL    HW210629   3.588   5.018   0.513
 3244SOL     OW10630   1.994   6.124   5.638
 3244SOL    HW110631   1.920   6.075   5.683
 3244SOL    HW210632   2.049   6.173   5.707
 3245SOL     OW10633   2.638   2.088   5.758
 3245SOL    HW110634   2.727   2.060   5.722
 3245SOL    HW210635   2.651   2.126   5.850
 3246SOL     OW10636   5.466   6.407   3.651
 3246SOL    HW110637   5.520   6.351   3.588
 3246SOL    HW210638   5.528   6.463   3.706
 3247SOL     OW10639   6.521   1.665   5.132
 3247SOL    HW110640   6.511   1.746   5.074
 3247SOL    HW210641   6.524   1.693   5.228
 3248SOL     OW10642   5.280   3.777   2.677
 3248SOL    HW110643   5.225   3.859   2.689
 3248SOL    HW210644   5.356   3.796   2.615
 3249SOL     OW10645   3.050   4.183   5.180
 3249SOL    HW110646   2.993   4.133   5.245
 3249SOL    HW210647   3.005   4.270   5.158
 3250SOL     OW10648   4.680   5.909   1.426
 3250SOL    HW110649   4.705   5.973   1.353
 3250SOL    HW210650   4.596   5.941   1.471
 3251SOL     OW10651   3.763   1.023   3.718
 3251SOL    HW110652   3.843   1.042   3.775
 3251SOL    HW210653   3.792   0.970   3.638
 3252SOL     OW10654   3.057   2.194   3.711
 3252SOL    HW110655   2.964   2.212   3.679
 3252SOL    HW210656   3.053   2.162   3.806
 3253SOL     OW10657   4.175   3.728   0.982
 3253SOL    HW110658   4.261   3.699   1.024
 3253SOL    HW210659   4.148   3.662   0.913
 3254SOL     OW10660   5.209   4.413   2.408
 3254SOL    HW110661   5.124   4.448   2.368
 3254SOL    HW210662   5.190   4.377   2.499
 3255SOL     OW10663   3.681   4.979   1.330
 3255SOL    HW110664   3.698   5.075   1.306
 3255SOL    HW210665   3.645   4.974   1.423
 3256SOL     OW10666   5.945   6.802   5.736
 3256SOL    HW110667   6.041   6.775   5.724
 3256SOL    HW210668   5.886   6.734   5.692
 3257SOL     OW10669   2.272   1.863   1.089
 3257SOL    HW110670   2.329   1.810   1.026
 3257SOL    HW210671   2.309   1.855   1.182
 3258SOL     OW10672   5.216   0.277   1.601
 3258SOL    HW110673   5.288   0.227   1.648
 3258SOL    HW210674   5.136   0.283   1.660
 3259SOL     OW10675   6.118   6.192   3.236
 3259SOL    HW110676   6.129   6.260   3.308
 3259SOL    HW210677   6.135   6.101   3.273
 3260SOL     OW10678   1.436   2.962   0.395
 3260SOL    HW110679   1.499   2.887   0.373
 3260SOL    HW210680   1.344   2.937   0.366
 3261SOL     OW10681   4.376   0.198   3.535
 3261SOL    HW110682   4.304   0.132   3.516
 3261SOL    HW210683   4.465   0.156   3.521
 3262SOL     OW10684   4.170   1.179   4.797
 3262SOL    HW110685   4.084   1.145   4.758
 3262SOL    HW210686   4.159   1.191   4.896
 3263SOL     OW10687   3.494   5.356   2.792
 3263SOL    HW110688   3.452   5.367   2.882
 3263SOL    HW210689   3.505   5.258   2.772
 3264SOL     OW10690   4.940   4.549   5.544
 3264SOL    HW110691   4.928   4.551   5.445
 3264SOL    HW210692   5.008   4.618   5.571
 3265SOL     OW10693   5.418   0.675   6.897
 3265SOL    HW110694   5.434   0.773   6.889
 3265SOL    HW210695   5.504   0.626   6.884
 3266SOL     OW10696   0.579   2.393   6.930
 3266SOL    HW110697   0.656   2.391   6.994
 3266SOL    HW210698   0.503   2.444   6.972
 3267SOL     OW10699   4.852   2.419   1.513
 3267SOL    HW110700   4.820   2.512   1.532
 3267SOL    HW210701   4.846   2.364   1.596
 3268SOL     OW10702   1.762   5.054   6.678
 3268SOL    HW110703   1.810   4.976   6.640
 3268SOL    HW210704   1.684   5.023   6.732
 3269SOL     OW10705   4.542   3.651   0.815
 3269SOL    HW110706   4.505   3.658   0.907
 3269SOL    HW210707   4.588   3.562   0.804
 3270SOL     OW10708   0.508   5.430   4.354
 3270SOL    HW110709   0.536   5.336   4.373
 3270SOL    HW210710   0.441   5.431   4.279
 3271SOL     OW10711   5.077   0.993   1.824
 3271SOL    HW110712   5.169   0.970   1.856
 3271SOL    HW210713   5.075   1.089   1.795
 3272SOL     OW10714   4.817   7.019   6.796
 3272SOL    HW110715   4.852   6.978   6.881
 3272SOL    HW210716   4.777   0.084   6.816
 3273SOL     OW10717   1.345   0.484   3.293
 3273SOL    HW110718   1.396   0.402   3.267
 3273SOL    HW210719   1.359   0.502   3.390
 3274SOL     OW10720   3.042   2.227   0.035
 3274SOL    HW110721   3.106   2.207   0.109
 3274SOL    HW210722   2.951   2.192   0.059
 3275SOL     OW10723   4.183   0.536   0.713
 3275SOL    HW110724   4.134   0.591   0.781
 3275SOL    HW210725   4.212   0.595   0.638
 3276SOL     OW10726   1.984   6.466   0.355
 3276SOL    HW110727   2.020   6.544   0.405
 3276SOL    HW210728   1.988   6.384   0.413
 3277SOL     OW10729   0.257   5.659   5.560
 3277SOL    HW110730   0.255   5.658   5.660
 3277SOL    HW210731   0.214   5.576   5.524
 3278SOL     OW10732   0.977   1.175   0.421
 3278SOL    HW110733   0.921   1.249   0.384
 3278SOL    HW210734   0.987   1.103   0.353
 3279SOL     OW10735   2.452   6.006   1.446
 3279SOL    HW110736   2.428   6.020   1.350
 3279SOL    HW210737   2.486   5.912   1.458
 3280SOL     OW10738   2.842   5.747   4.507
 3280SOL    HW110739   2.762   5.771   4.563
 3280SOL    HW210740   2.811   5.717   4.417
 3281SOL     OW10741   2.222   6.193   0.784
 3281SOL    HW110742   2.149   6.157   0.726
 3281SOL    HW210743   2.296   6.230   0.727
 3282SOL     OW10744   2.326   5.781   2.638
 3282SOL    HW110745   2.262   5.707   2.657
 3282SOL    HW210746   2.277   5.861   2.604
 3283SOL     OW10747   2.041   0.219   4.340
 3283SOL    HW110748   1.952   0.259   4.360
 3283SOL    HW210749   2.060   0.145   4.404
 3284SOL     OW10750   1.138   4.632   5.834
 3284SOL    HW110751   1.123   4.571   5.757
 3284SOL    HW210752   1.118   4.585   5.919
 3285SOL     OW10753   0.233   2.383   4.817
 3285SOL    HW110754   0.256   2.471   4.775
 3285SOL    HW210755   0.316   2.329   4.826
 3286SOL     OW10756   4.294   5.027   6.013
 3286SOL    HW110757   4.267   5.037   6.109
 3286SOL    HW210758   4.353   5.102   5.987
 3287SOL     OW10759   0.086   4.185   1.632
 3287SOL    HW110760   0.131   4.213   1.548
 3287SOL    HW210761   7.011   4.174   1.615
 3288SOL     OW10762   1.315   6.552   6.377
 3288SOL    HW110763   1.367   6.466   6.371
 3288SOL    HW210764   1.368   6.619   6.429
 3289SOL     OW10765   1.299   5.398   4.920
 3289SOL    HW110766   1.372   5.347   4.876
 3289SOL    HW210767   1.336   5.456   4.992
 3290SOL     OW10768   6.987   4.284   3.188
 3290SOL    HW110769   0.003   4.205   3.234
 3290SOL    HW210770   7.003   4.366   3.242
 3291SOL     OW10771   1.684   0.160   1.778
 3291SOL    HW110772   1.649   0.233   1.719
 3291SOL    HW210773   1.779   0.180   1.803
 3292SOL     OW10774   0.719   5.530   4.767
 3292SOL    HW110775   0.652   5.537   4.694
 3292SOL    HW210776   0.801   5.582   4.743
 3293SOL     OW10777   6.230   0.715   2.261
 3293SOL    HW110778   6.262   0.802   2.222
 3293SOL    HW210779   6.282   0.640   2.220
 3294SOL     OW10780   0.816   6.806   0.572
 3294SOL    HW110781   0.736   6.859   0.600
 3294SOL    HW210782   0.857   6.763   0.651
 3295SOL     OW10783   1.541   2.019   6.014
 3295SOL    HW110784   1.467   2.054   5.957
 3295SOL    HW210785   1.601   1.960   5.960
 3296SOL     OW10786   0.941   6.967   2.232
 3296SOL    HW110787   1.019   7.007   2.280
 3296SOL    HW210788   0.861   6.971   2.292
 3297SOL     OW10789   2.838   1.661   6.268
 3297SOL    HW110790   2.837   1.563   6.287
 3297SOL    HW210791   2.904   1.681   6.196
 3298SOL     OW10792   6.451   4.001   2.747
 3298SOL    HW110793   6.546   3.970   2.741
 3298SOL    HW210794   6.445   4.098   2.724
 3299SOL     OW10795   1.147   1.114   4.965
 3299SOL    HW110796   1.088   1.045   5.006
 3299SOL    HW210797   1.239   1.076   4.953
 3300SOL     OW10798   0.028   0.305   4.541
 3300SOL    HW110799   7.008   0.315   4.630
 3300SOL    HW210800   7.003   0.236   4.487
 3301SOL     OW10801   0.390   3.615   2.506
 3301SOL    HW110802   0.394   3.523   2.465
 3301SOL    HW210803   0.474   3.664   2.486
 3302SOL     OW10804   1.150   5.932   5.196
 3302SOL    HW110805   1.201   6.017   5.211
 3302SOL    HW210806   1.055   5.944   5.228
 3303SOL     OW10807   3.232   3.418   3.440
 3303SOL    HW110808   3.144   3.426   3.394
 3303SOL    HW210809   3.218   3.421   3.539
 3304SOL     OW10810   1.850   0.974   3.101
 3304SOL    HW110811   1.905   0.992   3.019
 3304SOL    HW210812   1.883   0.891   3.146
 3305SOL     OW10813   0.426   2.348   0.834
 3305SOL    HW110814   0.354   2.409   0.867
 3305SOL    HW210815   0.511   2.399   0.824
 3306SOL     OW10816   1.046   3.629   1.994
 3306SOL    HW110817   0.965   3.577   1.967
 3306SOL    HW210818   1.039   3.654   2.090
 3307SOL     OW10819   0.691   6.119   0.672
 3307SOL    HW110820   0.622   6.062   0.629
 3307SOL    HW210821   0.764   6.139   0.606
 3308SOL     OW10822   5.910   6.643   0.446
 3308SOL    HW110823   5.975   6.591   0.392
 3308SOL    HW210824   5.942   6.647   0.541
 3309SOL     OW10825   1.548   5.479   2.094
 3309SOL    HW110826   1.583   5.386   2.085
 3309SOL    HW210827   1.569   5.531   2.012
 3310SOL     OW10828   1.381   6.714   2.149
 3310SOL    HW110829   1.389   6.804   2.107
 3310SOL    HW210830   1.287   6.698   2.177
 3311SOL     OW10831   3.890   6.736   1.220
 3311SOL    HW110832   3.813   6.729   1.157
 3311SOL    HW210833   3.932   6.826   1.211
 3312SOL     OW10834   2.057   3.064   6.678
 3312SOL    HW110835   2.043   3.156   6.640
 3312SOL    HW210836   2.081   3.071   6.774
 3313SOL     OW10837   6.274   6.273   5.037
 3313SOL    HW110838   6.310   6.191   5.083
 3313SOL    HW210839   6.257   6.344   5.105
 3314SOL     OW10840   0.284   4.109   6.816
 3314SOL    HW110841   0.256   4.171   6.743
 3314SOL    HW210842   0.209   4.097   6.881
 3315SOL     OW10843   6.263   3.611   3.560
 3315SOL    HW110844   6.356   3.631   3.529
 3315SOL    HW210845   6.247   3.513   3.559
 3316SOL     OW10846   4.308   1.987   0.524
 3316SOL    HW110847   4.330   1.901   0.570
 3316SOL    HW210848   4.282   2.055   0.592
 3317SOL     OW10849   3.961   2.934   1.821
 3317SOL    HW110850   4.026   3.006   1.840
 3317SOL    HW210851   3.896   2.926   1.897
 3318SOL     OW10852   2.653   5.260   4.813
 3318SOL    HW110853   2.659   5.240   4.911
 3318SOL    HW210854   2.699   5.347   4.795
 3319SOL     OW10855   6.703   6.397   6.494
 3319SOL    HW110856   6.748   6.396   6.583
 3319SOL    HW210857   6.607   6.372   6.504
 3320SOL     OW10858   0.789   0.889   6.992
 3320SOL    HW110859   0.744   0.895   6.903
 3320SOL    HW210860   0.793   0.794   7.021
 3321SOL     OW10861   3.907   3.486   4.196
 3321SOL    HW110862   3.872   3.472   4.104
 3321SOL    HW210863   3.985   3.426   4.213
 3322SOL     OW10864   4.079   2.755   1.636
 3322SOL    HW110865   4.040   2.822   1.700
 3322SOL    HW210866   4.051   2.777   1.543
 3323SOL     OW10867   2.982   4.834   0.051
 3323SOL    HW110868   2.908   4.846   7.009
 3323SOL    HW210869   2.959   4.880   0.137
 3324SOL     OW10870   6.063   2.881   1.796
 3324SOL    HW110871   5.986   2.927   1.751
 3324SOL    HW210872   6.088   2.933   1.879
 3325SOL     OW10873   1.317   3.908   6.583
 3325SOL    HW110874   1.248   3.850   6.542
 3325SOL    HW210875   1.375   3.947   6.512
 3326SOL     OW10876   6.827   0.763   1.711
 3326SOL    HW110877   6.737   0.735   1.677
 3326SOL    HW210878   6.898   0.706   1.669
 3327SOL     OW10879   4.318   6.314   1.362
 3327SOL    HW110880   4.253   6.387   1.341
 3327SOL    HW210881   4.314   6.245   1.290
 3328SOL     OW10882   5.900   6.970   4.061
 3328SOL    HW110883   5.888   6.872   4.072
 3328SOL    HW210884   5.817   7.017   4.089
 3329SOL     OW10885   5.099   1.088   6.864
 3329SOL    HW110886   5.045   1.171   6.874
 3329SOL    HW210887   5.059   1.015   6.920
 3330SOL     OW10888   0.017   6.623   3.422
 3330SOL    HW110889   0.032   6.572   3.338
 3330SOL    HW210890   0.081   6.700   3.426
 3331SOL     OW10891   1.479   3.623   2.780
 3331SOL    HW110892   1.495   3.705   2.836
 3331SOL    HW210893   1.534   3.548   2.815
 3332SOL     OW10894   3.044   5.177   7.001
 3332SOL    HW110895   3.063   5.186   6.904
 3332SOL    HW210896   3.126   5.143   0.024
 3333SOL     OW10897   2.350   3.105   1.664
 3333SOL    HW110898   2.341   3.200   1.634
 3333SOL    HW210899   2.331   3.098   1.762
 3334SOL     OW10900   1.724   2.318   2.016
 3334SOL    HW110901   1.702   2.261   2.094
 3334SOL    HW210902   1.640   2.352   1.974
 3335SOL     OW10903   3.355   3.995   4.861
 3335SOL    HW110904   3.265   4.006   4.903
 3335SOL    HW210905   3.420   3.961   4.929
 3336SOL     OW10906   4.689   6.103   4.882
 3336SOL    HW110907   4.755   6.039   4.843
 3336SOL    HW210908   4.737   6.174   4.933
 3337SOL     OW10909   3.814   2.962   3.282
 3337SOL    HW110910   3.886   3.009   3.230
 3337SOL    HW210911   3.746   2.925   3.218
 3338SOL     OW10912   2.660   3.083   1.298
 3338SOL    HW110913   2.724   3.113   1.228
 3338SOL    HW210914   2.593   3.021   1.258
 3339SOL     OW10915   1.244   0.154   6.827
 3339SOL    HW110916   1.208   0.247   6.823
 3339SOL    HW210917   1.220   0.113   6.915
 3340SOL     OW10918   3.616   0.932   5.690
 3340SOL    HW110919   3.596   1.030   5.688
 3340SOL    HW210920   3.623   0.898   5.597
 3341SOL     OW10921   0.910   4.315   1.962
 3341SOL    HW110922   0.929   4.221   1.935
 3341SOL    HW210923   0.973   4.343   2.034
 3342SOL     OW10924   6.760   0.962   2.477
 3342SOL    HW110925   6.841   1.021   2.475
 3342SOL    HW210926   6.696   0.991   2.406
 3343SOL     OW10927   3.950   5.548   0.670
 3343SOL    HW110928   3.875   5.579   0.612
 3343SOL    HW210929   4.031   5.606   0.655
 3344SOL     OW10930   0.965   3.466   1.486
 3344SOL    HW110931   1.033   3.523   1.532
 3344SOL    HW210932   0.979   3.370   1.510
 3345SOL     OW10933   5.759   5.078   1.557
 3345SOL    HW110934   5.749   5.178   1.561
 3345SOL    HW210935   5.819   5.054   1.480
 3346SOL     OW10936   1.280   0.609   0.102
 3346SOL    HW110937   1.251   0.675   0.033
 3346SOL    HW210938   1.380   0.609   0.107
 3347SOL     OW10939   1.011   3.696   5.711
 3347SOL    HW110940   0.947   3.732   5.642
 3347SOL    HW210941   0.975   3.611   5.749
 3348SOL     OW10942   3.646   4.257   6.078
 3348SOL    HW110943   3.676   4.166   6.108
 3348SOL    HW210944   3.710   4.326   6.111
 3349SOL     OW10945   2.186   5.461   2.265
 3349SOL    HW110946   2.211   5.484   2.171
 3349SOL    HW210947   2.086   5.465   2.274
 3350SOL     OW10948   1.845   4.974   4.635
 3350SOL    HW110949   1.822   4.996   4.539
 3350SOL    HW210950   1.887   4.884   4.639
 3351SOL     OW10951   5.788   0.838   1.820
 3351SOL    HW110952   5.831   0.791   1.897
 3351SOL    HW210953   5.798   0.937   1.832
 3352SOL     OW10954   5.579   1.451   6.796
 3352SOL    HW110955   5.668   1.414   6.772
 3352SOL    HW210956   5.563   1.535   6.744
 3353SOL     OW10957   3.862   0.413   6.983
 3353SOL    HW110958   3.800   0.442   0.032
 3353SOL    HW210959   3.928   0.347   7.020
 3354SOL     OW10960   2.472   3.714   0.369
 3354SOL    HW110961   2.384   3.746   0.334
 3354SOL    HW210962   2.545   3.743   0.307
 3355SOL     OW10963   1.083   0.244   4.459
 3355SOL    HW110964   0.990   0.264   4.492
 3355SOL    HW210965   1.091   0.272   4.364
 3356SOL     OW10966   2.060   1.028   6.643
 3356SOL    HW110967   2.034   1.011   6.738
 3356SOL    HW210968   2.016   0.960   6.584
 3357SOL     OW10969   3.259   2.918   2.991
 3357SOL    HW110970   3.288   2.924   3.087
 3357SOL    HW210971   3.330   2.874   2.937
 3358SOL     OW10972   0.505   1.341   1.900
 3358SOL    HW110973   0.501   1.440   1.885
 3358SOL    HW210974   0.564   1.300   1.831
 3359SOL     OW10975   0.933   6.632   4.718
 3359SOL    HW110976   0.989   6.691   4.776
 3359SOL    HW210977   0.966   6.636   4.624
 3360SOL     OW10978   2.045   4.920   3.985
 3360SOL    HW110979   1.971   4.863   4.020
 3360SOL    HW210980   2.132   4.873   3.998
 3361SOL     OW10981   6.575   6.474   5.326
 3361SOL    HW110982   6.484   6.494   5.363
 3361SOL    HW210983   6.644   6.489   5.398
 3362SOL     OW10984   3.644   0.352   3.926
 3362SOL    HW110985   3.666   0.355   3.828
 3362SOL    HW210986   3.721   0.313   3.976
 3363SOL     OW10987   5.534   4.354   0.097
 3363SOL    HW110988   5.487   4.351   0.009
 3363SOL    HW210989   5.478   4.309   0.167
 3364SOL     OW10990   1.543   3.512   1.843
 3364SOL    HW110991   1.563   3.589   1.904
 3364SOL    HW210992   1.488   3.444   1.891
 3365SOL     OW10993   1.105   3.233   2.502
 3365SOL    HW110994   1.020   3.219   2.554
 3365SOL    HW210995   1.082   3.265   2.410
 3366SOL     OW10996   6.041   3.151   4.624
 3366SOL    HW110997   6.140   3.145   4.638
 3366SOL    HW210998   6.021   3.139   4.526
 3367SOL     OW10999   3.676   2.927   3.790
 3367SOL    HW111000   3.711   2.910   3.697
 3367SOL    HW211001   3.597   2.988   3.785
 3368SOL     OW11002   2.853   0.898   3.012
 3368SOL    HW111003   2.789   0.825   3.037
 3368SOL    HW211004   2.899   0.931   3.094
 3369SOL     OW11005   4.673   2.701   0.669
 3369SOL    HW111006   4.667   2.623   0.732
 3369SOL    HW211007   4.752   2.757   0.692
 3370SOL     OW11008   0.791   5.388   2.659
 3370SOL    HW111009   0.738   5.471   2.677
 3370SOL    HW211010   0.879   5.394   2.707
 3371SOL     OW11011   2.276   2.730   1.431
 3371SOL    HW111012   2.349   2.671   1.465
 3371SOL    HW211013   2.212   2.750   1.505
 3372SOL     OW11014   5.500   3.453   3.399
 3372SOL    HW111015   5.542   3.413   3.317
 3372SOL    HW211016   5.484   3.381   3.467
 3373SOL     OW11017   0.087   3.846   1.318
 3373SOL    HW111018   0.111   3.864   1.414
 3373SOL    HW211019   0.008   3.902   1.293
 3374SOL     OW11020   0.683   6.208   4.364
 3374SOL    HW111021   0.749   6.282   4.376
 3374SOL    HW211022   0.647   6.210   4.271
 3375SOL     OW11023   0.470   6.107   5.838
 3375SOL    HW111024   0.536   6.174   5.871
 3375SOL    HW211025   0.517   6.036   5.785
 3376SOL     OW11026   3.155   3.141   4.680
 3376SOL    HW111027   3.209   3.219   4.646
 3376SOL    HW211028   3.202   3.056   4.655
 3377SOL     OW11029   7.022   5.163   4.707
 3377SOL    HW111030   7.022   5.091   4.777
 3377SOL    HW211031   6.998   5.250   4.750
 3378SOL     OW11032   1.300   6.031   0.846
 3378SOL    HW111033   1.295   6.108   0.782
 3378SOL    HW211034   1.385   6.035   0.898
 3379SOL     OW11035   6.144   3.791   4.208
 3379SOL    HW111036   6.205   3.827   4.279
 3379SOL    HW211037   6.108   3.867   4.154
 3380SOL     OW11038   2.497   5.386   1.181
 3380SOL    HW111039   2.528   5.359   1.090
 3380SOL    HW211040   2.518   5.312   1.246
 3381SOL     OW11041   2.660   3.911   6.250
 3381SOL    HW111042   2.738   3.933   6.191
 3381SOL    HW211043   2.591   3.983   6.241
 3382SOL     OW11044   6.405   4.134   6.817
 3382SOL    HW111045   6.312   4.164   6.797
 3382SOL    HW211046   6.453   4.206   6.868
 3383SOL     OW11047   3.641   5.310   0.439
 3383SOL    HW111048   3.619   5.390   0.494
 3383SOL    HW211049   3.697   5.337   0.360
 3384SOL     OW11050   2.729   2.829   6.343
 3384SOL    HW111051   2.790   2.775   6.286
 3384SOL    HW211052   2.673   2.888   6.284
 3385SOL     OW11053   6.163   2.524   4.403
 3385SOL    HW111054   6.185   2.448   4.342
 3385SOL    HW211055   6.092   2.496   4.468
 3386SOL     OW11056   0.310   5.880   4.437
 3386SOL    HW111057   0.273   5.802   4.387
 3386SOL    HW211058   0.378   5.848   4.503
 3387SOL     OW11059   6.239   1.001   2.873
 3387SOL    HW111060   6.245   1.096   2.904
 3387SOL    HW211061   6.143   0.974   2.866
 3388SOL     OW11062   6.718   3.750   0.840
 3388SOL    HW111063   6.765   3.676   0.889
 3388SOL    HW211064   6.619   3.743   0.855
 3389SOL     OW11065   6.196   5.333   6.514
 3389SOL    HW111066   6.171   5.294   6.425
 3389SOL    HW211067   6.141   5.289   6.585
 3390SOL     OW11068   2.957   5.813   0.489
 3390SOL    HW111069   2.903   5.890   0.455
 3390SOL    HW211070   2.930   5.730   0.441
 3391SOL     OW11071   4.814   3.982   5.075
 3391SOL    HW111072   4.777   4.004   4.985
 3391SOL    HW211073   4.881   4.051   5.102
 3392SOL     OW11074   4.614   6.193   6.257
 3392SOL    HW111075   4.630   6.176   6.354
 3392SOL    HW211076   4.598   6.107   6.210
 3393SOL     OW11077   4.025   6.190   0.466
 3393SOL    HW111078   4.021   6.264   0.399
 3393SOL    HW211079   4.057   6.107   0.422
 3394SOL     OW11080   3.263   5.121   1.609
 3394SOL    HW111081   3.230   5.214   1.630
 3394SOL    HW211082   3.185   5.059   1.601
 3395SOL     OW11083   1.921   6.285   3.022
 3395SOL    HW111084   2.011   6.325   3.033
 3395SOL    HW211085   1.912   6.205   3.082
 3396SOL     OW11086   4.662   0.346   3.906
 3396SOL    HW111087   4.637   0.250   3.919
 3396SOL    HW211088   4.712   0.379   3.986
 3397SOL     OW11089   2.348   6.063   0.456
 3397SOL    HW111090   2.308   6.154   0.442
 3397SOL    HW211091   2.363   6.020   0.367
 3398SOL     OW11092   6.404   1.141   6.215
 3398SOL    HW111093   6.413   1.043   6.198
 3398SOL    HW211094   6.491   1.178   6.247
 3399SOL     OW11095   6.579   5.815   2.360
 3399SOL    HW111096   6.643   5.871   2.307
 3399SOL    HW211097   6.518   5.766   2.298
 3400SOL     OW11098   3.792   2.907   5.199
 3400SOL    HW111099   3.866   2.847   5.229
 3400SOL    HW211100   3.786   2.907   5.099
 3401SOL     OW11101   0.096   3.623   3.988
 3401SOL    HW111102   0.057   3.690   4.051
 3401SOL    HW211103   0.071   3.646   3.894
 3402SOL     OW11104   5.992   3.532   0.708
 3402SOL    HW111105   5.980   3.434   0.723
 3402SOL    HW211106   5.905   3.579   0.723
 3403SOL     OW11107   4.879   6.402   6.163
 3403SOL    HW111108   4.811   6.405   6.236
 3403SOL    HW211109   4.967   6.374   6.200
 3404SOL     OW11110   4.907   5.517   3.252
 3404SOL    HW111111   4.984   5.577   3.275
 3404SOL    HW211112   4.908   5.499   3.153
 3405SOL     OW11113   3.861   5.902   0.261
 3405SOL    HW111114   3.946   5.942   0.296
 3405SOL    HW211115   3.784   5.932   0.318
 3406SOL     OW11116   3.232   5.375   1.496
 3406SOL    HW111117   3.258   5.317   1.418
 3406SOL    HW211118   3.136   5.400   1.487
 3407SOL     OW11119   0.945   3.619   0.099
 3407SOL    HW111120   1.006   3.565   0.157
 3407SOL    HW211121   0.995   3.654   0.020
 3408SOL     OW11122   4.617   0.098   3.471
 3408SOL    HW111123   4.595   0.007   3.436
 3408SOL    HW211124   4.703   0.130   3.431
 3409SOL     OW11125   4.081   1.654   6.864
 3409SOL    HW111126   4.110   1.748   6.848
 3409SOL    HW211127   4.042   1.616   6.780
 3410SOL     OW11128   6.294   0.571   2.789
 3410SOL    HW111129   6.337   0.606   2.706
 3410SOL    HW211130   6.205   0.533   2.767
 3411SOL     OW11131   5.922   3.163   5.802
 3411SOL    HW111132   5.871   3.208   5.875
 3411SOL    HW211133   5.893   3.199   5.713
 3412SOL     OW11134   5.511   2.989   3.107
 3412SOL    HW111135   5.587   2.972   3.170
 3412SOL    HW211136   5.528   2.942   3.021
 3413SOL     OW11137   0.054   1.981   0.647
 3413SOL    HW111138   0.032   2.035   0.566
 3413SOL    HW211139   7.016   2.006   0.722
 3414SOL     OW11140   3.535   3.310   2.064
 3414SOL    HW111141   3.591   3.361   2.129
 3414SOL    HW211142   3.482   3.375   2.009
 3415SOL     OW11143   2.298   1.570   5.680
 3415SOL    HW111144   2.213   1.553   5.729
 3415SOL    HW211145   2.372   1.516   5.720
 3416SOL     OW11146   6.473   6.792   6.201
 3416SOL    HW111147   6.493   6.886   6.231
 3416SOL    HW211148   6.391   6.759   6.248
 3417SOL     OW11149   6.034   0.286   2.407
 3417SOL    HW111150   5.994   0.214   2.350
 3417SOL    HW211151   6.080   0.245   2.486
 3418SOL     OW11152   4.144   5.690   0.962
 3418SOL    HW111153   4.056   5.714   0.922
 3418SOL    HW211154   4.146   5.592   0.981
 3419SOL     OW11155   2.612   4.654   5.203
 3419SOL    HW111156   2.696   4.636   5.152
 3419SOL    HW211157   2.535   4.610   5.158
 3420SOL     OW11158   4.550   1.073   2.520
 3420SOL    HW111159   4.635   1.021   2.526
 3420SOL    HW211160   4.565   1.155   2.465
 3421SOL     OW11161   6.809   1.784   4.989
 3421SOL    HW111162   6.864   1.704   4.964
 3421SOL    HW211163   6.718   1.776   4.947
 3422SOL     OW11164   3.298   6.488   1.564
 3422SOL    HW111165   3.235   6.502   1.640
 3422SOL    HW211166   3.381   6.443   1.596
 3423SOL     OW11167   2.550   4.170   5.771
 3423SOL    HW111168   2.506   4.234   5.834
 3423SOL    HW211169   2.482   4.107   5.734
 3424SOL     OW11170   4.887   0.992   2.146
 3424SOL    HW111171   4.895   1.053   2.225
 3424SOL    HW211172   4.803   0.938   2.155
 3425SOL     OW11173   6.515   2.969   6.048
 3425SOL    HW111174   6.540   3.045   5.988
 3425SOL    HW211175   6.442   2.997   6.110
 3426SOL     OW11176   5.816   4.495   0.349
 3426SOL    HW111177   5.887   4.469   0.414
 3426SOL    HW211178   5.796   4.593   0.360
 3427SOL     OW11179   1.742   1.548   6.341
 3427SOL    HW111180   1.748   1.631   6.285
 3427SOL    HW211181   1.833   1.507   6.349
 3428SOL     OW11182   5.381   0.216   4.953
 3428SOL    HW111183   5.355   0.261   4.868
 3428SOL    HW211184   5.344   0.123   4.954
 3429SOL     OW11185   4.132   6.991   0.912
 3429SOL    HW111186   4.033   6.983   0.925
 3429SOL    HW211187   4.155   6.976   0.816
 3430SOL     OW11188   2.591   4.177   6.377
 3430SOL    HW111189   2.617   4.220   6.464
 3430SOL    HW211190   2.497   4.144   6.383
 3431SOL     OW11191   0.692   4.417   2.648
 3431SOL    HW111192   0.618   4.356   2.676
 3431SOL    HW211193   0.774   4.397   2.703
 3432SOL     OW11194   0.568   4.638   0.098
 3432SOL    HW111195   0.476   4.642   0.058
 3432SOL    HW211196   0.589   4.544   0.123
 3433SOL     OW11197   0.934   1.007   0.195
 3433SOL    HW111198   0.948   1.066   0.116
 3433SOL    HW211199   0.873   0.932   0.171
 3434SOL     OW11200   3.709   2.512   1.739
 3434SOL    HW111201   3.680   2.584   1.802
 3434SOL    HW211202   3.706   2.423   1.785
 3435SOL     OW11203   1.837   2.165   1.034
 3435SOL    HW111204   1.861   2.223   1.111
 3435SOL    HW211205   1.806   2.222   0.957
 3436SOL     OW11206   4.069   6.666   6.012
 3436SOL    HW111207   4.162   6.675   6.046
 3436SOL    HW211208   4.069   6.673   5.912
 3437SOL     OW11209   1.267   6.683   0.032
 3437SOL    HW111210   1.243   6.618   6.984
 3437SOL    HW211211   1.234   6.649   0.120
 3438SOL     OW11212   2.676   4.181   0.717
 3438SOL    HW111213   2.706   4.125   0.640
 3438SOL    HW211214   2.578   4.198   0.710
 3439SOL     OW11215   3.431   6.315   0.244
 3439SOL    HW111216   3.514   6.323   0.299
 3439SOL    HW211217   3.449   6.342   0.150
 3440SOL     OW11218   3.747   3.674   5.715
 3440SOL    HW111219   3.671   3.729   5.751
 3440SOL    HW211220   3.711   3.603   5.655
 3441SOL     OW11221   6.981   4.965   4.513
 3441SOL    HW111222   6.970   5.044   4.573
 3441SOL    HW211223   6.973   4.881   4.567
 3442SOL     OW11224   1.244   2.934   0.800
 3442SOL    HW111225   1.255   3.033   0.793
 3442SOL    HW211226   1.172   2.905   0.736
 3443SOL     OW11227   0.691   5.924   2.597
 3443SOL    HW111228   0.700   5.979   2.513
 3443SOL    HW211229   0.608   5.952   2.645
 3444SOL     OW11230   0.113   3.601   6.135
 3444SOL    HW111231   0.102   3.505   6.111
 3444SOL    HW211232   0.191   3.639   6.086
 3445SOL     OW11233   6.380   4.866   4.684
 3445SOL    HW111234   6.313   4.819   4.626
 3445SOL    HW211235   6.349   4.865   4.779
 3446SOL     OW11236   4.404   1.715   0.546
 3446SOL    HW111237   4.450   1.653   0.610
 3446SOL    HW211238   4.310   1.683   0.531
 3447SOL     OW11239   5.367   0.968   6.660
 3447SOL    HW111240   5.370   0.972   6.760
 3447SOL    HW211241   5.458   0.989   6.624
 3448SOL     OW11242   0.839   4.786   5.501
 3448SOL    HW111243   0.890   4.857   5.452
 3448SOL    HW211244   0.797   4.724   5.435
 3449SOL     OW11245   0.876   3.854   5.506
 3449SOL    HW111246   0.936   3.920   5.459
 3449SOL    HW211247   0.843   3.786   5.441
 3450SOL     OW11248   2.848   6.903   2.373
 3450SOL    HW111249   2.794   6.987   2.374
 3450SOL    HW211250   2.857   6.867   2.466
 3451SOL     OW11251   2.100   2.761   1.056
 3451SOL    HW111252   2.132   2.854   1.043
 3451SOL    HW211253   2.149   2.699   0.995
 3452SOL     OW11254   4.420   1.346   5.944
 3452SOL    HW111255   4.435   1.256   5.984
 3452SOL    HW211256   4.353   1.396   5.999
 3453SOL     OW11257   4.471   6.396   6.154
 3453SOL    HW111258   4.513   6.310   6.182
 3453SOL    HW211259   4.372   6.386   6.151
 3454SOL     OW11260   0.825   3.335   2.422
 3454SOL    HW111261   0.854   3.342   2.518
 3454SOL    HW211262   0.762   3.258   2.412
 3455SOL     OW11263   0.733   3.708   6.628
 3455SOL    HW111264   0.794   3.768   6.575
 3455SOL    HW211265   0.640   3.714   6.591
 3456SOL     OW11266   4.721   5.525   3.669
 3456SOL    HW111267   4.760   5.460   3.604
 3456SOL    HW211268   4.695   5.609   3.620
 3457SOL     OW11269   4.190   4.666   0.473
 3457SOL    HW111270   4.155   4.652   0.381
 3457SOL    HW211271   4.282   4.626   0.480
 3458SOL     OW11272   4.295   1.574   1.907
 3458SOL    HW111273   4.201   1.598   1.930
 3458SOL    HW211274   4.357   1.645   1.941
 3459SOL     OW11275   5.983   6.303   2.024
 3459SOL    HW111276   6.023   6.331   1.936
 3459SOL    HW211277   5.889   6.273   2.010
 3460SOL     OW11278   3.889   1.856   5.215
 3460SOL    HW111279   3.838   1.778   5.178
 3460SOL    HW211280   3.867   1.938   5.163
 3461SOL     OW11281   4.880   4.971   3.726
 3461SOL    HW111282   4.900   5.068   3.744
 3461SOL    HW211283   4.783   4.954   3.741
 3462SOL     OW11284   0.856   4.358   6.431
 3462SOL    HW111285   0.950   4.374   6.400
 3462SOL    HW211286   0.793   4.379   6.356
 3463SOL     OW11287   5.460   3.553   0.172
 3463SOL    HW111288   5.400   3.474   0.159
 3463SOL    HW211289   5.412   3.623   0.224
 3464SOL     OW11290   0.339   4.488   3.774
 3464SOL    HW111291   0.275   4.539   3.717
 3464SOL    HW211292   0.395   4.553   3.827
 3465SOL     OW11293   0.679   2.499   2.394
 3465SOL    HW111294   0.601   2.467   2.340
 3465SOL    HW211295   0.695   2.435   2.470
 3466SOL     OW11296   6.857   3.542   4.078
 3466SOL    HW111297   6.948   3.566   4.046
 3466SOL    HW211298   6.838   3.587   4.164
 3467SOL     OW11299   1.830   2.424   5.945
 3467SOL    HW111300   1.746   2.380   5.912
 3467SOL    HW211301   1.847   2.507   5.893
 3468SOL     OW11302   5.271   6.385   1.962
 3468SOL    HW111303   5.179   6.426   1.964
 3468SOL    HW211304   5.299   6.373   1.866
 3469SOL     OW11305   5.541   3.884   0.687
 3469SOL    HW111306   5.532   3.831   0.602
 3469SOL    HW211307   5.542   3.982   0.665
 3470SOL     OW11308   6.309   4.925   1.172
 3470SOL    HW111309   6.333   5.012   1.129
 3470SOL    HW211310   6.212   4.907   1.159
 3471SOL     OW11311   4.334   6.579   4.255
 3471SOL    HW111312   4.290   6.522   4.324
 3471SOL    HW211313   4.424   6.608   4.287
 3472SOL     OW11314   4.018   0.995   5.138
 3472SOL    HW111315   4.029   1.085   5.095
 3472SOL    HW211316   3.921   0.970   5.140
 3473SOL     OW11317   4.386   0.035   3.787
 3473SOL    HW111318   4.314   0.031   3.856
 3473SOL    HW211319   4.351   0.081   3.705
 3474SOL     OW11320   4.788   4.324   0.675
 3474SOL    HW111321   4.706   4.374   0.703
 3474SOL    HW211322   4.869   4.376   0.703
 3475SOL     OW11323   1.827   5.928   5.145
 3475SOL    HW111324   1.841   6.016   5.100
 3475SOL    HW211325   1.789   5.863   5.079
 3476SOL     OW11326   4.059   1.674   4.815
 3476SOL    HW111327   3.961   1.682   4.797
 3476SOL    HW211328   4.103   1.762   4.798
 3477SOL     OW11329   4.687   5.305   1.995
 3477SOL    HW111330   4.637   5.348   1.920
 3477SOL    HW211331   4.772   5.266   1.960
 3478SOL     OW11332   4.051   4.308   0.229
 3478SOL    HW111333   4.077   4.286   0.135
 3478SOL    HW211334   4.119   4.370   0.268
 3479SOL     OW11335   1.266   0.010   0.867
 3479SOL    HW111336   1.318   7.019   0.783
 3479SOL    HW211337   1.255   6.946   0.915
 3480SOL     OW11338   1.433   0.057   4.258
 3480SOL    HW111339   1.394   0.041   4.167
 3480SOL    HW211340   1.464   6.995   4.297
 3481SOL     OW11341   1.670   6.197   0.079
 3481SOL    HW111342   1.637   6.118   0.029
 3481SOL    HW211343   1.676   6.276   0.018
 3482SOL     OW11344   0.841   2.310   2.244
 3482SOL    HW111345   0.780   2.264   2.309
 3482SOL    HW211346   0.840   2.408   2.261
 3483SOL     OW11347   3.523   1.558   0.631
 3483SOL    HW111348   3.561   1.542   0.539
 3483SOL    HW211349   3.565   1.494   0.695
 3484SOL     OW11350   4.124   3.712   3.948
 3484SOL    HW111351   4.077   3.732   4.035
 3484SOL    HW211352   4.132   3.613   3.936
 3485SOL     OW11353   5.921   1.736   5.385
 3485SOL    HW111354   5.859   1.813   5.373
 3485SOL    HW211355   5.941   1.724   5.482
 3486SOL     OW11356   5.067   0.822   2.784
 3486SOL    HW111357   5.086   0.906   2.834
 3486SOL    HW211358   5.143   0.759   2.795
 3487SOL     OW11359   0.574   0.537   0.655
 3487SOL    HW111360   0.612   0.620   0.613
 3487SOL    HW211361   0.496   0.562   0.712
 3488SOL     OW11362   6.466   3.616   4.168
 3488SOL    HW111363   6.491   3.713   4.168
 3488SOL    HW211364   6.483   3.578   4.259
 3489SOL     OW11365   2.774   5.162   6.873
 3489SOL    HW111366   2.701   5.185   6.937
 3489SOL    HW211367   2.863   5.177   6.917
 3490SOL     OW11368   3.977   3.314   0.925
 3490SOL    HW111369   3.931   3.281   1.007
 3490SOL    HW211370   4.017   3.236   0.876
 3491SOL     OW11371   6.644   3.206   5.960
 3491SOL    HW111372   6.682   3.156   5.883
 3491SOL    HW211373   6.715   3.265   6.000
 3492SOL     OW11374   6.114   4.634   6.736
 3492SOL    HW111375   6.043   4.570   6.766
 3492SOL    HW211376   6.084   4.682   6.654
 3493SOL     OW11377   0.052   4.820   1.912
 3493SOL    HW111378   0.002   4.905   1.897
 3493SOL    HW211379   0.034   4.786   2.004
 3494SOL     OW11380   2.881   6.771   1.077
 3494SOL    HW111381   2.802   6.761   1.137
 3494SOL    HW211382   2.936   6.850   1.107
 3495SOL     OW11383   5.649   3.946   6.802
 3495SOL    HW111384   5.594   3.869   6.835
 3495SOL    HW211385   5.702   3.984   6.877
 3496SOL     OW11386   0.802   4.945   0.740
 3496SOL    HW111387   0.860   4.864   0.750
 3496SOL    HW211388   0.853   5.026   0.769
 3497SOL     OW11389   4.180   6.851   4.518
 3497SOL    HW111390   4.258   6.912   4.507
 3497SOL    HW211391   4.169   6.795   4.436
 3498SOL     OW11392   1.038   1.900   0.414
 3498SOL    HW111393   1.099   1.835   0.460
 3498SOL    HW211394   0.988   1.852   0.341
 3499SOL     OW11395   0.156   4.134   4.395
 3499SOL    HW111396   0.192   4.139   4.488
 3499SOL    HW211397   0.059   4.109   4.399
 3500SOL     OW11398   6.018   3.257   0.725
 3500SOL    HW111399   5.975   3.236   0.813
 3500SOL    HW211400   5.958   3.229   0.651
 3501SOL     OW11401   0.650   4.398   3.016
 3501SOL    HW111402   0.571   4.359   3.063
 3501SOL    HW211403   0.727   4.334   3.019
 3502SOL     OW11404   0.709   5.064   1.701
 3502SOL    HW111405   0.631   5.125   1.696
 3502SOL    HW211406   0.794   5.117   1.701
 3503SOL     OW11407   3.384   0.116   3.415
 3503SOL    HW111408   3.483   0.128   3.409
 3503SOL    HW211409   3.363   0.045   3.482
 3504SOL     OW11410   2.165   2.580   3.085
 3504SOL    HW111411   2.188   2.551   3.178
 3504SOL    HW211412   2.096   2.519   3.048
 3505SOL     OW11413   4.610   7.022   4.657
 3505SOL    HW111414   4.594   6.933   4.615
 3505SOL    HW211415   4.659   7.010   4.743
 3506SOL     OW11416   6.068   5.037   2.089
 3506SOL    HW111417   6.125   5.102   2.140
 3506SOL    HW211418   6.089   5.045   1.991
 3507SOL     OW11419   6.891   0.210   5.859
 3507SOL    HW111420   6.860   0.116   5.849
 3507SOL    HW211421   6.872   0.260   5.774
 3508SOL     OW11422   6.250   3.968   0.145
 3508SOL    HW111423   6.191   3.987   0.223
 3508SOL    HW211424   6.346   3.980   0.172
 3509SOL     OW11425   5.729   0.830   6.732
 3509SOL    HW111426   5.745   0.928   6.720
 3509SOL    HW211427   5.724   0.809   6.830
 3510SOL     OW11428   1.849   2.115   2.528
 3510SOL    HW111429   1.780   2.043   2.534
 3510SOL    HW211430   1.864   2.154   2.619
 3511SOL     OW11431   0.734   0.992   4.772
 3511SOL    HW111432   0.779   0.947   4.849
 3511SOL    HW211433   0.685   0.924   4.718
 3512SOL     OW11434   3.198   2.835   0.802
 3512SOL    HW111435   3.124   2.775   0.770
 3512SOL    HW211436   3.241   2.793   0.882
 3513SOL     OW11437   5.255   4.391   1.086
 3513SOL    HW111438   5.195   4.319   1.052
 3513SOL    HW211439   5.233   4.477   1.039
 3514SOL     OW11440   2.275   6.646   1.827
 3514SOL    HW111441   2.334   6.568   1.847
 3514SOL    HW211442   2.193   6.614   1.780
 3515SOL     OW11443   3.933   5.932   3.269
 3515SOL    HW111444   3.942   5.865   3.343
 3515SOL    HW211445   3.976   6.018   3.296
 3516SOL     OW11446   1.936   1.321   0.475
 3516SOL    HW111447   1.963   1.412   0.445
 3516SOL    HW211448   1.938   1.258   0.397
 3517SOL     OW11449   0.325   0.720   6.560
 3517SOL    HW111450   0.308   0.722   6.461
 3517SOL    HW211451   0.291   0.633   6.597
 3518SOL     OW11452   4.302   3.497   5.686
 3518SOL    HW111453   4.230   3.430   5.704
 3518SOL    HW211454   4.305   3.564   5.760
 3519SOL     OW11455   3.567   6.827   0.478
 3519SOL    HW111456   3.541   6.910   0.428
 3519SOL    HW211457   3.504   6.814   0.554
 3520SOL     OW11458   3.605   5.278   1.494
 3520SOL    HW111459   3.526   5.271   1.556
 3520SOL    HW211460   3.675   5.336   1.536
 3521SOL     OW11461   6.659   2.499   6.265
 3521SOL    HW111462   6.619   2.555   6.192
 3521SOL    HW211463   6.696   2.559   6.336
 3522SOL     OW11464   2.805   0.727   0.426
 3522SOL    HW111465   2.756   0.795   0.479
 3522SOL    HW211466   2.859   0.773   0.355
 3523SOL     OW11467   2.751   4.319   5.348
 3523SOL    HW111468   2.780   4.223   5.351
 3523SOL    HW211469   2.822   4.374   5.303
 3524SOL     OW11470   2.287   0.427   2.432
 3524SOL    HW111471   2.299   0.328   2.417
 3524SOL    HW211472   2.252   0.442   2.525
 3525SOL     OW11473   1.410   3.754   2.547
 3525SOL    HW111474   1.448   3.689   2.613
 3525SOL    HW211475   1.473   3.831   2.536
 3526SOL     OW11476   4.220   6.366   3.452
 3526SOL    HW111477   4.315   6.392   3.439
 3526SOL    HW211478   4.195   6.379   3.549
 3527SOL     OW11479   5.337   3.322   6.595
 3527SOL    HW111480   5.392   3.389   6.645
 3527SOL    HW211481   5.364   3.229   6.623
 3528SOL     OW11482   1.701   6.258   5.003
 3528SOL    HW111483   1.621   6.228   5.055
 3528SOL    HW211484   1.757   6.319   5.059
 3529SOL     OW11485   3.857   5.960   7.017
 3529SOL    HW111486   3.904   6.047   0.011
 3529SOL    HW211487   3.843   5.911   0.079
 3530SOL     OW11488   1.860   6.740   3.025
 3530SOL    HW111489   1.879   6.665   2.961
 3530SOL    HW211490   1.783   6.794   2.992
 3531SOL     OW11491   5.129   4.594   6.995
 3531SOL    HW111492   5.070   4.548   0.037
 3531SOL    HW211493   5.100   4.570   6.902
 3532SOL     OW11494   1.780   6.739   0.719
 3532SOL    HW111495   1.738   6.737   0.629
 3532SOL    HW211496   1.860   6.800   0.718
 3533SOL     OW11497   1.536   0.954   3.714
 3533SOL    HW111498   1.492   0.936   3.802
 3533SOL    HW211499   1.481   1.019   3.662
 3534SOL     OW11500   5.363   0.585   5.248
 3534SOL    HW111501   5.450   0.613   5.289
 3534SOL    HW211502   5.360   0.485   5.240
 3535SOL     OW11503   5.242   6.509   6.918
 3535SOL    HW111504   5.239   6.512   7.018
 3535SOL    HW211505   5.190   6.429   6.886
 3536SOL     OW11506   0.803   3.643   2.718
 3536SOL    HW111507   0.880   3.611   2.663
 3536SOL    HW211508   0.734   3.571   2.724
 3537SOL     OW11509   2.888   4.902   1.618
 3537SOL    HW111510   2.982   4.910   1.584
 3537SOL    HW211511   2.861   4.806   1.622
 3538SOL     OW11512   3.953   0.991   3.489
 3538SOL    HW111513   3.884   1.030   3.428
 3538SOL    HW211514   3.973   0.897   3.461
 3539SOL     OW11515   5.124   5.681   6.249
 3539SOL    HW111516   5.116   5.750   6.321
 3539SOL    HW211517   5.038   5.630   6.242
 3540SOL     OW11518   3.069   4.545   6.040
 3540SOL    HW111519   3.128   4.514   6.114
 3540SOL    HW211520   2.973   4.531   6.066
 3541SOL     OW11521   1.402   2.765   1.876
 3541SOL    HW111522   1.351   2.837   1.830
 3541SOL    HW211523   1.492   2.755   1.833
 3542SOL     OW11524   5.810   1.758   6.665
 3542SOL    HW111525   5.859   1.673   6.646
 3542SOL    HW211526   5.876   1.831   6.685
 3543SOL     OW11527   0.421   2.047   3.801
 3543SOL    HW111528   0.427   2.068   3.704
 3543SOL    HW211529   0.379   2.124   3.849
 3544SOL     OW11530   2.779   4.425   0.304
 3544SOL    HW111531   2.774   4.459   0.210
 3544SOL    HW211532   2.719   4.346   0.314
 3545SOL     OW11533   4.096   6.641   0.550
 3545SOL    HW111534   4.141   6.633   0.461
 3545SOL    HW211535   4.016   6.581   0.552
 3546SOL     OW11536   6.441   4.458   1.078
 3546SOL    HW111537   6.395   4.521   1.141
 3546SOL    HW211538   6.540   4.469   1.086
 3547SOL     OW11539   0.848   4.276   4.991
 3547SOL    HW111540   0.769   4.215   4.982
 3547SOL    HW211541   0.932   4.225   4.976
 3548SOL     OW11542   6.380   0.369   5.831
 3548SOL    HW111543   6.413   0.426   5.907
 3548SOL    HW211544   6.326   0.293   5.866
 3549SOL     OW11545   2.139   6.366   6.756
 3549SOL    HW111546   2.226   6.415   6.753
 3549SOL    HW211547   2.125   6.330   6.849
 3550SOL     OW11548   5.748   1.340   5.611
 3550SOL    HW111549   5.668   1.281   5.618
 3550SOL    HW211550   5.722   1.428   5.570
 3551SOL     OW11551   5.426   1.919   4.748
 3551SOL    HW111552   5.333   1.942   4.718
 3551SOL    HW211553   5.482   2.002   4.750
 3552SOL     OW11554   6.841   0.138   3.421
 3552SOL    HW111555   6.839   0.047   3.462
 3552SOL    HW211556   6.767   0.194   3.460
 3553SOL     OW11557   6.441   5.860   6.530
 3553SOL    HW111558   6.463   5.794   6.459
 3553SOL    HW211559   6.494   5.943   6.517
 3554SOL     OW11560   4.753   4.477   6.876
 3554SOL    HW111561   4.709   4.466   6.965
 3554SOL    HW211562   4.769   4.387   6.835
 3555SOL     OW11563   2.333   1.842   5.227
 3555SOL    HW111564   2.385   1.900   5.165
 3555SOL    HW211565   2.339   1.747   5.198
 3556SOL     OW11566   6.012   1.553   0.304
 3556SOL    HW111567   6.111   1.566   0.295
 3556SOL    HW211568   5.978   1.499   0.227
 3557SOL     OW11569   5.544   6.486   1.937
 3557SOL    HW111570   5.582   6.458   1.849
 3557SOL    HW211571   5.446   6.465   1.939
 3558SOL     OW11572   3.367   5.650   2.138
 3558SOL    HW111573   3.416   5.655   2.051
 3558SOL    HW211574   3.394   5.727   2.196
 3559SOL     OW11575   4.273   6.499   6.322
 3559SOL    HW111576   4.294   6.402   6.313
 3559SOL    HW211577   4.178   6.510   6.351
 3560SOL     OW11578   2.133   5.567   4.418
 3560SOL    HW111579   2.160   5.543   4.511
 3560SOL    HW211580   2.118   5.484   4.364
 3561SOL     OW11581   4.702   3.413   5.396
 3561SOL    HW111582   4.716   3.481   5.325
 3561SOL    HW211583   4.660   3.457   5.476
 3562SOL     OW11584   2.745   1.526   0.689
 3562SOL    HW111585   2.732   1.622   0.664
 3562SOL    HW211586   2.714   1.512   0.783
 3563SOL     OW11587   0.030   2.230   6.764
 3563SOL    HW111588   0.002   2.319   6.803
 3563SOL    HW211589   0.101   2.190   6.821
 3564SOL     OW11590   6.371   3.373   2.664
 3564SOL    HW111591   6.317   3.293   2.690
 3564SOL    HW211592   6.326   3.456   2.697
 3565SOL     OW11593   5.190   6.557   5.879
 3565SOL    HW111594   5.241   6.591   5.958
 3565SOL    HW211595   5.097   6.595   5.879
 3566SOL     OW11596   1.271   1.015   5.323
 3566SOL    HW111597   1.177   0.980   5.320
 3566SOL    HW211598   1.325   0.969   5.253
 3567SOL     OW11599   6.710   3.901   0.041
 3567SOL    HW111600   6.631   3.919   0.101
 3567SOL    HW211601   6.740   3.806   0.054
 3568SOL     OW11602   4.566   3.235   5.901
 3568SOL    HW111603   4.624   3.284   5.966
 3568SOL    HW211604   4.569   3.137   5.921
 3569SOL     OW11605   1.702   0.234   3.630
 3569SOL    HW111606   1.667   0.302   3.694
 3569SOL    HW211607   1.798   0.217   3.649
 3570SOL     OW11608   5.915   1.438   4.451
 3570SOL    HW111609   5.987   1.395   4.506
 3570SOL    HW211610   5.855   1.491   4.510
 3571SOL     OW11611   6.455   5.601   4.813
 3571SOL    HW111612   6.478   5.661   4.737
 3571SOL    HW211613   6.504   5.631   4.895
 3572SOL     OW11614   6.089   6.336   5.850
 3572SOL    HW111615   6.129   6.360   5.762
 3572SOL    HW211616   6.031   6.255   5.839
 3573SOL     OW11617   0.322   2.060   1.437
 3573SOL    HW111618   0.381   2.010   1.374
 3573SOL    HW211619   0.379   2.110   1.503
 3574SOL     OW11620   6.239   3.730   0.273
 3574SOL    HW111621   6.289   3.658   0.225
 3574SOL    HW211622   6.243   3.815   0.220
 3575SOL     OW11623   6.501   6.286   2.393
 3575SOL    HW111624   6.596   6.264   2.374
 3575SOL    HW211625   6.452   6.299   2.306
 3576SOL     OW11626   6.858   0.845   6.984
 3576SOL    HW111627   6.834   0.757   7.023
 3576SOL    HW211628   6.786   0.911   7.003
 3577SOL     OW11629   2.715   3.992   6.807
 3577SOL    HW111630   2.693   4.083   6.843
 3577SOL    HW211631   2.813   3.984   6.793
 3578SOL     OW11632   3.625   4.393   1.701
 3578SOL    HW111633   3.718   4.375   1.730
 3578SOL    HW211634   3.594   4.481   1.737
 3579SOL     OW11635   1.668   4.468   5.030
 3579SOL    HW111636   1.602   4.518   4.973
 3579SOL    HW211637   1.627   4.449   5.119
 3580SOL     OW11638   6.801   3.300   1.259
 3580SOL    HW111639   6.791   3.251   1.346
 3580SOL    HW211640   6.898   3.310   1.238
 3581SOL     OW11641   5.951   1.236   3.454
 3581SOL    HW111642   6.033   1.221   3.509
 3581SOL    HW211643   5.875   1.262   3.513
 3582SOL     OW11644   6.947   0.280   4.808
 3582SOL    HW111645   0.001   0.220   4.829
 3582SOL    HW211646   6.868   0.252   4.863
 3583SOL     OW11647   1.634   5.145   1.476
 3583SOL    HW111648   1.667   5.102   1.560
 3583SOL    HW211649   1.646   5.244   1.482
 3584SOL     OW11650   5.795   0.661   5.679
 3584SOL    HW111651   5.876   0.716   5.696
 3584SOL    HW211652   5.715   0.721   5.668
 3585SOL     OW11653   2.344   4.869   3.633
 3585SOL    HW111654   2.409   4.864   3.556
 3585SOL    HW211655   2.282   4.791   3.630
 3586SOL     OW11656   1.037   0.811   6.040
 3586SOL    HW111657   1.045   0.734   5.977
 3586SOL    HW211658   0.973   0.878   6.003
 3587SOL     OW11659   3.894   6.476   6.732
 3587SOL    HW111660   3.904   6.573   6.757
 3587SOL    HW211661   3.939   6.459   6.645
 3588SOL     OW11662   1.767   2.013   5.435
 3588SOL    HW111663   1.798   1.933   5.486
 3588SOL    HW211664   1.720   1.983   5.351
 3589SOL     OW11665   3.769   0.654   4.696
 3589SOL    HW111666   3.723   0.738   4.666
 3589SOL    HW211667   3.713   0.575   4.672
 3590SOL     OW11668   1.441   5.140   6.983
 3590SOL    HW111669   1.432   5.236   6.955
 3590SOL    HW211670   1.397   5.127   0.048
 3591SOL     OW11671   5.450   2.305   5.174
 3591SOL    HW111672   5.416   2.363   5.248
 3591SOL    HW211673   5.397   2.323   5.091
 3592SOL     OW11674   5.006   2.183   2.063
 3592SOL    HW111675   4.926   2.138   2.024
 3592SOL    HW211676   5.050   2.238   1.993
 3593SOL     OW11677   1.186   5.359   4.425
 3593SOL    HW111678   1.177   5.273   4.475
 3593SOL    HW211679   1.218   5.340   4.332
 3594SOL     OW11680   3.842   1.825   4.720
 3594SOL    HW111681   3.801   1.807   4.630
 3594SOL    HW211682   3.879   1.918   4.721
 3595SOL     OW11683   2.217   6.920   5.955
 3595SOL    HW111684   2.165   6.835   5.965
 3595SOL    HW211685   2.313   6.904   5.980
 3596SOL     OW11686   0.157   3.909   3.712
 3596SOL    HW111687   0.157   3.998   3.666
 3596SOL    HW211688   0.234   3.904   3.776
 3597SOL     OW11689   3.657   0.102   3.759
 3597SOL    HW111690   3.570   0.124   3.804
 3597SOL    HW211691   3.644   0.102   3.660
 3598SOL     OW11692   1.673   0.293   0.318
 3598SOL    HW111693   1.615   0.258   0.392
 3598SOL    HW211694   1.757   0.331   0.356
 3599SOL     OW11695   6.810   1.534   4.185
 3599SOL    HW111696   6.846   1.463   4.245
 3599SOL    HW211697   6.761   1.603   4.239
 3600SOL     OW11698   6.981   0.224   1.400
 3600SOL    HW111699   7.011   0.144   1.348
 3600SOL    HW211700   0.037   0.270   1.438
 3601SOL     OW11701   6.094   3.473   5.503
 3601SOL    HW111702   5.997   3.460   5.484
 3601SOL    HW211703   6.125   3.405   5.570
 3602SOL     OW11704   2.426   1.687   0.940
 3602SOL    HW111705   2.472   1.611   0.985
 3602SOL    HW211706   2.475   1.712   0.857
 3603SOL     OW11707   4.127   5.490   4.580
 3603SOL    HW111708   4.201   5.461   4.640
 3603SOL    HW211709   4.152   5.576   4.534
 3604SOL     OW11710   6.909   4.243   3.642
 3604SOL    HW111711   6.870   4.335   3.645
 3604SOL    HW211712   6.867   4.192   3.567
 3605SOL     OW11713   6.115   2.771   6.434
 3605SOL    HW111714   6.017   2.776   6.450
 3605SOL    HW211715   6.144   2.851   6.381
 3606SOL     OW11716   1.606   4.141   3.307
 3606SOL    HW111717   1.688   4.195   3.325
 3606SOL    HW211718   1.625   4.075   3.234
 3607SOL     OW11719   4.259   6.951   0.113
 3607SOL    HW111720   4.240   6.960   0.210
 3607SOL    HW211721   4.177   6.972   0.060
 3608SOL     OW11722   0.442   3.124   2.590
 3608SOL    HW111723   0.371   3.187   2.622
 3608SOL    HW211724   0.478   3.155   2.502
 3609SOL     OW11725   6.202   6.990   4.713
 3609SOL    HW111726   6.167   0.036   4.650
 3609SOL    HW211727   6.126   6.952   4.766
 3610SOL     OW11728   1.843   5.524   5.593
 3610SOL    HW111729   1.924   5.560   5.547
 3610SOL    HW211730   1.849   5.424   5.597
 3611SOL     OW11731   4.427   5.271   6.007
 3611SOL    HW111732   4.398   5.358   6.047
 3611SOL    HW211733   4.526   5.261   6.017
 3612SOL     OW11734   1.642   6.235   1.176
 3612SOL    HW111735   1.595   6.297   1.240
 3612SOL    HW211736   1.706   6.177   1.228
 3613SOL     OW11737   4.982   4.994   6.432
 3613SOL    HW111738   4.898   5.031   6.394
 3613SOL    HW211739   5.061   5.037   6.387
 3614SOL     OW11740   3.440   3.900   4.433
 3614SOL    HW111741   3.459   3.819   4.376
 3614SOL    HW211742   3.411   3.870   4.524
 3615SOL     OW11743   6.231   6.622   6.401
 3615SOL    HW111744   6.308   6.583   6.352
 3615SOL    HW211745   6.156   6.556   6.404
 3616SOL     OW11746   6.084   0.609   4.830
 3616SOL    HW111747   5.985   0.611   4.845
 3616SOL    HW211748   6.118   0.516   4.843
 3617SOL     OW11749   6.689   0.278   0.070
 3617SOL    HW111750   6.675   0.370   0.032
 3617SOL    HW211751   6.761   0.281   0.139
 3618SOL     OW11752   2.658   7.014   6.435
 3618SOL    HW111753   2.612   0.072   6.469
 3618SOL    HW211754   2.742   6.997   6.487
 3619SOL     OW11755   5.076   4.255   4.208
 3619SOL    HW111756   5.044   4.347   4.188
 3619SOL    HW211757   5.090   4.245   4.306
 3620SOL     OW11758   5.828   1.603   4.681
 3620SOL    HW111759   5.889   1.635   4.754
 3620SOL    HW211760   5.799   1.681   4.626
 3621SOL     OW11761   1.525   3.659   6.247
 3621SOL    HW111762   1.593   3.669   6.175
 3621SOL    HW211763   1.497   3.564   6.254
 3622SOL     OW11764   0.595   3.573   0.935
 3622SOL    HW111765   0.506   3.568   0.888
 3622SOL    HW211766   0.581   3.612   1.026
 3623SOL     OW11767   0.121   5.234   3.970
 3623SOL    HW111768   0.178   5.152   3.965
 3623SOL    HW211769   0.037   5.214   4.020
 3624SOL     OW11770   1.762   1.435   1.555
 3624SOL    HW111771   1.708   1.365   1.602
 3624SOL    HW211772   1.761   1.520   1.608
 3625SOL     OW11773   0.645   3.237   4.630
 3625SOL    HW111774   0.612   3.326   4.599
 3625SOL    HW211775   0.648   3.236   4.730
 3626SOL     OW11776   2.729   3.853   5.193
 3626SOL    HW111777   2.644   3.892   5.159
 3626SOL    HW211778   2.711   3.763   5.232
 3627SOL     OW11779   3.470   3.101   3.768
 3627SOL    HW111780   3.496   3.188   3.727
 3627SOL    HW211781   3.370   3.094   3.771
 3628SOL     OW11782   3.019   5.455   2.794
 3628SOL    HW111783   3.005   5.401   2.711
 3628SOL    HW211784   3.101   5.511   2.784
 3629SOL     OW11785   5.638   2.711   5.238
 3629SOL    HW111786   5.544   2.740   5.219
 3629SOL    HW211787   5.640   2.613   5.257
 3630SOL     OW11788   5.565   1.441   4.627
 3630SOL    HW111789   5.578   1.361   4.568
 3630SOL    HW211790   5.653   1.465   4.670
 3631SOL     OW11791   2.228   0.736   3.593
 3631SOL    HW111792   2.248   0.640   3.614
 3631SOL    HW211793   2.128   0.749   3.592
 3632SOL     OW11794   3.988   6.865   6.353
 3632SOL    HW111795   4.058   6.828   6.414
 3632SOL    HW211796   4.028   6.881   6.263
 3633SOL     OW11797   1.673   3.168   5.556
 3633SOL    HW111798   1.747   3.138   5.616
 3633SOL    HW211799   1.611   3.092   5.539
 3634SOL     OW11800   3.032   5.996   6.090
 3634SOL    HW111801   2.996   5.964   6.002
 3634SOL    HW211802   2.975   5.962   6.164
 3635SOL     OW11803   1.959   1.372   4.914
 3635SOL    HW111804   2.033   1.317   4.953
 3635SOL    HW211805   1.989   1.467   4.906
 3636SOL     OW11806   1.507   5.732   6.645
 3636SOL    HW111807   1.558   5.791   6.582
 3636SOL    HW211808   1.548   5.641   6.647
 3637SOL     OW11809   5.642   1.848   1.705
 3637SOL    HW111810   5.707   1.885   1.638
 3637SOL    HW211811   5.679   1.764   1.744
 3638SOL     OW11812   6.101   4.490   3.492
 3638SOL    HW111813   6.103   4.583   3.457
 3638SOL    HW211814   6.185   4.470   3.541
 3639SOL     OW11815   2.848   5.524   6.882
 3639SOL    HW111816   2.930   5.576   6.857
 3639SOL    HW211817   2.806   5.486   6.800
 3640SOL     OW11818   3.429   6.580   1.346
 3640SOL    HW111819   3.376   6.530   1.415
 3640SOL    HW211820   3.521   6.541   1.340
 3641SOL     OW11821   2.332   0.169   4.703
 3641SOL    HW111822   2.237   0.190   4.727
 3641SOL    HW211823   2.390   0.182   4.784
 3642SOL     OW11824   6.033   6.933   2.479
 3642SOL    HW111825   5.953   6.923   2.538
 3642SOL    HW211826   6.115   6.933   2.536
 3643SOL     OW11827   3.487   4.615   5.763
 3643SOL    HW111828   3.391   4.587   5.774
 3643SOL    HW211829   3.490   4.710   5.733
 3644SOL     OW11830   6.793   0.271   0.350
 3644SOL    HW111831   6.874   0.321   0.377
 3644SOL    HW211832   6.769   0.205   0.421
 3645SOL     OW11833   3.559   6.383   2.686
 3645SOL    HW111834   3.553   6.318   2.611
 3645SOL    HW211835   3.615   6.461   2.659
 3646SOL     OW11836   6.681   5.361   3.700
 3646SOL    HW111837   6.590   5.360   3.741
 3646SOL    HW211838   6.714   5.455   3.692
 3647SOL     OW11839   2.172   2.619   1.886
 3647SOL    HW111840   2.198   2.545   1.823
 3647SOL    HW211841   2.219   2.703   1.859
 3648SOL     OW11842   3.283   5.702   3.513
 3648SOL    HW111843   3.200   5.656   3.481
 3648SOL    HW211844   3.259   5.792   3.549
 3649SOL     OW11845   3.560   3.237   2.489
 3649SOL    HW111846   3.501   3.306   2.445
 3649SOL    HW211847   3.541   3.147   2.449
 3650SOL     OW11848   6.009   6.860   1.492
 3650SOL    HW111849   6.077   6.824   1.556
 3650SOL    HW211850   5.936   6.906   1.542
 3651SOL     OW11851   1.435   6.017   2.365
 3651SOL    HW111852   1.337   6.009   2.382
 3651SOL    HW211853   1.459   5.961   2.285
 3652SOL     OW11854   4.302   5.347   2.932
 3652SOL    HW111855   4.283   5.414   2.859
 3652SOL    HW211856   4.270   5.257   2.903
 3653SOL     OW11857   0.272   2.958   4.421
 3653SOL    HW111858   0.302   2.930   4.512
 3653SOL    HW211859   0.215   2.887   4.381
 3654SOL     OW11860   1.526   5.678   1.434
 3654SOL    HW111861   1.532   5.744   1.359
 3654SOL    HW211862   1.569   5.717   1.516
 3655SOL     OW11863   0.880   0.476   3.878
 3655SOL    HW111864   0.847   0.412   3.948
 3655SOL    HW211865   0.855   0.442   3.788
 3656SOL     OW11866   2.744   1.514   2.649
 3656SOL    HW111867   2.762   1.458   2.731
 3656SOL    HW211868   2.645   1.525   2.639
 3657SOL     OW11869   3.609   5.040   1.977
 3657SOL    HW111870   3.690   5.081   1.934
 3657SOL    HW211871   3.582   4.959   1.926
 3658SOL     OW11872   1.985   5.563   5.851
 3658SOL    HW111873   1.906   5.564   5.913
 3658SOL    HW211874   1.953   5.577   5.757
 3659SOL     OW11875   1.051   4.481   0.486
 3659SOL    HW111876   0.989   4.405   0.507
 3659SOL    HW211877   1.119   4.490   0.558
 3660SOL     OW11878   4.403   5.259   1.122
 3660SOL    HW111879   4.426   5.179   1.067
 3660SOL    HW211880   4.336   5.315   1.073
 3661SOL     OW11881   4.995   1.731   0.771
 3661SOL    HW111882   4.982   1.681   0.856
 3661SOL    HW211883   4.971   1.673   0.693
 3662SOL     OW11884   2.912   6.294   5.223
 3662SOL    HW111885   2.967   6.365   5.266
 3662SOL    HW211886   2.930   6.293   5.125
 3663SOL     OW11887   0.902   3.848   6.478
 3663SOL    HW111888   0.992   3.806   6.470
 3663SOL    HW211889   0.861   3.858   6.387
 3664SOL     OW11890   4.043   0.761   0.885
 3664SOL    HW111891   3.983   0.700   0.938
 3664SOL    HW211892   4.133   0.765   0.929
 3665SOL     OW11893   1.141   6.598   5.465
 3665SOL    HW111894   1.175   6.692   5.468
 3665SOL    HW211895   1.071   6.586   5.535
 3666SOL     OW11896   0.739   5.050   3.887
 3666SOL    HW111897   0.694   4.979   3.832
 3666SOL    HW211898   0.675   5.124   3.905
 3667SOL     OW11899   0.352   1.628   6.914
 3667SOL    HW111900   0.269   1.620   6.970
 3667SOL    HW211901   0.400   1.712   6.938
 3668SOL     OW11902   1.809   6.043   1.704
 3668SOL    HW111903   1.770   5.954   1.680
 3668SOL    HW211904   1.838   6.042   1.800
 3669SOL     OW11905   5.952   2.061   3.777
 3669SOL    HW111906   6.002   1.974   3.779
 3669SOL    HW211907   5.998   2.126   3.838
 3670SOL     OW11908   2.329   5.349   6.228
 3670SOL    HW111909   2.252   5.357   6.165
 3670SOL    HW211910   2.329   5.426   6.292
 3671SOL     OW11911   1.067   0.739   3.003
 3671SOL    HW111912   1.081   0.689   2.917
 3671SOL    HW211913   1.060   0.837   2.983
 3672SOL     OW11914   6.990   6.964   0.829
 3672SOL    HW111915   6.943   6.907   0.762
 3672SOL    HW211916   0.036   7.019   0.783
 3673SOL     OW11917   4.286   0.302   6.960
 3673SOL    HW111918   4.355   0.322   0.006
 3673SOL    HW211919   4.195   0.302   7.001
 3674SOL     OW11920   1.317   6.454   0.855
 3674SOL    HW111921   1.224   6.477   0.886
 3674SOL    HW211922   1.319   6.359   0.825
 3675SOL     OW11923   1.883   1.536   4.549
 3675SOL    HW111924   1.961   1.556   4.607
 3675SOL    HW211925   1.892   1.444   4.511
 3676SOL     OW11926   2.215   5.115   3.021
 3676SOL    HW111927   2.166   5.202   3.032
 3676SOL    HW211928   2.191   5.074   2.933
 3677SOL     OW11929   6.500   6.808   3.522
 3677SOL    HW111930   6.464   6.846   3.607
 3677SOL    HW211931   6.590   6.849   3.503
 3678SOL     OW11932   1.041   1.612   3.881
 3678SOL    HW111933   1.109   1.606   3.808
 3678SOL    HW211934   0.949   1.609   3.841
 3679SOL     OW11935   0.071   1.219   1.412
 3679SOL    HW111936   0.011   1.162   1.355
 3679SOL    HW211937   0.163   1.180   1.413
 3680SOL     OW11938   6.649   3.967   4.666
 3680SOL    HW111939   6.572   3.904   4.671
 3680SOL    HW211940   6.734   3.918   4.686
 3681SOL     OW11941   5.326   6.110   4.824
 3681SOL    HW111942   5.244   6.155   4.790
 3681SOL    HW211943   5.342   6.137   4.919
 3682SOL     OW11944   0.499   2.556   6.493
 3682SOL    HW111945   0.522   2.604   6.578
 3682SOL    HW211946   0.471   2.462   6.514
 3683SOL     OW11947   5.310   5.785   3.454
 3683SOL    HW111948   5.392   5.839   3.474
 3683SOL    HW211949   5.234   5.819   3.510
 3684SOL     OW11950   1.851   3.094   0.457
 3684SOL    HW111951   1.829   3.044   0.541
 3684SOL    HW211952   1.821   3.188   0.465
 3685SOL     OW11953   6.372   6.740   6.593
 3685SOL    HW111954   6.320   6.687   6.526
 3685SOL    HW211955   6.314   6.810   6.633
 3686SOL     OW11956   5.947   4.338   1.316
 3686SOL    HW111957   6.006   4.302   1.244
 3686SOL    HW211958   5.867   4.382   1.274
 3687SOL     OW11959   2.894   1.143   6.743
 3687SOL    HW111960   2.843   1.154   6.658
 3687SOL    HW211961   2.831   1.122   6.817
 3688SOL     OW11962   0.317   3.491   0.058
 3688SOL    HW111963   0.377   3.485   0.138
 3688SOL    HW211964   0.240   3.550   0.079
 3689SOL     OW11965   2.873   0.840   3.598
 3689SOL    HW111966   2.812   0.887   3.534
 3689SOL    HW211967   2.958   0.891   3.607
 3690SOL     OW11968   4.819   6.296   5.057
 3690SOL    HW111969   4.841   6.228   5.127
 3690SOL    HW211970   4.793   6.382   5.102
 3691SOL     OW11971   3.825   2.583   0.024
 3691SOL    HW111972   3.832   2.616   6.953
 3691SOL    HW211973   3.843   2.658   0.087
 3692SOL     OW11974   1.630   0.190   6.828
 3692SOL    HW111975   1.719   0.161   6.794
 3692SOL    HW211976   1.629   0.188   6.928
 3693SOL     OW11977   2.683   2.041   3.067
 3693SOL    HW111978   2.684   2.050   3.166
 3693SOL    HW211979   2.605   1.984   3.039
 3694SOL     OW11980   2.021   5.782   3.021
 3694SOL    HW111981   2.038   5.703   2.962
 3694SOL    HW211982   1.986   5.857   2.965
 3695SOL     OW11983   1.521   2.351   1.839
 3695SOL    HW111984   1.554   2.268   1.794
 3695SOL    HW211985   1.426   2.338   1.867
 3696SOL     OW11986   3.112   6.422   5.809
 3696SOL    HW111987   3.120   6.460   5.901
 3696SOL    HW211988   3.017   6.423   5.780
 3697SOL     OW11989   5.455   0.283   4.086
 3697SOL    HW111990   5.407   0.365   4.056
 3697SOL    HW211991   5.432   0.207   4.026
 3698SOL     OW11992   2.826   0.224   5.860
 3698SOL    HW111993   2.814   0.177   5.948
 3698SOL    HW211994   2.886   0.169   5.802
 3699SOL     OW11995   1.269   3.720   1.884
 3699SOL    HW111996   1.341   3.683   1.942
 3699SOL    HW211997   1.179   3.697   1.923
 3700SOL     OW11998   0.627   0.256   4.409
 3700SOL    HW111999   0.527   0.256   4.411
 3700SOL    HW212000   0.660   0.173   4.365
 3701SOL     OW12001   5.501   0.518   3.354
 3701SOL    HW112002   5.564   0.441   3.357
 3701SOL    HW212003   5.457   0.522   3.264
 3702SOL     OW12004   3.916   0.828   0.093
 3702SOL    HW112005   3.966   0.795   0.173
 3702SOL    HW212006   3.925   0.763   0.019
 3703SOL     OW12007   4.410   4.710   0.096
 3703SOL    HW112008   4.445   4.734   0.005
 3703SOL    HW212009   4.460   4.762   0.165
 3704SOL     OW12010   2.327   0.295   1.961
 3704SOL    HW112011   2.280   0.296   1.873
 3704SOL    HW212012   2.425   0.310   1.946
 3705SOL     OW12013   5.286   0.914   4.048
 3705SOL    HW112014   5.224   0.849   4.005
 3705SOL    HW212015   5.360   0.937   3.983
 3706SOL     OW12016   2.023   2.029   3.966
 3706SOL    HW112017   1.987   2.044   4.058
 3706SOL    HW212018   1.949   2.043   3.899
 3707SOL     OW12019   4.345   2.700   5.316
 3707SOL    HW112020   4.265   2.663   5.269
 3707SOL    HW212021   4.314   2.768   5.383
 3708SOL     OW12022   6.065   0.131   6.005
 3708SOL    HW112023   6.165   0.140   5.999
 3708SOL    HW212024   6.042   0.057   6.068
 3709SOL     OW12025   4.549   0.321   0.073
 3709SOL    HW112026   4.557   0.221   0.074
 3709SOL    HW212027   4.588   0.359   0.157
 3710SOL     OW12028   6.817   4.807   0.776
 3710SOL    HW112029   6.791   4.712   0.757
 3710SOL    HW212030   6.917   4.814   0.774
 3711SOL     OW12031   6.633   5.063   2.980
 3711SOL    HW112032   6.561   4.994   2.969
 3711SOL    HW212033   6.708   5.042   2.918
 3712SOL     OW12034   1.873   0.052   0.320
 3712SOL    HW112035   1.876   0.138   0.370
 3712SOL    HW212036   1.807   0.059   0.245
 3713SOL     OW12037   4.026   5.903   6.172
 3713SOL    HW112038   3.994   5.976   6.112
 3713SOL    HW212039   3.948   5.853   6.208
 3714SOL     OW12040   4.056   1.019   5.574
 3714SOL    HW112041   4.077   0.948   5.507
 3714SOL    HW212042   4.065   0.983   5.666
 3715SOL     OW12043   5.083   3.992   4.114
 3715SOL    HW112044   5.055   4.088   4.119
 3715SOL    HW212045   5.163   3.978   4.173
 3716SOL     OW12046   0.079   1.547   4.094
 3716SOL    HW112047   0.013   1.476   4.116
 3716SOL    HW212048   0.126   1.524   4.009
 3717SOL     OW12049   5.256   0.327   0.321
 3717SOL    HW112050   5.220   0.311   0.413
 3717SOL    HW212051   5.350   0.360   0.328
 3718SOL     OW12052   0.560   5.433   0.346
 3718SOL    HW112053   0.479   5.473   0.390
 3718SOL    HW212054   0.596   5.359   0.403
 3719SOL     OW12055   3.968   4.978   6.074
 3719SOL    HW112056   4.034   4.935   6.012
 3719SOL    HW212057   3.937   4.911   6.142
 3720SOL     OW12058   0.289   1.930   6.022
 3720SOL    HW112059   0.303   1.985   5.940
 3720SOL    HW212060   0.309   1.985   6.103
 3721SOL     OW12061   4.161   3.479   0.597
 3721SOL    HW112062   4.124   3.499   0.506
 3721SOL    HW212063   4.246   3.531   0.610
 3722SOL     OW12064   6.184   5.807   1.735
 3722SOL    HW112065   6.206   5.738   1.666
 3722SOL    HW212066   6.096   5.849   1.712
 3723SOL     OW12067   4.273   1.313   0.675
 3723SOL    HW112068   4.184   1.345   0.641
 3723SOL    HW212069   4.295   1.361   0.760
 3724SOL     OW12070   0.292   4.868   5.605
 3724SOL    HW112071   0.208   4.847   5.555
 3724SOL    HW212072   0.328   4.955   5.572
 3725SOL     OW12073   6.741   0.199   0.964
 3725SOL    HW112074   6.725   0.100   0.960
 3725SOL    HW212075   6.839   0.217   0.969
 3726SOL     OW12076   5.836   3.240   1.221
 3726SOL    HW112077   5.766   3.274   1.284
 3726SOL    HW212078   5.909   3.196   1.272
 3727SOL     OW12079   2.415   2.752   5.292
 3727SOL    HW112080   2.432   2.832   5.234
 3727SOL    HW212081   2.451   2.670   5.247
 3728SOL     OW12082   0.487   3.320   6.910
 3728SOL    HW112083   0.551   3.390   6.877
 3728SOL    HW212084   0.423   3.361   6.975
 3729SOL     OW12085   0.337   2.741   3.165
 3729SOL    HW112086   0.409   2.791   3.213
 3729SOL    HW212087   0.348   2.643   3.181
 3730SOL     OW12088   2.901   0.865   0.213
 3730SOL    HW112089   2.836   0.885   0.140
 3730SOL    HW212090   2.989   0.908   0.192
 3731SOL     OW12091   2.799   6.731   6.563
 3731SOL    HW112092   2.710   6.695   6.535
 3731SOL    HW212093   2.828   6.687   6.648
 3732SOL     OW12094   2.105   3.784   4.395
 3732SOL    HW112095   2.052   3.860   4.357
 3732SOL    HW212096   2.136   3.807   4.487
 3733SOL     OW12097   2.475   3.596   1.040
 3733SOL    HW112098   2.476   3.496   1.048
 3733SOL    HW212099   2.559   3.627   0.996
 3734SOL     OW12100   5.478   0.593   2.941
 3734SOL    HW112101   5.498   0.515   2.881
 3734SOL    HW212102   5.563   0.639   2.965
 3735SOL     OW12103   3.504   1.684   1.632
 3735SOL    HW112104   3.450   1.670   1.716
 3735SOL    HW212105   3.452   1.649   1.554
 3736SOL     OW12106   4.918   1.084   6.256
 3736SOL    HW112107   4.987   1.133   6.308
 3736SOL    HW212108   4.854   1.148   6.215
 3737SOL     OW12109   4.136   6.725   3.204
 3737SOL    HW112110   4.156   6.811   3.157
 3737SOL    HW212111   4.201   6.714   3.280
 3738SOL     OW12112   6.980   0.046   4.012
 3738SOL    HW112113   0.029   0.113   4.023
 3738SOL    HW212114   6.999   7.012   3.933
 3739SOL     OW12115   0.588   3.825   2.027
 3739SOL    HW112116   0.506   3.861   1.982
 3739SOL    HW212117   0.562   3.747   2.085
 3740SOL     OW12118   5.237   1.321   6.808
 3740SOL    HW112119   5.233   1.221   6.799
 3740SOL    HW212120   5.179   1.362   6.738
 3741SOL     OW12121   3.831   2.067   6.618
 3741SOL    HW112122   3.768   2.144   6.624
 3741SOL    HW212123   3.795   1.998   6.555
 3742SOL     OW12124   2.885   3.683   5.523
 3742SOL    HW112125   2.923   3.775   5.532
 3742SOL    HW212126   2.796   3.680   5.569
 3743SOL     OW12127   0.607   5.749   6.006
 3743SOL    HW112128   0.572   5.722   5.916
 3743SOL    HW212129   0.543   5.810   6.050
 3744SOL     OW12130   0.044   5.464   2.850
 3744SOL    HW112131   0.083   5.385   2.803
 3744SOL    HW212132   0.042   5.447   2.948
 3745SOL     OW12133   5.161   5.850   1.842
 3745SOL    HW112134   5.104   5.833   1.923
 3745SOL    HW212135   5.106   5.844   1.760
 3746SOL     OW12136   4.160   1.481   2.437
 3746SOL    HW112137   4.186   1.481   2.340
 3746SOL    HW212138   4.118   1.568   2.460
 3747SOL     OW12139   2.813   0.212   0.728
 3747SOL    HW112140   2.762   0.142   0.778
 3747SOL    HW212141   2.845   0.283   0.791
 3748SOL     OW12142   6.017   0.881   2.352
 3748SOL    HW112143   6.055   0.943   2.420
 3748SOL    HW212144   6.088   0.818   2.320
 3749SOL     OW12145   1.419   0.380   5.304
 3749SOL    HW112146   1.359   0.458   5.322
 3749SOL    HW212147   1.515   0.411   5.302
 3750SOL     OW12148   0.039   4.527   6.629
 3750SOL    HW112149   0.053   4.428   6.634
 3750SOL    HW212150   6.972   4.547   6.593
 3751SOL     OW12151   1.593   4.067   1.345
 3751SOL    HW112152   1.592   3.967   1.349
 3751SOL    HW212153   1.579   4.103   1.438
 3752SOL     OW12154   5.640   6.282   6.855
 3752SOL    HW112155   5.685   6.325   6.933
 3752SOL    HW212156   5.694   6.295   6.772
 3753SOL     OW12157   7.010   0.570   3.470
 3753SOL    HW112158   6.990   0.475   3.493
 3753SOL    HW212159   0.085   0.585   3.472
 3754SOL     OW12160   2.020   1.252   0.834
 3754SOL    HW112161   1.951   1.290   0.895
 3754SOL    HW212162   2.076   1.326   0.797
 3755SOL     OW12163   3.329   5.065   4.182
 3755SOL    HW112164   3.284   5.154   4.169
 3755SOL    HW212165   3.269   4.992   4.150
 3756SOL     OW12166   1.838   6.426   0.678
 3756SOL    HW112167   1.895   6.366   0.622
 3756SOL    HW212168   1.854   6.522   0.653
 3757SOL     OW12169   0.147   4.427   1.028
 3757SOL    HW112170   0.235   4.405   0.984
 3757SOL    HW212171   0.100   4.343   1.052
 3758SOL     OW12172   2.263   6.987   4.294
 3758SOL    HW112173   2.265   6.913   4.226
 3758SOL    HW212174   2.172   6.990   4.337
 3759SOL     OW12175   5.074   0.391   4.038
 3759SOL    HW112176   5.103   0.338   3.959
 3759SOL    HW212177   5.152   0.441   4.075
 3760SOL     OW12178   1.358   0.928   3.170
 3760SOL    HW112179   1.288   0.861   3.192
 3760SOL    HW212180   1.410   0.951   3.252
 3761SOL     OW12181   4.919   1.334   4.753
 3761SOL    HW112182   5.013   1.320   4.721
 3761SOL    HW212183   4.921   1.367   4.848
 3762SOL     OW12184   6.843   2.921   3.575
 3762SOL    HW112185   6.855   3.018   3.592
 3762SOL    HW212186   6.932   2.875   3.576
 3763SOL     OW12187   0.776   4.364   7.023
 3763SOL    HW112188   0.699   4.353   0.061
 3763SOL    HW212189   0.782   4.285   6.962
 3764SOL     OW12190   2.557   0.594   2.842
 3764SOL    HW112191   2.461   0.604   2.817
 3764SOL    HW212192   2.612   0.662   2.794
 3765SOL     OW12193   5.510   2.555   2.791
 3765SOL    HW112194   5.464   2.511   2.868
 3765SOL    HW212195   5.607   2.567   2.812
 3766SOL     OW12196   1.380   3.312   1.963
 3766SOL    HW112197   1.349   3.218   1.981
 3766SOL    HW212198   1.444   3.340   2.034
 3767SOL     OW12199   1.434   5.629   6.313
 3767SOL    HW112200   1.457   5.541   6.353
 3767SOL    HW212201   1.335   5.638   6.305
 3768SOL     OW12202   1.737   0.023   2.428
 3768SOL    HW112203   1.687   0.104   2.398
 3768SOL    HW212204   1.764   6.993   2.349
 3769SOL     OW12205   5.151   5.653   4.219
 3769SOL    HW112206   5.147   5.561   4.258
 3769SOL    HW212207   5.245   5.677   4.198
 3770SOL     OW12208   2.341   0.669   1.248
 3770SOL    HW112209   2.381   0.620   1.326
 3770SOL    HW212210   2.362   0.619   1.164
 3771SOL     OW12211   6.366   5.443   5.466
 3771SOL    HW112212   6.276   5.403   5.484
 3771SOL    HW212213   6.388   5.432   5.369
 3772SOL     OW12214   1.539   6.031   1.486
 3772SOL    HW112215   1.504   6.005   1.576
 3772SOL    HW212216   1.463   6.043   1.422
 3773SOL     OW12217   5.305   5.277   6.804
 3773SOL    HW112218   5.302   5.231   6.893
 3773SOL    HW212219   5.283   5.211   6.732
 3774SOL     OW12220   6.694   5.006   1.669
 3774SOL    HW112221   6.721   5.057   1.587
 3774SOL    HW212222   6.653   5.069   1.735
 3775SOL     OW12223   4.568   5.235   4.996
 3775SOL    HW112224   4.487   5.292   5.006
 3775SOL    HW212225   4.640   5.286   4.948
 3776SOL     OW12226   3.970   2.681   5.987
 3776SOL    HW112227   3.988   2.710   6.080
 3776SOL    HW212228   3.928   2.590   5.988
 3777SOL     OW12229   3.134   4.982   4.531
 3777SOL    HW112230   3.064   5.049   4.557
 3777SOL    HW212231   3.093   4.910   4.477
 3778SOL     OW12232   3.725   5.707   6.573
 3778SOL    HW112233   3.677   5.794   6.583
 3778SOL    HW212234   3.809   5.709   6.627
 3779SOL     OW12235   6.991   4.799   6.764
 3779SOL    HW112236   6.975   4.856   6.683
 3779SOL    HW212237   7.001   4.704   6.736
 3780SOL     OW12238   5.791   3.416   1.931
 3780SOL    HW112239   5.780   3.447   1.836
 3780SOL    HW212240   5.775   3.494   1.992
 3781SOL     OW12241   2.346   6.018   4.861
 3781SOL    HW112242   2.303   5.934   4.895
 3781SOL    HW212243   2.445   6.011   4.871
 3782SOL     OW12244   3.923   5.058   1.144
 3782SOL    HW112245   3.878   5.125   1.203
 3782SOL    HW212246   3.853   5.003   1.097
 3783SOL     OW12247   4.639   5.489   4.538
 3783SOL    HW112248   4.637   5.396   4.575
 3783SOL    HW212249   4.588   5.492   4.452
 3784SOL     OW12250   5.997   2.879   4.844
 3784SOL    HW112251   5.970   2.975   4.849
 3784SOL    HW212252   5.953   2.835   4.766
 3785SOL     OW12253   1.489   2.882   3.397
 3785SOL    HW112254   1.409   2.824   3.413
 3785SOL    HW212255   1.462   2.978   3.405
 3786SOL     OW12256   2.182   3.280   4.669
 3786SOL    HW112257   2.217   3.366   4.632
 3786SOL    HW212258   2.117   3.300   4.742
 3787SOL     OW12259   5.209   6.622   3.875
 3787SOL    HW112260   5.226   6.634   3.778
 3787SOL    HW212261   5.294   6.639   3.926
 3788SOL     OW12262   5.085   2.507   5.501
 3788SOL    HW112263   4.989   2.481   5.512
 3788SOL    HW212264   5.107   2.582   5.564
 3789SOL     OW12265   2.601   2.735   1.298
 3789SOL    HW112266   2.660   2.773   1.228
 3789SOL    HW212267   2.507   2.733   1.265
 3790SOL     OW12268   0.705   6.493   1.632
 3790SOL    HW112269   0.624   6.438   1.609
 3790SOL    HW212270   0.726   6.482   1.729
 3791SOL     OW12271   5.163   0.895   5.830
 3791SOL    HW112272   5.123   0.974   5.876
 3791SOL    HW212273   5.246   0.867   5.878
 3792SOL     OW12274   6.674   0.193   4.298
 3792SOL    HW112275   6.708   0.195   4.204
 3792SOL    HW212276   6.745   0.155   4.358
 3793SOL     OW12277   4.113   4.971   0.439
 3793SOL    HW112278   4.023   5.006   0.466
 3793SOL    HW212279   4.114   4.872   0.450
 3794SOL     OW12280   0.622   4.797   6.188
 3794SOL    HW112281   0.538   4.850   6.186
 3794SOL    HW212282   0.626   4.744   6.273
 3795SOL     OW12283   3.026   6.546   1.019
 3795SOL    HW112284   2.966   6.469   1.038
 3795SOL    HW212285   2.984   6.631   1.050
 3796SOL     OW12286   4.346   1.099   0.535
 3796SOL    HW112287   4.437   1.123   0.501
 3796SOL    HW212288   4.314   1.171   0.597
 3797SOL     OW12289   0.285   3.667   1.620
 3797SOL    HW112290   0.279   3.603   1.543
 3797SOL    HW212291   0.241   3.753   1.595
 3798SOL     OW12292   1.303   5.228   3.820
 3798SOL    HW112293   1.397   5.248   3.795
 3798SOL    HW212294   1.301   5.166   3.898
 3799SOL     OW12295   0.012   0.985   3.321
 3799SOL    HW112296   6.953   0.932   3.340
 3799SOL    HW212297   7.024   1.035   3.235
 3800SOL     OW12298   5.650   2.169   3.172
 3800SOL    HW112299   5.727   2.210   3.122
 3800SOL    HW212300   5.573   2.157   3.111
 3801SOL     OW12301   6.250   1.187   1.352
 3801SOL    HW112302   6.255   1.207   1.254
 3801SOL    HW212303   6.183   1.115   1.368
 3802SOL     OW12304   5.926   3.639   1.801
 3802SOL    HW112305   5.998   3.647   1.869
 3802SOL    HW212306   5.904   3.729   1.764
 3803SOL     OW12307   3.420   4.160   4.466
 3803SOL    HW112308   3.422   4.063   4.441
 3803SOL    HW212309   3.326   4.189   4.480
 3804SOL     OW12310   4.035   6.000   3.601
 3804SOL    HW112311   4.092   5.954   3.669
 3804SOL    HW212312   3.939   5.977   3.618
 3805SOL     OW12313   2.439   2.494   6.692
 3805SOL    HW112314   2.485   2.406   6.705
 3805SOL    HW212315   2.364   2.502   6.758
 3806SOL     OW12316   2.534   5.136   1.370
 3806SOL    HW112317   2.566   5.059   1.316
 3806SOL    HW212318   2.490   5.103   1.453
 3807SOL     OW12319   1.688   4.119   3.883
 3807SOL    HW112320   1.633   4.056   3.939
 3807SOL    HW212321   1.760   4.160   3.940
 3808SOL     OW12322   2.820   6.630   5.547
 3808SOL    HW112323   2.860   6.699   5.608
 3808SOL    HW212324   2.786   6.553   5.602
 3809SOL     OW12325   5.343   2.008   1.789
 3809SOL    HW112326   5.259   1.957   1.770
 3809SOL    HW212327   5.347   2.030   1.887
 3810SOL     OW12328   4.913   2.149   2.787
 3810SOL    HW112329   4.834   2.210   2.792
 3810SOL    HW212330   4.994   2.196   2.823
 3811SOL     OW12331   0.257   5.463   5.308
 3811SOL    HW112332   0.329   5.415   5.359
 3811SOL    HW212333   0.249   5.425   5.217
 3812SOL     OW12334   4.897   5.314   0.620
 3812SOL    HW112335   4.859   5.230   0.582
 3812SOL    HW212336   4.936   5.296   0.710
 3813SOL     OW12337   6.205   4.579   0.202
 3813SOL    HW112338   6.255   4.493   0.215
 3813SOL    HW212339   6.126   4.563   0.143
 3814SOL     OW12340   0.102   0.502   4.767
 3814SOL    HW112341   0.033   0.439   4.802
 3814SOL    HW212342   0.062   0.592   4.755
 3815SOL     OW12343   6.527   3.804   5.975
 3815SOL    HW112344   6.501   3.900   5.964
 3815SOL    HW212345   6.624   3.793   5.954
 3816SOL     OW12346   6.530   6.073   1.571
 3816SOL    HW112347   6.451   6.127   1.599
 3816SOL    HW212348   6.552   6.093   1.476
 3817SOL     OW12349   4.525   3.429   1.738
 3817SOL    HW112350   4.577   3.515   1.737
 3817SOL    HW212351   4.427   3.450   1.733
 3818SOL     OW12352   5.997   6.087   2.499
 3818SOL    HW112353   6.075   6.079   2.561
 3818SOL    HW212354   6.028   6.069   2.405
 3819SOL     OW12355   5.955   3.665   3.784
 3819SOL    HW112356   5.889   3.729   3.822
 3819SOL    HW212357   6.024   3.643   3.853
 3820SOL     OW12358   3.153   6.047   4.997
 3820SOL    HW112359   3.209   6.037   5.079
 3820SOL    HW212360   3.133   6.144   4.981
 3821SOL     OW12361   1.001   0.641   0.167
 3821SOL    HW112362   0.940   0.628   0.089
 3821SOL    HW212363   1.094   0.616   0.141
 3822SOL     OW12364   4.725   0.489   1.917
 3822SOL    HW112365   4.673   0.415   1.958
 3822SOL    HW212366   4.818   0.490   1.955
 3823SOL     OW12367   5.849   6.001   6.101
 3823SOL    HW112368   5.751   5.985   6.090
 3823SOL    HW212369   5.892   5.918   6.138
 3824SOL     OW12370   2.381   2.929   0.233
 3824SOL    HW112371   2.442   2.966   0.163
 3824SOL    HW212372   2.299   2.892   0.191
 3825SOL     OW12373   1.018   4.841   5.721
 3825SOL    HW112374   1.042   4.760   5.775
 3825SOL    HW212375   0.972   4.813   5.637
 3826SOL     OW12376   5.643   4.249   4.206
 3826SOL    HW112377   5.596   4.307   4.140
 3826SOL    HW212378   5.644   4.294   4.295
 3827SOL     OW12379   0.718   1.995   0.426
 3827SOL    HW112380   0.755   1.904   0.445
 3827SOL    HW212381   0.705   2.045   0.512
 3828SOL     OW12382   3.991   3.398   3.627
 3828SOL    HW112383   4.073   3.452   3.648
 3828SOL    HW212384   3.972   3.336   3.703
 3829SOL     OW12385   1.167   3.644   1.601
 3829SOL    HW112386   1.142   3.711   1.531
 3829SOL    HW212387   1.180   3.691   1.688
 3830SOL     OW12388   5.802   0.495   3.779
 3830SOL    HW112389   5.840   0.568   3.835
 3830SOL    HW212390   5.826   0.406   3.818
 3831SOL     OW12391   4.621   2.072   3.586
 3831SOL    HW112392   4.665   2.008   3.649
 3831SOL    HW212393   4.528   2.090   3.617
 3832SOL     OW12394   6.713   1.061   3.133
 3832SOL    HW112395   6.714   1.044   3.232
 3832SOL    HW212396   6.633   1.018   3.092
 3833SOL     OW12397   1.570   2.212   5.380
 3833SOL    HW112398   1.618   2.156   5.313
 3833SOL    HW212399   1.580   2.170   5.471
 3834SOL     OW12400   4.860   3.844   1.025
 3834SOL    HW112401   4.875   3.769   1.090
 3834SOL    HW212402   4.926   3.917   1.043
 3835SOL     OW12403   4.242   5.706   5.133
 3835SOL    HW112404   4.154   5.660   5.117
 3835SOL    HW212405   4.246   5.789   5.079
 3836SOL     OW12406   7.011   6.196   5.726
 3836SOL    HW112407   6.960   6.265   5.674
 3836SOL    HW212408   0.072   6.236   5.761
 3837SOL     OW12409   4.806   4.529   5.801
 3837SOL    HW112410   4.789   4.617   5.846
 3837SOL    HW212411   4.868   4.543   5.724
 3838SOL     OW12412   0.833   0.673   4.593
 3838SOL    HW112413   0.753   0.714   4.637
 3838SOL    HW212414   0.859   0.727   4.513
 3839SOL     OW12415   5.101   0.661   3.523
 3839SOL    HW112416   5.090   0.760   3.517
 3839SOL    HW212417   5.058   0.627   3.606
 3840SOL     OW12418   2.514   1.473   6.477
 3840SOL    HW112419   2.528   1.566   6.512
 3840SOL    HW212420   2.520   1.474   6.377
 3841SOL     OW12421   5.992   4.481   4.221
 3841SOL    HW112422   6.085   4.516   4.212
 3841SOL    HW212423   5.931   4.556   4.248
 3842SOL     OW12424   1.754   3.705   5.102
 3842SOL    HW112425   1.807   3.767   5.160
 3842SOL    HW212426   1.708   3.637   5.160
 3843SOL     OW12427   5.052   2.337   0.052
 3843SOL    HW112428   5.097   2.255   0.016
 3843SOL    HW212429   5.104   2.372   0.130
 3844SOL     OW12430   0.437   6.864   1.564
 3844SOL    HW112431   0.510   6.830   1.504
 3844SOL    HW212432   0.474   6.936   1.623
 3845SOL     OW12433   2.100   5.386   0.532
 3845SOL    HW112434   2.015   5.339   0.508
 3845SOL    HW212435   2.082   5.484   0.538
 3846SOL     OW12436   0.556   3.037   3.212
 3846SOL    HW112437   0.626   3.092   3.257
 3846SOL    HW212438   0.499   3.095   3.154
 3847SOL     OW12439   6.768   1.834   0.051
 3847SOL    HW112440   6.843   1.815   7.011
 3847SOL    HW212441   6.731   1.749   0.086
 3848SOL     OW12442   5.474   3.833   2.499
 3848SOL    HW112443   5.549   3.770   2.476
 3848SOL    HW212444   5.469   3.906   2.431
 3849SOL     OW12445   6.948   4.767   6.150
 3849SOL    HW112446   6.979   4.757   6.055
 3849SOL    HW212447   6.914   4.860   6.164
 3850SOL     OW12448   2.966   2.438   1.452
 3850SOL    HW112449   2.956   2.361   1.515
 3850SOL    HW212450   2.981   2.403   1.359
 3851SOL     OW12451   0.267   6.476   2.383
 3851SOL    HW112452   0.263   6.573   2.361
 3851SOL    HW212453   0.212   6.458   2.465
 3852SOL     OW12454   2.164   6.763   5.571
 3852SOL    HW112455   2.239   6.731   5.513
 3852SOL    HW212456   2.149   6.699   5.646
 3853SOL     OW12457   2.920   6.850   3.145
 3853SOL    HW112458   3.008   6.884   3.179
 3853SOL    HW212459   2.919   6.855   3.046
 3854SOL     OW12460   1.223   2.275   2.234
 3854SOL    HW112461   1.162   2.242   2.163
 3854SOL    HW212462   1.178   2.349   2.284
 3855SOL     OW12463   3.559   6.609   0.319
 3855SOL    HW112464   3.472   6.595   0.272
 3855SOL    HW212465   3.552   6.689   0.379
 3856SOL     OW12466   0.165   3.038   6.894
 3856SOL    HW112467   0.243   3.091   6.861
 3856SOL    HW212468   0.194   2.978   6.968
 3857SOL     OW12469   2.029   0.590   6.350
 3857SOL    HW112470   1.981   0.632   6.427
 3857SOL    HW212471   2.022   0.490   6.358
 3858SOL     OW12472   4.496   0.557   3.863
 3858SOL    HW112473   4.577   0.504   3.888
 3858SOL    HW212474   4.460   0.525   3.775
 3859SOL     OW12475   6.269   0.151   2.110
 3859SOL    HW112476   6.341   0.160   2.041
 3859SOL    HW212477   6.310   0.145   2.201
 3860SOL     OW12478   1.504   6.824   3.836
 3860SOL    HW112479   1.428   6.796   3.777
 3860SOL    HW212480   1.470   6.885   3.908
 3861SOL     OW12481   2.968   6.047   1.586
 3861SOL    HW112482   2.896   5.984   1.616
 3861SOL    HW212483   2.988   6.032   1.489
 3862SOL     OW12484   1.982   0.154   3.865
 3862SOL    HW112485   1.941   0.069   3.899
 3862SOL    HW212486   2.066   0.173   3.917
 3863SOL     OW12487   3.688   0.122   0.468
 3863SOL    HW112488   3.625   0.194   0.440
 3863SOL    HW212489   3.778   0.139   0.427
 3864SOL     OW12490   2.194   0.559   5.006
 3864SOL    HW112491   2.232   0.581   4.916
 3864SOL    HW212492   2.134   0.480   4.998
 3865SOL     OW12493   3.577   0.711   0.465
 3865SOL    HW112494   3.675   0.723   0.482
 3865SOL    HW212495   3.526   0.784   0.510
 3866SOL     OW12496   2.815   2.186   6.644
 3866SOL    HW112497   2.868   2.243   6.707
 3866SOL    HW212498   2.819   2.091   6.674
 3867SOL     OW12499   0.602   3.320   2.026
 3867SOL    HW112500   0.630   3.389   1.959
 3867SOL    HW212501   0.505   3.331   2.047
 3868SOL     OW12502   4.542   0.615   0.314
 3868SOL    HW112503   4.544   0.638   0.411
 3868SOL    HW212504   4.622   0.560   0.292
 3869SOL     OW12505   5.779   2.159   3.599
 3869SOL    HW112506   5.837   2.113   3.666
 3869SOL    HW212507   5.734   2.237   3.643
 3870SOL     OW12508   0.461   0.630   4.371
 3870SOL    HW112509   0.425   0.583   4.451
 3870SOL    HW212510   0.446   0.728   4.380
 3871SOL     OW12511   2.650   4.999   4.895
 3871SOL    HW112512   2.647   5.087   4.846
 3871SOL    HW212513   2.704   4.934   4.843
 3872SOL     OW12514   2.774   3.595   5.261
 3872SOL    HW112515   2.722   3.511   5.278
 3872SOL    HW212516   2.850   3.601   5.326
 3873SOL     OW12517   4.584   1.816   0.384
 3873SOL    HW112518   4.671   1.859   0.407
 3873SOL    HW212519   4.523   1.821   0.463
 3874SOL     OW12520   2.752   0.964   6.942
 3874SOL    HW112521   2.698   0.949   6.859
 3874SOL    HW212522   2.830   0.901   6.943
 3875SOL     OW12523   1.236   2.400   6.130
 3875SOL    HW112524   1.275   2.315   6.166
 3875SOL    HW212525   1.294   2.477   6.154
 3876SOL     OW12526   4.092   5.290   1.669
 3876SOL    HW112527   4.077   5.258   1.575
 3876SOL    HW212528   4.187   5.275   1.695
 3877SOL     OW12529   6.336   1.388   6.666
 3877SOL    HW112530   6.277   1.359   6.741
 3877SOL    HW212531   6.383   1.473   6.691
 3878SOL     OW12532   4.716   0.784   4.457
 3878SOL    HW112533   4.665   0.709   4.415
 3878SOL    HW212534   4.664   0.869   4.448
 3879SOL     OW12535   5.646   5.500   0.737
 3879SOL    HW112536   5.739   5.463   0.743
 3879SOL    HW212537   5.612   5.491   0.643
 3880SOL     OW12538   4.365   4.803   4.053
 3880SOL    HW112539   4.326   4.890   4.080
 3880SOL    HW212540   4.464   4.812   4.045
 3881SOL     OW12541   0.986   4.051   0.429
 3881SOL    HW112542   1.039   4.004   0.359
 3881SOL    HW212543   0.936   3.984   0.484
 3882SOL     OW12544   0.981   1.834   6.850
 3882SOL    HW112545   0.957   1.737   6.862
 3882SOL    HW212546   1.079   1.842   6.836
 3883SOL     OW12547   5.325   5.978   2.831
 3883SOL    HW112548   5.391   5.979   2.756
 3883SOL    HW212549   5.320   6.069   2.872
 3884SOL     OW12550   0.778   4.881   1.962
 3884SOL    HW112551   0.853   4.947   1.969
 3884SOL    HW212552   0.718   4.891   2.042
 3885SOL     OW12553   5.654   5.816   2.966
 3885SOL    HW112554   5.701   5.775   3.044
 3885SOL    HW212555   5.647   5.915   2.981
 3886SOL     OW12556   3.564   6.540   5.747
 3886SOL    HW112557   3.522   6.476   5.682
 3886SOL    HW212558   3.547   6.509   5.840
 3887SOL     OW12559   0.327   6.725   2.241
 3887SOL    HW112560   0.387   6.788   2.290
 3887SOL    HW212561   0.357   6.716   2.146
 3888SOL     OW12562   6.033   5.612   4.335
 3888SOL    HW112563   6.030   5.522   4.378
 3888SOL    HW212564   6.123   5.653   4.351
 3889SOL     OW12565   4.784   3.559   6.539
 3889SOL    HW112566   4.817   3.560   6.633
 3889SOL    HW212567   4.759   3.466   6.513
 3890SOL     OW12568   5.295   2.931   4.082
 3890SOL    HW112569   5.365   2.982   4.132
 3890SOL    HW212570   5.212   2.925   4.137
 3891SOL     OW12571   6.429   5.388   3.073
 3891SOL    HW112572   6.397   5.341   2.990
 3891SOL    HW212573   6.483   5.467   3.048
 3892SOL     OW12574   0.072   1.807   1.225
 3892SOL    HW112575   0.077   1.906   1.234
 3892SOL    HW212576   0.005   1.770   1.289
 3893SOL     OW12577   4.127   3.406   2.023
 3893SOL    HW112578   4.063   3.428   2.097
 3893SOL    HW212579   4.114   3.470   1.948
 3894SOL     OW12580   4.350   0.723   6.145
 3894SOL    HW112581   4.448   0.733   6.124
 3894SOL    HW212582   4.340   0.675   6.233
 3895SOL     OW12583   1.884   0.075   4.613
 3895SOL    HW112584   1.915   0.146   4.676
 3895SOL    HW212585   1.784   0.072   4.612
 3896SOL     OW12586   0.678   0.607   6.786
 3896SOL    HW112587   0.754   0.550   6.755
 3896SOL    HW212588   0.595   0.582   6.737
 3897SOL     OW12589   4.963   6.481   1.730
 3897SOL    HW112590   5.049   6.517   1.696
 3897SOL    HW212591   4.894   6.553   1.730
 3898SOL     OW12592   4.179   2.750   0.460
 3898SOL    HW112593   4.219   2.780   0.547
 3898SOL    HW212594   4.247   2.759   0.388
 3899SOL     OW12595   3.495   6.394   6.493
 3899SOL    HW112596   3.542   6.356   6.413
 3899SOL    HW212597   3.427   6.328   6.526
 3900SOL     OW12598   5.071   3.693   3.309
 3900SOL    HW112599   5.036   3.688   3.215
 3900SOL    HW212600   5.068   3.788   3.341
 3901SOL     OW12601   2.765   0.255   0.079
 3901SOL    HW112602   2.695   0.198   0.036
 3901SOL    HW212603   2.810   0.203   0.151
 3902SOL     OW12604   6.046   3.097   2.625
 3902SOL    HW112605   6.134   3.068   2.661
 3902SOL    HW212606   6.025   3.189   2.659
 3903SOL     OW12607   3.288   5.503   6.548
 3903SOL    HW112608   3.191   5.527   6.547
 3903SOL    HW212609   3.300   5.412   6.509
 3904SOL     OW12610   0.964   0.582   6.921
 3904SOL    HW112611   0.978   0.676   6.889
 3904SOL    HW212612   1.039   0.524   6.889
 3905SOL     OW12613   6.644   5.889   5.289
 3905SOL    HW112614   6.703   5.968   5.304
 3905SOL    HW212615   6.684   5.808   5.330
 3906SOL     OW12616   6.181   6.471   5.652
 3906SOL    HW112617   6.244   6.479   5.575
 3906SOL    HW212618   6.181   6.556   5.704
 3907SOL     OW12619   6.334   0.996   4.007
 3907SOL    HW112620   6.346   0.904   4.043
 3907SOL    HW212621   6.402   1.015   3.937
 3908SOL     OW12622   1.606   2.811   5.884
 3908SOL    HW112623   1.644   2.732   5.837
 3908SOL    HW212624   1.639   2.895   5.841
 3909SOL     OW12625   6.020   5.285   4.165
 3909SOL    HW112626   5.993   5.308   4.259
 3909SOL    HW212627   6.119   5.297   4.155
 3910SOL     OW12628   4.051   3.838   3.082
 3910SOL    HW112629   3.982   3.853   3.153
 3910SOL    HW212630   4.120   3.911   3.087
 3911SOL     OW12631   6.231   2.064   5.605
 3911SOL    HW112632   6.195   2.147   5.646
 3911SOL    HW212633   6.299   2.023   5.666
 3912SOL     OW12634   5.409   2.638   6.230
 3912SOL    HW112635   5.464   2.555   6.240
 3912SOL    HW212636   5.375   2.644   6.137
 3913SOL     OW12637   1.111   6.716   0.475
 3913SOL    HW112638   1.192   6.687   0.527
 3913SOL    HW212639   1.104   6.816   0.477
 3914SOL     OW12640   3.279   5.993   6.262
 3914SOL    HW112641   3.203   5.986   6.198
 3914SOL    HW212642   3.365   5.979   6.213
 3915SOL     OW12643   6.557   5.720   1.457
 3915SOL    HW112644   6.656   5.706   1.453
 3915SOL    HW212645   6.535   5.774   1.538
 3916SOL     OW12646   1.374   7.022   3.016
 3916SOL    HW112647   1.373   0.098   3.013
 3916SOL    HW212648   1.358   6.991   3.110
 3917SOL     OW12649   1.850   0.066   6.747
 3917SOL    HW112650   1.893   0.122   6.677
 3917SOL    HW212651   1.843   6.996   6.715
 3918SOL     OW12652   5.446   3.760   1.303
 3918SOL    HW112653   5.416   3.856   1.307
 3918SOL    HW212654   5.429   3.716   1.391
 3919SOL     OW12655   3.199   6.834   0.213
 3919SOL    HW112656   3.255   6.787   0.281
 3919SOL    HW212657   3.152   6.766   0.156
 3920SOL     OW12658   2.159   1.610   6.777
 3920SOL    HW112659   2.177   1.676   6.850
 3920SOL    HW212660   2.214   1.528   6.793
 3921SOL     OW12661   1.570   3.696   1.649
 3921SOL    HW112662   1.569   3.610   1.701
 3921SOL    HW212663   1.530   3.769   1.704
 3922SOL     OW12664   0.940   4.832   1.224
 3922SOL    HW112665   0.968   4.835   1.319
 3922SOL    HW212666   0.880   4.753   1.209
 3923SOL     OW12667   0.045   0.332   0.124
 3923SOL    HW112668   0.034   0.238   0.092
 3923SOL    HW212669   0.070   0.331   0.221
 3924SOL     OW12670   6.969   4.733   4.638
 3924SOL    HW112671   6.878   4.692   4.643
 3924SOL    HW212672   7.012   4.728   4.728
 3925SOL     OW12673   1.833   5.390   2.510
 3925SOL    HW112674   1.743   5.434   2.509
 3925SOL    HW212675   1.869   5.391   2.603
 3926SOL     OW12676   4.549   4.518   2.131
 3926SOL    HW112677   4.609   4.584   2.086
 3926SOL    HW212678   4.524   4.445   2.067
 3927SOL     OW12679   0.879   3.546   6.372
 3927SOL    HW112680   0.890   3.506   6.463
 3927SOL    HW212681   0.961   3.599   6.349
 3928SOL     OW12682   5.804   5.640   6.531
 3928SOL    HW112683   5.875   5.579   6.495
 3928SOL    HW212684   5.784   5.615   6.626
 3929SOL     OW12685   0.794   1.692   5.031
 3929SOL    HW112686   0.869   1.723   5.090
 3929SOL    HW212687   0.799   1.741   4.944
 3930SOL     OW12688   2.289   1.507   3.301
 3930SOL    HW112689   2.380   1.508   3.261
 3930SOL    HW212690   2.287   1.563   3.383
 3931SOL     OW12691   6.141   1.405   1.470
 3931SOL    HW112692   6.102   1.448   1.389
 3931SOL    HW212693   6.189   1.322   1.445
 3932SOL     OW12694   1.480   2.324   4.354
 3932SOL    HW112695   1.448   2.409   4.313
 3932SOL    HW212696   1.441   2.246   4.304
 3933SOL     OW12697   1.029   6.796   5.777
 3933SOL    HW112698   0.948   6.853   5.786
 3933SOL    HW212699   1.008   6.716   5.721
 3934SOL     OW12700   5.327   0.581   6.113
 3934SOL    HW112701   5.257   0.510   6.111
 3934SOL    HW212702   5.315   0.638   6.195
 3935SOL     OW12703   4.488   0.686   0.584
 3935SOL    HW112704   4.396   0.704   0.550
 3935SOL    HW212705   4.513   0.757   0.650
 3936SOL     OW12706   0.085   5.137   3.593
 3936SOL    HW112707   0.017   5.068   3.622
 3936SOL    HW212708   0.170   5.123   3.644
 3937SOL     OW12709   0.616   1.255   2.790
 3937SOL    HW112710   0.553   1.187   2.828
 3937SOL    HW212711   0.573   1.345   2.793
 3938SOL     OW12712   0.337   1.870   2.601
 3938SOL    HW112713   0.264   1.815   2.642
 3938SOL    HW212714   0.419   1.815   2.590
 3939SOL     OW12715   2.830   1.744   1.894
 3939SOL    HW112716   2.803   1.814   1.827
 3939SOL    HW212717   2.898   1.783   1.956
 3940SOL     OW12718   3.477   3.569   1.201
 3940SOL    HW112719   3.533   3.591   1.281
 3940SOL    HW212720   3.380   3.570   1.226
 3941SOL     OW12721   4.054   4.182   6.141
 3941SOL    HW112722   3.959   4.167   6.169
 3941SOL    HW212723   4.057   4.252   6.069
 3942SOL     OW12724   6.687   6.428   6.211
 3942SOL    HW112725   6.693   6.412   6.310
 3942SOL    HW212726   6.700   6.525   6.192
 3943SOL     OW12727   0.354   3.736   4.568
 3943SOL    HW112728   0.401   3.774   4.647
 3943SOL    HW212729   0.415   3.737   4.489
 3944SOL     OW12730   4.976   2.613   4.520
 3944SOL    HW112731   4.883   2.641   4.496
 3944SOL    HW212732   5.030   2.694   4.542
 3945SOL     OW12733   6.917   0.585   1.035
 3945SOL    HW112734   6.849   0.545   1.096
 3945SOL    HW212735   6.929   0.528   0.955
 3946SOL     OW12736   4.054   4.981   3.177
 3946SOL    HW112737   4.054   4.896   3.126
 3946SOL    HW212738   3.963   4.997   3.216
 3947SOL     OW12739   5.951   5.864   6.812
 3947SOL    HW112740   5.903   5.911   6.739
 3947SOL    HW212741   5.888   5.848   6.889
 3948SOL     OW12742   6.059   4.479   1.531
 3948SOL    HW112743   5.999   4.542   1.580
 3948SOL    HW212744   6.007   4.429   1.462
 3949SOL     OW12745   4.677   6.343   3.509
 3949SOL    HW112746   4.656   6.255   3.467
 3949SOL    HW212747   4.749   6.331   3.577
 3950SOL     OW12748   1.221   5.777   0.700
 3950SOL    HW112749   1.227   5.866   0.743
 3950SOL    HW212750   1.265   5.781   0.610
 3951SOL     OW12751   5.544   0.368   1.895
 3951SOL    HW112752   5.629   0.339   1.851
 3951SOL    HW212753   5.545   0.341   1.992
 3952SOL     OW12754   6.257   2.508   0.615
 3952SOL    HW112755   6.243   2.585   0.677
 3952SOL    HW212756   6.210   2.427   0.651
 3953SOL     OW12757   3.867   3.901   2.263
 3953SOL    HW112758   3.791   3.951   2.220
 3953SOL    HW212759   3.879   3.934   2.357
 3954SOL     OW12760   3.853   4.711   5.732
 3954SOL    HW112761   3.940   4.739   5.773
 3954SOL    HW212762   3.868   4.631   5.674
 3955SOL     OW12763   3.893   0.617   5.327
 3955SOL    HW112764   3.951   0.695   5.303
 3955SOL    HW212765   3.816   0.611   5.264
 3956SOL     OW12766   1.883   0.904   1.700
 3956SOL    HW112767   1.937   0.945   1.626
 3956SOL    HW212768   1.910   0.808   1.712
 3957SOL     OW12769   3.506   0.518   4.567
 3957SOL    HW112770   3.540   0.477   4.652
 3957SOL    HW212771   3.406   0.510   4.564
 3958SOL     OW12772   5.986   1.457   5.279
 3958SOL    HW112773   5.981   1.556   5.289
 3958SOL    HW212774   6.055   1.434   5.210
 3959SOL     OW12775   4.859   5.130   0.821
 3959SOL    HW112776   4.783   5.157   0.880
 3959SOL    HW212777   4.842   5.038   0.785
 3960SOL     OW12778   5.690   2.403   4.301
 3960SOL    HW112779   5.691   2.322   4.359
 3960SOL    HW212780   5.611   2.459   4.324
 3961SOL     OW12781   5.661   6.500   3.808
 3961SOL    HW112782   5.759   6.521   3.807
 3961SOL    HW212783   5.627   6.510   3.902
 3962SOL     OW12784   0.499   5.060   5.506
 3962SOL    HW112785   0.585   5.032   5.549
 3962SOL    HW212786   0.503   5.039   5.408
 3963SOL     OW12787   4.520   6.581   2.045
 3963SOL    HW112788   4.510   6.528   1.961
 3963SOL    HW212789   4.499   6.677   2.027
 3964SOL     OW12790   4.930   3.606   3.538
 3964SOL    HW112791   4.978   3.619   3.451
 3964SOL    HW212792   4.878   3.689   3.560
 3965SOL     OW12793   4.872   3.855   4.644
 3965SOL    HW112794   4.886   3.767   4.690
 3965SOL    HW212795   4.888   3.844   4.546
 3966SOL     OW12796   2.664   6.377   6.589
 3966SOL    HW112797   2.707   6.396   6.677
 3966SOL    HW212798   2.724   6.318   6.535
 3967SOL     OW12799   2.253   4.805   3.131
 3967SOL    HW112800   2.155   4.810   3.115
 3967SOL    HW212801   2.291   4.897   3.137
 3968SOL     OW12802   4.297   0.118   1.073
 3968SOL    HW112803   4.374   0.152   1.019
 3968SOL    HW212804   4.231   0.074   1.013
 3969SOL     OW12805   1.863   5.857   1.938
 3969SOL    HW112806   1.832   5.924   2.005
 3969SOL    HW212807   1.846   5.764   1.973
 3970SOL     OW12808   5.489   6.273   2.594
 3970SOL    HW112809   5.424   6.208   2.556
 3970SOL    HW212810   5.519   6.337   2.523
 3971SOL     OW12811   2.663   5.874   3.983
 3971SOL    HW112812   2.574   5.871   4.028
 3971SOL    HW212813   2.720   5.944   4.026
 3972SOL     OW12814   2.272   4.083   0.141
 3972SOL    HW112815   2.307   4.072   0.234
 3972SOL    HW212816   2.272   4.180   0.117
 3973SOL     OW12817   1.183   5.768   0.407
 3973SOL    HW112818   1.216   5.768   0.313
 3973SOL    HW212819   1.120   5.691   0.420
 3974SOL     OW12820   2.046   1.021   5.534
 3974SOL    HW112821   2.027   0.930   5.497
 3974SOL    HW212822   2.143   1.027   5.559
 3975SOL     OW12823   5.230   1.981   6.141
 3975SOL    HW112824   5.200   1.891   6.111
 3975SOL    HW212825   5.153   2.045   6.137
 3976SOL     OW12826   2.383   5.605   2.351
 3976SOL    HW112827   2.308   5.548   2.318
 3976SOL    HW212828   2.370   5.625   2.449
 3977SOL     OW12829   0.615   3.614   6.869
 3977SOL    HW112830   0.639   3.643   6.777
 3977SOL    HW212831   0.536   3.666   6.902
 3978SOL     OW12832   6.785   4.370   3.926
 3978SOL    HW112833   6.774   4.272   3.907
 3978SOL    HW212834   6.757   4.423   3.847
 3979SOL     OW12835   3.653   0.081   6.414
 3979SOL    HW112836   3.698   7.017   6.423
 3979SOL    HW212837   3.559   0.074   6.449
 3980SOL     OW12838   5.842   6.457   5.907
 3980SOL    HW112839   5.796   6.373   5.879
 3980SOL    HW212840   5.941   6.445   5.898
 3981SOL     OW12841   4.882   6.578   0.008
 3981SOL    HW112842   4.871   6.496   0.064
 3981SOL    HW212843   4.927   6.649   0.062
 3982SOL     OW12844   2.752   6.332   2.855
 3982SOL    HW112845   2.785   6.399   2.922
 3982SOL    HW212846   2.747   6.242   2.899
 3983SOL     OW12847   4.138   5.462   3.549
 3983SOL    HW112848   4.096   5.444   3.460
 3983SOL    HW212849   4.068   5.494   3.613
 3984SOL     OW12850   6.445   2.294   2.711
 3984SOL    HW112851   6.363   2.266   2.660
 3984SOL    HW212852   6.424   2.297   2.808
 3985SOL     OW12853   3.585   5.359   6.219
 3985SOL    HW112854   3.596   5.260   6.206
 3985SOL    HW212855   3.494   5.386   6.188
 3986SOL     OW12856   5.336   0.984   1.915
 3986SOL    HW112857   5.399   0.908   1.904
 3986SOL    HW212858   5.373   1.064   1.867
 3987SOL     OW12859   3.000   4.895   5.609
 3987SOL    HW112860   2.925   4.839   5.574
 3987SOL    HW212861   3.011   4.976   5.551
 3988SOL     OW12862   4.753   5.372   0.133
 3988SOL    HW112863   4.834   5.366   0.074
 3988SOL    HW212864   4.709   5.460   0.119
 3989SOL     OW12865   6.347   2.158   6.769
 3989SOL    HW112866   6.391   2.112   6.846
 3989SOL    HW212867   6.396   2.242   6.748
 3990SOL     OW12868   5.543   2.481   2.237
 3990SOL    HW112869   5.445   2.467   2.228
 3990SOL    HW212870   5.579   2.517   2.151
 3991SOL     OW12871   6.966   0.601   3.185
 3991SOL    HW112872   6.947   0.607   3.283
 3991SOL    HW212873   0.034   0.565   3.171
 3992SOL     OW12874   3.307   2.482   0.846
 3992SOL    HW112875   3.304   2.393   0.892
 3992SOL    HW212876   3.336   2.552   0.911
 3993SOL     OW12877   1.670   3.335   1.626
 3993SOL    HW112878   1.663   3.397   1.704
 3993SOL    HW212879   1.620   3.374   1.548
 3994SOL     OW12880   2.682   6.732   5.333
 3994SOL    HW112881   2.749   6.788   5.285
 3994SOL    HW212882   2.728   6.677   5.404
 3995SOL     OW12883   1.691   2.983   5.083
 3995SOL    HW112884   1.747   2.900   5.085
 3995SOL    HW212885   1.750   3.063   5.074
 3996SOL     OW12886   6.931   6.343   4.610
 3996SOL    HW112887   0.005   6.336   4.593
 3996SOL    HW212888   6.913   6.420   4.671
 3997SOL     OW12889   5.578   0.303   4.400
 3997SOL    HW112890   5.494   0.252   4.382
 3997SOL    HW212891   5.652   0.238   4.423
 3998SOL     OW12892   4.464   2.279   3.755
 3998SOL    HW112893   4.386   2.236   3.801
 3998SOL    HW212894   4.477   2.371   3.790
 3999SOL     OW12895   5.927   2.249   5.052
 3999SOL    HW112896   5.919   2.157   5.092
 3999SOL    HW212897   5.838   2.295   5.058
 4000SOL     OW12898   3.905   0.006   3.658
 4000SOL    HW112899   3.944   0.026   3.748
 4000SOL    HW212900   3.805   0.012   3.663
 4001SOL     OW12901   0.968   2.436   3.374
 4001SOL    HW112902   1.064   2.446   3.351
 4001SOL    HW212903   0.934   2.349   3.339
 4002SOL     OW12904   2.037   3.624   1.969
 4002SOL    HW112905   2.011   3.612   1.873
 4002SOL    HW212906   2.116   3.566   1.989
 4003SOL     OW12907   3.515   1.038   4.785
 4003SOL    HW112908   3.585   1.108   4.803
 4003SOL    HW212909   3.437   1.080   4.738
 4004SOL     OW12910   6.824   1.640   5.234
 4004SOL    HW112911   6.780   1.692   5.162
 4004SOL    HW212912   6.758   1.577   5.275
 4005SOL     OW12913   5.124   5.280   6.117
 4005SOL    HW112914   5.198   5.346   6.126
 4005SOL    HW212915   5.070   5.300   6.036
 4006SOL     OW12916   3.431   5.931   2.212
 4006SOL    HW112917   3.373   5.998   2.259
 4006SOL    HW212918   3.473   5.973   2.132
 4007SOL     OW12919   6.845   2.518   6.685
 4007SOL    HW112920   6.901   2.468   6.619
 4007SOL    HW212921   6.854   2.477   6.775
 4008SOL     OW12922   2.861   2.360   5.342
 4008SOL    HW112923   2.837   2.453   5.315
 4008SOL    HW212924   2.842   2.347   5.439
 4009SOL     OW12925   3.979   3.201   2.801
 4009SOL    HW112926   4.006   3.182   2.707
 4009SOL    HW212927   3.961   3.115   2.849
 4010SOL     OW12928   2.085   3.116   6.348
 4010SOL    HW112929   2.033   3.183   6.402
 4010SOL    HW212930   2.081   3.027   6.393
 4011SOL     OW12931   0.687   2.390   1.073
 4011SOL    HW112932   0.691   2.411   1.170
 4011SOL    HW212933   0.738   2.459   1.022
 4012SOL     OW12934   6.642   3.205   3.626
 4012SOL    HW112935   6.698   3.269   3.680
 4012SOL    HW212936   6.644   3.233   3.530
 4013SOL     OW12937   4.721   2.529   3.454
 4013SOL    HW112938   4.627   2.495   3.446
 4013SOL    HW212939   4.721   2.612   3.510
 4014SOL     OW12940   5.647   5.835   2.445
 4014SOL    HW112941   5.664   5.886   2.530
 4014SOL    HW212942   5.720   5.768   2.432
 4015SOL     OW12943   4.590   3.680   6.793
 4015SOL    HW112944   4.651   3.608   6.825
 4015SOL    HW212945   4.645   3.752   6.749
 4016SOL     OW12946   3.070   6.581   5.062
 4016SOL    HW112947   3.013   6.637   5.001
 4016SOL    HW212948   3.043   6.596   5.157
 4017SOL     OW12949   6.516   6.128   6.878
 4017SOL    HW112950   6.554   6.036   6.881
 4017SOL    HW212951   6.419   6.123   6.852
 4018SOL     OW12952   2.758   6.109   0.718
 4018SOL    HW112953   2.761   6.206   0.693
 4018SOL    HW212954   2.665   6.083   0.743
 4019SOL     OW12955   5.443   5.211   3.537
 4019SOL    HW112956   5.398   5.136   3.585
 4019SOL    HW212957   5.417   5.208   3.440
 4020SOL     OW12958   5.311   2.372   4.969
 4020SOL    HW112959   5.240   2.302   4.959
 4020SOL    HW212960   5.274   2.449   5.021
 4021SOL     OW12961   3.906   4.605   6.643
 4021SOL    HW112962   3.916   4.682   6.579
 4021SOL    HW212963   3.928   4.520   6.595
 4022SOL     OW12964   5.169   0.333   1.312
 4022SOL    HW112965   5.209   0.266   1.250
 4022SOL    HW212966   5.178   0.301   1.406
 4023SOL     OW12967   6.748   0.343   5.254
 4023SOL    HW112968   6.826   0.386   5.209
 4023SOL    HW212969   6.780   0.265   5.309
 4024SOL     OW12970   3.868   4.889   4.598
 4024SOL    HW112971   3.833   4.869   4.689
 4024SOL    HW212972   3.925   4.814   4.566
 4025SOL     OW12973   1.254   4.018   2.809
 4025SOL    HW112974   1.158   4.020   2.836
 4025SOL    HW212975   1.301   3.944   2.856
 4026SOL     OW12976   5.263   6.689   4.460
 4026SOL    HW112977   5.192   6.641   4.510
 4026SOL    HW212978   5.250   6.788   4.470
 4027SOL     OW12979   4.446   5.126   1.441
 4027SOL    HW112980   4.363   5.077   1.413
 4027SOL    HW212981   4.426   5.224   1.447
 4028SOL     OW12982   2.854   6.746   4.062
 4028SOL    HW112983   2.868   6.839   4.027
 4028SOL    HW212984   2.764   6.740   4.104
 4029SOL     OW12985   2.243   4.136   3.917
 4029SOL    HW112986   2.263   4.093   4.005
 4029SOL    HW212987   2.324   4.184   3.884
 4030SOL     OW12988   1.223   1.345   6.077
 4030SOL    HW112989   1.270   1.388   6.001
 4030SOL    HW212990   1.138   1.303   6.045
 4031SOL     OW12991   4.929   5.353   4.442
 4031SOL    HW112992   5.010   5.405   4.416
 4031SOL    HW212993   4.864   5.413   4.488
 4032SOL     OW12994   4.942   0.052   4.485
 4032SOL    HW112995   4.851   0.073   4.451
 4032SOL    HW212996   4.944   0.065   4.584
 4033SOL     OW12997   3.145   3.518   5.346
 4033SOL    HW112998   3.235   3.475   5.348
 4033SOL    HW212999   3.114   3.534   5.440
 4034SOL     OW13000   6.575   2.549   4.171
 4034SOL    HW113001   6.653   2.611   4.168
 4034SOL    HW213002   6.590   2.480   4.242
 4035SOL     OW13003   0.277   5.567   0.991
 4035SOL    HW113004   0.232   5.649   0.956
 4035SOL    HW213005   0.375   5.584   1.000
 4036SOL     OW13006   6.504   6.012   2.953
 4036SOL    HW113007   6.472   6.107   2.949
 4036SOL    HW213008   6.569   5.995   2.879
 4037SOL     OW13009   6.546   4.349   6.074
 4037SOL    HW113010   6.635   4.390   6.055
 4037SOL    HW213011   6.474   4.417   6.057
 4038SOL     OW13012   6.540   5.041   3.678
 4038SOL    HW113013   6.556   4.977   3.602
 4038SOL    HW213014   6.627   5.082   3.704
 4039SOL     OW13015   4.483   5.745   0.697
 4039SOL    HW113016   4.562   5.702   0.654
 4039SOL    HW213017   4.511   5.833   0.736
 4040SOL     OW13018   3.619   6.460   1.013
 4040SOL    HW113019   3.641   6.403   0.933
 4040SOL    HW213020   3.605   6.401   1.093
 4041SOL     OW13021   1.110   0.271   3.682
 4041SOL    HW113022   1.064   0.186   3.707
 4041SOL    HW213023   1.051   0.324   3.621
 4042SOL     OW13024   5.730   5.374   2.306
 4042SOL    HW113025   5.825   5.365   2.277
 4042SOL    HW213026   5.670   5.358   2.228
 4043SOL     OW13027   5.750   3.853   2.051
 4043SOL    HW113028   5.769   3.948   2.075
 4043SOL    HW213029   5.826   3.795   2.082
 4044SOL     OW13030   6.825   5.833   3.051
 4044SOL    HW113031   6.923   5.834   3.034
 4044SOL    HW213032   6.801   5.911   3.109
 4045SOL     OW13033   1.971   4.634   5.568
 4045SOL    HW113034   2.026   4.685   5.633
 4045SOL    HW213035   2.009   4.542   5.558
 4046SOL     OW13036   0.437   3.150   1.033
 4046SOL    HW113037   0.419   3.240   1.072
 4046SOL    HW213038   0.536   3.132   1.035
 4047SOL     OW13039   3.119   4.084   1.831
 4047SOL    HW113040   3.199   4.091   1.891
 4047SOL    HW213041   3.122   3.998   1.781
 4048SOL     OW13042   4.734   2.253   1.268
 4048SOL    HW113043   4.779   2.288   1.349
 4048SOL    HW213044   4.682   2.171   1.291
 4049SOL     OW13045   6.703   0.789   5.460
 4049SOL    HW113046   6.784   0.775   5.518
 4049SOL    HW213047   6.659   0.875   5.484
 4050SOL     OW13048   2.448   0.489   1.497
 4050SOL    HW113049   2.468   0.392   1.496
 4050SOL    HW213050   2.477   0.529   1.584
 4051SOL     OW13051   1.893   4.208   0.968
 4051SOL    HW113052   1.838   4.161   1.037
 4051SOL    HW213053   1.842   4.286   0.933
 4052SOL     OW13054   1.667   6.302   1.624
 4052SOL    HW113055   1.675   6.221   1.683
 4052SOL    HW213056   1.753   6.353   1.624
 4053SOL     OW13057   2.755   4.701   3.115
 4053SOL    HW113058   2.786   4.611   3.085
 4053SOL    HW213059   2.714   4.693   3.206
 4054SOL     OW13060   5.387   1.787   6.894
 4054SOL    HW113061   5.469   1.837   6.864
 4054SOL    HW213062   5.380   1.791   6.993
 4055SOL     OW13063   4.270   3.043   0.603
 4055SOL    HW113064   4.212   2.973   0.644
 4055SOL    HW213065   4.343   3.068   0.667
 4056SOL     OW13066   3.841   3.188   1.138
 4056SOL    HW113067   3.770   3.196   1.208
 4056SOL    HW213068   3.821   3.111   1.078
 4057SOL     OW13069   6.347   2.169   0.289
 4057SOL    HW113070   6.357   2.087   0.345
 4057SOL    HW213071   6.368   2.250   0.343
 4058SOL     OW13072   1.507   1.155   4.788
 4058SOL    HW113073   1.498   1.085   4.717
 4058SOL    HW213074   1.593   1.204   4.776
 4059SOL     OW13075   6.016   1.789   5.138
 4059SOL    HW113076   6.010   1.762   5.234
 4059SOL    HW213077   5.940   1.850   5.115
 4060SOL     OW13078   3.836   6.004   4.967
 4060SOL    HW113079   3.814   5.934   5.036
 4060SOL    HW213080   3.846   5.961   4.878
 4061SOL     OW13081   2.592   3.080   1.554
 4061SOL    HW113082   2.610   3.080   1.456
 4061SOL    HW213083   2.495   3.065   1.570
 4062SOL     OW13084   3.887   6.156   2.909
 4062SOL    HW113085   3.916   6.250   2.898
 4062SOL    HW213086   3.883   6.112   2.819
 4063SOL     OW13087   2.638   5.383   6.245
 4063SOL    HW113088   2.538   5.390   6.242
 4063SOL    HW213089   2.667   5.303   6.193
 4064SOL     OW13090   6.040   0.171   4.283
 4064SOL    HW113091   6.025   0.245   4.217
 4064SOL    HW213092   5.987   0.090   4.254
 4065SOL     OW13093   6.279   4.803   0.308
 4065SOL    HW113094   6.375   4.781   0.325
 4065SOL    HW213095   6.238   4.731   0.252
 4066SOL     OW13096   6.413   5.057   1.803
 4066SOL    HW113097   6.324   5.052   1.850
 4066SOL    HW213098   6.398   5.065   1.705
 4067SOL     OW13099   6.139   0.653   1.445
 4067SOL    HW113100   6.080   0.660   1.526
 4067SOL    HW213101   6.084   0.626   1.366
 4068SOL     OW13102   5.826   0.945   4.910
 4068SOL    HW113103   5.842   0.857   4.865
 4068SOL    HW213104   5.728   0.963   4.914
 4069SOL     OW13105   6.692   5.963   1.141
 4069SOL    HW113106   6.668   5.944   1.046
 4069SOL    HW213107   6.711   5.877   1.189
 4070SOL     OW13108   0.198   3.488   2.932
 4070SOL    HW113109   0.260   3.489   3.011
 4070SOL    HW213110   0.237   3.543   2.859
 4071SOL     OW13111   2.368   0.644   3.349
 4071SOL    HW113112   2.356   0.569   3.283
 4071SOL    HW213113   2.303   0.632   3.424
 4072SOL     OW13114   1.072   0.406   4.230
 4072SOL    HW113115   0.972   0.412   4.223
 4072SOL    HW213116   1.114   0.471   4.167
 4073SOL     OW13117   2.961   5.519   1.477
 4073SOL    HW113118   2.876   5.468   1.463
 4073SOL    HW213119   2.991   5.508   1.572
 4074SOL     OW13120   0.366   2.991   0.660
 4074SOL    HW113121   0.316   3.069   0.699
 4074SOL    HW213122   0.463   3.000   0.682
 4075SOL     OW13123   5.034   0.514   3.759
 4075SOL    HW113124   5.126   0.474   3.756
 4075SOL    HW213125   4.967   0.443   3.777
 4076SOL     OW13126   1.804   2.438   3.510
 4076SOL    HW113127   1.812   2.518   3.451
 4076SOL    HW213128   1.717   2.442   3.560
 4077SOL     OW13129   3.190   1.154   1.087
 4077SOL    HW113130   3.242   1.238   1.074
 4077SOL    HW213131   3.212   1.115   1.176
 4078SOL     OW13132   4.880   3.851   2.625
 4078SOL    HW113133   4.912   3.914   2.554
 4078SOL    HW213134   4.909   3.758   2.602
 4079SOL     OW13135   5.989   0.399   4.145
 4079SOL    HW113136   6.045   0.465   4.196
 4079SOL    HW213137   5.894   0.408   4.173
 4080SOL     OW13138   3.482   2.873   2.816
 4080SOL    HW113139   3.463   2.971   2.813
 4080SOL    HW213140   3.573   2.855   2.778
 4081SOL     OW13141   2.767   2.489   6.358
 4081SOL    HW113142   2.770   2.532   6.448
 4081SOL    HW213143   2.721   2.401   6.364
 4082SOL     OW13144   1.294   2.518   5.777
 4082SOL    HW113145   1.350   2.502   5.859
 4082SOL    HW213146   1.242   2.603   5.789
 4083SOL     OW13147   5.995   5.211   2.850
 4083SOL    HW113148   5.941   5.266   2.913
 4083SOL    HW213149   6.057   5.153   2.903
 4084SOL     OW13150   4.386   0.818   2.240
 4084SOL    HW113151   4.334   0.899   2.266
 4084SOL    HW213152   4.427   0.777   2.321
 4085SOL     OW13153   2.534   4.616   2.708
 4085SOL    HW113154   2.579   4.685   2.651
 4085SOL    HW213155   2.474   4.560   2.650
 4086SOL     OW13156   6.225   4.750   4.453
 4086SOL    HW113157   6.228   4.683   4.379
 4086SOL    HW213158   6.170   4.829   4.424
 4087SOL     OW13159   1.837   0.467   2.045
 4087SOL    HW113160   1.747   0.439   2.078
 4087SOL    HW213161   1.855   0.561   2.075
 4088SOL     OW13162   0.245   2.015   5.747
 4088SOL    HW113163   0.229   1.920   5.721
 4088SOL    HW213164   0.158   2.060   5.765
 4089SOL     OW13165   0.892   1.066   2.530
 4089SOL    HW113166   0.914   0.968   2.534
 4089SOL    HW213167   0.799   1.078   2.497
 4090SOL     OW13168   2.296   2.780   5.742
 4090SOL    HW113169   2.387   2.742   5.758
 4090SOL    HW213170   2.275   2.775   5.644
 4091SOL     OW13171   3.063   6.086   1.931
 4091SOL    HW113172   3.132   6.094   1.860
 4091SOL    HW213173   3.052   5.990   1.956
 4092SOL     OW13174   4.986   2.144   5.902
 4092SOL    HW113175   4.974   2.148   6.001
 4092SOL    HW213176   5.025   2.230   5.870
 4093SOL     OW13177   5.018   4.220   3.419
 4093SOL    HW113178   4.950   4.293   3.428
 4093SOL    HW213179   5.105   4.249   3.458
 4094SOL     OW13180   0.226   6.444   0.232
 4094SOL    HW113181   0.239   6.444   0.133
 4094SOL    HW213182   0.296   6.386   0.274
 4095SOL     OW13183   1.403   5.018   0.648
 4095SOL    HW113184   1.354   5.056   0.727
 4095SOL    HW213185   1.365   4.929   0.625
 4096SOL     OW13186   0.414   0.385   6.163
 4096SOL    HW113187   0.400   0.349   6.255
 4096SOL    HW213188   0.346   0.346   6.101
 4097SOL     OW13189   0.209   3.961   4.726
 4097SOL    HW113190   0.203   3.948   4.825
 4097SOL    HW213191   0.226   3.873   4.682
 4098SOL     OW13192   0.939   5.209   1.437
 4098SOL    HW113193   0.913   5.246   1.526
 4098SOL    HW213194   0.890   5.259   1.365
 4099SOL     OW13195   6.269   3.683   5.848
 4099SOL    HW113196   6.315   3.763   5.887
 4099SOL    HW213197   6.231   3.707   5.759
 4100SOL     OW13198   1.989   1.966   2.816
 4100SOL    HW113199   1.918   1.919   2.764
 4100SOL    HW213200   2.013   2.052   2.771
 4101SOL     OW13201   6.744   5.760   6.784
 4101SOL    HW113202   6.673   5.789   6.848
 4101SOL    HW213203   6.783   5.841   6.740
 4102SOL     OW13204   1.260   6.042   0.447
 4102SOL    HW113205   1.276   5.943   0.443
 4102SOL    HW213206   1.178   6.064   0.394
 4103SOL     OW13207   2.091   6.154   3.203
 4103SOL    HW113208   2.121   6.060   3.182
 4103SOL    HW213209   2.130   6.216   3.135
 4104SOL     OW13210   2.076   5.819   5.327
 4104SOL    HW113211   2.066   5.919   5.328
 4104SOL    HW213212   1.986   5.777   5.319
 4105SOL     OW13213   4.243   0.497   2.339
 4105SOL    HW113214   4.319   0.502   2.404
 4105SOL    HW213215   4.170   0.559   2.368
 4106SOL     OW13216   1.289   0.473   2.088
 4106SOL    HW113217   1.377   0.491   2.043
 4106SOL    HW213218   1.278   0.375   2.101
 4107SOL     OW13219   1.393   1.054   0.996
 4107SOL    HW113220   1.475   1.109   0.983
 4107SOL    HW213221   1.395   0.975   0.933
 4108SOL     OW13222   6.403   6.194   5.914
 4108SOL    HW113223   6.332   6.154   5.857
 4108SOL    HW213224   6.493   6.180   5.872
 4109SOL     OW13225   5.229   6.243   4.409
 4109SOL    HW113226   5.318   6.219   4.449
 4109SOL    HW213227   5.209   6.182   4.332
 4110SOL     OW13228   5.121   3.011   0.040
 4110SOL    HW113229   5.160   2.953   0.112
 4110SOL    HW213230   5.194   3.067   7.024
 4111SOL     OW13231   5.779   5.090   4.382
 4111SOL    HW113232   5.729   5.104   4.296
 4111SOL    HW213233   5.747   5.156   4.450
 4112SOL     OW13234   4.186   6.169   4.322
 4112SOL    HW113235   4.260   6.101   4.316
 4112SOL    HW213236   4.106   6.135   4.273
 4113SOL     OW13237   4.074   5.768   4.855
 4113SOL    HW113238   4.046   5.717   4.936
 4113SOL    HW213239   4.148   5.831   4.878
 4114SOL     OW13240   0.237   0.810   1.396
 4114SOL    HW113241   0.234   0.750   1.316
 4114SOL    HW213242   0.332   0.835   1.416
 4115SOL     OW13243   4.419   5.887   3.699
 4115SOL    HW113244   4.392   5.906   3.604
 4115SOL    HW213245   4.391   5.795   3.723
 4116SOL     OW13246   5.316   3.639   3.466
 4116SOL    HW113247   5.381   3.567   3.443
 4116SOL    HW213248   5.231   3.624   3.417
 4117SOL     OW13249   1.084   0.960   3.705
 4117SOL    HW113250   1.026   1.032   3.744
 4117SOL    HW213251   1.063   0.949   3.608
 4118SOL     OW13252   0.946   6.541   0.594
 4118SOL    HW113253   0.997   6.616   0.553
 4118SOL    HW213254   0.888   6.498   0.524
 4119SOL     OW13255   0.099   0.589   4.431
 4119SOL    HW113256   0.175   0.592   4.496
 4119SOL    HW213257   0.065   0.496   4.424
 4120SOL     OW13258   2.279   0.714   6.480
 4120SOL    HW113259   2.195   0.698   6.428
 4120SOL    HW213260   2.356   0.670   6.435
 4121SOL     OW13261   6.950   0.771   2.299
 4121SOL    HW113262   0.000   0.733   2.242
 4121SOL    HW213263   6.944   0.869   2.285
 4122SOL     OW13264   0.800   5.102   3.043
 4122SOL    HW113265   0.722   5.058   2.997
 4122SOL    HW213266   0.813   5.060   3.133
 4123SOL     OW13267   4.936   4.169   1.262
 4123SOL    HW113268   4.845   4.191   1.227
 4123SOL    HW213269   5.004   4.188   1.191
 4124SOL     OW13270   6.384   6.511   0.087
 4124SOL    HW113271   6.378   6.557   0.175
 4124SOL    HW213272   6.314   6.439   0.082
 4125SOL     OW13273   6.426   2.420   0.396
 4125SOL    HW113274   6.389   2.441   0.486
 4125SOL    HW213275   6.406   2.496   0.333
 4126SOL     OW13276   0.625   3.638   3.957
 4126SOL    HW113277   0.666   3.611   4.044
 4126SOL    HW213278   0.530   3.606   3.953
 4127SOL     OW13279   4.996   2.290   3.999
 4127SOL    HW113280   4.922   2.283   3.933
 4127SOL    HW213281   4.968   2.246   4.085
 4128SOL     OW13282   6.803   2.658   6.434
 4128SOL    HW113283   6.751   2.689   6.513
 4128SOL    HW213284   6.836   2.737   6.382
 4129SOL     OW13285   3.345   1.969   1.211
 4129SOL    HW113286   3.378   2.032   1.281
 4129SOL    HW213287   3.247   1.954   1.223
 4130SOL     OW13288   6.346   2.601   0.193
 4130SOL    HW113289   6.309   2.694   0.196
 4130SOL    HW213290   6.278   2.540   0.151
 4131SOL     OW13291   5.255   6.963   3.256
 4131SOL    HW113292   5.311   6.998   3.331
 4131SOL    HW213293   5.194   0.011   3.223
 4132SOL     OW13294   6.412   4.679   3.486
 4132SOL    HW113295   6.358   4.759   3.463
 4132SOL    HW213296   6.396   4.654   3.582
 4133SOL     OW13297   5.580   6.689   2.807
 4133SOL    HW113298   5.557   6.613   2.867
 4133SOL    HW213299   5.656   6.662   2.747
 4134SOL     OW13300   1.756   3.448   1.302
 4134SOL    HW113301   1.803   3.535   1.319
 4134SOL    HW213302   1.822   3.380   1.269
 4135SOL     OW13303   6.077   0.965   1.335
 4135SOL    HW113304   6.110   0.935   1.246
 4135SOL    HW213305   6.042   0.886   1.386
 4136SOL     OW13306   0.409   4.331   0.925
 4136SOL    HW113307   0.399   4.286   0.836
 4136SOL    HW213308   0.499   4.373   0.932
 4137SOL     OW13309   0.713   2.772   6.405
 4137SOL    HW113310   0.641   2.707   6.426
 4137SOL    HW213311   0.769   2.737   6.330
 4138SOL     OW13312   4.038   6.957   6.705
 4138SOL    HW113313   4.112   6.901   6.668
 4138SOL    HW213314   4.025   0.014   6.647
 4139SOL     OW13315   1.989   3.865   2.737
 4139SOL    HW113316   2.044   3.938   2.696
 4139SOL    HW213317   2.050   3.796   2.776
 4140SOL     OW13318   2.249   0.420   6.832
 4140SOL    HW113319   2.166   0.398   6.882
 4140SOL    HW213320   2.268   0.518   6.841
 4141SOL     OW13321   5.117   1.191   6.444
 4141SOL    HW113322   5.148   1.281   6.473
 4141SOL    HW213323   5.173   1.120   6.487
 4142SOL     OW13324   6.482   5.078   2.153
 4142SOL    HW113325   6.428   5.018   2.211
 4142SOL    HW213326   6.451   5.070   2.058
 4143SOL     OW13327   6.535   3.738   6.459
 4143SOL    HW113328   6.533   3.705   6.364
 4143SOL    HW213329   6.627   3.725   6.497
 4144SOL     OW13330   4.232   1.330   1.279
 4144SOL    HW113331   4.280   1.361   1.361
 4144SOL    HW213332   4.294   1.330   1.201
 4145SOL     OW13333   6.709   0.268   1.350
 4145SOL    HW113334   6.661   0.189   1.313
 4145SOL    HW213335   6.804   0.243   1.370
 4146SOL     OW13336   4.698   6.937   1.414
 4146SOL    HW113337   4.673   7.008   1.348
 4146SOL    HW213338   4.747   6.978   1.491
 4147SOL     OW13339   4.769   4.733   6.778
 4147SOL    HW113340   4.795   4.653   6.832
 4147SOL    HW213341   4.677   4.762   6.803
 4148SOL     OW13342   2.489   1.427   5.033
 4148SOL    HW113343   2.499   1.327   5.030
 4148SOL    HW213344   2.574   1.468   5.066
 4149SOL     OW13345   1.355   3.762   6.971
 4149SOL    HW113346   1.407   3.749   6.887
 4149SOL    HW213347   1.257   3.761   6.951
 4150SOL     OW13348   5.560   1.631   0.294
 4150SOL    HW113349   5.545   1.534   0.279
 4150SOL    HW213350   5.619   1.644   0.373
 4151SOL     OW13351   2.637   5.774   4.708
 4151SOL    HW113352   2.571   5.776   4.634
 4151SOL    HW213353   2.619   5.850   4.771
 4152SOL     OW13354   2.746   4.362   1.340
 4152SOL    HW113355   2.746   4.317   1.251
 4152SOL    HW213356   2.701   4.451   1.332
 4153SOL     OW13357   6.752   5.939   2.170
 4153SOL    HW113358   6.775   6.008   2.101
 4153SOL    HW213359   6.833   5.886   2.192
 4154SOL     OW13360   0.968   0.025   3.926
 4154SOL    HW113361   1.051   0.079   3.945
 4154SOL    HW213362   0.994   6.963   3.883
 4155SOL     OW13363   0.133   0.603   1.984
 4155SOL    HW113364   0.185   0.686   1.964
 4155SOL    HW213365   0.037   0.617   1.960
 4156SOL     OW13366   0.417   5.119   5.910
 4156SOL    HW113367   0.399   5.183   5.984
 4156SOL    HW213368   0.435   5.028   5.948
 4157SOL     OW13369   5.877   5.914   0.921
 4157SOL    HW113370   5.834   5.827   0.945
 4157SOL    HW213371   5.817   5.989   0.949
 4158SOL     OW13372   0.282   3.331   1.368
 4158SOL    HW113373   0.324   3.241   1.356
 4158SOL    HW213374   0.190   3.321   1.406
 4159SOL     OW13375   3.266   0.778   4.400
 4159SOL    HW113376   3.346   0.833   4.374
 4159SOL    HW213377   3.197   0.837   4.442
 4160SOL     OW13378   0.747   6.599   6.335
 4160SOL    HW113379   0.753   6.516   6.391
 4160SOL    HW213380   0.651   6.615   6.309
 4161SOL     OW13381   3.234   3.407   2.959
 4161SOL    HW113382   3.210   3.440   2.868
 4161SOL    HW213383   3.174   3.332   2.984
 4162SOL     OW13384   5.546   5.330   1.736
 4162SOL    HW113385   5.508   5.393   1.804
 4162SOL    HW213386   5.497   5.242   1.742
 4163SOL     OW13387   4.057   6.128   1.554
 4163SOL    HW113388   3.994   6.067   1.600
 4163SOL    HW213389   4.096   6.082   1.474
 4164SOL     OW13390   6.255   1.367   6.098
 4164SOL    HW113391   6.302   1.287   6.136
 4164SOL    HW213392   6.309   1.449   6.117
 4165SOL     OW13393   3.923   1.113   4.655
 4165SOL    HW113394   3.866   1.162   4.589
 4165SOL    HW213395   3.990   1.058   4.607
 4166SOL     OW13396   6.352   2.118   1.276
 4166SOL    HW113397   6.396   2.103   1.187
 4166SOL    HW213398   6.422   2.122   1.347
 4167SOL     OW13399   3.863   5.407   4.605
 4167SOL    HW113400   3.865   5.316   4.647
 4167SOL    HW213401   3.954   5.447   4.608
 4168SOL     OW13402   4.757   3.993   0.049
 4168SOL    HW113403   4.684   3.938   0.009
 4168SOL    HW213404   4.822   3.934   0.096
 4169SOL     OW13405   5.358   2.906   6.292
 4169SOL    HW113406   5.352   2.808   6.275
 4169SOL    HW213407   5.298   2.931   6.368
 4170SOL     OW13408   0.443   2.370   5.136
 4170SOL    HW113409   0.418   2.326   5.050
 4170SOL    HW213410   0.540   2.395   5.134
 4171SOL     OW13411   0.506   1.889   6.929
 4171SOL    HW113412   0.596   1.927   6.951
 4171SOL    HW213413   0.442   1.964   6.911
 4172SOL     OW13414   3.066   3.257   0.413
 4172SOL    HW113415   3.043   3.177   0.469
 4172SOL    HW213416   3.122   3.228   0.335
 4173SOL     OW13417   4.841   1.273   5.910
 4173SOL    HW113418   4.776   1.309   5.844
 4173SOL    HW213419   4.801   1.276   6.001
 4174SOL     OW13420   4.409   0.075   4.462
 4174SOL    HW113421   4.479   0.036   4.521
 4174SOL    HW213422   4.403   0.174   4.478
 4175SOL     OW13423   1.554   4.766   6.257
 4175SOL    HW113424   1.477   4.738   6.314
 4175SOL    HW213425   1.564   4.865   6.261
 4176SOL     OW13426   5.309   6.593   6.320
 4176SOL    HW113427   5.222   6.638   6.341
 4176SOL    HW213428   5.355   6.642   6.246
 4177SOL     OW13429   4.007   4.749   3.036
 4177SOL    HW113430   4.081   4.755   2.969
 4177SOL    HW213431   3.919   4.755   2.989
 4178SOL     OW13432   4.173   6.373   1.022
 4178SOL    HW113433   4.153   6.276   1.012
 4178SOL    HW213434   4.094   6.419   1.064
 4179SOL     OW13435   4.099   2.466   6.928
 4179SOL    HW113436   4.170   2.478   6.859
 4179SOL    HW213437   4.138   2.482   7.019
 4180SOL     OW13438   3.978   3.488   0.374
 4180SOL    HW113439   4.033   3.409   0.344
 4180SOL    HW213440   3.909   3.458   0.439
 4181SOL     OW13441   5.403   6.993   5.952
 4181SOL    HW113442   5.407   7.018   5.856
 4181SOL    HW213443   5.468   0.024   6.005
 4182SOL     OW13444   0.858   5.868   5.029
 4182SOL    HW113445   0.909   5.916   4.957
 4182SOL    HW213446   0.853   5.927   5.109
 4183SOL     OW13447   3.993   2.012   0.960
 4183SOL    HW113448   3.982   2.001   0.861
 4183SOL    HW213449   3.964   1.928   1.006
 4184SOL     OW13450   3.887   5.440   3.338
 4184SOL    HW113451   3.805   5.447   3.281
 4184SOL    HW213452   3.885   5.353   3.388
 4185SOL     OW13453   4.792   4.005   3.294
 4185SOL    HW113454   4.879   3.979   3.254
 4185SOL    HW213455   4.796   3.993   3.393
 4186SOL     OW13456   1.683   5.545   0.287
 4186SOL    HW113457   1.636   5.629   0.314
 4186SOL    HW213458   1.615   5.473   0.272
 4187SOL     OW13459   1.925   3.678   6.070
 4187SOL    HW113460   1.973   3.651   5.987
 4187SOL    HW213461   1.890   3.597   6.116
 4188SOL     OW13462   4.418   6.797   6.856
 4188SOL    HW113463   4.476   6.739   6.798
 4188SOL    HW213464   4.324   6.762   6.855
 4189SOL     OW13465   4.152   5.062   3.460
 4189SOL    HW113466   4.192   5.044   3.370
 4189SOL    HW213467   4.106   4.979   3.493
 4190SOL     OW13468   6.496   6.518   1.435
 4190SOL    HW113469   6.498   6.616   1.417
 4190SOL    HW213470   6.585   6.478   1.413
 4191SOL     OW13471   4.692   3.288   6.496
 4191SOL    HW113472   4.703   3.225   6.420
 4191SOL    HW213473   4.636   3.245   6.567
 4192SOL     OW13474   1.625   3.620   0.080
 4192SOL    HW113475   1.612   3.719   0.080
 4192SOL    HW213476   1.564   3.579   0.012
 4193SOL     OW13477   0.392   0.578   0.344
 4193SOL    HW113478   0.489   0.599   0.331
 4193SOL    HW213479   0.347   0.571   0.255
 4194SOL     OW13480   5.092   1.668   6.059
 4194SOL    HW113481   5.121   1.573   6.056
 4194SOL    HW213482   5.058   1.695   5.969
 4195SOL     OW13483   3.568   0.041   0.943
 4195SOL    HW113484   3.652   7.019   0.973
 4195SOL    HW213485   3.557   0.029   0.845
 4196SOL     OW13486   6.176   2.947   2.367
 4196SOL    HW113487   6.114   3.004   2.421
 4196SOL    HW213488   6.153   2.851   2.380
 4197SOL     OW13489   3.356   0.489   6.826
 4197SOL    HW113490   3.454   0.498   6.844
 4197SOL    HW213491   3.341   0.481   6.727
 4198SOL     OW13492   6.501   2.598   2.686
 4198SOL    HW113493   6.518   2.549   2.600
 4198SOL    HW213494   6.411   2.571   2.722
 4199SOL     OW13495   0.446   3.891   6.089
 4199SOL    HW113496   0.457   3.793   6.103
 4199SOL    HW213497   0.353   3.919   6.115
 4200SOL     OW13498   4.530   1.630   4.009
 4200SOL    HW113499   4.536   1.690   4.088
 4200SOL    HW213500   4.510   1.684   3.927
 4201SOL     OW13501   5.969   0.019   3.614
 4201SOL    HW113502   5.911   0.052   3.689
 4201SOL    HW213503   5.971   0.087   3.541
 4202SOL     OW13504   4.638   3.543   1.257
 4202SOL    HW113505   4.583   3.482   1.315
 4202SOL    HW213506   4.685   3.609   1.315
 4203SOL     OW13507   6.293   4.424   5.309
 4203SOL    HW113508   6.226   4.355   5.281
 4203SOL    HW213509   6.330   4.399   5.399
 4204SOL     OW13510   1.787   4.185   6.819
 4204SOL    HW113511   1.870   4.241   6.818
 4204SOL    HW213512   1.810   4.091   6.843
 4205SOL     OW13513   4.617   6.579   5.992
 4205SOL    HW113514   4.651   6.516   5.921
 4205SOL    HW213515   4.569   6.526   6.062
 4206SOL     OW13516   2.100   2.300   4.386
 4206SOL    HW113517   2.184   2.252   4.360
 4206SOL    HW213518   2.122   2.395   4.410
 4207SOL     OW13519   0.692   1.976   2.439
 4207SOL    HW113520   0.662   1.944   2.349
 4207SOL    HW213521   0.658   1.915   2.509
 4208SOL     OW13522   2.224   2.387   3.850
 4208SOL    HW113523   2.179   2.306   3.813
 4208SOL    HW213524   2.192   2.468   3.802
 4209SOL     OW13525   6.473   6.619   2.035
 4209SOL    HW113526   6.482   6.615   1.935
 4209SOL    HW213527   6.454   6.528   2.070
 4210SOL     OW13528   2.956   3.751   5.047
 4210SOL    HW113529   2.866   3.785   5.072
 4210SOL    HW213530   2.953   3.651   5.037
 4211SOL     OW13531   4.003   2.753   5.331
 4211SOL    HW113532   4.055   2.692   5.271
 4211SOL    HW213533   3.994   2.711   5.421
 4212SOL     OW13534   0.227   1.913   3.271
 4212SOL    HW113535   0.325   1.911   3.293
 4212SOL    HW213536   0.176   1.945   3.350
 4213SOL     OW13537   3.027   0.154   4.226
 4213SOL    HW113538   3.073   0.090   4.164
 4213SOL    HW213539   3.069   0.244   4.219
 4214SOL     OW13540   0.077   6.084   2.924
 4214SOL    HW113541   0.133   6.089   2.841
 4214SOL    HW213542   0.064   5.988   2.950
 4215SOL     OW13543   5.706   6.906   5.751
 4215SOL    HW113544   5.800   6.879   5.773
 4215SOL    HW213545   5.708   6.984   5.689
 4216SOL     OW13546   2.512   5.561   2.112
 4216SOL    HW113547   2.481   5.595   2.200
 4216SOL    HW213548   2.432   5.537   2.056
 4217SOL     OW13549   1.462   0.151   2.762
 4217SOL    HW113550   1.515   0.186   2.840
 4217SOL    HW213551   1.512   0.076   2.719
 4218SOL     OW13552   3.066   0.983   0.491
 4218SOL    HW113553   2.980   1.024   0.460
 4218SOL    HW213554   3.047   0.920   0.566
 4219SOL     OW13555   3.934   5.392   2.741
 4219SOL    HW113556   4.032   5.403   2.728
 4219SOL    HW213557   3.898   5.329   2.672
 4220SOL     OW13558   5.457   1.563   1.103
 4220SOL    HW113559   5.459   1.485   1.164
 4220SOL    HW213560   5.441   1.647   1.156
 4221SOL     OW13561   0.976   6.249   0.787
 4221SOL    HW113562   1.029   6.206   0.715
 4221SOL    HW213563   0.909   6.312   0.747
 4222SOL     OW13564   4.833   3.215   3.747
 4222SOL    HW113565   4.898   3.208   3.822
 4222SOL    HW213566   4.761   3.280   3.772
 4223SOL     OW13567   4.049   3.641   2.397
 4223SOL    HW113568   3.997   3.573   2.345
 4223SOL    HW213569   3.991   3.678   2.470
 4224SOL     OW13570   4.475   5.144   4.342
 4224SOL    HW113571   4.455   5.146   4.440
 4224SOL    HW213572   4.488   5.237   4.308
 4225SOL     OW13573   1.018   1.692   6.152
 4225SOL    HW113574   1.005   1.597   6.178
 4225SOL    HW213575   1.073   1.696   6.069
 4226SOL     OW13576   0.620   5.532   5.075
 4226SOL    HW113577   0.636   5.446   5.027
 4226SOL    HW213578   0.706   5.565   5.115
 4227SOL     OW13579   4.810   5.766   1.774
 4227SOL    HW113580   4.880   5.789   1.842
 4227SOL    HW213581   4.830   5.676   1.735
 4228SOL     OW13582   1.533   4.890   4.118
 4228SOL    HW113583   1.597   4.913   4.192
 4228SOL    HW213584   1.459   4.835   4.155
 4229SOL     OW13585   5.735   5.546   5.792
 4229SOL    HW113586   5.706   5.496   5.873
 4229SOL    HW213587   5.750   5.642   5.815
 4230SOL     OW13588   0.262   0.904   1.877
 4230SOL    HW113589   0.222   0.878   1.789
 4230SOL    HW213590   0.358   0.875   1.879
 4231SOL     OW13591   0.222   1.600   6.662
 4231SOL    HW113592   0.267   1.529   6.608
 4231SOL    HW213593   0.279   1.622   6.742
 4232SOL     OW13594   1.552   5.317   4.055
 4232SOL    HW113595   1.606   5.279   4.131
 4232SOL    HW213596   1.613   5.347   3.982
 4233SOL     OW13597   4.416   5.593   1.954
 4233SOL    HW113598   4.378   5.675   1.912
 4233SOL    HW213599   4.433   5.611   2.051
 4234SOL     OW13600   3.350   5.232   5.979
 4234SOL    HW113601   3.433   5.199   5.934
 4234SOL    HW213602   3.279   5.246   5.911
 4235SOL     OW13603   0.017   5.923   5.839
 4235SOL    HW113604   6.995   5.930   5.927
 4235SOL    HW213605   0.020   6.013   5.796
 4236SOL     OW13606   0.709   5.069   2.647
 4236SOL    HW113607   0.736   5.165   2.646
 4236SOL    HW213608   0.789   5.012   2.667
 4237SOL     OW13609   0.472   4.791   4.138
 4237SOL    HW113610   0.444   4.879   4.175
 4237SOL    HW213611   0.455   4.719   4.206
 4238SOL     OW13612   3.703   6.473   2.261
 4238SOL    HW113613   3.772   6.531   2.218
 4238SOL    HW213614   3.712   6.379   2.227
 4239SOL     OW13615   4.344   1.200   3.935
 4239SOL    HW113616   4.339   1.172   4.031
 4239SOL    HW213617   4.339   1.300   3.929
 4240SOL     OW13618   6.125   6.733   2.032
 4240SOL    HW113619   6.127   6.798   2.109
 4240SOL    HW213620   6.218   6.719   1.998
 4241SOL     OW13621   6.072   4.110   0.302
 4241SOL    HW113622   5.999   4.051   0.335
 4241SOL    HW213623   6.129   4.140   0.379
 4242SOL     OW13624   2.999   1.755   3.588
 4242SOL    HW113625   3.067   1.824   3.562
 4242SOL    HW213626   2.908   1.795   3.585
 4243SOL     OW13627   4.792   0.764   2.852
 4243SOL    HW113628   4.891   0.775   2.858
 4243SOL    HW213629   4.756   0.745   2.944
 4244SOL     OW13630   3.618   2.920   4.149
 4244SOL    HW113631   3.616   2.836   4.095
 4244SOL    HW213632   3.709   2.933   4.187
 4245SOL     OW13633   5.416   0.952   6.971
 4245SOL    HW113634   5.458   1.042   6.955
 4245SOL    HW213635   5.341   0.961   0.013
 4246SOL     OW13636   0.315   3.473   0.391
 4246SOL    HW113637   0.365   3.388   0.377
 4246SOL    HW213638   0.364   3.548   0.347
 4247SOL     OW13639   0.257   5.786   4.950
 4247SOL    HW113640   0.355   5.769   4.939
 4247SOL    HW213641   0.227   5.751   5.039
 4248SOL     OW13642   2.024   3.812   5.710
 4248SOL    HW113643   1.945   3.872   5.721
 4248SOL    HW213644   2.062   3.823   5.618
 4249SOL     OW13645   5.566   4.229   5.943
 4249SOL    HW113646   5.544   4.309   5.886
 4249SOL    HW213647   5.487   4.204   5.998
 4250SOL     OW13648   0.809   4.804   2.700
 4250SOL    HW113649   0.892   4.858   2.715
 4250SOL    HW213650   0.754   4.805   2.784
 4251SOL     OW13651   5.327   3.757   0.274
 4251SOL    HW113652   5.313   3.849   0.236
 4251SOL    HW213653   5.249   3.733   0.331
 4252SOL     OW13654   0.292   5.997   5.201
 4252SOL    HW113655   0.225   6.041   5.141
 4252SOL    HW213656   0.285   5.898   5.193
 4253SOL     OW13657   4.333   6.340   2.955
 4253SOL    HW113658   4.299   6.256   2.998
 4253SOL    HW213659   4.324   6.333   2.856
 4254SOL     OW13660   2.864   4.150   1.461
 4254SOL    HW113661   2.898   4.194   1.544
 4254SOL    HW213662   2.793   4.208   1.420
 4255SOL     OW13663   0.320   2.060   4.335
 4255SOL    HW113664   0.324   2.123   4.413
 4255SOL    HW213665   0.302   1.967   4.369
 4256SOL     OW13666   1.961   0.660   1.824
 4256SOL    HW113667   1.872   0.624   1.850
 4256SOL    HW213668   1.999   0.715   1.898
 4257SOL     OW13669   4.173   2.212   4.601
 4257SOL    HW113670   4.198   2.272   4.525
 4257SOL    HW213671   4.197   2.257   4.687
 4258SOL     OW13672   5.239   6.772   2.290
 4258SOL    HW113673   5.141   6.770   2.308
 4258SOL    HW213674   5.269   6.682   2.258
 4259SOL     OW13675   1.820   2.759   0.955
 4259SOL    HW113676   1.756   2.806   1.016
 4259SOL    HW213677   1.913   2.771   0.989
 4260SOL     OW13678   4.694   5.942   3.557
 4260SOL    HW113679   4.707   5.866   3.493
 4260SOL    HW213680   4.639   5.911   3.634
 4261SOL     OW13681   2.190   1.147   2.843
 4261SOL    HW113682   2.201   1.154   2.744
 4261SOL    HW213683   2.152   1.058   2.866
 4262SOL     OW13684   0.048   5.923   6.322
 4262SOL    HW113685   0.063   5.858   6.396
 4262SOL    HW213686   0.049   6.016   6.358
 4263SOL     OW13687   3.764   5.210   5.912
 4263SOL    HW113688   3.732   5.122   5.949
 4263SOL    HW213689   3.863   5.207   5.901
 4264SOL     OW13690   0.250   6.829   0.668
 4264SOL    HW113691   0.187   6.829   0.590
 4264SOL    HW213692   0.270   6.735   0.694
 4265SOL     OW13693   6.973   2.500   0.313
 4265SOL    HW113694   6.883   2.522   0.350
 4265SOL    HW213695   0.020   2.531   0.377
 4266SOL     OW13696   3.276   4.918   0.940
 4266SOL    HW113697   3.304   4.994   0.881
 4266SOL    HW213698   3.219   4.952   1.014
 4267SOL     OW13699   1.910   4.354   5.797
 4267SOL    HW113700   1.929   4.429   5.861
 4267SOL    HW213701   1.918   4.267   5.846
 4268SOL     OW13702   1.402   1.222   0.258
 4268SOL    HW113703   1.340   1.144   0.247
 4268SOL    HW213704   1.488   1.190   0.298
 4269SOL     OW13705   3.080   3.756   0.629
 4269SOL    HW113706   3.097   3.781   0.534
 4269SOL    HW213707   3.077   3.657   0.638
 4270SOL     OW13708   3.687   2.779   5.601
 4270SOL    HW113709   3.626   2.839   5.653
 4270SOL    HW213710   3.664   2.684   5.619
 4271SOL     OW13711   1.047   6.833   6.866
 4271SOL    HW113712   1.011   6.916   6.823
 4271SOL    HW213713   1.119   6.794   6.809
 4272SOL     OW13714   7.014   4.051   3.952
 4272SOL    HW113715   0.035   4.005   3.876
 4272SOL    HW213716   6.915   4.051   3.938
 4273SOL     OW13717   5.572   6.073   4.684
 4273SOL    HW113718   5.486   6.071   4.735
 4273SOL    HW213719   5.647   6.098   4.745
 4274SOL     OW13720   2.204   0.421   3.883
 4274SOL    HW113721   2.189   0.364   3.963
 4274SOL    HW213722   2.187   0.517   3.907
 4275SOL     OW13723   1.190   6.720   6.631
 4275SOL    HW113724   1.189   6.627   6.667
 4275SOL    HW213725   1.181   6.717   6.531
 4276SOL     OW13726   1.884   4.083   2.206
 4276SOL    HW113727   1.854   4.142   2.131
 4276SOL    HW213728   1.824   4.096   2.285
 4277SOL     OW13729   0.968   5.516   4.031
 4277SOL    HW113730   0.881   5.556   4.001
 4277SOL    HW213731   0.998   5.448   3.965
 4278SOL     OW13732   0.277   6.329   5.382
 4278SOL    HW113733   0.272   6.230   5.395
 4278SOL    HW213734   0.307   6.349   5.288
 4279SOL     OW13735   3.275   5.602   4.186
 4279SOL    HW113736   3.229   5.513   4.193
 4279SOL    HW213737   3.356   5.602   4.245
 4280SOL     OW13738   4.923   3.512   3.817
 4280SOL    HW113739   4.960   3.582   3.877
 4280SOL    HW213740   4.931   3.541   3.722
 4281SOL     OW13741   2.410   3.872   5.455
 4281SOL    HW113742   2.449   3.887   5.364
 4281SOL    HW213743   2.311   3.859   5.448
 4282SOL     OW13744   0.865   2.841   1.184
 4282SOL    HW113745   0.943   2.853   1.123
 4282SOL    HW213746   0.851   2.924   1.238
 4283SOL     OW13747   2.189   0.247   4.113
 4283SOL    HW113748   2.284   0.272   4.133
 4283SOL    HW213749   2.142   0.226   4.199
 4284SOL     OW13750   6.170   2.203   2.633
 4284SOL    HW113751   6.191   2.109   2.658
 4284SOL    HW213752   6.110   2.204   2.553
 4285SOL     OW13753   1.007   6.200   5.648
 4285SOL    HW113754   0.962   6.205   5.738
 4285SOL    HW213755   0.979   6.115   5.602
 4286SOL     OW13756   5.984   5.342   0.096
 4286SOL    HW113757   6.065   5.296   0.131
 4286SOL    HW213758   5.904   5.282   0.105
 4287SOL     OW13759   4.435   6.588   5.072
 4287SOL    HW113760   4.509   6.529   5.105
 4287SOL    HW213761   4.359   6.585   5.136
 4288SOL     OW13762   1.808   6.567   2.765
 4288SOL    HW113763   1.808   6.475   2.725
 4288SOL    HW213764   1.901   6.593   2.788
 4289SOL     OW13765   5.624   3.462   0.794
 4289SOL    HW113766   5.605   3.377   0.842
 4289SOL    HW213767   5.563   3.471   0.715
 4290SOL     OW13768   2.056   0.971   2.284
 4290SOL    HW113769   1.958   0.986   2.281
 4290SOL    HW213770   2.076   0.894   2.346
 4291SOL     OW13771   6.012   4.878   1.114
 4291SOL    HW113772   5.919   4.878   1.079
 4291SOL    HW213773   6.034   4.788   1.152
 4292SOL     OW13774   5.850   5.646   6.167
 4292SOL    HW113775   5.926   5.582   6.170
 4292SOL    HW213776   5.809   5.654   6.257
 4293SOL     OW13777   6.913   2.444   6.923
 4293SOL    HW113778   6.826   2.416   6.965
 4293SOL    HW213779   6.974   2.481   6.992
 4294SOL     OW13780   4.828   2.725   5.735
 4294SOL    HW113781   4.832   2.809   5.682
 4294SOL    HW213782   4.817   2.647   5.673
 4295SOL     OW13783   4.079   6.734   4.752
 4295SOL    HW113784   4.020   6.653   4.755
 4295SOL    HW213785   4.105   6.752   4.657
 4296SOL     OW13786   2.153   1.482   0.752
 4296SOL    HW113787   2.206   1.537   0.817
 4296SOL    HW213788   2.101   1.542   0.692
 4297SOL     OW13789   5.771   1.016   5.899
 4297SOL    HW113790   5.823   0.933   5.919
 4297SOL    HW213791   5.717   1.002   5.816
 4298SOL     OW13792   2.920   5.745   1.292
 4298SOL    HW113793   3.019   5.761   1.292
 4298SOL    HW213794   2.896   5.683   1.366
 4299SOL     OW13795   0.796   4.147   6.575
 4299SOL    HW113796   0.818   4.233   6.530
 4299SOL    HW213797   0.850   4.073   6.533
 4300SOL     OW13798   5.825   0.365   6.244
 4300SOL    HW113799   5.737   0.406   6.265
 4300SOL    HW213800   5.870   0.417   6.172
 4301SOL     OW13801   2.674   1.358   0.462
 4301SOL    HW113802   2.660   1.403   0.550
 4301SOL    HW213803   2.711   1.423   0.397
 4302SOL     OW13804   0.854   6.414   0.354
 4302SOL    HW113805   0.866   6.507   0.322
 4302SOL    HW213806   0.809   6.360   0.283
 4303SOL     OW13807   0.081   3.477   2.134
 4303SOL    HW113808   0.041   3.562   2.098
 4303SOL    HW213809   0.018   3.436   2.199
 4304SOL     OW13810   3.325   2.901   4.635
 4304SOL    HW113811   3.258   2.831   4.661
 4304SOL    HW213812   3.410   2.858   4.605
 4305SOL     OW13813   6.473   1.522   4.255
 4305SOL    HW113814   6.438   1.432   4.232
 4305SOL    HW213815   6.418   1.592   4.209
 4306SOL     OW13816   6.434   5.909   6.102
 4306SOL    HW113817   6.335   5.911   6.114
 4306SOL    HW213818   6.471   6.002   6.108
 4307SOL     OW13819   4.914   3.111   6.528
 4307SOL    HW113820   4.832   3.141   6.480
 4307SOL    HW213821   4.912   3.011   6.538
 4308SOL     OW13822   4.581   6.387   4.909
 4308SOL    HW113823   4.669   6.345   4.930
 4308SOL    HW213824   4.596   6.470   4.855
 4309SOL     OW13825   1.206   1.456   0.756
 4309SOL    HW113826   1.260   1.528   0.799
 4309SOL    HW213827   1.132   1.496   0.702
 4310SOL     OW13828   1.156   0.915   2.253
 4310SOL    HW113829   1.099   0.963   2.320
 4310SOL    HW213830   1.180   0.825   2.289
 4311SOL     OW13831   1.533   6.095   3.918
 4311SOL    HW113832   1.606   6.069   3.982
 4311SOL    HW213833   1.572   6.103   3.826
 4312SOL     OW13834   1.900   5.437   2.232
 4312SOL    HW113835   1.862   5.430   2.324
 4312SOL    HW213836   1.917   5.345   2.196
 4313SOL     OW13837   4.978   0.545   2.062
 4313SOL    HW113838   5.046   0.564   1.992
 4313SOL    HW213839   4.979   0.619   2.130
 4314SOL     OW13840   4.930   3.380   2.702
 4314SOL    HW113841   4.910   3.388   2.800
 4314SOL    HW213842   4.906   3.466   2.656
 4315SOL     OW13843   2.502   1.854   1.966
 4315SOL    HW113844   2.566   1.847   2.043
 4315SOL    HW213845   2.410   1.870   2.001
 4316SOL     OW13846   6.830   0.128   2.394
 4316SOL    HW113847   6.920   0.084   2.391
 4316SOL    HW213848   6.794   0.122   2.487
 4317SOL     OW13849   3.952   0.821   3.208
 4317SOL    HW113850   3.923   0.917   3.201
 4317SOL    HW213851   4.040   0.809   3.161
 4318SOL     OW13852   0.266   2.665   4.189
 4318SOL    HW113853   0.363   2.649   4.205
 4318SOL    HW213854   0.218   2.668   4.277
 4319SOL     OW13855   2.469   3.509   5.723
 4319SOL    HW113856   2.373   3.521   5.698
 4319SOL    HW213857   2.478   3.431   5.785
 4320SOL     OW13858   0.414   6.030   2.528
 4320SOL    HW113859   0.404   6.098   2.455
 4320SOL    HW213860   0.390   5.939   2.493
 4321SOL     OW13861   1.077   0.461   5.104
 4321SOL    HW113862   1.033   0.542   5.064
 4321SOL    HW213863   1.013   0.385   5.104
 4322SOL     OW13864   5.879   1.113   0.537
 4322SOL    HW113865   5.942   1.133   0.461
 4322SOL    HW213866   5.838   1.023   0.524
 4323SOL     OW13867   6.778   2.726   4.147
 4323SOL    HW113868   6.778   2.809   4.203
 4323SOL    HW213869   6.759   2.749   4.052
 4324SOL     OW13870   6.294   4.149   5.820
 4324SOL    HW113871   6.230   4.072   5.815
 4324SOL    HW213872   6.374   4.123   5.875
 4325SOL     OW13873   1.727   1.915   5.819
 4325SOL    HW113874   1.806   1.973   5.800
 4325SOL    HW213875   1.752   1.844   5.885
 4326SOL     OW13876   6.142   2.092   6.008
 4326SOL    HW113877   6.071   2.135   6.064
 4326SOL    HW213878   6.105   2.009   5.966
 4327SOL     OW13879   5.724   0.311   3.044
 4327SOL    HW113880   5.764   0.244   2.981
 4327SOL    HW213881   5.742   0.403   3.011
 4328SOL     OW13882   5.167   5.240   0.606
 4328SOL    HW113883   5.233   5.302   0.650
 4328SOL    HW213884   5.083   5.290   0.584
 4329SOL     OW13885   3.521   1.610   5.902
 4329SOL    HW113886   3.600   1.626   5.843
 4329SOL    HW213887   3.504   1.691   5.958
 4330SOL     OW13888   0.771   0.247   6.497
 4330SOL    HW113889   0.811   0.278   6.411
 4330SOL    HW213890   0.748   0.150   6.490
 4331SOL     OW13891   6.020   2.797   0.665
 4331SOL    HW113892   6.119   2.807   0.660
 4331SOL    HW213893   5.991   2.719   0.609
 4332SOL     OW13894   5.268   3.516   1.076
 4332SOL    HW113895   5.319   3.599   1.052
 4332SOL    HW213896   5.283   3.495   1.172
 4333SOL     OW13897   5.260   1.647   5.571
 4333SOL    HW113898   5.179   1.658   5.514
 4333SOL    HW213899   5.336   1.698   5.532
 4334SOL     OW13900   4.545   0.948   1.830
 4334SOL    HW113901   4.641   0.958   1.853
 4334SOL    HW213902   4.511   0.861   1.866
 4335SOL     OW13903   3.509   4.022   5.093
 4335SOL    HW113904   3.564   3.979   5.165
 4335SOL    HW213905   3.419   4.046   5.131
 4336SOL     OW13906   1.631   6.184   4.354
 4336SOL    HW113907   1.547   6.154   4.309
 4336SOL    HW213908   1.668   6.263   4.306
 4337SOL     OW13909   0.555   5.027   0.642
 4337SOL    HW113910   0.543   4.930   0.620
 4337SOL    HW213911   0.649   5.042   0.673
 4338SOL     OW13912   6.592   6.623   3.797
 4338SOL    HW113913   6.662   6.599   3.729
 4338SOL    HW213914   6.535   6.697   3.761
 4339SOL     OW13915   6.348   0.699   6.325
 4339SOL    HW113916   6.377   0.603   6.321
 4339SOL    HW213917   6.415   0.752   6.378
 4340SOL     OW13918   4.888   3.034   1.787
 4340SOL    HW113919   4.847   3.030   1.878
 4340SOL    HW213920   4.815   3.044   1.719
 4341SOL     OW13921   0.282   4.307   0.272
 4341SOL    HW113922   0.252   4.366   0.348
 4341SOL    HW213923   0.345   4.238   0.307
 4342SOL     OW13924   6.982   3.049   2.995
 4342SOL    HW113925   6.917   3.029   3.068
 4342SOL    HW213926   6.936   3.042   2.906
 4343SOL     OW13927   2.449   1.864   1.326
 4343SOL    HW113928   2.392   1.790   1.362
 4343SOL    HW213929   2.424   1.950   1.371
 4344SOL     OW13930   2.209   4.057   2.879
 4344SOL    HW113931   2.223   4.019   2.788
 4344SOL    HW213932   2.198   3.983   2.945
 4345SOL     OW13933   2.327   1.980   5.884
 4345SOL    HW113934   2.329   2.050   5.812
 4345SOL    HW213935   2.381   2.012   5.962
 4346SOL     OW13936   0.884   2.883   1.548
 4346SOL    HW113937   0.847   2.904   1.638
 4346SOL    HW213938   0.891   2.967   1.494
 4347SOL     OW13939   6.481   5.667   2.804
 4347SOL    HW113940   6.554   5.732   2.781
 4347SOL    HW213941   6.395   5.717   2.817
 4348SOL     OW13942   0.911   3.836   6.825
 4348SOL    HW113943   0.835   3.805   6.768
 4348SOL    HW213944   0.878   3.901   6.892
 4349SOL     OW13945   0.013   0.296   3.540
 4349SOL    HW113946   0.086   0.247   3.491
 4349SOL    HW213947   6.949   0.254   3.519
 4350SOL     OW13948   5.170   1.565   3.793
 4350SOL    HW113949   5.255   1.616   3.779
 4350SOL    HW213950   5.126   1.596   3.877
 4351SOL     OW13951   2.684   6.530   0.782
 4351SOL    HW113952   2.734   6.615   0.767
 4351SOL    HW213953   2.631   6.538   0.867
 4352SOL     OW13954   6.470   1.093   1.849
 4352SOL    HW113955   6.435   1.181   1.882
 4352SOL    HW213956   6.441   1.079   1.754
 4353SOL     OW13957   3.729   5.671   0.509
 4353SOL    HW113958   3.635   5.652   0.537
 4353SOL    HW213959   3.739   5.769   0.491
 4354SOL     OW13960   1.657   0.281   1.064
 4354SOL    HW113961   1.582   0.344   1.080
 4354SOL    HW213962   1.710   0.311   0.984
 4355SOL     OW13963   4.785   1.083   0.774
 4355SOL    HW113964   4.823   1.163   0.819
 4355SOL    HW213965   4.770   1.103   0.677
 4356SOL     OW13966   3.908   4.141   0.423
 4356SOL    HW113967   3.942   4.057   0.465
 4356SOL    HW213968   3.940   4.146   0.329
 4357SOL     OW13969   6.533   0.928   6.814
 4357SOL    HW113970   6.533   0.871   6.896
 4357SOL    HW213971   6.619   0.979   6.808
 4358SOL     OW13972   0.430   0.265   1.481
 4358SOL    HW113973   0.472   0.356   1.484
 4358SOL    HW213974   0.330   0.275   1.485
 4359SOL     OW13975   6.335   2.598   4.057
 4359SOL    HW113976   6.432   2.584   4.079
 4359SOL    HW213977   6.293   2.510   4.036
 4360SOL     OW13978   2.180   3.352   1.138
 4360SOL    HW113979   2.207   3.335   1.043
 4360SOL    HW213980   2.120   3.278   1.169
 4361SOL     OW13981   5.025   1.807   2.023
 4361SOL    HW113982   4.938   1.758   2.022
 4361SOL    HW213983   5.033   1.859   2.108
 4362SOL     OW13984   5.518   4.784   4.184
 4362SOL    HW113985   5.486   4.854   4.247
 4362SOL    HW213986   5.515   4.819   4.090
 4363SOL     OW13987   5.063   1.737   5.761
 4363SOL    HW113988   5.110   1.711   5.676
 4363SOL    HW213989   4.974   1.692   5.764
 4364SOL     OW13990   3.527   3.669   4.872
 4364SOL    HW113991   3.447   3.619   4.905
 4364SOL    HW213992   3.512   3.696   4.777
 4365SOL     OW13993   2.744   1.331   1.317
 4365SOL    HW113994   2.779   1.401   1.379
 4365SOL    HW213995   2.698   1.260   1.370
 4366SOL     OW13996   5.340   5.229   1.376
 4366SOL    HW113997   5.416   5.227   1.311
 4366SOL    HW213998   5.358   5.168   1.452
 4367SOL     OW13999   0.730   6.293   0.127
 4367SOL    HW114000   0.661   6.366   0.121
 4367SOL    HW214001   0.693   6.209   0.088
 4368SOL     OW14002   5.284   3.751   1.960
 4368SOL    HW114003   5.243   3.660   1.956
 4368SOL    HW214004   5.294   3.787   1.867
 4369SOL     OW14005   3.183   6.189   1.679
 4369SOL    HW114006   3.260   6.167   1.618
 4369SOL    HW214007   3.098   6.155   1.638
 4370SOL     OW14008   5.743   5.483   2.773
 4370SOL    HW114009   5.818   5.533   2.729
 4370SOL    HW214010   5.776   5.443   2.859
 4371SOL     OW14011   0.039   1.827   2.329
 4371SOL    HW114012   6.981   1.867   2.370
 4371SOL    HW214013   0.054   1.868   2.239
 4372SOL     OW14014   5.005   6.864   3.632
 4372SOL    HW114015   5.037   6.832   3.543
 4372SOL    HW214016   4.918   6.819   3.654
 4373SOL     OW14017   0.135   1.688   6.345
 4373SOL    HW114018   0.116   1.593   6.323
 4373SOL    HW214019   0.055   1.744   6.324
 4374SOL     OW14020   2.809   2.274   0.928
 4374SOL    HW114021   2.715   2.301   0.952
 4374SOL    HW214022   2.816   2.265   0.828
 4375SOL     OW14023   3.207   6.731   4.299
 4375SOL    HW114024   3.282   6.796   4.314
 4375SOL    HW214025   3.170   6.744   4.207
 4376SOL     OW14026   6.250   1.598   4.076
 4376SOL    HW114027   6.169   1.631   4.123
 4376SOL    HW214028   6.262   1.649   3.991
 4377SOL     OW14029   6.010   4.986   6.697
 4377SOL    HW114030   5.923   4.981   6.647
 4377SOL    HW214031   6.027   5.081   6.724
 4378SOL     OW14032   2.455   1.122   3.436
 4378SOL    HW114033   2.370   1.173   3.424
 4378SOL    HW214034   2.532   1.176   3.403
 4379SOL     OW14035   3.001   1.714   5.332
 4379SOL    HW114036   2.931   1.673   5.391
 4379SOL    HW214037   2.962   1.730   5.241
 4380SOL     OW14038   0.607   1.218   2.138
 4380SOL    HW114039   0.679   1.152   2.117
 4380SOL    HW214040   0.567   1.252   2.053
 4381SOL     OW14041   1.586   6.054   6.281
 4381SOL    HW114042   1.599   5.961   6.316
 4381SOL    HW214043   1.639   6.118   6.338
 4382SOL     OW14044   6.995   4.012   4.928
 4382SOL    HW114045   6.900   4.038   4.913
 4382SOL    HW214046   0.005   3.962   4.848
 4383SOL     OW14047   6.584   3.360   6.915
 4383SOL    HW114048   6.489   3.375   6.888
 4383SOL    HW214049   6.645   3.389   6.842
 4384SOL     OW14050   5.925   6.569   3.806
 4384SOL    HW114051   5.944   6.640   3.738
 4384SOL    HW214052   6.011   6.524   3.831
 4385SOL     OW14053   4.290   1.217   5.285
 4385SOL    HW114054   4.249   1.302   5.318
 4385SOL    HW214055   4.317   1.161   5.363
 4386SOL     OW14056   2.017   3.611   4.997
 4386SOL    HW114057   2.061   3.654   4.918
 4386SOL    HW214058   1.929   3.656   5.015
 4387SOL     OW14059   6.641   1.803   0.595
 4387SOL    HW114060   6.587   1.844   0.522
 4387SOL    HW214061   6.734   1.784   0.562
 4388SOL     OW14062   5.124   3.555   6.697
 4388SOL    HW114063   5.146   3.467   6.654
 4388SOL    HW214064   5.028   3.555   6.725
 4389SOL     OW14065   0.963   3.246   0.745
 4389SOL    HW114066   0.866   3.262   0.759
 4389SOL    HW214067   0.984   3.149   0.763
 4390SOL     OW14068   6.531   1.326   0.758
 4390SOL    HW114069   6.520   1.277   0.672
 4390SOL    HW214070   6.582   1.268   0.823
 4391SOL     OW14071   1.237   6.018   1.147
 4391SOL    HW114072   1.313   5.999   1.085
 4391SOL    HW214073   1.180   5.936   1.156
 4392SOL     OW14074   1.646   2.699   5.429
 4392SOL    HW114075   1.648   2.678   5.527
 4392SOL    HW214076   1.593   2.783   5.414
 4393SOL     OW14077   4.980   0.728   2.287
 4393SOL    HW114078   5.053   0.740   2.354
 4393SOL    HW214079   4.980   0.805   2.223
 4394SOL     OW14080   1.276   0.656   2.311
 4394SOL    HW114081   1.306   0.604   2.231
 4394SOL    HW214082   1.196   0.613   2.351
 4395SOL     OW14083   2.736   5.134   1.621
 4395SOL    HW114084   2.793   5.054   1.639
 4395SOL    HW214085   2.698   5.168   1.708
 4396SOL     OW14086   3.068   0.523   2.979
 4396SOL    HW114087   3.044   0.461   3.054
 4396SOL    HW214088   3.094   0.612   3.016
 4397SOL     OW14089   3.346   1.797   4.437
 4397SOL    HW114090   3.331   1.791   4.339
 4397SOL    HW214091   3.387   1.711   4.470
 4398SOL     OW14092   1.949   2.981   5.311
 4398SOL    HW114093   1.898   2.898   5.289
 4398SOL    HW214094   2.045   2.968   5.286
 4399SOL     OW14095   2.698   6.664   2.017
 4399SOL    HW114096   2.740   6.573   2.012
 4399SOL    HW214097   2.693   6.694   2.112
 4400SOL     OW14098   2.218   5.485   4.665
 4400SOL    HW114099   2.284   5.411   4.668
 4400SOL    HW214100   2.250   5.561   4.723
 4401SOL     OW14101   3.310   6.636   6.992
 4401SOL    HW114102   3.350   6.545   6.995
 4401SOL    HW214103   3.252   6.645   6.911
 4402SOL     OW14104   1.713   0.442   3.412
 4402SOL    HW114105   1.705   0.362   3.471
 4402SOL    HW214106   1.809   0.461   3.393
 4403SOL     OW14107   1.195   5.052   2.183
 4403SOL    HW114108   1.135   5.130   2.199
 4403SOL    HW214109   1.169   4.977   2.245
 4404SOL     OW14110   0.188   6.709   6.085
 4404SOL    HW114111   0.181   6.625   6.139
 4404SOL    HW214112   0.234   6.779   6.138
 4405SOL     OW14113   1.918   5.590   2.849
 4405SOL    HW114114   1.853   5.530   2.896
 4405SOL    HW214115   1.868   5.657   2.794
 4406SOL     OW14116   5.754   4.065   2.219
 4406SOL    HW114117   5.815   4.044   2.295
 4406SOL    HW214118   5.662   4.031   2.238
 4407SOL     OW14119   6.184   6.473   2.105
 4407SOL    HW114120   6.151   6.562   2.073
 4407SOL    HW214121   6.114   6.404   2.088
 4408SOL     OW14122   4.221   0.713   0.505
 4408SOL    HW114123   4.179   0.804   0.508
 4408SOL    HW214124   4.196   0.667   0.420
 4409SOL     OW14125   2.891   0.379   3.205
 4409SOL    HW114126   2.885   0.415   3.298
 4409SOL    HW214127   2.959   0.306   3.201
 4410SOL     OW14128   0.516   6.297   1.196
 4410SOL    HW114129   0.522   6.200   1.220
 4410SOL    HW214130   0.575   6.315   1.117
 4411SOL     OW14131   3.693   4.549   5.291
 4411SOL    HW114132   3.730   4.457   5.281
 4411SOL    HW214133   3.597   4.545   5.319
 4412SOL     OW14134   4.620   6.162   2.786
 4412SOL    HW114135   4.704   6.166   2.732
 4412SOL    HW214136   4.550   6.219   2.742
 4413SOL     OW14137   4.501   6.409   3.865
 4413SOL    HW114138   4.431   6.449   3.924
 4413SOL    HW214139   4.513   6.313   3.887
 4414SOL     OW14140   4.740   3.731   1.442
 4414SOL    HW114141   4.728   3.727   1.542
 4414SOL    HW214142   4.805   3.803   1.420
 4415SOL     OW14143   2.361   2.816   1.902
 4415SOL    HW114144   2.296   2.892   1.905
 4415SOL    HW214145   2.424   2.829   1.826
 4416SOL     OW14146   4.790   2.260   3.495
 4416SOL    HW114147   4.715   2.196   3.510
 4416SOL    HW214148   4.753   2.350   3.471
 4417SOL     OW14149   6.678   4.429   2.527
 4417SOL    HW114150   6.621   4.395   2.452
 4417SOL    HW214151   6.774   4.425   2.500
 4418SOL     OW14152   6.215   6.719   5.746
 4418SOL    HW114153   6.268   6.750   5.825
 4418SOL    HW214154   6.248   6.766   5.664
 4419SOL     OW14155   6.368   5.404   6.714
 4419SOL    HW114156   6.300   5.398   6.641
 4419SOL    HW214157   6.369   5.496   6.751
 4420SOL     OW14158   3.593   2.345   0.764
 4420SOL    HW114159   3.641   2.345   0.851
 4420SOL    HW214160   3.560   2.438   0.744
 4421SOL     OW14161   1.618   2.488   0.053
 4421SOL    HW114162   1.527   2.492   0.012
 4421SOL    HW214163   1.650   2.393   0.054
 4422SOL     OW14164   6.484   3.623   6.207
 4422SOL    HW114165   6.508   3.668   6.122
 4422SOL    HW214166   6.388   3.641   6.229
 4423SOL     OW14167   5.914   4.155   5.017
 4423SOL    HW114168   5.930   4.234   5.076
 4423SOL    HW214169   5.923   4.182   4.921
 4424SOL     OW14170   4.758   5.904   2.734
 4424SOL    HW114171   4.833   5.963   2.705
 4424SOL    HW214172   4.690   5.959   2.783
 4425SOL     OW14173   1.256   5.419   1.156
 4425SOL    HW114174   1.252   5.511   1.196
 4425SOL    HW214175   1.246   5.351   1.228
 4426SOL     OW14176   0.617   0.422   4.944
 4426SOL    HW114177   0.581   0.515   4.957
 4426SOL    HW214178   0.546   0.365   4.902
 4427SOL     OW14179   2.593   5.826   2.531
 4427SOL    HW114180   2.505   5.842   2.576
 4427SOL    HW214181   2.657   5.898   2.558
 4428SOL     OW14182   5.605   6.161   3.872
 4428SOL    HW114183   5.695   6.174   3.913
 4428SOL    HW214184   5.557   6.249   3.868
 4429SOL     OW14185   3.039   5.971   3.075
 4429SOL    HW114186   2.974   5.905   3.113
 4429SOL    HW214187   3.036   6.055   3.128
 4430SOL     OW14188   5.335   3.711   5.141
 4430SOL    HW114189   5.393   3.767   5.200
 4430SOL    HW214190   5.356   3.732   5.045
 4431SOL     OW14191   3.721   6.662   4.222
 4431SOL    HW114192   3.634   6.617   4.240
 4431SOL    HW214193   3.723   6.692   4.127
 4432SOL     OW14194   0.523   3.623   6.105
 4432SOL    HW114195   0.563   3.577   6.025
 4432SOL    HW214196   0.553   3.576   6.188
 4433SOL     OW14197   1.187   0.834   5.726
 4433SOL    HW114198   1.127   0.896   5.675
 4433SOL    HW214199   1.131   0.771   5.780
 4434SOL     OW14200   0.288   0.622   2.584
 4434SOL    HW114201   0.271   0.530   2.619
 4434SOL    HW214202   0.205   0.658   2.541
 4435SOL     OW14203   2.533   4.243   0.244
 4435SOL    HW114204   2.498   4.317   0.301
 4435SOL    HW214205   2.518   4.155   0.290
 4436SOL     OW14206   4.417   1.635   1.622
 4436SOL    HW114207   4.340   1.623   1.684
 4436SOL    HW214208   4.498   1.661   1.674
 4437SOL     OW14209   6.503   4.631   0.056
 4437SOL    HW114210   6.568   4.572   0.104
 4437SOL    HW214211   6.439   4.670   0.122
 4438SOL     OW14212   3.953   0.553   5.607
 4438SOL    HW114213   3.883   0.619   5.634
 4438SOL    HW214214   3.952   0.543   5.507
 4439SOL     OW14215   3.147   6.734   2.776
 4439SOL    HW114216   3.226   6.709   2.832
 4439SOL    HW214217   3.168   6.718   2.680
 4440SOL     OW14218   1.575   4.954   6.837
 4440SOL    HW114219   1.498   4.898   6.806
 4440SOL    HW214220   1.542   5.025   6.898
 4441SOL     OW14221   0.046   2.186   1.031
 4441SOL    HW114222   0.127   2.169   0.975
 4441SOL    HW214223   0.045   2.123   1.109
 4442SOL     OW14224   2.164   5.627   6.855
 4442SOL    HW114225   2.237   5.676   6.903
 4442SOL    HW214226   2.134   5.549   6.911
 4443SOL     OW14227   0.920   5.337   6.330
 4443SOL    HW114228   0.838   5.280   6.327
 4443SOL    HW214229   1.001   5.280   6.317
 4444SOL     OW14230   6.211   5.213   0.158
 4444SOL    HW114231   6.303   5.251   0.155
 4444SOL    HW214232   6.211   5.121   0.119
 4445SOL     OW14233   0.558   4.751   0.584
 4445SOL    HW114234   0.647   4.707   0.570
 4445SOL    HW214235   0.500   4.733   0.504
 4446SOL     OW14236   4.648   1.553   1.145
 4446SOL    HW114237   4.570   1.500   1.111
 4446SOL    HW214238   4.664   1.529   1.241
 4447SOL     OW14239   4.602   5.912   5.437
 4447SOL    HW114240   4.691   5.957   5.447
 4447SOL    HW214241   4.531   5.967   5.480
 4448SOL     OW14242   3.928   6.337   1.440
 4448SOL    HW114243   3.972   6.265   1.494
 4448SOL    HW214244   3.935   6.424   1.488
 4449SOL     OW14245   3.557   1.211   5.426
 4449SOL    HW114246   3.589   1.291   5.476
 4449SOL    HW214247   3.632   1.171   5.374
 4450SOL     OW14248   2.862   6.927   7.009
 4450SOL    HW114249   2.813   6.991   0.045
 4450SOL    HW214250   2.901   6.977   6.932
 4451SOL     OW14251   5.034   5.104   3.458
 4451SOL    HW114252   4.998   5.146   3.375
 4451SOL    HW214253   4.994   5.149   3.538
 4452SOL     OW14254   4.596   6.303   4.243
 4452SOL    HW114255   4.566   6.362   4.318
 4452SOL    HW214256   4.516   6.276   4.188
 4453SOL     OW14257   6.202   4.473   0.614
 4453SOL    HW114258   6.249   4.561   0.626
 4453SOL    HW214259   6.268   4.404   0.583
 4454SOL     OW14260   1.517   3.085   0.617
 4454SOL    HW114261   1.433   3.103   0.668
 4454SOL    HW214262   1.496   3.070   0.521
 4455SOL     OW14263   1.027   6.894   4.963
 4455SOL    HW114264   1.063   6.982   4.932
 4455SOL    HW214265   0.970   6.909   5.044
 4456SOL     OW14266   2.558   6.961   4.881
 4456SOL    HW114267   2.464   6.960   4.914
 4456SOL    HW214268   2.564   6.913   4.793
 4457SOL     OW14269   1.786   1.705   4.346
 4457SOL    HW114270   1.822   1.649   4.421
 4457SOL    HW214271   1.848   1.781   4.328
 4458SOL     OW14272   1.108   3.685   6.904
 4458SOL    HW114273   1.116   3.593   6.865
 4458SOL    HW214274   1.028   3.730   6.865
 4459SOL     OW14275   0.462   2.831   3.400
 4459SOL    HW114276   0.510   2.899   3.344
 4459SOL    HW214277   0.400   2.877   3.463
 4460SOL     OW14278   7.020   2.229   4.789
 4460SOL    HW114279   0.076   2.289   4.786
 4460SOL    HW214280   6.937   2.285   4.799
 4461SOL     OW14281   1.805   0.570   0.670
 4461SOL    HW114282   1.880   0.614   0.719
 4461SOL    HW214283   1.831   0.557   0.574
 4462SOL     OW14284   6.780   3.873   3.148
 4462SOL    HW114285   6.842   3.878   3.070
 4462SOL    HW214286   6.721   3.793   3.139
 4463SOL     OW14287   5.476   1.962   0.185
 4463SOL    HW114288   5.440   1.870   0.168
 4463SOL    HW214289   5.574   1.956   0.205
 4464SOL     OW14290   0.112   4.258   1.378
 4464SOL    HW114291   0.053   4.338   1.375
 4464SOL    HW214292   0.065   4.181   1.336
 4465SOL     OW14293   3.498   5.656   1.885
 4465SOL    HW114294   3.590   5.617   1.896
 4465SOL    HW214295   3.451   5.609   1.811
 4466SOL     OW14296   1.646   2.187   2.238
 4466SOL    HW114297   1.559   2.157   2.277
 4466SOL    HW214298   1.715   2.116   2.253
 4467SOL     OW14299   5.180   5.484   2.910
 4467SOL    HW114300   5.206   5.545   2.834
 4467SOL    HW214301   5.204   5.527   2.997
 4468SOL     OW14302   1.971   2.791   1.535
 4468SOL    HW114303   1.970   2.697   1.567
 4468SOL    HW214304   1.894   2.807   1.474
 4469SOL     OW14305   2.537   6.266   1.559
 4469SOL    HW114306   2.501   6.190   1.505
 4469SOL    HW214307   2.636   6.270   1.549
 4470SOL     OW14308   1.928   6.869   3.241
 4470SOL    HW114309   1.966   6.960   3.222
 4470SOL    HW214310   1.898   6.828   3.155
 4471SOL     OW14311   0.722   7.022   6.383
 4471SOL    HW114312   0.624   7.017   6.363
 4471SOL    HW214313   0.771   6.962   6.320
 4472SOL     OW14314   1.753   2.978   0.684
 4472SOL    HW114315   1.749   2.923   0.767
 4472SOL    HW214316   1.663   3.019   0.666
 4473SOL     OW14317   0.321   2.652   4.718
 4473SOL    HW114318   0.255   2.668   4.790
 4473SOL    HW214319   0.374   2.736   4.702
 4474SOL     OW14320   3.260   6.250   0.958
 4474SOL    HW114321   3.242   6.341   0.920
 4474SOL    HW214322   3.241   6.181   0.888
 4475SOL     OW14323   1.163   4.077   0.993
 4475SOL    HW114324   1.136   4.073   0.896
 4475SOL    HW214325   1.091   4.123   1.045
 4476SOL     OW14326   5.597   0.789   3.961
 4476SOL    HW114327   5.593   0.698   3.919
 4476SOL    HW214328   5.561   0.857   3.898
 4477SOL     OW14329   0.975   0.695   4.958
 4477SOL    HW114330   1.012   0.714   4.867
 4477SOL    HW214331   0.922   0.774   4.989
 4478SOL     OW14332   1.803   6.939   1.358
 4478SOL    HW114333   1.861   7.020   1.359
 4478SOL    HW214334   1.770   6.923   1.265
 4479SOL     OW14335   1.922   2.060   6.402
 4479SOL    HW114336   1.955   1.987   6.461
 4479SOL    HW214337   1.903   2.024   6.311
 4480SOL     OW14338   1.113   6.545   3.872
 4480SOL    HW114339   1.065   6.632   3.890
 4480SOL    HW214340   1.122   6.532   3.774
 4481SOL     OW14341   2.001   4.114   5.984
 4481SOL    HW114342   1.919   4.128   6.039
 4481SOL    HW214343   2.055   4.039   6.023
 4482SOL     OW14344   2.706   6.843   1.629
 4482SOL    HW114345   2.663   6.766   1.677
 4482SOL    HW214346   2.705   6.924   1.688
 4483SOL     OW14347   1.597   3.773   0.650
 4483SOL    HW114348   1.623   3.815   0.563
 4483SOL    HW214349   1.561   3.682   0.635
 4484SOL     OW14350   2.241   1.235   7.009
 4484SOL    HW114351   2.302   1.156   7.004
 4484SOL    HW214352   2.214   1.250   0.081
 4485SOL     OW14353   6.697   2.605   5.100
 4485SOL    HW114354   6.766   2.533   5.111
 4485SOL    HW214355   6.695   2.661   5.183
 4486SOL     OW14356   4.970   5.082   4.452
 4486SOL    HW114357   4.920   5.168   4.437
 4486SOL    HW214358   4.926   5.009   4.400
 4487SOL     OW14359   0.692   2.873   6.695
 4487SOL    HW114360   0.617   2.902   6.634
 4487SOL    HW214361   0.691   2.773   6.703
 4488SOL     OW14362   0.103   4.112   3.401
 4488SOL    HW114363   0.010   4.075   3.399
 4488SOL    HW214364   0.117   4.161   3.487
 4489SOL     OW14365   3.897   6.068   6.005
 4489SOL    HW114366   3.983   6.081   5.956
 4489SOL    HW214367   3.828   6.131   5.970
 4490SOL     OW14368   5.430   1.496   1.792
 4490SOL    HW114369   5.440   1.519   1.888
 4490SOL    HW214370   5.424   1.581   1.738
 4491SOL     OW14371   0.922   2.949   3.024
 4491SOL    HW114372   1.001   2.936   3.084
 4491SOL    HW214373   0.902   3.047   3.015
 4492SOL     OW14374   0.252   1.015   2.603
 4492SOL    HW114375   0.298   0.948   2.662
 4492SOL    HW214376   0.304   1.027   2.519
 4493SOL     OW14377   5.476   1.302   5.781
 4493SOL    HW114378   5.425   1.387   5.795
 4493SOL    HW214379   5.535   1.285   5.860
 4494SOL     OW14380   1.359   0.108   1.574
 4494SOL    HW114381   1.418   0.035   1.609
 4494SOL    HW214382   1.268   0.071   1.556
 4495SOL     OW14383   4.444   6.421   1.105
 4495SOL    HW114384   4.355   6.375   1.099
 4495SOL    HW214385   4.439   6.510   1.060
 4496SOL     OW14386   2.784   6.183   6.056
 4496SOL    HW114387   2.862   6.137   6.014
 4496SOL    HW214388   2.701   6.129   6.042
 4497SOL     OW14389   3.537   1.192   5.715
 4497SOL    HW114390   3.443   1.160   5.726
 4497SOL    HW214391   3.564   1.246   5.794
 4498SOL     OW14392   0.337   5.090   4.892
 4498SOL    HW114393   0.287   5.172   4.917
 4498SOL    HW214394   0.341   5.083   4.792
 4499SOL     OW14395   5.843   1.117   1.920
 4499SOL    HW114396   5.751   1.130   1.958
 4499SOL    HW214397   5.859   1.183   1.847
 4500SOL     OW14398   4.155   5.649   0.532
 4500SOL    HW114399   4.100   5.667   0.450
 4500SOL    HW214400   4.239   5.601   0.506
 4501SOL     OW14401   6.233   0.501   2.467
 4501SOL    HW114402   6.166   0.427   2.463
 4501SOL    HW214403   6.203   0.576   2.408
 4502SOL     OW14404   0.054   3.724   6.550
 4502SOL    HW114405   0.089   3.690   6.638
 4502SOL    HW214406   0.126   3.716   6.481
 4503SOL     OW14407   3.313   1.644   2.855
 4503SOL    HW114408   3.365   1.559   2.860
 4503SOL    HW214409   3.270   1.662   2.943
 4504SOL     OW14410   0.349   2.223   2.727
 4504SOL    HW114411   0.366   2.314   2.767
 4504SOL    HW214412   0.369   2.153   2.795
 4505SOL     OW14413   5.518   3.741   3.706
 4505SOL    HW114414   5.422   3.712   3.715
 4505SOL    HW214415   5.572   3.666   3.669
 4506SOL     OW14416   5.261   2.882   5.774
 4506SOL    HW114417   5.161   2.885   5.786
 4506SOL    HW214418   5.305   2.923   5.854
 4507SOL     OW14419   6.188   2.072   3.528
 4507SOL    HW114420   6.172   2.082   3.430
 4507SOL    HW214421   6.107   2.030   3.570
 4508SOL     OW14422   0.075   4.771   0.748
 4508SOL    HW114423   0.105   4.865   0.732
 4508SOL    HW214424   0.136   4.708   0.700
 4509SOL     OW14425   5.274   2.456   2.189
 4509SOL    HW114426   5.200   2.485   2.128
 4509SOL    HW214427   5.241   2.456   2.283
 4510SOL     OW14428   4.352   1.022   4.654
 4510SOL    HW114429   4.448   1.034   4.680
 4510SOL    HW214430   4.294   1.064   4.724
 4511SOL     OW14431   6.962   4.909   6.495
 4511SOL    HW114432   6.929   5.003   6.501
 4511SOL    HW214433   0.034   4.909   6.467
 4512SOL     OW14434   2.905   3.314   5.259
 4512SOL    HW114435   2.865   3.247   5.196
 4512SOL    HW214436   2.919   3.271   5.348
 4513SOL     OW14437   0.360   6.940   0.890
 4513SOL    HW114438   0.309   6.923   0.806
 4513SOL    HW214439   0.323   6.884   0.964
 4514SOL     OW14440   4.050   4.802   7.017
 4514SOL    HW114441   4.091   4.879   0.041
 4514SOL    HW214442   3.952   4.819   7.005
 4515SOL     OW14443   3.566   0.930   6.524
 4515SOL    HW114444   3.533   0.845   6.483
 4515SOL    HW214445   3.614   0.985   6.456
 4516SOL     OW14446   3.195   2.488   5.670
 4516SOL    HW114447   3.244   2.433   5.738
 4516SOL    HW214448   3.240   2.480   5.582
 4517SOL     OW14449   4.365   0.754   5.490
 4517SOL    HW114450   4.433   0.751   5.418
 4517SOL    HW214451   4.327   0.663   5.505
 4518SOL     OW14452   0.685   6.510   1.007
 4518SOL    HW114453   0.784   6.527   1.010
 4518SOL    HW214454   0.640   6.564   1.078
 4519SOL     OW14455   4.706   6.828   0.026
 4519SOL    HW114456   4.708   6.843   6.951
 4519SOL    HW214457   4.799   6.827   0.061
 4520SOL     OW14458   4.318   5.770   5.385
 4520SOL    HW114459   4.308   5.760   5.286
 4520SOL    HW214460   4.359   5.687   5.423
 4521SOL     OW14461   4.221   2.107   4.176
 4521SOL    HW114462   4.261   2.018   4.196
 4521SOL    HW214463   4.121   2.101   4.182
 4522SOL     OW14464   5.568   4.015   3.602
 4522SOL    HW114465   5.650   4.008   3.545
 4522SOL    HW214466   5.557   3.931   3.655
 4523SOL     OW14467   6.697   2.758   6.004
 4523SOL    HW114468   6.727   2.840   5.956
 4523SOL    HW214469   6.605   2.773   6.041
 4524SOL     OW14470   1.819   3.711   2.133
 4524SOL    HW114471   1.834   3.732   2.230
 4524SOL    HW214472   1.892   3.651   2.100
 4525SOL     OW14473   3.634   2.495   5.685
 4525SOL    HW114474   3.600   2.454   5.601
 4525SOL    HW214475   3.721   2.453   5.709
 4526SOL     OW14476   1.176   0.001   5.385
 4526SOL    HW114477   1.225   6.944   5.418
 4526SOL    HW214478   1.085   0.005   5.428
 4527SOL     OW14479   0.501   1.517   2.752
 4527SOL    HW114480   0.555   1.562   2.681
 4527SOL    HW214481   0.404   1.519   2.727
 4528SOL     OW14482   5.106   0.585   5.077
 4528SOL    HW114483   5.170   0.519   5.118
 4528SOL    HW214484   5.089   0.659   5.142
 4529SOL     OW14485   2.334   1.334   3.675
 4529SOL    HW114486   2.418   1.386   3.656
 4529SOL    HW214487   2.356   1.255   3.732
 4530SOL     OW14488   4.273   5.992   6.360
 4530SOL    HW114489   4.289   5.894   6.348
 4530SOL    HW214490   4.187   6.006   6.409
 4531SOL     OW14491   1.808   6.078   5.358
 4531SOL    HW114492   1.895   6.111   5.395
 4531SOL    HW214493   1.826   6.017   5.281
 4532SOL     OW14494   6.242   1.304   2.920
 4532SOL    HW114495   6.331   1.304   2.965
 4532SOL    HW214496   6.181   1.369   2.966
 4533SOL     OW14497   2.694   0.386   1.083
 4533SOL    HW114498   2.660   0.460   1.141
 4533SOL    HW214499   2.688   0.413   0.987
 4534SOL     OW14500   4.870   1.768   4.099
 4534SOL    HW114501   4.827   1.708   4.031
 4534SOL    HW214502   4.820   1.854   4.105
 4535SOL     OW14503   1.547   0.230   0.554
 4535SOL    HW114504   1.570   0.286   0.634
 4535SOL    HW214505   1.491   0.152   0.584
 4536SOL     OW14506   3.471   0.129   6.018
 4536SOL    HW114507   3.420   0.059   6.068
 4536SOL    HW214508   3.547   0.162   6.074
 4537SOL     OW14509   2.928   3.497   3.304
 4537SOL    HW114510   2.947   3.594   3.319
 4537SOL    HW214511   2.887   3.485   3.214
 4538SOL     OW14512   0.114   2.327   0.754
 4538SOL    HW114513   0.174   2.360   0.681
 4538SOL    HW214514   0.133   2.377   0.838
 4539SOL     OW14515   1.433   6.211   5.466
 4539SOL    HW114516   1.429   6.175   5.559
 4539SOL    HW214517   1.437   6.311   5.469
 4540SOL     OW14518   1.510   2.163   0.524
 4540SOL    HW114519   1.425   2.122   0.491
 4540SOL    HW214520   1.515   2.154   0.623
 4541SOL     OW14521   4.309   3.200   6.540
 4541SOL    HW114522   4.221   3.154   6.548
 4541SOL    HW214523   4.297   3.289   6.495
 4542SOL     OW14524   0.357   1.403   6.494
 4542SOL    HW114525   0.401   1.458   6.424
 4542SOL    HW214526   0.323   1.318   6.453
 4543SOL     OW14527   3.861   2.022   0.499
 4543SOL    HW114528   3.765   2.016   0.470
 4543SOL    HW214529   3.883   1.945   0.559
 4544SOL     OW14530   5.012   6.719   0.688
 4544SOL    HW114531   5.078   6.706   0.762
 4544SOL    HW214532   4.924   6.744   0.726
 4545SOL     OW14533   2.241   2.685   5.493
 4545SOL    HW114534   2.279   2.727   5.410
 4545SOL    HW214535   2.290   2.600   5.512
 4546SOL     OW14536   3.189   0.512   5.532
 4546SOL    HW114537   3.134   0.556   5.461
 4546SOL    HW214538   3.259   0.454   5.489
 4547SOL     OW14539   0.064   0.047   0.114
 4547SOL    HW114540   7.015   7.008   0.087
 4547SOL    HW214541   0.106   0.015   0.199
 4548SOL     OW14542   3.027   1.830   2.045
 4548SOL    HW114543   3.119   1.832   2.006
 4548SOL    HW214544   3.028   1.776   2.129
 4549SOL     OW14545   0.542   3.721   4.362
 4549SOL    HW114546   0.476   3.720   4.287
 4549SOL    HW214547   0.631   3.692   4.327
 4550SOL     OW14548   2.122   5.317   4.279
 4550SOL    HW114549   2.048   5.274   4.228
 4550SOL    HW214550   2.154   5.254   4.351
 4551SOL     OW14551   2.381   2.433   5.506
 4551SOL    HW114552   2.345   2.372   5.436
 4551SOL    HW214553   2.473   2.404   5.531
 4552SOL     OW14554   4.924   1.570   0.536
 4552SOL    HW114555   4.904   1.479   0.498
 4552SOL    HW214556   4.901   1.640   0.468
 4553SOL     OW14557   0.377   6.126   6.950
 4553SOL    HW114558   0.315   6.062   6.995
 4553SOL    HW214559   0.337   6.158   6.865
 4554SOL     OW14560   6.322   6.754   2.802
 4554SOL    HW114561   6.412   6.711   2.798
 4554SOL    HW214562   6.251   6.686   2.783
 4555SOL     OW14563   0.957   1.058   1.017
 4555SOL    HW114564   1.025   1.083   0.948
 4555SOL    HW214565   0.892   1.133   1.029
 4556SOL     OW14566   5.391   4.539   4.301
 4556SOL    HW114567   5.415   4.488   4.219
 4556SOL    HW214568   5.407   4.636   4.287
 4557SOL     OW14569   0.431   5.024   4.269
 4557SOL    HW114570   0.339   5.022   4.309
 4557SOL    HW214571   0.491   5.079   4.326
 4558SOL     OW14572   1.467   4.224   4.710
 4558SOL    HW114573   1.386   4.180   4.669
 4558SOL    HW214574   1.444   4.317   4.737
 4559SOL     OW14575   0.050   2.881   4.180
 4559SOL    HW114576   0.061   2.793   4.136
 4559SOL    HW214577   7.005   2.935   4.131
 4560SOL     OW14578   5.473   4.473   2.836
 4560SOL    HW114579   5.383   4.458   2.797
 4560SOL    HW214580   5.488   4.411   2.913
 4561SOL     OW14581   4.976   2.752   3.863
 4561SOL    HW114582   5.076   2.742   3.858
 4561SOL    HW214583   4.932   2.672   3.823
 4562SOL     OW14584   3.358   1.241   0.461
 4562SOL    HW114585   3.293   1.275   0.394
 4562SOL    HW214586   3.313   1.230   0.550
 4563SOL     OW14587   0.542   4.361   2.241
 4563SOL    HW114588   0.467   4.409   2.288
 4563SOL    HW214589   0.520   4.352   2.144
 4564SOL     OW14590   2.114   3.603   2.475
 4564SOL    HW114591   2.056   3.545   2.418
 4564SOL    HW214592   2.210   3.588   2.452
 4565SOL     OW14593   1.459   6.851   6.078
 4565SOL    HW114594   1.388   6.788   6.110
 4565SOL    HW214595   1.434   6.945   6.105
 4566SOL     OW14596   6.518   4.243   3.435
 4566SOL    HW114597   6.527   4.162   3.376
 4566SOL    HW214598   6.586   4.311   3.408
 4567SOL     OW14599   0.045   7.009   6.739
 4567SOL    HW114600   0.036   0.030   6.650
 4567SOL    HW214601   6.983   6.964   6.763
 4568SOL     OW14602   1.277   5.196   3.556
 4568SOL    HW114603   1.299   5.098   3.561
 4568SOL    HW214604   1.290   5.237   3.647
 4569SOL     OW14605   2.039   1.343   3.008
 4569SOL    HW114606   2.075   1.257   2.974
 4569SOL    HW214607   1.979   1.325   3.086
 4570SOL     OW14608   5.301   5.469   1.451
 4570SOL    HW114609   5.307   5.383   1.401
 4570SOL    HW214610   5.393   5.504   1.468
 4571SOL     OW14611   2.452   3.444   5.992
 4571SOL    HW114612   2.356   3.447   6.020
 4571SOL    HW214613   2.489   3.536   5.990
 4572SOL     OW14614   3.756   2.922   2.003
 4572SOL    HW114615   3.673   2.973   1.980
 4572SOL    HW214616   3.731   2.846   2.063
 4573SOL     OW14617   2.913   5.336   0.639
 4573SOL    HW114618   2.951   5.258   0.689
 4573SOL    HW214619   2.938   5.329   0.542
 4574SOL     OW14620   4.805   0.999   1.890
 4574SOL    HW114621   4.889   1.010   1.837
 4574SOL    HW214622   4.827   0.983   1.986
 4575SOL     OW14623   0.915   0.017   5.525
 4575SOL    HW114624   0.919   0.117   5.533
 4575SOL    HW214625   0.820   7.013   5.513
 4576SOL     OW14626   3.232   4.519   6.261
 4576SOL    HW114627   3.282   4.597   6.300
 4576SOL    HW214628   3.286   4.436   6.271
 4577SOL     OW14629   0.986   1.887   2.376
 4577SOL    HW114630   1.027   1.931   2.296
 4577SOL    HW214631   0.895   1.925   2.392
 4578SOL     OW14632   1.515   1.548   1.714
 4578SOL    HW114633   1.548   1.459   1.745
 4578SOL    HW214634   1.492   1.544   1.617
 4579SOL     OW14635   4.767   0.504   3.470
 4579SOL    HW114636   4.796   0.443   3.544
 4579SOL    HW214637   4.733   0.590   3.508
 4580SOL     OW14638   0.352   1.226   0.978
 4580SOL    HW114639   0.405   1.310   0.966
 4580SOL    HW214640   0.261   1.238   0.939
 4581SOL     OW14641   2.634   0.466   0.830
 4581SOL    HW114642   2.638   0.563   0.809
 4581SOL    HW214643   2.663   0.413   0.751
 4582SOL     OW14644   6.822   0.584   3.861
 4582SOL    HW114645   6.844   0.628   3.774
 4582SOL    HW214646   6.899   0.596   3.925
 4583SOL     OW14647   1.969   0.549   0.213
 4583SOL    HW114648   2.057   0.581   0.249
 4583SOL    HW214649   1.981   0.519   0.118
 4584SOL     OW14650   0.657   1.831   4.247
 4584SOL    HW114651   0.741   1.805   4.201
 4584SOL    HW214652   0.612   1.905   4.195
 4585SOL     OW14653   1.551   2.973   2.947
 4585SOL    HW114654   1.485   2.977   2.872
 4585SOL    HW214655   1.564   2.878   2.975
 4586SOL     OW14656   6.138   4.875   6.277
 4586SOL    HW114657   6.159   4.913   6.367
 4586SOL    HW214658   6.183   4.929   6.206
 4587SOL     OW14659   3.551   3.862   5.808
 4587SOL    HW114660   3.556   3.879   5.906
 4587SOL    HW214661   3.456   3.865   5.778
 4588SOL     OW14662   3.346   4.079   6.477
 4588SOL    HW114663   3.388   4.002   6.526
 4588SOL    HW214664   3.318   4.149   6.542
 4589SOL     OW14665   5.819   6.624   2.280
 4589SOL    HW114666   5.840   6.597   2.185
 4589SOL    HW214667   5.904   6.637   2.330
 4590SOL     OW14668   3.997   5.742   1.687
 4590SOL    HW114669   4.091   5.768   1.670
 4590SOL    HW214670   3.970   5.771   1.778
 4591SOL     OW14671   2.384   0.786   5.017
 4591SOL    HW114672   2.307   0.763   4.957
 4591SOL    HW214673   2.387   0.885   5.030
 4592SOL     OW14674   2.019   1.746   3.962
 4592SOL    HW114675   1.957   1.810   3.917
 4592SOL    HW214676   2.088   1.797   4.013
 4593SOL     OW14677   1.516   5.805   4.586
 4593SOL    HW114678   1.597   5.851   4.621
 4593SOL    HW214679   1.516   5.710   4.616
 4594SOL     OW14680   2.296   0.047   3.199
 4594SOL    HW114681   2.364   0.083   3.135
 4594SOL    HW214682   2.342   0.001   3.274
 4595SOL     OW14683   5.298   2.333   5.946
 4595SOL    HW114684   5.379   2.285   5.981
 4595SOL    HW214685   5.279   2.303   5.853
 4596SOL     OW14686   0.311   0.739   2.316
 4596SOL    HW114687   0.326   0.674   2.242
 4596SOL    HW214688   0.322   0.693   2.404
 4597SOL     OW14689   2.482   5.968   0.746
 4597SOL    HW114690   2.437   5.966   0.657
 4597SOL    HW214691   2.414   5.961   0.818
 4598SOL     OW14692   0.635   4.360   0.543
 4598SOL    HW114693   0.575   4.290   0.506
 4598SOL    HW214694   0.714   4.316   0.588
 4599SOL     OW14695   4.047   6.509   1.781
 4599SOL    HW114696   3.988   6.455   1.841
 4599SOL    HW214697   3.996   6.538   1.700
 4600SOL     OW14698   0.459   6.635   6.268
 4600SOL    HW114699   0.389   6.692   6.225
 4600SOL    HW214700   0.424   6.598   6.354
 4601SOL     OW14701   1.739   0.499   5.348
 4601SOL    HW114702   1.750   0.401   5.335
 4601SOL    HW214703   1.780   0.549   5.271
 4602SOL     OW14704   2.888   1.890   5.900
 4602SOL    HW114705   2.859   1.967   5.958
 4602SOL    HW214706   2.983   1.866   5.922
 4603SOL     OW14707   4.519   6.957   1.084
 4603SOL    HW114708   4.428   6.923   1.107
 4603SOL    HW214709   4.514   7.013   1.001
 4604SOL     OW14710   6.915   0.072   4.486
 4604SOL    HW114711   6.846   0.031   4.546
 4604SOL    HW214712   6.999   0.018   4.488
 4605SOL     OW14713   3.577   0.401   1.338
 4605SOL    HW114714   3.671   0.404   1.373
 4605SOL    HW214715   3.513   0.428   1.410
 4606SOL     OW14716   6.718   6.345   5.154
 4606SOL    HW114717   6.768   6.424   5.120
 4606SOL    HW214718   6.635   6.375   5.201
 4607SOL     OW14719   1.775   1.817   0.732
 4607SOL    HW114720   1.797   1.831   0.828
 4607SOL    HW214721   1.744   1.723   0.718
 4608SOL     OW14722   0.125   2.751   4.893
 4608SOL    HW114723   0.105   2.849   4.887
 4608SOL    HW214724   0.082   2.713   4.974
 4609SOL     OW14725   5.216   5.502   6.952
 4609SOL    HW114726   5.235   5.425   6.891
 4609SOL    HW214727   5.235   5.588   6.906
 4610SOL     OW14728   5.211   4.944   0.249
 4610SOL    HW114729   5.238   4.886   0.325
 4610SOL    HW214730   5.131   4.905   0.203
 4611SOL     OW14731   7.016   1.106   6.587
 4611SOL    HW114732   7.017   1.022   6.640
 4611SOL    HW214733   6.995   1.184   6.647
 4612SOL     OW14734   2.064   1.644   1.836
 4612SOL    HW114735   1.974   1.614   1.869
 4612SOL    HW214736   2.116   1.564   1.806
 4613SOL     OW14737   1.301   4.803   1.689
 4613SOL    HW114738   1.400   4.794   1.672
 4613SOL    HW214739   1.274   4.739   1.761
 4614SOL     OW14740   6.653   4.333   4.203
 4614SOL    HW114741   6.711   4.371   4.132
 4614SOL    HW214742   6.601   4.255   4.166
 4615SOL     OW14743   1.513   4.018   6.396
 4615SOL    HW114744   1.533   4.116   6.395
 4615SOL    HW214745   1.582   3.970   6.451
 4616SOL     OW14746   0.676   3.203   5.960
 4616SOL    HW114747   0.613   3.250   5.898
 4616SOL    HW214748   0.641   3.111   5.980
 4617SOL     OW14749   6.972   2.528   3.871
 4617SOL    HW114750   6.896   2.590   3.852
 4617SOL    HW214751   6.938   2.449   3.924
 4618SOL     OW14752   1.812   4.118   5.608
 4618SOL    HW114753   1.895   4.118   5.663
 4618SOL    HW214754   1.773   4.210   5.605
 4619SOL     OW14755   4.666   6.440   6.355
 4619SOL    HW114756   4.654   6.539   6.365
 4619SOL    HW214757   4.605   6.406   6.283
 4620SOL     OW14758   0.791   5.090   2.344
 4620SOL    HW114759   0.784   4.992   2.325
 4620SOL    HW214760   0.703   5.134   2.328
 4621SOL     OW14761   3.502   0.150   2.623
 4621SOL    HW114762   3.409   0.143   2.658
 4621SOL    HW214763   3.562   0.090   2.676
 4622SOL     OW14764   5.556   6.857   0.380
 4622SOL    HW114765   5.617   6.784   0.410
 4622SOL    HW214766   5.556   6.931   0.446
 4623SOL     OW14767   3.219   4.798   1.879
 4623SOL    HW114768   3.245   4.726   1.814
 4623SOL    HW214769   3.120   4.807   1.882
 4624SOL     OW14770   4.421   1.190   2.205
 4624SOL    HW114771   4.513   1.174   2.169
 4624SOL    HW214772   4.417   1.281   2.247
 4625SOL     OW14773   1.980   5.937   1.349
 4625SOL    HW114774   1.977   5.988   1.435
 4625SOL    HW214775   1.945   5.993   1.275
 4626SOL     OW14776   4.222   3.303   1.545
 4626SOL    HW114777   4.150   3.244   1.506
 4626SOL    HW214778   4.271   3.253   1.616
 4627SOL     OW14779   5.423   0.029   5.327
 4627SOL    HW114780   5.514   0.057   5.296
 4627SOL    HW214781   5.425   6.956   5.353
 4628SOL     OW14782   5.631   4.530   3.816
 4628SOL    HW114783   5.634   4.434   3.787
 4628SOL    HW214784   5.626   4.589   3.736
 4629SOL     OW14785   1.902   5.773   0.403
 4629SOL    HW114786   1.952   5.825   0.333
 4629SOL    HW214787   1.842   5.707   0.359
 4630SOL     OW14788   2.123   3.686   1.477
 4630SOL    HW114789   2.189   3.615   1.452
 4630SOL    HW214790   2.162   3.742   1.550
 4631SOL     OW14791   6.880   0.754   2.983
 4631SOL    HW114792   6.807   0.792   3.040
 4631SOL    HW214793   6.958   0.729   3.041
 4632SOL     OW14794   3.369   4.999   2.953
 4632SOL    HW114795   3.327   5.088   2.969
 4632SOL    HW214796   3.337   4.962   2.866
 4633SOL     OW14797   4.970   1.543   4.959
 4633SOL    HW114798   4.882   1.559   5.005
 4633SOL    HW214799   5.043   1.542   5.027
 4634SOL     OW14800   3.704   3.908   5.276
 4634SOL    HW114801   3.654   3.907   5.363
 4634SOL    HW214802   3.793   3.953   5.289
 4635SOL     OW14803   4.534   6.097   1.579
 4635SOL    HW114804   4.596   6.174   1.594
 4635SOL    HW214805   4.440   6.128   1.587
 4636SOL     OW14806   1.318   5.360   6.788
 4636SOL    HW114807   1.264   5.277   6.800
 4636SOL    HW214808   1.385   5.347   6.715
 4637SOL     OW14809   3.087   1.504   3.672
 4637SOL    HW114810   3.121   1.473   3.583
 4637SOL    HW214811   3.045   1.594   3.662
 4638SOL     OW14812   4.159   4.626   0.177
 4638SOL    HW114813   4.245   4.672   0.154
 4638SOL    HW214814   4.088   4.653   0.112
 4639SOL     OW14815   3.992   2.171   1.929
 4639SOL    HW114816   3.897   2.197   1.910
 4639SOL    HW214817   4.040   2.157   1.842
 4640SOL     OW14818   6.072   3.984   6.946
 4640SOL    HW114819   6.142   3.970   7.016
 4640SOL    HW214820   6.112   4.034   6.869
 4641SOL     OW14821   1.729   5.432   4.429
 4641SOL    HW114822   1.798   5.411   4.498
 4641SOL    HW214823   1.653   5.480   4.472
 4642SOL     OW14824   6.697   1.041   4.706
 4642SOL    HW114825   6.638   1.008   4.633
 4642SOL    HW214826   6.741   0.963   4.750
 4643SOL     OW14827   0.768   1.893   0.004
 4643SOL    HW114828   0.789   1.987   0.030
 4643SOL    HW214829   0.817   1.870   6.944
 4644SOL     OW14830   1.361   0.283   0.882
 4644SOL    HW114831   1.354   0.183   0.884
 4644SOL    HW214832   1.292   0.322   0.943
 4645SOL     OW14833   6.199   1.426   4.753
 4645SOL    HW114834   6.258   1.432   4.833
 4645SOL    HW214835   6.254   1.438   4.670
 4646SOL     OW14836   2.389   4.334   3.810
 4646SOL    HW114837   2.312   4.330   3.746
 4646SOL    HW214838   2.461   4.391   3.772
 4647SOL     OW14839   1.569   6.839   1.527
 4647SOL    HW114840   1.640   6.889   1.476
 4647SOL    HW214841   1.510   6.790   1.463
 4648SOL     OW14842   2.569   1.571   4.654
 4648SOL    HW114843   2.541   1.567   4.558
 4648SOL    HW214844   2.488   1.572   4.712
 4649SOL     OW14845   5.775   1.614   0.473
 4649SOL    HW114846   5.858   1.567   0.444
 4649SOL    HW214847   5.723   1.555   0.534
 4650SOL     OW14848   5.355   6.402   0.767
 4650SOL    HW114849   5.435   6.456   0.795
 4650SOL    HW214850   5.306   6.371   0.848
 4651SOL     OW14851   0.081   3.312   6.079
 4651SOL    HW114852   0.080   3.256   6.162
 4651SOL    HW214853   7.014   3.314   6.039
 4652SOL     OW14854   6.878   6.566   5.071
 4652SOL    HW114855   6.844   6.622   4.996
 4652SOL    HW214856   6.952   6.615   5.118
 4653SOL     OW14857   6.702   5.681   0.692
 4653SOL    HW114858   6.721   5.755   0.628
 4653SOL    HW214859   6.728   5.594   0.651
 4654SOL     OW14860   0.632   0.182   5.723
 4654SOL    HW114861   0.707   0.116   5.726
 4654SOL    HW214862   0.626   0.231   5.810
 4655SOL     OW14863   5.186   2.814   1.897
 4655SOL    HW114864   5.213   2.851   1.807
 4655SOL    HW214865   5.192   2.887   1.965
 4656SOL     OW14866   6.906   0.971   1.896
 4656SOL    HW114867   6.988   1.021   1.866
 4656SOL    HW214868   6.887   0.898   1.832
 4657SOL     OW14869   3.338   1.026   3.446
 4657SOL    HW114870   3.387   0.939   3.441
 4657SOL    HW214871   3.342   1.060   3.540
 4658SOL     OW14872   1.305   2.145   6.207
 4658SOL    HW114873   1.380   2.123   6.144
 4658SOL    HW214874   1.233   2.076   6.199
 4659SOL     OW14875   1.686   4.130   0.106
 4659SOL    HW114876   1.696   4.220   0.062
 4659SOL    HW214877   1.699   4.139   0.205
 4660SOL     OW14878   0.809   5.478   3.326
 4660SOL    HW114879   0.891   5.534   3.344
 4660SOL    HW214880   0.803   5.459   3.229
 4661SOL     OW14881   0.656   1.588   5.969
 4661SOL    HW114882   0.561   1.593   5.936
 4661SOL    HW214883   0.659   1.616   6.065
 4662SOL     OW14884   2.015   0.457   5.436
 4662SOL    HW114885   1.927   0.496   5.411
 4662SOL    HW214886   2.001   0.377   5.495
 4663SOL     OW14887   1.235   0.324   0.146
 4663SOL    HW114888   1.308   0.266   0.110
 4663SOL    HW214889   1.257   0.420   0.127
 4664SOL     OW14890   6.033   0.411   5.998
 4664SOL    HW114891   5.953   0.425   5.939
 4664SOL    HW214892   6.063   0.316   5.991
 4665SOL     OW14893   1.003   0.494   3.540
 4665SOL    HW114894   0.996   0.529   3.446
 4665SOL    HW214895   1.060   0.555   3.594
 4666SOL     OW14896   2.171   2.093   5.122
 4666SOL    HW114897   2.076   2.072   5.099
 4666SOL    HW214898   2.173   2.159   5.197
 4667SOL     OW14899   6.232   4.021   1.122
 4667SOL    HW114900   6.327   4.039   1.097
 4667SOL    HW214901   6.220   4.038   1.220
 4668SOL     OW14902   4.999   1.926   4.994
 4668SOL    HW114903   4.969   1.882   4.910
 4668SOL    HW214904   5.063   1.867   5.042
 4669SOL     OW14905   5.181   6.896   6.308
 4669SOL    HW114906   5.167   6.872   6.212
 4669SOL    HW214907   5.221   6.987   6.315
 4670SOL     OW14908   0.226   2.835   0.073
 4670SOL    HW114909   0.155   2.771   0.104
 4670SOL    HW214910   0.270   2.876   0.153
 4671SOL     OW14911   0.733   3.193   1.509
 4671SOL    HW114912   0.665   3.187   1.582
 4671SOL    HW214913   0.817   3.234   1.545
 4672SOL     OW14914   3.283   4.262   6.716
 4672SOL    HW114915   3.199   4.268   6.770
 4672SOL    HW214916   3.307   4.352   6.681
 4673SOL     OW14917   6.266   1.019   0.656
 4673SOL    HW114918   6.214   1.085   0.602
 4673SOL    HW214919   6.319   0.961   0.595
 4674SOL     OW14920   0.605   2.536   0.779
 4674SOL    HW114921   0.529   2.596   0.752
 4674SOL    HW214922   0.676   2.590   0.824
 4675SOL     OW14923   1.920   5.697   6.790
 4675SOL    HW114924   2.012   5.671   6.820
 4675SOL    HW214925   1.924   5.732   6.696
 4676SOL     OW14926   0.763   6.426   4.149
 4676SOL    HW114927   0.859   6.398   4.147
 4676SOL    HW214928   0.706   6.349   4.121
 4677SOL     OW14929   3.825   6.951   0.071
 4677SOL    HW114930   3.839   6.971   0.168
 4677SOL    HW214931   3.735   6.983   0.043
 4678SOL     OW14932   2.398   4.473   6.802
 4678SOL    HW114933   2.395   4.383   6.759
 4678SOL    HW214934   2.486   4.516   6.784
 4679SOL     OW14935   2.741   6.469   5.796
 4679SOL    HW114936   2.734   6.470   5.896
 4679SOL    HW214937   2.748   6.374   5.764
 4680SOL     OW14938   1.718   4.458   0.117
 4680SOL    HW114939   1.794   4.438   0.178
 4680SOL    HW214940   1.734   4.545   0.071
 4681SOL     OW14941   6.846   5.725   4.724
 4681SOL    HW114942   6.838   5.625   4.723
 4681SOL    HW214943   6.932   5.751   4.681
 4682SOL     OW14944   3.665   6.319   0.717
 4682SOL    HW114945   3.592   6.267   0.671
 4682SOL    HW214946   3.698   6.267   0.795
 4683SOL     OW14947   6.690   4.466   3.351
 4683SOL    HW114948   6.778   4.496   3.313
 4683SOL    HW214949   6.616   4.506   3.297
 4684SOL     OW14950   1.479   1.432   4.942
 4684SOL    HW114951   1.524   1.345   4.922
 4684SOL    HW214952   1.548   1.501   4.964
 4685SOL     OW14953   4.954   4.362   4.883
 4685SOL    HW114954   4.857   4.356   4.858
 4685SOL    HW214955   4.981   4.280   4.933
 4686SOL     OW14956   5.516   6.034   0.361
 4686SOL    HW114957   5.443   5.998   0.303
 4686SOL    HW214958   5.483   6.116   0.408
 4687SOL     OW14959   5.553   6.583   4.518
 4687SOL    HW114960   5.525   6.488   4.535
 4687SOL    HW214961   5.471   6.638   4.499
 4688SOL     OW14962   1.197   2.235   0.631
 4688SOL    HW114963   1.126   2.255   0.699
 4688SOL    HW214964   1.159   2.244   0.539
 4689SOL     OW14965   1.788   5.353   5.028
 4689SOL    HW114966   1.851   5.276   5.041
 4689SOL    HW214967   1.734   5.366   5.111
 4690SOL     OW14968   1.476   1.878   0.678
 4690SOL    HW114969   1.537   1.956   0.692
 4690SOL    HW214970   1.471   1.857   0.580
 4691SOL     OW14971   3.786   4.344   0.550
 4691SOL    HW114972   3.686   4.342   0.549
 4691SOL    HW214973   3.822   4.268   0.497
 4692SOL     OW14974   0.498   5.859   3.017
 4692SOL    HW114975   0.444   5.944   3.020
 4692SOL    HW214976   0.588   5.876   3.056
 4693SOL     OW14977   0.702   0.993   4.234
 4693SOL    HW114978   0.710   0.993   4.135
 4693SOL    HW214979   0.772   0.933   4.273
 4694SOL     OW14980   1.115   0.911   6.271
 4694SOL    HW114981   1.211   0.894   6.293
 4694SOL    HW214982   1.095   0.875   6.180
 4695SOL     OW14983   2.993   3.110   1.641
 4695SOL    HW114984   3.089   3.087   1.656
 4695SOL    HW214985   2.949   3.039   1.586
 4696SOL     OW14986   5.714   3.328   0.387
 4696SOL    HW114987   5.715   3.427   0.372
 4696SOL    HW214988   5.624   3.300   0.418
 4697SOL     OW14989   0.973   4.992   7.013
 4697SOL    HW114990   0.908   4.922   0.019
 4697SOL    HW214991   0.967   5.071   0.051
 4698SOL     OW14992   6.054   3.450   1.681
 4698SOL    HW114993   5.998   3.513   1.735
 4698SOL    HW214994   6.143   3.438   1.725
 4699SOL     OW14995   6.420   7.021   3.269
 4699SOL    HW114996   6.438   6.947   3.333
 4699SOL    HW214997   6.365   6.986   3.192
 4700SOL     OW14998   5.621   6.633   6.860
 4700SOL    HW114999   5.709   6.635   6.907
 4700SOL    HW215000   5.547   6.642   6.926
 4701SOL     OW15001   0.243   0.759   0.757
 4701SOL    HW115002   0.192   0.809   0.826
 4701SOL    HW215003   0.247   0.812   0.672
 4702SOL     OW15004   2.735   3.075   6.779
 4702SOL    HW115005   2.794   3.033   6.709
 4702SOL    HW215006   2.771   3.053   6.870
 4703SOL     OW15007   1.805   1.207   1.138
 4703SOL    HW115008   1.730   1.193   1.073
 4703SOL    HW215009   1.775   1.266   1.212
 4704SOL     OW15010   4.560   0.050   0.138
 4704SOL    HW115011   4.650   0.030   0.176
 4704SOL    HW215012   4.500   0.086   0.209
 4705SOL     OW15013   3.238   4.040   3.698
 4705SOL    HW115014   3.173   3.979   3.743
 4705SOL    HW215015   3.268   4.110   3.763
 4706SOL     OW15016   4.620   5.429   1.258
 4706SOL    HW115017   4.718   5.416   1.244
 4706SOL    HW215018   4.569   5.363   1.202
 4707SOL     OW15019   3.668   6.221   1.498
 4707SOL    HW115020   3.761   6.205   1.532
 4707SOL    HW215021   3.612   6.141   1.518
 4708SOL     OW15022   1.551   2.641   2.777
 4708SOL    HW115023   1.470   2.687   2.739
 4708SOL    HW215024   1.622   2.635   2.706
 4709SOL     OW15025   3.061   3.708   6.940
 4709SOL    HW115026   2.994   3.652   6.892
 4709SOL    HW215027   3.151   3.694   6.899
 4710SOL     OW15028   4.967   2.374   0.833
 4710SOL    HW115029   4.907   2.421   0.899
 4710SOL    HW215030   5.047   2.431   0.815
 4711SOL     OW15031   3.282   6.562   3.185
 4711SOL    HW115032   3.354   6.493   3.185
 4711SOL    HW215033   3.200   6.525   3.230
 4712SOL     OW15034   1.416   4.404   0.562
 4712SOL    HW115035   1.474   4.367   0.634
 4712SOL    HW215036   1.464   4.477   0.514
 4713SOL     OW15037   2.240   6.249   1.070
 4713SOL    HW115038   2.275   6.221   0.981
 4713SOL    HW215039   2.147   6.213   1.081
 4714SOL     OW15040   3.152   2.516   0.609
 4714SOL    HW115041   3.181   2.503   0.704
 4714SOL    HW215042   3.189   2.442   0.553
 4715SOL     OW15043   5.493   3.872   4.588
 4715SOL    HW115044   5.531   3.819   4.663
 4715SOL    HW215045   5.567   3.912   4.534
 4716SOL     OW15046   3.212   5.426   0.284
 4716SOL    HW115047   3.146   5.398   0.215
 4716SOL    HW215048   3.190   5.381   0.371
 4717SOL     OW15049   1.259   5.590   4.033
 4717SOL    HW115050   1.161   5.572   4.043
 4717SOL    HW215051   1.311   5.518   4.080
 4718SOL     OW15052   5.615   1.058   6.587
 4718SOL    HW115053   5.657   0.998   6.520
 4718SOL    HW215054   5.595   1.147   6.545
 4719SOL     OW15055   4.130   3.194   1.855
 4719SOL    HW115056   4.218   3.159   1.820
 4719SOL    HW215057   4.146   3.246   1.939
 4720SOL     OW15058   2.845   0.780   4.185
 4720SOL    HW115059   2.919   0.846   4.179
 4720SOL    HW215060   2.760   0.821   4.151
 4721SOL     OW15061   0.694   1.811   0.658
 4721SOL    HW115062   0.780   1.860   0.671
 4721SOL    HW215063   0.692   1.731   0.718
 4722SOL     OW15064   2.790   0.466   2.023
 4722SOL    HW115065   2.859   0.508   1.964
 4722SOL    HW215066   2.735   0.538   2.066
 4723SOL     OW15067   2.453   6.649   6.214
 4723SOL    HW115068   2.481   6.738   6.179
 4723SOL    HW215069   2.492   6.577   6.158
 4724SOL     OW15070   4.005   4.902   1.666
 4724SOL    HW115071   3.954   4.904   1.752
 4724SOL    HW215072   3.945   4.928   1.591
 4725SOL     OW15073   5.886   5.545   3.267
 4725SOL    HW115074   5.856   5.628   3.221
 4725SOL    HW215075   5.943   5.569   3.346
 4726SOL     OW15076   0.373   6.078   5.446
 4726SOL    HW115077   0.374   6.075   5.346
 4726SOL    HW215078   0.424   5.999   5.481
 4727SOL     OW15079   6.846   6.620   0.767
 4727SOL    HW115080   6.767   6.653   0.818
 4727SOL    HW215081   6.927   6.623   0.826
 4728SOL     OW15082   6.950   1.061   0.238
 4728SOL    HW115083   7.017   1.023   0.302
 4728SOL    HW215084   6.951   1.160   0.244
 4729SOL     OW15085   3.102   0.408   0.726
 4729SOL    HW115086   3.173   0.479   0.733
 4729SOL    HW215087   3.041   0.430   0.650
 4730SOL     OW15088   2.081   0.750   5.469
 4730SOL    HW115089   2.136   0.725   5.389
 4730SOL    HW215090   2.087   0.677   5.537
 4731SOL     OW15091   5.740   1.924   6.202
 4731SOL    HW115092   5.734   1.859   6.278
 4731SOL    HW215093   5.649   1.962   6.183
 4732SOL     OW15094   0.499   1.405   0.599
 4732SOL    HW115095   0.418   1.389   0.656
 4732SOL    HW215096   0.575   1.351   0.635
 4733SOL     OW15097   6.784   3.274   4.142
 4733SOL    HW115098   6.713   3.227   4.091
 4733SOL    HW215099   6.810   3.358   4.095
 4734SOL     OW15100   5.167   4.563   5.901
 4734SOL    HW115101   5.118   4.495   5.956
 4734SOL    HW215102   5.174   4.648   5.952
 4735SOL     OW15103   0.200   4.535   4.065
 4735SOL    HW115104   0.260   4.457   4.052
 4735SOL    HW215105   0.140   4.518   4.143
 4736SOL     OW15106   2.061   0.359   1.382
 4736SOL    HW115107   2.089   0.425   1.453
 4736SOL    HW215108   2.135   0.347   1.317
 4737SOL     OW15109   3.313   5.586   1.668
 4737SOL    HW115110   3.258   5.511   1.632
 4737SOL    HW215111   3.308   5.664   1.606
 4738SOL     OW15112   0.431   6.154   3.047
 4738SOL    HW115113   0.485   6.163   2.964
 4738SOL    HW215114   0.489   6.173   3.127
 4739SOL     OW15115   4.783   0.386   1.424
 4739SOL    HW115116   4.807   0.479   1.396
 4739SOL    HW215117   4.775   0.381   1.523
 4740SOL     OW15118   1.030   2.401   3.677
 4740SOL    HW115119   0.972   2.427   3.599
 4740SOL    HW215120   0.976   2.348   3.742
 4741SOL     OW15121   3.780   4.017   1.165
 4741SOL    HW115122   3.818   3.926   1.182
 4741SOL    HW215123   3.789   4.073   1.247
 4742SOL     OW15124   3.657   1.153   0.831
 4742SOL    HW115125   3.646   1.085   0.758
 4742SOL    HW215126   3.642   1.109   0.919
 4743SOL     OW15127   2.026   5.157   0.788
 4743SOL    HW115128   1.949   5.172   0.726
 4743SOL    HW215129   2.108   5.134   0.735
 4744SOL     OW15130   2.547   5.904   1.172
 4744SOL    HW115131   2.459   5.919   1.127
 4744SOL    HW215132   2.580   5.812   1.152
 4745SOL     OW15133   1.137   3.473   0.261
 4745SOL    HW115134   1.200   3.402   0.232
 4745SOL    HW215135   1.187   3.544   0.311
 4746SOL     OW15136   4.451   5.655   4.186
 4746SOL    HW115137   4.458   5.725   4.115
 4746SOL    HW215138   4.355   5.632   4.201
 4747SOL     OW15139   2.118   0.941   0.253
 4747SOL    HW115140   2.107   0.919   0.156
 4747SOL    HW215141   2.215   0.938   0.277
 4748SOL     OW15142   1.853   6.524   1.549
 4748SOL    HW115143   1.863   6.623   1.559
 4748SOL    HW215144   1.873   6.497   1.455
 4749SOL     OW15145   2.755   2.015   0.451
 4749SOL    HW115146   2.787   2.093   0.397
 4749SOL    HW215147   2.811   1.935   0.429
 4750SOL     OW15148   5.051   2.762   5.236
 4750SOL    HW115149   4.973   2.705   5.261
 4750SOL    HW215150   5.127   2.704   5.207
 4751SOL     OW15151   4.791   0.868   3.339
 4751SOL    HW115152   4.755   0.933   3.406
 4751SOL    HW215153   4.865   0.815   3.381
 4752SOL     OW15154   5.129   1.714   6.529
 4752SOL    HW115155   5.050   1.771   6.505
 4752SOL    HW215156   5.150   1.726   6.626
 4753SOL     OW15157   3.286   6.515   4.871
 4753SOL    HW115158   3.262   6.431   4.822
 4753SOL    HW215159   3.212   6.539   4.934
 4754SOL     OW15160   4.584   4.543   6.490
 4754SOL    HW115161   4.522   4.548   6.568
 4754SOL    HW215162   4.564   4.619   6.428
 4755SOL     OW15163   0.835   0.972   1.312
 4755SOL    HW115164   0.859   0.876   1.295
 4755SOL    HW215165   0.851   0.993   1.408
 4756SOL     OW15166   6.568   3.842   5.461
 4756SOL    HW115167   6.632   3.806   5.529
 4756SOL    HW215168   6.601   3.930   5.428
 4757SOL     OW15169   1.895   3.774   0.285
 4757SOL    HW115170   1.884   3.695   0.224
 4757SOL    HW215171   1.972   3.829   0.255
 4758SOL     OW15172   2.138   5.737   3.438
 4758SOL    HW115173   2.095   5.817   3.478
 4758SOL    HW215174   2.198   5.694   3.506
 4759SOL     OW15175   0.427   6.379   2.127
 4759SOL    HW115176   0.419   6.439   2.047
 4759SOL    HW215177   0.392   6.427   2.207
 4760SOL     OW15178   1.560   5.788   0.419
 4760SOL    HW115179   1.586   5.884   0.428
 4760SOL    HW215180   1.512   5.759   0.502
 4761SOL     OW15181   5.794   6.746   1.701
 4761SOL    HW115182   5.894   6.740   1.697
 4761SOL    HW215183   5.756   6.654   1.689
 4762SOL     OW15184   2.152   0.091   2.460
 4762SOL    HW115185   2.100   0.154   2.403
 4762SOL    HW215186   2.127   7.020   2.438
 4763SOL     OW15187   5.787   5.633   2.361
 4763SOL    HW115188   5.759   5.546   2.318
 4763SOL    HW215189   5.869   5.618   2.416
 4764SOL     OW15190   5.135   2.871   0.276
 4764SOL    HW115191   5.040   2.848   0.254
 4764SOL    HW215192   5.154   2.848   0.371
 4765SOL     OW15193   3.723   1.589   5.674
 4765SOL    HW115194   3.708   1.685   5.650
 4765SOL    HW215195   3.810   1.579   5.721
 4766SOL     OW15196   1.090   0.595   4.713
 4766SOL    HW115197   1.075   0.501   4.742
 4766SOL    HW215198   1.009   0.630   4.667
 4767SOL     OW15199   1.991   4.022   3.253
 4767SOL    HW115200   2.073   4.064   3.291
 4767SOL    HW215201   1.988   4.039   3.155
 4768SOL     OW15202   4.468   2.678   6.392
 4768SOL    HW115203   4.493   2.659   6.487
 4768SOL    HW215204   4.488   2.774   6.371
 4769SOL     OW15205   1.871   3.275   0.127
 4769SOL    HW115206   1.785   3.241   0.167
 4769SOL    HW215207   1.948   3.226   0.168
 4770SOL     OW15208   0.465   1.711   4.008
 4770SOL    HW115209   0.558   1.743   4.028
 4770SOL    HW215210   0.430   1.758   3.927
 4771SOL     OW15211   1.897   6.920   4.193
 4771SOL    HW115212   1.988   6.956   4.216
 4771SOL    HW215213   1.879   6.838   4.247
 4772SOL     OW15214   3.016   5.200   2.356
 4772SOL    HW115215   2.923   5.190   2.321
 4772SOL    HW215216   3.080   5.159   2.291
 4773SOL     OW15217   2.936   4.841   5.175
 4773SOL    HW115218   2.897   4.754   5.145
 4773SOL    HW215219   2.864   4.911   5.177
 4774SOL     OW15220   0.910   4.701   0.760
 4774SOL    HW115221   0.909   4.622   0.822
 4774SOL    HW215222   0.879   4.673   0.670
 4775SOL     OW15223   6.070   5.766   5.362
 4775SOL    HW115224   6.120   5.733   5.442
 4775SOL    HW215225   6.076   5.866   5.357
 4776SOL     OW15226   0.484   1.218   5.669
 4776SOL    HW115227   0.567   1.271   5.649
 4776SOL    HW215228   0.438   1.259   5.748
 4777SOL     OW15229   2.222   0.102   2.740
 4777SOL    HW115230   2.180   0.093   2.649
 4777SOL    HW215231   2.227   0.199   2.764
 4778SOL     OW15232   1.705   1.340   0.666
 4778SOL    HW115233   1.616   1.349   0.622
 4778SOL    HW215234   1.773   1.306   0.600
 4779SOL     OW15235   5.112   0.583   4.762
 4779SOL    HW115236   5.124   0.609   4.858
 4779SOL    HW215237   5.174   0.638   4.705
 4780SOL     OW15238   4.776   2.736   4.771
 4780SOL    HW115239   4.860   2.681   4.779
 4780SOL    HW215240   4.726   2.708   4.689
 4781SOL     OW15241   1.630   5.581   1.773
 4781SOL    HW115242   1.695   5.519   1.817
 4781SOL    HW215243   1.570   5.529   1.712
 4782SOL     OW15244   6.504   6.581   4.285
 4782SOL    HW115245   6.461   6.573   4.195
 4782SOL    HW215246   6.601   6.558   4.277
 4783SOL     OW15247   0.317   3.683   5.938
 4783SOL    HW115248   0.403   3.666   5.985
 4783SOL    HW215249   0.335   3.718   5.847
 4784SOL     OW15250   5.290   3.736   6.769
 4784SOL    HW115251   5.239   3.810   6.813
 4784SOL    HW215252   5.227   3.662   6.744
 4785SOL     OW15253   0.825   0.383   4.536
 4785SOL    HW115254   0.741   0.328   4.532
 4785SOL    HW215255   0.801   0.480   4.536
 4786SOL     OW15256   0.488   5.936   0.504
 4786SOL    HW115257   0.540   5.852   0.489
 4786SOL    HW215258   0.446   5.933   0.595
 4787SOL     OW15259   4.592   1.019   4.400
 4787SOL    HW115260   4.516   1.005   4.462
 4787SOL    HW215261   4.579   1.104   4.349
 4788SOL     OW15262   0.210   5.984   0.743
 4788SOL    HW115263   0.258   6.064   0.777
 4788SOL    HW215264   0.178   6.000   0.650
 4789SOL     OW15265   6.391   0.912   2.656
 4789SOL    HW115266   6.339   0.919   2.741
 4789SOL    HW215267   6.397   0.816   2.629
 4790SOL     OW15268   6.582   1.736   4.835
 4790SOL    HW115269   6.489   1.771   4.822
 4790SOL    HW215270   6.583   1.638   4.816
 4791SOL     OW15271   0.710   0.120   0.141
 4791SOL    HW115272   0.766   0.203   0.132
 4791SOL    HW215273   0.768   0.040   0.126
 4792SOL     OW15274   1.792   3.328   2.238
 4792SOL    HW115275   1.883   3.329   2.196
 4792SOL    HW215276   1.799   3.354   2.334
 4793SOL     OW15277   1.384   3.908   5.940
 4793SOL    HW115278   1.476   3.870   5.939
 4793SOL    HW215279   1.346   3.902   6.032
 4794SOL     OW15280   4.783   1.769   4.622
 4794SOL    HW115281   4.726   1.708   4.567
 4794SOL    HW215282   4.793   1.857   4.576
 4795SOL     OW15283   6.998   0.828   6.137
 4795SOL    HW115284   0.039   0.903   6.149
 4795SOL    HW215285   6.931   0.830   6.211
 4796SOL     OW15286   4.605   1.201   5.593
 4796SOL    HW115287   4.508   1.192   5.572
 4796SOL    HW215288   4.632   1.131   5.659
 4797SOL     OW15289   1.956   5.464   6.346
 4797SOL    HW115290   2.004   5.379   6.321
 4797SOL    HW215291   1.929   5.459   6.442
 4798SOL     OW15292   4.003   5.662   0.303
 4798SOL    HW115293   3.956   5.748   0.283
 4798SOL    HW215294   3.936   5.587   0.301
 4799SOL     OW15295   4.458   2.663   0.325
 4799SOL    HW115296   4.482   2.677   0.229
 4799SOL    HW215297   4.541   2.641   0.377
 4800SOL     OW15298   0.131   4.394   6.935
 4800SOL    HW115299   0.114   4.320   7.000
 4800SOL    HW215300   0.070   4.384   6.856
 4801SOL     OW15301   5.389   2.214   2.268
 4801SOL    HW115302   5.329   2.175   2.338
 4801SOL    HW215303   5.364   2.309   2.252
 4802SOL     OW15304   6.442   6.953   4.534
 4802SOL    HW115305   6.520   6.918   4.481
 4802SOL    HW215306   6.459   0.025   4.558
 4803SOL     OW15307   5.078   3.977   5.466
 4803SOL    HW115308   5.069   3.935   5.376
 4803SOL    HW215309   5.045   4.072   5.461
 4804SOL     OW15310   5.434   2.282   0.613
 4804SOL    HW115311   5.467   2.298   0.706
 4804SOL    HW215312   5.358   2.344   0.594
 4805SOL     OW15313   5.977   1.421   6.843
 4805SOL    HW115314   5.968   1.333   6.796
 4805SOL    HW215315   5.971   1.495   6.776
 4806SOL     OW15316   1.320   1.562   3.388
 4806SOL    HW115317   1.277   1.485   3.342
 4806SOL    HW215318   1.413   1.575   3.352
 4807SOL     OW15319   0.303   4.307   5.959
 4807SOL    HW115320   0.244   4.294   6.038
 4807SOL    HW215321   0.247   4.314   5.876
 4808SOL     OW15322   3.390   5.890   1.766
 4808SOL    HW115323   3.293   5.887   1.791
 4808SOL    HW215324   3.428   5.797   1.766
 4809SOL     OW15325   3.229   3.596   1.771
 4809SOL    HW115326   3.160   3.538   1.728
 4809SOL    HW215327   3.218   3.690   1.740
 4810SOL     OW15328   1.727   5.549   3.964
 4810SOL    HW115329   1.669   5.626   3.934
 4810SOL    HW215330   1.746   5.557   4.061
 4811SOL     OW15331   3.332   3.635   4.387
 4811SOL    HW115332   3.277   3.667   4.310
 4811SOL    HW215333   3.272   3.618   4.465
 4812SOL     OW15334   1.604   6.400   3.238
 4812SOL    HW115335   1.622   6.498   3.250
 4812SOL    HW215336   1.687   6.349   3.260
 4813SOL     OW15337   0.833   1.540   5.268
 4813SOL    HW115338   0.771   1.467   5.296
 4813SOL    HW215339   0.783   1.607   5.214
 4814SOL     OW15340   6.312   3.825   1.620
 4814SOL    HW115341   6.340   3.921   1.618
 4814SOL    HW215342   6.331   3.788   1.711
 4815SOL     OW15343   6.019   4.623   2.442
 4815SOL    HW115344   6.032   4.547   2.379
 4815SOL    HW215345   6.045   4.709   2.397
 4816SOL     OW15346   3.472   1.185   2.468
 4816SOL    HW115347   3.399   1.213   2.406
 4816SOL    HW215348   3.560   1.216   2.431
 4817SOL     OW15349   3.957   1.787   1.113
 4817SOL    HW115350   3.971   1.826   1.205
 4817SOL    HW215351   4.034   1.729   1.089
 4818SOL     OW15352   3.716   0.012   4.741
 4818SOL    HW115353   3.743   0.087   4.801
 4818SOL    HW215354   3.794   7.006   4.687
 4819SOL     OW15355   3.182   0.974   0.217
 4819SOL    HW115356   3.154   0.996   0.311
 4819SOL    HW215357   3.277   1.001   0.204
 4820SOL     OW15358   5.585   3.874   1.842
 4820SOL    HW115359   5.662   3.847   1.899
 4820SOL    HW215360   5.548   3.961   1.875
 4821SOL     OW15361   0.333   5.828   1.847
 4821SOL    HW115362   0.429   5.802   1.862
 4821SOL    HW215363   0.279   5.805   1.928
 4822SOL     OW15364   0.939   3.898   1.640
 4822SOL    HW115365   0.859   3.839   1.629
 4822SOL    HW215366   1.011   3.868   1.577
 4823SOL     OW15367   1.395   1.058   3.472
 4823SOL    HW115368   1.479   1.019   3.434
 4823SOL    HW215369   1.410   1.154   3.495
 4824SOL     OW15370   5.776   2.709   1.819
 4824SOL    HW115371   5.683   2.745   1.824
 4824SOL    HW215372   5.831   2.752   1.891
 4825SOL     OW15373   6.962   3.133   3.743
 4825SOL    HW115374   0.026   3.168   3.776
 4825SOL    HW215375   6.927   3.194   3.671
 4826SOL     OW15376   6.939   6.663   6.830
 4826SOL    HW115377   6.902   6.752   6.801
 4826SOL    HW215378   6.943   6.659   6.929
 4827SOL     OW15379   5.219   1.498   0.528
 4827SOL    HW115380   5.230   1.590   0.566
 4827SOL    HW215381   5.143   1.498   0.462
 4828SOL     OW15382   5.531   3.276   6.852
 4828SOL    HW115383   5.520   3.372   6.825
 4828SOL    HW215384   5.546   3.220   6.771
 4829SOL     OW15385   3.727   0.002   5.055
 4829SOL    HW115386   3.648   6.973   5.021
 4829SOL    HW215387   3.694   0.083   5.104
 4830SOL     OW15388   4.116   6.340   5.257
 4830SOL    HW115389   4.124   6.327   5.158
 4830SOL    HW215390   4.065   6.264   5.297
 4831SOL     OW15391   5.930   3.367   6.204
 4831SOL    HW115392   6.020   3.329   6.226
 4831SOL    HW215393   5.879   3.301   6.149
 4832SOL     OW15394   1.871   2.638   6.130
 4832SOL    HW115395   1.846   2.573   6.058
 4832SOL    HW215396   1.904   2.723   6.088
 4833SOL     OW15397   6.304   1.673   3.271
 4833SOL    HW115398   6.305   1.742   3.199
 4833SOL    HW215399   6.395   1.666   3.312
 4834SOL     OW15400   5.689   0.694   3.450
 4834SOL    HW115401   5.615   0.637   3.413
 4834SOL    HW215402   5.777   0.653   3.427
 4835SOL     OW15403   1.648   0.744   5.810
 4835SOL    HW115404   1.674   0.726   5.715
 4835SOL    HW215405   1.672   0.665   5.866
 4836SOL     OW15406   5.540   3.054   1.963
 4836SOL    HW115407   5.515   2.959   1.945
 4836SOL    HW215408   5.638   3.066   1.950
 4837SOL     OW15409   0.427   3.699   1.115
 4837SOL    HW115410   0.330   3.680   1.126
 4837SOL    HW215411   0.439   3.790   1.076
 4838SOL     OW15412   2.623   5.287   2.607
 4838SOL    HW115413   2.705   5.251   2.652
 4838SOL    HW215414   2.637   5.291   2.509
 4839SOL     OW15415   0.577   0.047   6.936
 4839SOL    HW115416   0.624   0.019   6.852
 4839SOL    HW215417   0.638   0.103   6.992
 4840SOL     OW15418   6.176   6.846   6.793
 4840SOL    HW115419   6.109   6.847   6.867
 4840SOL    HW215420   6.128   6.850   6.705
 4841SOL     OW15421   2.538   6.170   2.192
 4841SOL    HW115422   2.605   6.186   2.120
 4841SOL    HW215423   2.506   6.075   2.186
 4842SOL     OW15424   3.882   6.583   1.535
 4842SOL    HW115425   3.916   6.645   1.464
 4842SOL    HW215426   3.843   6.636   1.610
 4843SOL     OW15427   0.974   2.741   6.495
 4843SOL    HW115428   1.025   2.754   6.409
 4843SOL    HW215429   0.878   2.763   6.480
 4844SOL     OW15430   0.549   1.570   5.343
 4844SOL    HW115431   0.572   1.667   5.335
 4844SOL    HW215432   0.538   1.531   5.252
 4845SOL     OW15433   5.706   5.213   3.768
 4845SOL    HW115434   5.683   5.174   3.857
 4845SOL    HW215435   5.636   5.280   3.742
 4846SOL     OW15436   0.304   5.295   6.979
 4846SOL    HW115437   0.375   5.365   6.980
 4846SOL    HW215438   0.249   5.301   0.039
 4847SOL     OW15439   4.626   2.691   4.560
 4847SOL    HW115440   4.629   2.705   4.461
 4847SOL    HW215441   4.561   2.619   4.582
 4848SOL     OW15442   2.613   2.220   1.956
 4848SOL    HW115443   2.657   2.131   1.963
 4848SOL    HW215444   2.669   2.288   2.004
 4849SOL     OW15445   1.047   6.453   6.245
 4849SOL    HW115446   0.957   6.480   6.278
 4849SOL    HW215447   1.117   6.498   6.300
 4850SOL     OW15448   4.365   0.671   3.187
 4850SOL    HW115449   4.418   0.586   3.190
 4850SOL    HW215450   4.363   0.712   3.278
 4851SOL     OW15451   5.279   0.973   5.048
 4851SOL    HW115452   5.224   0.937   5.124
 4851SOL    HW215453   5.326   0.897   5.003
 4852SOL     OW15454   1.671   2.157   1.615
 4852SOL    HW115455   1.747   2.203   1.568
 4852SOL    HW215456   1.592   2.151   1.553
 4853SOL     OW15457   3.173   1.918   1.448
 4853SOL    HW115458   3.248   1.984   1.453
 4853SOL    HW215459   3.089   1.966   1.424
 4854SOL     OW15460   3.953   0.199   0.488
 4854SOL    HW115461   4.025   0.213   0.420
 4854SOL    HW215462   3.949   0.102   0.513
 4855SOL     OW15463   6.958   2.762   2.599
 4855SOL    HW115464   6.959   2.663   2.611
 4855SOL    HW215465   0.017   2.791   2.551
 4856SOL     OW15466   1.713   3.683   3.278
 4856SOL    HW115467   1.753   3.765   3.319
 4856SOL    HW215468   1.758   3.663   3.192
 4857SOL     OW15469   0.586   1.189   6.309
 4857SOL    HW115470   0.608   1.204   6.213
 4857SOL    HW215471   0.627   1.262   6.364
 4858SOL     OW15472   1.496   0.750   3.915
 4858SOL    HW115473   1.542   0.787   3.834
 4858SOL    HW215474   1.563   0.706   3.975
 4859SOL     OW15475   3.160   5.751   5.880
 4859SOL    HW115476   3.242   5.696   5.897
 4859SOL    HW215477   3.181   5.847   5.897
 4860SOL     OW15478   4.077   3.904   0.230
 4860SOL    HW115479   4.054   3.905   0.327
 4860SOL    HW215480   3.993   3.915   0.176
 4861SOL     OW15481   5.144   3.632   5.610
 4861SOL    HW115482   5.152   3.546   5.560
 4861SOL    HW215483   5.048   3.649   5.632
 4862SOL     OW15484   0.896   6.355   1.232
 4862SOL    HW115485   0.854   6.299   1.160
 4862SOL    HW215486   0.992   6.372   1.209
 4863SOL     OW15487   4.981   4.051   6.324
 4863SOL    HW115488   4.916   3.974   6.331
 4863SOL    HW215489   4.999   4.070   6.228
 4864SOL     OW15490   3.080   0.969   4.148
 4864SOL    HW115491   3.150   0.899   4.133
 4864SOL    HW215492   3.116   1.039   4.210
 4865SOL     OW15493   1.816   6.410   5.220
 4865SOL    HW115494   1.798   6.506   5.199
 4865SOL    HW215495   1.885   6.404   5.292
 4866SOL     OW15496   6.572   4.008   6.448
 4866SOL    HW115497   6.564   3.909   6.465
 4866SOL    HW215498   6.481   4.045   6.429
 4867SOL     OW15499   4.712   0.742   2.474
 4867SOL    HW115500   4.759   0.806   2.534
 4867SOL    HW215501   4.779   0.696   2.415
 4868SOL     OW15502   6.887   4.339   0.816
 4868SOL    HW115503   6.910   4.431   0.847
 4868SOL    HW215504   6.938   4.272   0.870
 4869SOL     OW15505   0.817   0.874   0.705
 4869SOL    HW115506   0.848   0.968   0.720
 4869SOL    HW215507   0.892   0.820   0.667
 4870SOL     OW15508   0.699   6.863   2.006
 4870SOL    HW115509   0.744   6.870   1.917
 4870SOL    HW215510   0.601   6.875   1.995
 4871SOL     OW15511   1.692   1.234   3.754
 4871SOL    HW115512   1.603   1.276   3.732
 4871SOL    HW215513   1.685   1.188   3.843
 4872SOL     OW15514   5.915   6.109   3.050
 4872SOL    HW115515   5.983   6.147   3.113
 4872SOL    HW215516   5.853   6.182   3.020
 4873SOL     OW15517   6.339   5.238   4.699
 4873SOL    HW115518   6.304   5.318   4.749
 4873SOL    HW215519   6.374   5.171   4.765
 4874SOL     OW15520   4.936   3.143   3.112
 4874SOL    HW115521   4.992   3.087   3.174
 4874SOL    HW215522   4.881   3.207   3.165
 4875SOL     OW15523   5.531   5.950   5.037
 4875SOL    HW115524   5.508   5.991   5.125
 4875SOL    HW215525   5.524   5.850   5.044
 4876SOL     OW15526   1.429   1.107   2.270
 4876SOL    HW115527   1.348   1.049   2.278
 4876SOL    HW215528   1.495   1.081   2.341
 4877SOL     OW15529   6.993   1.461   5.861
 4877SOL    HW115530   0.001   1.454   5.955
 4877SOL    HW215531   6.897   1.490   5.861
 4878SOL     OW15532   6.926   3.300   2.301
 4878SOL    HW115533   6.968   3.323   2.389
 4878SOL    HW215534   6.925   3.201   2.290
 4879SOL     OW15535   6.000   0.828   2.784
 4879SOL    HW115536   6.036   0.737   2.764
 4879SOL    HW215537   5.932   0.853   2.714
 4880SOL     OW15538   6.423   2.713   6.495
 4880SOL    HW115539   6.367   2.631   6.496
 4880SOL    HW215540   6.451   2.736   6.589
 4881SOL     OW15541   1.603   2.568   1.688
 4881SOL    HW115542   1.559   2.487   1.727
 4881SOL    HW215543   1.538   2.617   1.631
 4882SOL     OW15544   4.511   2.418   4.511
 4882SOL    HW115545   4.440   2.366   4.464
 4882SOL    HW215546   4.527   2.378   4.601
 4883SOL     OW15547   5.741   4.244   0.474
 4883SOL    HW115548   5.697   4.192   0.400
 4883SOL    HW215549   5.840   4.247   0.458
 4884SOL     OW15550   1.557   0.300   1.584
 4884SOL    HW115551   1.606   0.287   1.498
 4884SOL    HW215552   1.477   0.241   1.586
 4885SOL     OW15553   1.264   4.183   0.495
 4885SOL    HW115554   1.239   4.195   0.399
 4885SOL    HW215555   1.320   4.260   0.525
 4886SOL     OW15556   2.267   1.130   2.162
 4886SOL    HW115557   2.267   1.100   2.066
 4886SOL    HW215558   2.215   1.064   2.216
 4887SOL     OW15559   5.726   6.433   0.050
 4887SOL    HW115560   5.630   6.461   0.058
 4887SOL    HW215561   5.756   6.393   0.136
 4888SOL     OW15562   4.164   0.455   2.677
 4888SOL    HW115563   4.257   0.418   2.674
 4888SOL    HW215564   4.102   0.387   2.716
 4889SOL     OW15565   6.923   2.977   3.965
 4889SOL    HW115566   6.949   3.047   3.899
 4889SOL    HW215567   6.877   2.902   3.918
 4890SOL     OW15568   6.583   1.334   4.468
 4890SOL    HW115569   6.593   1.403   4.396
 4890SOL    HW215570   6.516   1.366   4.535
 4891SOL     OW15571   3.067   5.400   6.344
 4891SOL    HW115572   2.981   5.392   6.395
 4891SOL    HW215573   3.119   5.316   6.353
 4892SOL     OW15574   5.113   5.254   2.476
 4892SOL    HW115575   5.069   5.174   2.516
 4892SOL    HW215576   5.044   5.313   2.434
 4893SOL     OW15577   1.171   3.292   1.041
 4893SOL    HW115578   1.094   3.354   1.023
 4893SOL    HW215579   1.257   3.340   1.023
 4894SOL     OW15580   5.542   6.752   2.018
 4894SOL    HW115581   5.563   6.655   2.008
 4894SOL    HW215582   5.593   6.789   2.096
 4895SOL     OW15583   6.865   4.549   5.039
 4895SOL    HW115584   6.920   4.627   5.009
 4895SOL    HW215585   6.838   4.495   4.960
 4896SOL     OW15586   2.296   4.735   4.335
 4896SOL    HW115587   2.252   4.736   4.424
 4896SOL    HW215588   2.375   4.796   4.336
 4897SOL     OW15589   1.670   0.278   5.206
 4897SOL    HW115590   1.618   0.195   5.227
 4897SOL    HW215591   1.622   0.331   5.136
 4898SOL     OW15592   5.500   1.450   3.477
 4898SOL    HW115593   5.405   1.420   3.491
 4898SOL    HW215594   5.537   1.402   3.397
 4899SOL     OW15595   6.519   6.792   1.371
 4899SOL    HW115596   6.614   6.824   1.367
 4899SOL    HW215597   6.488   6.768   1.278
 4900SOL     OW15598   3.755   6.016   5.694
 4900SOL    HW115599   3.851   5.994   5.677
 4900SOL    HW215600   3.723   5.963   5.772
 4901SOL     OW15601   0.963   0.658   6.295
 4901SOL    HW115602   1.024   0.695   6.225
 4901SOL    HW215603   0.878   0.710   6.296
 4902SOL     OW15604   2.289   0.449   5.429
 4902SOL    HW115605   2.334   0.524   5.380
 4902SOL    HW215606   2.190   0.455   5.415
 4903SOL     OW15607   4.809   3.918   2.895
 4903SOL    HW115608   4.738   3.869   2.945
 4903SOL    HW215609   4.814   3.884   2.802
 4904SOL     OW15610   1.162   0.081   0.595
 4904SOL    HW115611   1.247   0.028   0.588
 4904SOL    HW215612   1.091   0.037   0.540
 4905SOL     OW15613   3.044   6.477   3.352
 4905SOL    HW115614   2.950   6.504   3.329
 4905SOL    HW215615   3.046   6.440   3.445
 4906SOL     OW15616   4.947   3.631   4.761
 4906SOL    HW115617   5.000   3.553   4.729
 4906SOL    HW215618   4.911   3.612   4.852
 4907SOL     OW15619   4.187   1.893   0.299
 4907SOL    HW115620   4.245   1.902   0.219
 4907SOL    HW215621   4.231   1.937   0.378
 4908SOL     OW15622   3.512   6.984   0.278
 4908SOL    HW115623   3.436   0.019   0.305
 4908SOL    HW215624   3.533   6.998   0.182
 4909SOL     OW15625   5.199   4.987   4.800
 4909SOL    HW115626   5.273   4.970   4.865
 4909SOL    HW215627   5.192   4.910   4.737
 4910SOL     OW15628   4.555   1.941   6.017
 4910SOL    HW115629   4.579   1.983   5.929
 4910SOL    HW215630   4.568   2.008   6.090
 4911SOL     OW15631   6.559   3.190   2.565
 4911SOL    HW115632   6.643   3.169   2.615
 4911SOL    HW215633   6.500   3.247   2.622
 4912SOL     OW15634   5.681   2.385   3.971
 4912SOL    HW115635   5.753   2.418   4.032
 4912SOL    HW215636   5.593   2.423   4.000
 4913SOL     OW15637   1.166   4.234   5.284
 4913SOL    HW115638   1.091   4.298   5.301
 4913SOL    HW215639   1.224   4.271   5.211
 4914SOL     OW15640   4.074   0.643   3.600
 4914SOL    HW115641   4.168   0.667   3.624
 4914SOL    HW215642   4.021   0.628   3.683
 4915SOL     OW15643   3.582   5.175   5.710
 4915SOL    HW115644   3.574   5.240   5.634
 4915SOL    HW215645   3.664   5.195   5.763
 4916SOL     OW15646   5.616   2.137   4.085
 4916SOL    HW115647   5.546   2.097   4.026
 4916SOL    HW215648   5.637   2.230   4.055
 4917SOL     OW15649   4.190   6.668   0.276
 4917SOL    HW115650   4.117   6.678   0.209
 4917SOL    HW215651   4.276   6.700   0.237
 4918SOL     OW15652   5.671   5.093   3.308
 4918SOL    HW115653   5.756   5.116   3.356
 4918SOL    HW215654   5.669   5.140   3.219
 4919SOL     OW15655   3.045   3.959   2.115
 4919SOL    HW115656   2.991   3.880   2.085
 4919SOL    HW215657   3.041   4.030   2.045
 4920SOL     OW15658   5.936   1.840   6.057
 4920SOL    HW115659   5.856   1.874   6.107
 4920SOL    HW215660   5.979   1.767   6.109
 4921SOL     OW15661   0.221   0.160   2.253
 4921SOL    HW115662   0.169   0.242   2.233
 4921SOL    HW215663   0.178   0.081   2.208
 4922SOL     OW15664   3.108   1.421   6.055
 4922SOL    HW115665   3.104   1.512   6.096
 4922SOL    HW215666   3.016   1.381   6.056
 4923SOL     OW15667   3.541   1.282   1.846
 4923SOL    HW115668   3.465   1.295   1.782
 4923SOL    HW215669   3.553   1.185   1.865
 4924SOL     OW15670   2.165   0.715   5.214
 4924SOL    HW115671   2.184   0.641   5.150
 4924SOL    HW215672   2.177   0.804   5.169
 4925SOL     OW15673   6.022   5.785   3.689
 4925SOL    HW115674   5.945   5.721   3.696
 4925SOL    HW215675   6.043   5.822   3.779
 4926SOL     OW15676   4.980   2.640   1.058
 4926SOL    HW115677   5.040   2.644   0.979
 4926SOL    HW215678   5.032   2.662   1.141
 4927SOL     OW15679   3.036   1.512   6.865
 4927SOL    HW115680   3.046   1.431   6.923
 4927SOL    HW215681   3.087   1.588   6.906
 4928SOL     OW15682   6.539   2.480   0.900
 4928SOL    HW115683   6.549   2.530   0.986
 4928SOL    HW215684   6.480   2.532   0.838
 4929SOL     OW15685   0.955   6.302   5.163
 4929SOL    HW115686   0.891   6.349   5.103
 4929SOL    HW215687   1.048   6.334   5.145
 4930SOL     OW15688   5.310   6.139   2.445
 4930SOL    HW115689   5.239   6.175   2.384
 4930SOL    HW215690   5.327   6.043   2.422
 4931SOL     OW15691   6.758   6.265   0.593
 4931SOL    HW115692   6.709   6.349   0.572
 4931SOL    HW215693   6.725   6.191   0.534
 4932SOL     OW15694   3.834   3.442   2.550
 4932SOL    HW115695   3.837   3.350   2.512
 4932SOL    HW215696   3.928   3.472   2.569
 4933SOL     OW15697   1.871   0.239   5.836
 4933SOL    HW115698   1.910   0.206   5.750
 4933SOL    HW215699   1.855   0.338   5.830
 4934SOL     OW15700   4.138   5.916   2.393
 4934SOL    HW115701   4.148   5.838   2.455
 4934SOL    HW215702   4.229   5.950   2.367
 4935SOL     OW15703   0.475   0.751   5.448
 4935SOL    HW115704   0.440   0.830   5.499
 4935SOL    HW215705   0.433   0.749   5.357
 4936SOL     OW15706   3.964   2.741   1.346
 4936SOL    HW115707   3.905   2.805   1.297
 4936SOL    HW215708   3.956   2.651   1.304
 4937SOL     OW15709   4.594   2.799   5.220
 4937SOL    HW115710   4.503   2.762   5.241
 4937SOL    HW215711   4.620   2.771   5.127
 4938SOL     OW15712   3.747   5.124   6.220
 4938SOL    HW115713   3.736   5.049   6.154
 4938SOL    HW215714   3.841   5.125   6.255
 4939SOL     OW15715   4.814   3.325   6.047
 4939SOL    HW115716   4.898   3.284   6.083
 4939SOL    HW215717   4.812   3.422   6.071
 4940SOL     OW15718   2.237   6.165   4.109
 4940SOL    HW115719   2.303   6.189   4.037
 4940SOL    HW215720   2.272   6.196   4.197
 4941SOL     OW15721   5.532   0.449   0.902
 4941SOL    HW115722   5.498   0.402   0.983
 4941SOL    HW215723   5.495   0.542   0.899
 4942SOL     OW15724   4.719   2.822   6.025
 4942SOL    HW115725   4.703   2.746   6.089
 4942SOL    HW215726   4.786   2.793   5.956
 4943SOL     OW15727   5.247   2.511   1.662
 4943SOL    HW115728   5.311   2.463   1.723
 4943SOL    HW215729   5.155   2.504   1.700
 4944SOL     OW15730   2.315   4.147   2.193
 4944SOL    HW115731   2.285   4.057   2.222
 4944SOL    HW215732   2.251   4.216   2.227
 4945SOL     OW15733   6.695   6.390   4.499
 4945SOL    HW115734   6.613   6.368   4.553
 4945SOL    HW215735   6.775   6.390   4.560
 4946SOL     OW15736   0.394   4.555   2.341
 4946SOL    HW115737   0.416   4.614   2.419
 4946SOL    HW215738   0.389   4.610   2.258
 4947SOL     OW15739   6.576   0.060   1.260
 4947SOL    HW115740   6.489   0.069   1.213
 4947SOL    HW215741   6.560   0.034   1.355
 4948SOL     OW15742   2.171   1.397   1.786
 4948SOL    HW115743   2.266   1.393   1.815
 4948SOL    HW215744   2.113   1.358   1.858
 4949SOL     OW15745   5.355   1.661   4.817
 4949SOL    HW115746   5.313   1.629   4.733
 4949SOL    HW215747   5.393   1.753   4.803
 4950SOL     OW15748   3.143   5.196   5.270
 4950SOL    HW115749   3.158   5.102   5.240
 4950SOL    HW215750   3.226   5.249   5.258
 4951SOL     OW15751   4.508   2.167   4.024
 4951SOL    HW115752   4.438   2.146   4.093
 4951SOL    HW215753   4.479   2.130   3.936
 4952SOL     OW15754   0.157   4.911   5.150
 4952SOL    HW115755   0.237   4.855   5.174
 4952SOL    HW215756   0.177   5.007   5.167
 4953SOL     OW15757   1.830   5.612   2.036
 4953SOL    HW115758   1.800   5.557   1.958
 4953SOL    HW215759   1.862   5.551   2.109
 4954SOL     OW15760   6.827   6.410   6.738
 4954SOL    HW115761   6.747   6.392   6.794
 4954SOL    HW215762   6.871   6.494   6.768
 4955SOL     OW15763   1.138   0.666   0.858
 4955SOL    HW115764   1.056   0.629   0.903
 4955SOL    HW215765   1.220   0.629   0.902
 4956SOL     OW15766   6.315   6.898   4.069
 4956SOL    HW115767   6.258   6.879   4.149
 4956SOL    HW215768   6.321   6.996   4.054
 4957SOL     OW15769   2.003   6.403   3.839
 4957SOL    HW115770   1.958   6.361   3.918
 4957SOL    HW215771   2.055   6.483   3.869
 4958SOL     OW15772   0.552   6.524   6.581
 4958SOL    HW115773   0.456   6.552   6.581
 4958SOL    HW215774   0.609   6.601   6.611
 4959SOL     OW15775   0.138   1.212   0.340
 4959SOL    HW115776   0.146   1.122   0.383
 4959SOL    HW215777   0.224   1.236   0.295
 4960SOL     OW15778   3.939   6.478   5.053
 4960SOL    HW115779   4.029   6.459   5.012
 4960SOL    HW215780   3.869   6.427   5.004
 4961SOL     OW15781   4.602   0.408   5.909
 4961SOL    HW115782   4.613   0.411   6.008
 4961SOL    HW215783   4.589   0.314   5.879
 4962SOL     OW15784   6.541   2.343   2.075
 4962SOL    HW115785   6.552   2.378   1.982
 4962SOL    HW215786   6.446   2.354   2.104
 4963SOL     OW15787   6.870   4.270   1.134
 4963SOL    HW115788   6.775   4.238   1.139
 4963SOL    HW215789   6.881   4.350   1.193
 4964SOL     OW15790   3.933   6.412   2.836
 4964SOL    HW115791   3.975   6.450   2.918
 4964SOL    HW215792   3.836   6.434   2.834
 4965SOL     OW15793   6.956   6.384   4.257
 4965SOL    HW115794   6.975   6.302   4.202
 4965SOL    HW215795   6.946   6.358   4.353
 4966SOL     OW15796   3.978   5.615   5.076
 4966SOL    HW115797   3.884   5.632   5.047
 4966SOL    HW215798   3.991   5.518   5.094
 4967SOL     OW15799   4.937   2.004   6.488
 4967SOL    HW115800   5.031   2.034   6.501
 4967SOL    HW215801   4.876   2.059   6.546
 4968SOL     OW15802   5.747   3.959   6.343
 4968SOL    HW115803   5.824   3.895   6.345
 4968SOL    HW215804   5.761   4.025   6.269
 4969SOL     OW15805   0.440   1.964   1.226
 4969SOL    HW115806   0.414   1.895   1.158
 4969SOL    HW215807   0.470   2.047   1.180
 4970SOL     OW15808   1.221   2.940   6.027
 4970SOL    HW115809   1.146   2.993   6.065
 4970SOL    HW215810   1.288   2.921   6.098
 4971SOL     OW15811   0.181   5.660   3.757
 4971SOL    HW115812   0.123   5.596   3.707
 4971SOL    HW215813   0.275   5.653   3.724
 4972SOL     OW15814   1.638   2.085   5.144
 4972SOL    HW115815   1.598   2.158   5.088
 4972SOL    HW215816   1.565   2.022   5.172
 4973SOL     OW15817   5.987   5.861   2.995
 4973SOL    HW115818   6.021   5.867   2.901
 4973SOL    HW215819   5.971   5.954   3.030
 4974SOL     OW15820   4.506   6.675   0.890
 4974SOL    HW115821   4.445   6.697   0.966
 4974SOL    HW215822   4.461   6.611   0.828
 4975SOL     OW15823   4.889   5.826   0.025
 4975SOL    HW115824   4.986   5.805   0.034
 4975SOL    HW215825   4.844   5.813   0.113
 4976SOL     OW15826   3.190   1.173   4.324
 4976SOL    HW115827   3.266   1.173   4.258
 4976SOL    HW215828   3.175   1.266   4.357
 4977SOL     OW15829   3.263   3.108   6.927
 4977SOL    HW115830   3.252   3.162   7.011
 4977SOL    HW215831   3.185   3.046   6.917
 4978SOL     OW15832   6.194   3.842   6.514
 4978SOL    HW115833   6.207   3.939   6.534
 4978SOL    HW215834   6.256   3.788   6.572
 4979SOL     OW15835   1.081   2.975   4.076
 4979SOL    HW115836   1.166   2.982   4.023
 4979SOL    HW215837   1.007   3.020   4.026
 4980SOL     OW15838   3.236   5.192   3.269
 4980SOL    HW115839   3.186   5.232   3.347
 4980SOL    HW215840   3.334   5.195   3.288
 4981SOL     OW15841   5.037   6.502   5.606
 4981SOL    HW115842   5.015   6.495   5.508
 4981SOL    HW215843   5.036   6.412   5.647
 4982SOL     OW15844   2.402   2.381   0.107
 4982SOL    HW115845   2.421   2.443   0.183
 4982SOL    HW215846   2.360   2.433   0.032
 4983SOL     OW15847   6.478   3.025   4.944
 4983SOL    HW115848   6.529   2.952   4.899
 4983SOL    HW215849   6.400   2.985   4.993
 4984SOL     OW15850   4.795   4.127   2.606
 4984SOL    HW115851   4.736   4.166   2.677
 4984SOL    HW215852   4.800   4.028   2.618
 4985SOL     OW15853   5.385   4.300   2.231
 4985SOL    HW115854   5.353   4.304   2.136
 4985SOL    HW215855   5.316   4.340   2.291
 4986SOL     OW15856   4.403   4.618   2.925
 4986SOL    HW115857   4.423   4.651   3.017
 4986SOL    HW215858   4.309   4.642   2.901
 4987SOL     OW15859   0.343   3.934   1.280
 4987SOL    HW115860   0.251   3.897   1.293
 4987SOL    HW215861   0.337   4.018   1.226
 4988SOL     OW15862   1.342   2.131   5.069
 4988SOL    HW115863   1.341   2.076   4.986
 4988SOL    HW215864   1.397   2.213   5.054
 4989SOL     OW15865   6.858   0.968   0.602
 4989SOL    HW115866   6.785   0.916   0.645
 4989SOL    HW215867   6.834   1.065   0.599
 4990SOL     OW15868   0.989   2.223   6.214
 4990SOL    HW115869   0.989   2.175   6.126
 4990SOL    HW215870   1.080   2.261   6.231
 4991SOL     OW15871   2.375   2.439   4.784
 4991SOL    HW115872   2.296   2.384   4.759
 4991SOL    HW215873   2.369   2.464   4.880
 4992SOL     OW15874   4.347   0.870   4.210
 4992SOL    HW115875   4.329   0.782   4.167
 4992SOL    HW215876   4.348   0.859   4.310
 4993SOL     OW15877   1.884   6.349   4.075
 4993SOL    HW115878   1.785   6.360   4.088
 4993SOL    HW215879   1.932   6.423   4.121
 4994SOL     OW15880   0.875   0.035   2.523
 4994SOL    HW115881   0.879   0.128   2.487
 4994SOL    HW215882   0.940   0.025   2.598
 4995SOL     OW15883   6.311   2.966   5.600
 4995SOL    HW115884   6.242   3.037   5.594
 4995SOL    HW215885   6.392   2.993   5.548
 4996SOL     OW15886   0.397   1.465   4.014
 4996SOL    HW115887   0.353   1.425   4.094
 4996SOL    HW215888   0.418   1.561   4.032
 4997SOL     OW15889   0.113   2.060   4.153
 4997SOL    HW115890   0.061   2.025   4.231
 4997SOL    HW215891   0.200   2.096   4.185
 4998SOL     OW15892   1.054   5.488   5.428
 4998SOL    HW115893   1.077   5.555   5.357
 4998SOL    HW215894   1.124   5.491   5.500
 4999SOL     OW15895   6.005   5.134   0.901
 4999SOL    HW115896   5.990   5.040   0.934
 4999SOL    HW215897   6.102   5.158   0.912
 5000SOL     OW15898   0.054   5.916   3.893
 5000SOL    HW115899   6.986   5.885   3.915
 5000SOL    HW215900   0.116   5.838   3.887
 5001SOL     OW15901   4.637   4.588   5.217
 5001SOL    HW115902   4.679   4.515   5.162
 5001SOL    HW215903   4.652   4.569   5.314
 5002SOL     OW15904   2.087   2.046   1.613
 5002SOL    HW115905   2.172   2.023   1.661
 5002SOL    HW215906   2.023   2.089   1.677
 5003SOL     OW15907   6.933   5.243   4.135
 5003SOL    HW115908   6.911   5.236   4.232
 5003SOL    HW215909   6.871   5.308   4.092
 5004SOL     OW15910   3.015   4.407   6.351
 5004SOL    HW115911   3.091   4.472   6.342
 5004SOL    HW215912   3.037   4.323   6.302
 5005SOL     OW15913   4.405   1.904   0.146
 5005SOL    HW115914   4.480   1.970   0.138
 5005SOL    HW215915   4.443   1.812   0.158
 5006SOL     OW15916   5.884   4.479   2.626
 5006SOL    HW115917   5.794   4.520   2.613
 5006SOL    HW215918   5.951   4.528   2.571
 5007SOL     OW15919   4.055   1.535   5.065
 5007SOL    HW115920   4.091   1.592   4.992
 5007SOL    HW215921   4.100   1.559   5.151
 5008SOL     OW15922   6.557   0.669   3.888
 5008SOL    HW115923   6.551   0.764   3.858
 5008SOL    HW215924   6.653   0.645   3.904
 5009SOL     OW15925   2.134   5.974   2.577
 5009SOL    HW115926   2.046   6.017   2.600
 5009SOL    HW215927   2.123   5.914   2.498
 5010SOL     OW15928   3.354   3.179   4.975
 5010SOL    HW115929   3.266   3.164   5.021
 5010SOL    HW215930   3.428   3.175   5.042
 5011SOL     OW15931   1.275   2.719   3.395
 5011SOL    HW115932   1.278   2.630   3.348
 5011SOL    HW215933   1.190   2.725   3.448
 5012SOL     OW15934   6.104   3.148   6.936
 5012SOL    HW115935   6.044   3.224   6.909
 5012SOL    HW215936   6.047   3.071   6.967
 5013SOL     OW15937   4.812   2.202   5.559
 5013SOL    HW115938   4.850   2.198   5.467
 5013SOL    HW215939   4.826   2.115   5.605
 5014SOL     OW15940   6.104   6.350   6.425
 5014SOL    HW115941   6.004   6.339   6.427
 5014SOL    HW215942   6.145   6.273   6.376
 5015SOL     OW15943   5.635   1.865   3.634
 5015SOL    HW115944   5.600   1.957   3.616
 5015SOL    HW215945   5.709   1.845   3.570
 5016SOL     OW15946   2.291   6.554   2.145
 5016SOL    HW115947   2.208   6.594   2.108
 5016SOL    HW215948   2.350   6.626   2.181
 5017SOL     OW15949   2.347   2.198   1.960
 5017SOL    HW115950   2.446   2.216   1.959
 5017SOL    HW215951   2.307   2.235   2.044
 5018SOL     OW15952   6.723   5.161   3.458
 5018SOL    HW115953   6.665   5.234   3.422
 5018SOL    HW215954   6.775   5.195   3.536
 5019SOL     OW15955   2.912   5.536   5.772
 5019SOL    HW115956   2.979   5.501   5.837
 5019SOL    HW215957   2.831   5.568   5.822
 5020SOL     OW15958   4.361   5.581   6.650
 5020SOL    HW115959   4.393   5.662   6.698
 5020SOL    HW215960   4.431   5.509   6.656
 5021SOL     OW15961   2.317   4.436   5.710
 5021SOL    HW115962   2.365   4.469   5.629
 5021SOL    HW215963   2.377   4.443   5.790
 5022SOL     OW15964   2.165   4.129   1.072
 5022SOL    HW115965   2.094   4.180   1.023
 5022SOL    HW215966   2.139   4.033   1.079
 5023SOL     OW15967   6.564   2.573   3.766
 5023SOL    HW115968   6.526   2.532   3.849
 5023SOL    HW215969   6.490   2.594   3.702
 5024SOL     OW15970   5.430   3.548   5.699
 5024SOL    HW115971   5.412   3.555   5.797
 5024SOL    HW215972   5.345   3.524   5.651
 5025SOL     OW15973   6.614   1.347   3.159
 5025SOL    HW115974   6.532   1.304   3.197
 5025SOL    HW215975   6.686   1.278   3.150
 5026SOL     OW15976   0.872   5.854   2.939
 5026SOL    HW115977   0.944   5.833   3.005
 5026SOL    HW215978   0.806   5.778   2.937
 5027SOL     OW15979   0.416   6.295   3.811
 5027SOL    HW115980   0.384   6.367   3.873
 5027SOL    HW215981   0.339   6.255   3.763
 5028SOL     OW15982   1.108   0.343   2.988
 5028SOL    HW115983   1.019   0.308   3.016
 5028SOL    HW215984   1.176   0.320   3.058
 5029SOL     OW15985   0.264   1.345   3.024
 5029SOL    HW115986   0.180   1.349   3.078
 5029SOL    HW215987   0.335   1.297   3.075
 5030SOL     OW15988   2.427   5.699   6.971
 5030SOL    HW115989   2.454   5.712   6.876
 5030SOL    HW215990   2.506   5.670   0.001
 5031SOL     OW15991   5.565   1.008   5.703
 5031SOL    HW115992   5.518   1.090   5.669
 5031SOL    HW215993   5.644   0.988   5.644
 5032SOL     OW15994   1.476   6.107   2.011
 5032SOL    HW115995   1.416   6.143   1.940
 5032SOL    HW215996   1.432   6.030   2.057
 5033SOL     OW15997   6.968   4.109   5.207
 5033SOL    HW115998   7.016   4.082   5.123
 5033SOL    HW215999   6.956   4.208   5.208
 5034SOL     OW16000   0.252   3.699   6.360
 5034SOL    HW116001   0.264   3.793   6.327
 5034SOL    HW216002   0.181   3.653   6.307
 5035SOL     OW16003   5.605   4.274   1.707
 5035SOL    HW116004   5.609   4.223   1.621
 5035SOL    HW216005   5.675   4.241   1.769
 5036SOL     OW16006   1.601   0.275   2.036
 5036SOL    HW116007   1.623   0.221   1.955
 5036SOL    HW216008   1.553   0.359   2.008
 5037SOL     OW16009   4.684   2.650   3.066
 5037SOL    HW116010   4.708   2.701   3.148
 5037SOL    HW216011   4.725   2.693   2.986
 5038SOL     OW16012   2.868   5.648   5.257
 5038SOL    HW116013   2.908   5.640   5.166
 5038SOL    HW216014   2.909   5.725   5.306
 5039SOL     OW16015   1.553   1.833   3.120
 5039SOL    HW116016   1.557   1.883   3.033
 5039SOL    HW216017   1.596   1.888   3.192
 5040SOL     OW16018   3.063   3.735   5.792
 5040SOL    HW116019   3.005   3.772   5.865
 5040SOL    HW216020   3.032   3.643   5.769
 5041SOL     OW16021   0.380   5.320   0.638
 5041SOL    HW116022   0.407   5.238   0.587
 5041SOL    HW216023   0.372   5.298   0.735
 5042SOL     OW16024   6.228   1.735   6.020
 5042SOL    HW116025   6.205   1.711   6.114
 5042SOL    HW216026   6.156   1.704   5.959
 5043SOL     OW16027   5.120   0.184   3.470
 5043SOL    HW116028   5.136   0.127   3.389
 5043SOL    HW216029   5.121   0.281   3.443
 5044SOL     OW16030   5.610   4.478   2.587
 5044SOL    HW116031   5.561   4.519   2.510
 5044SOL    HW216032   5.548   4.471   2.666
 5045SOL     OW16033   5.715   3.463   5.118
 5045SOL    HW116034   5.805   3.437   5.083
 5045SOL    HW216035   5.655   3.383   5.121
 5046SOL     OW16036   3.613   3.143   5.455
 5046SOL    HW116037   3.542   3.204   5.491
 5046SOL    HW216038   3.644   3.081   5.527
 5047SOL     OW16039   0.843   1.574   2.293
 5047SOL    HW116040   0.802   1.576   2.384
 5047SOL    HW216041   0.771   1.575   2.223
 5048SOL     OW16042   6.220   3.542   1.200
 5048SOL    HW116043   6.233   3.444   1.209
 5048SOL    HW216044   6.175   3.577   1.282
 5049SOL     OW16045   1.192   2.442   1.489
 5049SOL    HW116046   1.169   2.516   1.551
 5049SOL    HW216047   1.117   2.428   1.424
 5050SOL     OW16048   1.155   3.406   0.656
 5050SOL    HW116049   1.173   3.481   0.720
 5050SOL    HW216050   1.077   3.352   0.688
 5051SOL     OW16051   1.882   3.250   6.890
 5051SOL    HW116052   1.870   3.274   6.986
 5051SOL    HW216053   1.977   3.267   6.862
 5052SOL     OW16054   5.433   3.485   0.535
 5052SOL    HW116055   5.435   3.555   0.464
 5052SOL    HW216056   5.406   3.397   0.495
 5053SOL     OW16057   2.407   4.243   1.083
 5053SOL    HW116058   2.425   4.279   1.174
 5053SOL    HW216059   2.312   4.212   1.077
 5054SOL     OW16060   4.068   6.079   5.303
 5054SOL    HW116061   4.020   6.004   5.347
 5054SOL    HW216062   4.044   6.081   5.206
 5055SOL     OW16063   1.459   1.623   3.806
 5055SOL    HW116064   1.489   1.583   3.893
 5055SOL    HW216065   1.538   1.635   3.746
 5056SOL     OW16066   2.833   2.256   5.088
 5056SOL    HW116067   2.926   2.247   5.051
 5056SOL    HW216068   2.836   2.307   5.173
 5057SOL     OW16069   0.473   3.968   2.925
 5057SOL    HW116070   0.475   3.945   2.828
 5057SOL    HW216071   0.390   4.021   2.945
 5058SOL     OW16072   3.683   2.472   0.422
 5058SOL    HW116073   3.748   2.458   0.496
 5058SOL    HW216074   3.681   2.569   0.396
 5059SOL     OW16075   4.388   1.866   3.267
 5059SOL    HW116076   4.437   1.953   3.280
 5059SOL    HW216077   4.290   1.882   3.272
 5060SOL     OW16078   0.318   3.173   5.523
 5060SOL    HW116079   0.334   3.208   5.616
 5060SOL    HW216080   0.236   3.116   5.523
 5061SOL     OW16081   4.126   2.392   5.850
 5061SOL    HW116082   4.162   2.483   5.829
 5061SOL    HW216083   4.144   2.371   5.946
 5062SOL     OW16084   5.371   0.665   3.568
 5062SOL    HW116085   5.413   0.627   3.486
 5062SOL    HW216086   5.276   0.688   3.549
 5063SOL     OW16087   1.208   1.015   1.446
 5063SOL    HW116088   1.228   1.065   1.361
 5063SOL    HW216089   1.170   1.079   1.513
 5064SOL     OW16090   5.298   4.967   1.028
 5064SOL    HW116091   5.232   4.991   1.099
 5064SOL    HW216092   5.336   5.051   0.989
 5065SOL     OW16093   2.225   1.392   2.145
 5065SOL    HW116094   2.235   1.295   2.166
 5065SOL    HW216095   2.138   1.408   2.099
 5066SOL     OW16096   2.067   5.027   2.780
 5066SOL    HW116097   1.979   4.989   2.753
 5066SOL    HW216098   2.140   4.964   2.754
 5067SOL     OW16099   5.863   2.728   1.251
 5067SOL    HW116100   5.883   2.678   1.166
 5067SOL    HW216101   5.825   2.817   1.229
 5068SOL     OW16102   2.025   5.649   0.628
 5068SOL    HW116103   2.093   5.703   0.678
 5068SOL    HW216104   1.997   5.699   0.546
 5069SOL     OW16105   4.185   5.213   5.535
 5069SOL    HW116106   4.104   5.161   5.507
 5069SOL    HW216107   4.213   5.185   5.627
 5070SOL     OW16108   6.076   3.646   5.068
 5070SOL    HW116109   6.160   3.614   5.113
 5070SOL    HW216110   6.065   3.744   5.082
 5071SOL     OW16111   2.661   6.646   3.644
 5071SOL    HW116112   2.593   6.585   3.603
 5071SOL    HW216113   2.753   6.610   3.627
 5072SOL     OW16114   0.818   1.442   1.705
 5072SOL    HW116115   0.902   1.472   1.659
 5072SOL    HW216116   0.821   1.473   1.801
 5073SOL     OW16117   2.522   0.952   3.206
 5073SOL    HW116118   2.574   1.038   3.199
 5073SOL    HW216119   2.425   0.972   3.220
 5074SOL     OW16120   3.400   2.253   1.782
 5074SOL    HW116121   3.488   2.242   1.828
 5074SOL    HW216122   3.384   2.350   1.762
 5075SOL     OW16123   6.788   3.238   0.871
 5075SOL    HW116124   6.718   3.248   0.941
 5075SOL    HW216125   6.793   3.143   0.841
 5076SOL     OW16126   0.093   0.562   5.938
 5076SOL    HW116127   0.156   0.517   5.875
 5076SOL    HW216128   0.019   0.605   5.886
 5077SOL     OW16129   0.607   4.384   3.917
 5077SOL    HW116130   0.575   4.472   3.883
 5077SOL    HW216131   0.649   4.333   3.842
 5078SOL     OW16132   6.894   1.855   3.781
 5078SOL    HW116133   6.979   1.896   3.813
 5078SOL    HW216134   6.897   1.756   3.797
 5079SOL     OW16135   1.646   3.452   5.549
 5079SOL    HW116136   1.677   3.519   5.616
 5079SOL    HW216137   1.675   3.360   5.577
 5080SOL     OW16138   6.236   5.505   0.050
 5080SOL    HW116139   6.202   5.525   6.982
 5080SOL    HW216140   6.198   5.418   0.081
 5081SOL     OW16141   2.481   4.400   5.319
 5081SOL    HW116142   2.443   4.308   5.313
 5081SOL    HW216143   2.581   4.395   5.318
 5082SOL     OW16144   6.197   5.782   1.405
 5082SOL    HW116145   6.220   5.688   1.380
 5082SOL    HW216146   6.113   5.783   1.458
 5083SOL     OW16147   2.635   0.140   4.023
 5083SOL    HW116148   2.596   0.124   3.933
 5083SOL    HW216149   2.581   0.092   4.092
 5084SOL     OW16150   2.729   4.026   5.559
 5084SOL    HW116151   2.646   4.024   5.504
 5084SOL    HW216152   2.716   4.088   5.637
 5085SOL     OW16153   0.303   4.474   5.334
 5085SOL    HW116154   0.207   4.488   5.358
 5085SOL    HW216155   0.361   4.512   5.407
 5086SOL     OW16156   1.443   5.107   2.101
 5086SOL    HW116157   1.346   5.094   2.125
 5086SOL    HW216158   1.454   5.097   2.002
 5087SOL     OW16159   6.770   4.879   2.433
 5087SOL    HW116160   6.755   4.863   2.336
 5087SOL    HW216161   6.701   4.944   2.467
 5088SOL     OW16162   4.525   5.467   2.288
 5088SOL    HW116163   4.575   5.428   2.210
 5088SOL    HW216164   4.542   5.565   2.293
 5089SOL     OW16165   4.887   5.742   5.913
 5089SOL    HW116166   4.834   5.791   5.845
 5089SOL    HW216167   4.914   5.805   5.986
 5090SOL     OW16168   2.612   6.637   5.068
 5090SOL    HW116169   2.533   6.648   5.007
 5090SOL    HW216170   2.597   6.692   5.151
 5091SOL     OW16171   6.916   6.773   6.373
 5091SOL    HW116172   6.844   6.758   6.305
 5091SOL    HW216173   6.875   6.784   6.463
 5092SOL     OW16174   3.554   3.539   4.249
 5092SOL    HW116175   3.614   3.482   4.305
 5092SOL    HW216176   3.473   3.564   4.302
 5093SOL     OW16177   2.544   2.314   2.972
 5093SOL    HW116178   2.446   2.292   2.970
 5093SOL    HW216179   2.597   2.232   2.948
 5094SOL     OW16180   1.799   5.902   4.694
 5094SOL    HW116181   1.862   5.853   4.633
 5094SOL    HW216182   1.852   5.962   4.754
 5095SOL     OW16183   6.871   1.301   2.604
 5095SOL    HW116184   6.830   1.277   2.692
 5095SOL    HW216185   6.946   1.239   2.584
 5096SOL     OW16186   6.550   3.019   5.412
 5096SOL    HW116187   6.599   3.058   5.491
 5096SOL    HW216188   6.472   3.078   5.390
 5097SOL     OW16189   0.907   0.357   5.809
 5097SOL    HW116190   0.890   0.312   5.897
 5097SOL    HW216191   0.938   0.289   5.743
 5098SOL     OW16192   3.554   2.594   6.960
 5098SOL    HW116193   3.576   2.578   6.864
 5098SOL    HW216194   3.639   2.599   7.013
 5099SOL     OW16195   1.762   6.429   1.931
 5099SOL    HW116196   1.705   6.409   2.010
 5099SOL    HW216197   1.835   6.360   1.925
 5100SOL     OW16198   5.127   3.162   1.738
 5100SOL    HW116199   5.129   3.245   1.793
 5100SOL    HW216200   5.058   3.099   1.775
 5101SOL     OW16201   3.164   6.978   5.638
 5101SOL    HW116202   3.123   0.045   5.624
 5101SOL    HW216203   3.255   6.976   5.597
 5102SOL     OW16204   5.194   5.401   4.314
 5102SOL    HW116205   5.171   5.310   4.281
 5102SOL    HW216206   5.284   5.399   4.359
 5103SOL     OW16207   0.892   0.396   6.309
 5103SOL    HW116208   0.801   0.420   6.277
 5103SOL    HW216209   0.944   0.480   6.327
 5104SOL     OW16210   3.708   3.232   2.745
 5104SOL    HW116211   3.721   3.323   2.706
 5104SOL    HW216212   3.616   3.225   2.785
 5105SOL     OW16213   4.046   2.711   6.813
 5105SOL    HW116214   4.020   2.708   6.716
 5105SOL    HW216215   4.077   2.620   6.841
 5106SOL     OW16216   3.746   1.921   1.447
 5106SOL    HW116217   3.722   1.878   1.534
 5106SOL    HW216218   3.710   1.866   1.372
 5107SOL     OW16219   5.435   4.827   0.638
 5107SOL    HW116220   5.372   4.753   0.618
 5107SOL    HW216221   5.525   4.790   0.661
 5108SOL     OW16222   3.402   4.856   1.295
 5108SOL    HW116223   3.321   4.884   1.244
 5108SOL    HW216224   3.483   4.901   1.257
 5109SOL     OW16225   1.106   2.861   2.000
 5109SOL    HW116226   1.059   2.856   2.087
 5109SOL    HW216227   1.162   2.779   1.987
 5110SOL     OW16228   4.987   0.120   5.600
 5110SOL    HW116229   4.905   0.111   5.543
 5110SOL    HW216230   4.965   0.174   5.682
 5111SOL     OW16231   1.147   5.240   5.253
 5111SOL    HW116232   1.177   5.175   5.324
 5111SOL    HW216233   1.124   5.327   5.296
 5112SOL     OW16234   1.021   6.449   3.079
 5112SOL    HW116235   1.120   6.440   3.078
 5112SOL    HW216236   0.986   6.428   3.171
 5113SOL     OW16237   1.997   4.420   0.042
 5113SOL    HW116238   2.073   4.434   0.104
 5113SOL    HW216239   1.949   4.507   0.027
 5114SOL     OW16240   4.552   4.761   1.677
 5114SOL    HW116241   4.454   4.780   1.672
 5114SOL    HW216242   4.603   4.836   1.636
 5115SOL     OW16243   2.025   3.785   0.720
 5115SOL    HW116244   2.113   3.738   0.729
 5115SOL    HW216245   1.973   3.775   0.805
 5116SOL     OW16246   0.703   6.924   5.373
 5116SOL    HW116247   0.666   6.941   5.282
 5116SOL    HW216248   0.790   6.875   5.365
 5117SOL     OW16249   0.066   2.216   3.714
 5117SOL    HW116250   0.059   2.211   3.814
 5117SOL    HW216251   7.006   2.258   3.677
 5118SOL     OW16252   4.085   5.317   0.311
 5118SOL    HW116253   4.176   5.285   0.339
 5118SOL    HW216254   4.051   5.384   0.378
 5119SOL     OW16255   5.671   1.486   0.683
 5119SOL    HW116256   5.600   1.523   0.744
 5119SOL    HW216257   5.646   1.392   0.658
 5120SOL     OW16258   5.206   6.730   6.720
 5120SOL    HW116259   5.240   6.670   6.792
 5120SOL    HW216260   5.279   6.748   6.654
 5121SOL     OW16261   1.173   3.584   6.239
 5121SOL    HW116262   1.142   3.490   6.251
 5121SOL    HW216263   1.192   3.602   6.143
 5122SOL     OW16264   4.721   4.849   3.484
 5122SOL    HW116265   4.625   4.842   3.456
 5122SOL    HW216266   4.751   4.944   3.476
 5123SOL     OW16267   4.700   2.689   2.314
 5123SOL    HW116268   4.753   2.766   2.279
 5123SOL    HW216269   4.679   2.626   2.239
 5124SOL     OW16270   1.505   6.406   5.296
 5124SOL    HW116271   1.575   6.341   5.326
 5124SOL    HW216272   1.502   6.484   5.358
 5125SOL     OW16273   6.301   1.790   3.850
 5125SOL    HW116274   6.391   1.761   3.816
 5125SOL    HW216275   6.312   1.862   3.918
 5126SOL     OW16276   1.548   0.558   1.681
 5126SOL    HW116277   1.484   0.482   1.691
 5126SOL    HW216278   1.592   0.553   1.592
 5127SOL     OW16279   2.380   6.058   6.956
 5127SOL    HW116280   2.401   6.021   6.865
 5127SOL    HW216281   2.426   6.146   6.968
 5128SOL     OW16282   5.939   0.021   1.686
 5128SOL    HW116283   5.980   0.079   1.616
 5128SOL    HW216284   5.973   0.049   1.776
 5129SOL     OW16285   6.538   6.572   0.351
 5129SOL    HW116286   6.637   6.572   0.368
 5129SOL    HW216287   6.513   6.653   0.299
 5130SOL     OW16288   6.153   4.915   2.713
 5130SOL    HW116289   6.126   4.922   2.809
 5130SOL    HW216290   6.146   4.820   2.683
 5131SOL     OW16291   1.813   2.550   2.909
 5131SOL    HW116292   1.733   2.584   2.959
 5131SOL    HW216293   1.801   2.567   2.812
 5132SOL     OW16294   2.892   5.875   4.965
 5132SOL    HW116295   2.952   5.921   5.031
 5132SOL    HW216296   2.921   5.899   4.872
 5133SOL     OW16297   3.878   6.464   5.327
 5133SOL    HW116298   3.934   6.471   5.244
 5133SOL    HW216299   3.848   6.370   5.340
 5134SOL     OW16300   5.824   4.219   6.080
 5134SOL    HW116301   5.885   4.174   6.014
 5134SOL    HW216302   5.730   4.214   6.047
 5135SOL     OW16303   5.501   1.289   4.158
 5135SOL    HW116304   5.557   1.256   4.083
 5135SOL    HW216305   5.424   1.227   4.173
 5136SOL     OW16306   3.943   1.212   5.410
 5136SOL    HW116307   3.968   1.145   5.480
 5136SOL    HW216308   4.009   1.288   5.412
 5137SOL     OW16309   3.511   4.180   6.832
 5137SOL    HW116310   3.432   4.210   6.778
 5137SOL    HW216311   3.567   4.258   6.857
 5138SOL     OW16312   2.120   3.134   5.859
 5138SOL    HW116313   2.197   3.071   5.849
 5138SOL    HW216314   2.093   3.139   5.955
 5139SOL     OW16315   0.467   0.278   3.847
 5139SOL    HW116316   0.409   0.239   3.775
 5139SOL    HW216317   0.457   0.378   3.848
 5140SOL     OW16318   3.592   2.758   1.833
 5140SOL    HW116319   3.672   2.815   1.816
 5140SOL    HW216320   3.561   2.717   1.747
 5141SOL     OW16321   0.528   3.609   5.349
 5141SOL    HW116322   0.552   3.554   5.430
 5141SOL    HW216323   0.453   3.671   5.372
 5142SOL     OW16324   5.747   2.979   3.238
 5142SOL    HW116325   5.835   2.941   3.267
 5142SOL    HW216326   5.752   3.079   3.240
 5143SOL     OW16327   6.842   5.597   5.066
 5143SOL    HW116328   6.811   5.666   5.002
 5143SOL    HW216329   6.927   5.628   5.110
 5144SOL     OW16330   2.127   1.595   4.666
 5144SOL    HW116331   2.175   1.577   4.580
 5144SOL    HW216332   2.149   1.686   4.699
 5145SOL     OW16333   3.570   5.702   5.630
 5145SOL    HW116334   3.639   5.774   5.641
 5145SOL    HW216335   3.611   5.614   5.653
 5146SOL     OW16336   2.808   4.897   6.837
 5146SOL    HW116337   2.769   4.989   6.846
 5146SOL    HW216338   2.742   4.830   6.872
 5147SOL     OW16339   6.573   5.216   6.254
 5147SOL    HW116340   6.520   5.289   6.296
 5147SOL    HW216341   6.565   5.133   6.308
 5148SOL     OW16342   0.985   0.250   1.482
 5148SOL    HW116343   1.048   0.182   1.444
 5148SOL    HW216344   0.898   0.244   1.434
 5149SOL     OW16345   6.788   0.388   5.667
 5149SOL    HW116346   6.706   0.334   5.647
 5149SOL    HW216347   6.860   0.364   5.602
 5150SOL     OW16348   1.955   5.186   4.101
 5150SOL    HW116349   1.997   5.097   4.085
 5150SOL    HW216350   1.864   5.174   4.142
 5151SOL     OW16351   4.644   0.714   6.172
 5151SOL    HW116352   4.726   0.682   6.125
 5151SOL    HW216353   4.671   0.763   6.255
 5152SOL     OW16354   0.716   4.979   0.335
 5152SOL    HW116355   0.689   4.882   0.340
 5152SOL    HW216356   0.667   5.023   0.260
 5153SOL     OW16357   1.760   1.900   1.024
 5153SOL    HW116358   1.773   1.996   1.050
 5153SOL    HW216359   1.662   1.880   1.020
 5154SOL     OW16360   1.894   3.866   5.240
 5154SOL    HW116361   1.993   3.865   5.249
 5154SOL    HW216362   1.853   3.826   5.322
 5155SOL     OW16363   3.470   1.142   2.094
 5155SOL    HW116364   3.475   1.056   2.043
 5155SOL    HW216365   3.562   1.182   2.100
 5156SOL     OW16366   5.809   2.366   6.316
 5156SOL    HW116367   5.730   2.402   6.266
 5156SOL    HW216368   5.882   2.434   6.316
 5157SOL     OW16369   5.905   2.496   4.155
 5157SOL    HW116370   5.985   2.469   4.208
 5157SOL    HW216371   5.823   2.487   4.211
 5158SOL     OW16372   3.871   0.540   0.919
 5158SOL    HW116373   3.886   0.485   0.836
 5158SOL    HW216374   3.775   0.566   0.925
 5159SOL     OW16375   2.032   3.354   4.880
 5159SOL    HW116376   2.079   3.283   4.933
 5159SOL    HW216377   2.022   3.436   4.935
 5160SOL     OW16378   1.425   3.030   4.574
 5160SOL    HW116379   1.423   2.930   4.568
 5160SOL    HW216380   1.332   3.066   4.562
 5161SOL     OW16381   1.562   3.518   6.573
 5161SOL    HW116382   1.581   3.599   6.629
 5161SOL    HW216383   1.618   3.442   6.605
 5162SOL     OW16384   6.546   5.584   4.510
 5162SOL    HW116385   6.560   5.583   4.411
 5162SOL    HW216386   6.577   5.671   4.548
 5163SOL     OW16387   5.405   3.814   0.937
 5163SOL    HW116388   5.314   3.777   0.919
 5163SOL    HW216389   5.447   3.844   0.851
 5164SOL     OW16390   5.643   5.144   5.810
 5164SOL    HW116391   5.705   5.168   5.736
 5164SOL    HW216392   5.628   5.224   5.868
 5165SOL     OW16393   6.224   3.140   4.058
 5165SOL    HW116394   6.148   3.144   4.122
 5165SOL    HW216395   6.225   3.050   4.014
 5166SOL     OW16396   1.526   0.098   1.311
 5166SOL    HW116397   1.483   0.169   1.255
 5166SOL    HW216398   1.501   0.110   1.407
 5167SOL     OW16399   1.376   0.080   5.203
 5167SOL    HW116400   1.325   0.146   5.147
 5167SOL    HW216401   1.321   0.054   5.282
 5168SOL     OW16402   4.113   1.701   3.043
 5168SOL    HW116403   4.125   1.738   3.136
 5168SOL    HW216404   4.166   1.755   2.979
 5169SOL     OW16405   4.004   4.365   6.636
 5169SOL    HW116406   4.079   4.318   6.589
 5169SOL    HW216407   4.011   4.349   6.735
 5170SOL     OW16408   4.217   4.825   4.578
 5170SOL    HW116409   4.204   4.853   4.483
 5170SOL    HW216410   4.258   4.734   4.581
 5171SOL     OW16411   2.632   4.663   4.876
 5171SOL    HW116412   2.676   4.697   4.793
 5171SOL    HW216413   2.701   4.634   4.942
 5172SOL     OW16414   2.245   4.674   6.899
 5172SOL    HW116415   2.254   4.679   6.998
 5172SOL    HW216416   2.310   4.606   6.863
 5173SOL     OW16417   6.462   3.337   6.123
 5173SOL    HW116418   6.496   3.418   6.172
 5173SOL    HW216419   6.531   3.307   6.057
 5174SOL     OW16420   1.760   4.635   6.145
 5174SOL    HW116421   1.762   4.668   6.051
 5174SOL    HW216422   1.674   4.662   6.189
 5175SOL     OW16423   0.399   5.341   6.068
 5175SOL    HW116424   0.385   5.292   6.154
 5175SOL    HW216425   0.468   5.412   6.079
 5176SOL     OW16426   5.542   4.340   6.389
 5176SOL    HW116427   5.564   4.243   6.380
 5176SOL    HW216428   5.484   4.368   6.313
 5177SOL     OW16429   5.210   5.888   6.440
 5177SOL    HW116430   5.146   5.885   6.517
 5177SOL    HW216431   5.303   5.873   6.474
 5178SOL     OW16432   2.949   2.264   1.675
 5178SOL    HW116433   2.944   2.307   1.765
 5178SOL    HW216434   3.029   2.204   1.671
 5179SOL     OW16435   3.531   6.061   5.163
 5179SOL    HW116436   3.440   6.085   5.196
 5179SOL    HW216437   3.589   6.036   5.241
 5180SOL     OW16438   2.817   2.282   0.283
 5180SOL    HW116439   2.763   2.337   0.220
 5180SOL    HW216440   2.873   2.341   0.341
 5181SOL     OW16441   2.753   5.615   2.589
 5181SOL    HW116442   2.691   5.670   2.533
 5181SOL    HW216443   2.712   5.526   2.606
 5182SOL     OW16444   4.694   4.325   1.490
 5182SOL    HW116445   4.620   4.341   1.555
 5182SOL    HW216446   4.746   4.244   1.516
 5183SOL     OW16447   3.784   0.628   3.367
 5183SOL    HW116448   3.841   0.705   3.337
 5183SOL    HW216449   3.842   0.549   3.387
 5184SOL     OW16450   1.339   2.118   2.955
 5184SOL    HW116451   1.360   2.208   2.995
 5184SOL    HW216452   1.269   2.127   2.885
 5185SOL     OW16453   3.965   0.563   1.890
 5185SOL    HW116454   3.974   0.518   1.978
 5185SOL    HW216455   4.019   0.514   1.821
 5186SOL     OW16456   5.858   4.815   6.995
 5186SOL    HW116457   5.947   4.838   6.954
 5186SOL    HW216458   5.867   4.810   0.070
 5187SOL     OW16459   5.327   1.814   4.204
 5187SOL    HW116460   5.405   1.757   4.178
 5187SOL    HW216461   5.334   1.904   4.160
 5188SOL     OW16462   1.151   3.205   4.474
 5188SOL    HW116463   1.085   3.254   4.530
 5188SOL    HW216464   1.153   3.109   4.502
 5189SOL     OW16465   4.265   5.212   6.866
 5189SOL    HW116466   4.168   5.192   6.851
 5189SOL    HW216467   4.303   5.256   6.784
 5190SOL     OW16468   1.927   3.020   3.216
 5190SOL    HW116469   1.837   2.980   3.234
 5190SOL    HW216470   1.930   3.055   3.122
 5191SOL     OW16471   4.677   0.782   2.143
 5191SOL    HW116472   4.586   0.813   2.171
 5191SOL    HW216473   4.671   0.688   2.108
 5192SOL     OW16474   6.178   4.448   2.067
 5192SOL    HW116475   6.127   4.422   2.149
 5192SOL    HW216476   6.176   4.548   2.057
 5193SOL     OW16477   4.822   3.879   2.101
 5193SOL    HW116478   4.834   3.783   2.126
 5193SOL    HW216479   4.756   3.921   2.164
 5194SOL     OW16480   5.120   1.750   6.815
 5194SOL    HW116481   5.219   1.736   6.828
 5194SOL    HW216482   5.100   1.848   6.822
 5195SOL     OW16483   6.129   6.305   5.277
 5195SOL    HW116484   6.152   6.245   5.354
 5195SOL    HW216485   6.031   6.299   5.259
 5196SOL     OW16486   0.686   3.517   1.833
 5196SOL    HW116487   0.716   3.607   1.803
 5196SOL    HW216488   0.762   3.452   1.827
 5197SOL     OW16489   3.638   6.026   5.442
 5197SOL    HW116490   3.546   5.996   5.466
 5197SOL    HW216491   3.699   6.011   5.520
 5198SOL     OW16492   4.220   0.524   5.656
 5198SOL    HW116493   4.251   0.536   5.750
 5198SOL    HW216494   4.125   0.553   5.647
 5199SOL     OW16495   0.304   5.320   1.785
 5199SOL    HW116496   0.265   5.412   1.783
 5199SOL    HW216497   0.251   5.263   1.848
 5200SOL     OW16498   7.022   6.913   5.067
 5200SOL    HW116499   0.036   6.946   4.981
 5200SOL    HW216500   6.922   6.923   5.066
 5201SOL     OW16501   6.058   5.019   4.988
 5201SOL    HW116502   6.063   5.083   4.911
 5201SOL    HW216503   5.963   4.990   5.001
 5202SOL     OW16504   3.446   3.133   5.905
 5202SOL    HW116505   3.361   3.084   5.924
 5202SOL    HW216506   3.424   3.224   5.870
 5203SOL     OW16507   1.273   0.419   6.514
 5203SOL    HW116508   1.366   0.386   6.528
 5203SOL    HW216509   1.220   0.348   6.468
 5204SOL     OW16510   2.431   0.599   0.650
 5204SOL    HW116511   2.505   0.545   0.609
 5204SOL    HW216512   2.471   0.668   0.711
 5205SOL     OW16513   6.902   6.753   1.428
 5205SOL    HW116514   6.834   6.770   1.357
 5205SOL    HW216515   6.860   6.701   1.502
 5206SOL     OW16516   1.240   4.410   3.602
 5206SOL    HW116517   1.262   4.438   3.695
 5206SOL    HW216518   1.324   4.384   3.554
 5207SOL     OW16519   5.787   6.845   5.051
 5207SOL    HW116520   5.823   6.759   5.087
 5207SOL    HW216521   5.694   6.831   5.016
 5208SOL     OW16522   6.474   1.880   0.362
 5208SOL    HW116523   6.501   1.791   0.326
 5208SOL    HW216524   6.375   1.888   0.363
 5209SOL     OW16525   5.434   6.512   3.298
 5209SOL    HW116526   5.513   6.551   3.344
 5209SOL    HW216527   5.430   6.414   3.313
 5210SOL     OW16528   5.552   4.588   0.876
 5210SOL    HW116529   5.636   4.539   0.902
 5210SOL    HW216530   5.531   4.657   0.944
 5211SOL     OW16531   5.382   2.640   4.671
 5211SOL    HW116532   5.431   2.558   4.701
 5211SOL    HW216533   5.290   2.641   4.711
 5212SOL     OW16534   6.973   3.879   0.686
 5212SOL    HW116535   0.011   3.817   0.736
 5212SOL    HW216536   6.879   3.848   0.698
 5213SOL     OW16537   4.134   3.574   3.107
 5213SOL    HW116538   4.157   3.549   3.201
 5213SOL    HW216539   4.113   3.672   3.103
 5214SOL     OW16540   5.813   3.172   5.540
 5214SOL    HW116541   5.732   3.204   5.490
 5214SOL    HW216542   5.815   3.072   5.538
 5215SOL     OW16543   0.602   5.127   5.004
 5215SOL    HW116544   0.651   5.211   4.980
 5215SOL    HW216545   0.523   5.117   4.944
 5216SOL     OW16546   5.529   4.600   1.318
 5216SOL    HW116547   5.472   4.534   1.367
 5216SOL    HW216548   5.609   4.553   1.281
 5217SOL     OW16549   4.707   6.561   2.919
 5217SOL    HW116550   4.646   6.576   2.997
 5217SOL    HW216551   4.778   6.496   2.945
 5218SOL     OW16552   6.053   0.069   0.142
 5218SOL    HW116553   6.005   0.048   0.227
 5218SOL    HW216554   5.996   0.127   0.084
 5219SOL     OW16555   3.560   0.620   5.326
 5219SOL    HW116556   3.527   0.675   5.249
 5219SOL    HW216557   3.607   0.680   5.391
 5220SOL     OW16558   2.020   5.128   4.740
 5220SOL    HW116559   1.954   5.069   4.691
 5220SOL    HW216560   2.055   5.079   4.820
 5221SOL     OW16561   5.645   6.113   1.462
 5221SOL    HW116562   5.681   6.124   1.369
 5221SOL    HW216563   5.577   6.040   1.462
 5222SOL     OW16564   6.829   3.517   1.904
 5222SOL    HW116565   6.845   3.448   1.833
 5222SOL    HW216566   6.774   3.478   1.978
 5223SOL     OW16567   6.252   3.223   0.483
 5223SOL    HW116568   6.200   3.274   0.415
 5223SOL    HW216569   6.215   3.130   0.491
 5224SOL     OW16570   1.058   1.359   5.231
 5224SOL    HW116571   1.149   1.388   5.203
 5224SOL    HW216572   0.996   1.362   5.153
 5225SOL     OW16573   6.935   1.548   4.617
 5225SOL    HW116574   6.971   1.628   4.568
 5225SOL    HW216575   6.931   1.470   4.554
 5226SOL     OW16576   0.374   6.162   4.417
 5226SOL    HW116577   0.335   6.071   4.406
 5226SOL    HW216578   0.472   6.159   4.401
 5227SOL     OW16579   0.661   3.571   5.859
 5227SOL    HW116580   0.755   3.540   5.877
 5227SOL    HW216581   0.663   3.664   5.823
 5228SOL     OW16582   0.644   1.813   5.291
 5228SOL    HW116583   0.577   1.858   5.233
 5228SOL    HW216584   0.736   1.833   5.257
 5229SOL     OW16585   3.286   1.663   5.721
 5229SOL    HW116586   3.342   1.599   5.775
 5229SOL    HW216587   3.337   1.691   5.640
 5230SOL     OW16588   6.712   0.041   2.661
 5230SOL    HW116589   6.650   0.059   2.737
 5230SOL    HW216590   6.794   0.097   2.670
 5231SOL     OW16591   6.176   3.537   2.373
 5231SOL    HW116592   6.268   3.527   2.411
 5231SOL    HW216593   6.146   3.632   2.383
 5232SOL     OW16594   1.600   2.350   5.810
 5232SOL    HW116595   1.506   2.316   5.818
 5232SOL    HW216596   1.648   2.296   5.742
 5233SOL     OW16597   3.720   6.575   2.602
 5233SOL    HW116598   3.646   6.609   2.544
 5233SOL    HW216599   3.800   6.555   2.546
 5234SOL     OW16600   3.114   2.427   5.949
 5234SOL    HW116601   3.061   2.343   5.960
 5234SOL    HW216602   3.067   2.487   5.884
 5235SOL     OW16603   2.832   1.842   1.538
 5235SOL    HW116604   2.874   1.909   1.475
 5235SOL    HW216605   2.759   1.886   1.589
 5236SOL     OW16606   2.993   5.240   1.646
 5236SOL    HW116607   3.012   5.281   1.735
 5236SOL    HW216608   2.894   5.229   1.636
 5237SOL     OW16609   1.706   1.817   2.056
 5237SOL    HW116610   1.702   1.874   1.974
 5237SOL    HW216611   1.717   1.721   2.031
 5238SOL     OW16612   0.204   0.528   3.167
 5238SOL    HW116613   0.281   0.551   3.107
 5238SOL    HW216614   0.227   0.549   3.262
 5239SOL     OW16615   2.481   4.502   0.948
 5239SOL    HW116616   2.405   4.520   1.010
 5239SOL    HW216617   2.487   4.403   0.932
 5240SOL     OW16618   2.077   4.107   5.714
 5240SOL    HW116619   2.177   4.098   5.709
 5240SOL    HW216620   2.047   4.097   5.809
 5241SOL     OW16621   1.933   6.027   2.842
 5241SOL    HW116622   1.878   6.087   2.899
 5241SOL    HW216623   2.030   6.042   2.860
 5242SOL     OW16624   3.752   6.601   6.063
 5242SOL    HW116625   3.840   6.554   6.065
 5242SOL    HW216626   3.767   6.699   6.051
 5243SOL     OW16627   2.542   6.532   2.457
 5243SOL    HW116628   2.547   6.437   2.487
 5243SOL    HW216629   2.455   6.572   2.486
 5244SOL     OW16630   4.165   0.970   0.333
 5244SOL    HW116631   4.240   1.005   0.389
 5244SOL    HW216632   4.157   1.026   0.250
 5245SOL     OW16633   3.062   4.453   1.550
 5245SOL    HW116634   2.983   4.513   1.538
 5245SOL    HW216635   3.036   4.376   1.609
 5246SOL     OW16636   5.887   4.211   6.657
 5246SOL    HW116637   5.830   4.129   6.670
 5246SOL    HW216638   5.876   4.245   6.564
 5247SOL     OW16639   4.813   1.808   6.651
 5247SOL    HW116640   4.875   1.874   6.607
 5247SOL    HW216641   4.719   1.826   6.620
 5248SOL     OW16642   5.225   1.182   4.157
 5248SOL    HW116643   5.232   1.084   4.139
 5248SOL    HW216644   5.145   1.200   4.214
 5249SOL     OW16645   7.004   4.990   1.057
 5249SOL    HW116646   6.994   5.060   0.986
 5249SOL    HW216647   6.935   4.919   1.043
 5250SOL     OW16648   2.749   6.031   1.343
 5250SOL    HW116649   2.660   5.990   1.327
 5250SOL    HW216650   2.821   5.963   1.327
 5251SOL     OW16651   0.416   4.738   0.355
 5251SOL    HW116652   0.367   4.816   0.316
 5251SOL    HW216653   0.466   4.690   0.282
 5252SOL     OW16654   3.792   5.813   2.631
 5252SOL    HW116655   3.737   5.743   2.677
 5252SOL    HW216656   3.857   5.769   2.569
 5253SOL     OW16657   0.069   5.888   4.779
 5253SOL    HW116658   0.149   5.859   4.831
 5253SOL    HW216659   0.066   5.988   4.775
 5254SOL     OW16660   4.881   5.716   2.895
 5254SOL    HW116661   4.961   5.766   2.929
 5254SOL    HW216662   4.843   5.763   2.816
 5255SOL     OW16663   6.689   1.545   5.451
 5255SOL    HW116664   6.665   1.638   5.478
 5255SOL    HW216665   6.786   1.529   5.469
 5256SOL     OW16666   6.390   1.999   2.420
 5256SOL    HW116667   6.303   1.967   2.383
 5256SOL    HW216668   6.444   1.920   2.450
 5257SOL     OW16669   4.181   1.866   6.408
 5257SOL    HW116670   4.121   1.788   6.426
 5257SOL    HW216671   4.127   1.943   6.375
 5258SOL     OW16672   4.636   1.335   4.649
 5258SOL    HW116673   4.573   1.398   4.695
 5258SOL    HW216674   4.727   1.345   4.688
 5259SOL     OW16675   5.702   4.935   3.660
 5259SOL    HW116676   5.632   4.949   3.589
 5259SOL    HW216677   5.722   5.022   3.705
 5260SOL     OW16678   2.170   6.387   1.425
 5260SOL    HW116679   2.126   6.308   1.468
 5260SOL    HW216680   2.107   6.428   1.360
 5261SOL     OW16681   5.519   4.438   6.657
 5261SOL    HW116682   5.538   4.380   6.578
 5261SOL    HW216683   5.580   4.517   6.656
 5262SOL     OW16684   1.619   0.973   1.675
 5262SOL    HW116685   1.606   0.966   1.576
 5262SOL    HW216686   1.714   0.951   1.698
 5263SOL     OW16687   1.658   6.321   2.966
 5263SOL    HW116688   1.622   6.345   3.056
 5263SOL    HW216689   1.753   6.352   2.959
 5264SOL     OW16690   6.786   2.208   1.772
 5264SOL    HW116691   6.763   2.182   1.866
 5264SOL    HW216692   6.866   2.156   1.741
 5265SOL     OW16693   6.592   5.716   5.673
 5265SOL    HW116694   6.543   5.637   5.711
 5265SOL    HW216695   6.643   5.688   5.592
 5266SOL     OW16696   1.593   6.847   6.697
 5266SOL    HW116697   1.535   6.926   6.677
 5266SOL    HW216698   1.677   6.853   6.645
 5267SOL     OW16699   5.221   1.941   3.748
 5267SOL    HW116700   5.277   1.869   3.707
 5267SOL    HW216701   5.271   2.028   3.744
 5268SOL     OW16702   5.725   0.378   6.823
 5268SOL    HW116703   5.820   0.409   6.825
 5268SOL    HW216704   5.676   0.424   6.749
 5269SOL     OW16705   1.250   0.493   3.793
 5269SOL    HW116706   1.197   0.413   3.767
 5269SOL    HW216707   1.346   0.479   3.770
 5270SOL     OW16708   0.276   1.937   6.375
 5270SOL    HW116709   0.237   1.927   6.284
 5270SOL    HW216710   0.225   1.882   6.440
 5271SOL     OW16711   1.226   4.734   3.438
 5271SOL    HW116712   1.313   4.686   3.431
 5271SOL    HW216713   1.151   4.674   3.410
 5272SOL     OW16714   4.164   0.853   6.851
 5272SOL    HW116715   4.139   0.849   6.754
 5272SOL    HW216716   4.089   0.816   6.906
 5273SOL     OW16717   2.800   1.678   2.986
 5273SOL    HW116718   2.713   1.721   3.013
 5273SOL    HW216719   2.832   1.719   2.901
 5274SOL     OW16720   5.382   5.074   1.592
 5274SOL    HW116721   5.421   5.009   1.527
 5274SOL    HW216722   5.404   5.045   1.685
 5275SOL     OW16723   4.762   2.113   6.693
 5275SOL    HW116724   4.740   2.209   6.708
 5275SOL    HW216725   4.679   2.065   6.664
 5276SOL     OW16726   4.301   6.316   1.661
 5276SOL    HW116727   4.210   6.352   1.681
 5276SOL    HW216728   4.316   6.317   1.562
 5277SOL     OW16729   1.989   2.432   2.159
 5277SOL    HW116730   1.920   2.415   2.088
 5277SOL    HW216731   1.950   2.413   2.249
 5278SOL     OW16732   4.181   3.375   2.371
 5278SOL    HW116733   4.171   3.442   2.445
 5278SOL    HW216734   4.242   3.411   2.301
 5279SOL     OW16735   1.746   6.015   2.122
 5279SOL    HW116736   1.659   5.965   2.123
 5279SOL    HW216737   1.728   6.113   2.109
 5280SOL     OW16738   3.903   0.702   4.933
 5280SOL    HW116739   3.938   0.616   4.970
 5280SOL    HW216740   3.860   0.686   4.844
 5281SOL     OW16741   0.097   2.528   3.340
 5281SOL    HW116742   0.115   2.440   3.296
 5281SOL    HW216743   0.169   2.548   3.406
 5282SOL     OW16744   4.729   1.193   1.115
 5282SOL    HW116745   4.687   1.103   1.129
 5282SOL    HW216746   4.787   1.215   1.194
 5283SOL     OW16747   4.890   4.924   6.097
 5283SOL    HW116748   4.903   4.996   6.165
 5283SOL    HW216749   4.979   4.885   6.073
 5284SOL     OW16750   4.960   2.916   3.368
 5284SOL    HW116751   4.984   3.004   3.409
 5284SOL    HW216752   5.023   2.896   3.293
 5285SOL     OW16753   4.384   6.263   2.681
 5285SOL    HW116754   4.419   6.300   2.595
 5285SOL    HW216755   4.287   6.239   2.670
 5286SOL     OW16756   2.550   5.251   2.294
 5286SOL    HW116757   2.553   5.154   2.317
 5286SOL    HW216758   2.463   5.272   2.249
 5287SOL     OW16759   0.353   1.623   2.274
 5287SOL    HW116760   0.288   1.660   2.207
 5287SOL    HW216761   0.309   1.616   2.363
 5288SOL     OW16762   4.387   0.392   0.863
 5288SOL    HW116763   4.305   0.417   0.811
 5288SOL    HW216764   4.441   0.474   0.883
 5289SOL     OW16765   1.594   5.894   1.247
 5289SOL    HW116766   1.608   5.947   1.330
 5289SOL    HW216767   1.542   5.949   1.181
 5290SOL     OW16768   5.692   5.887   0.188
 5290SOL    HW116769   5.706   5.963   0.252
 5290SOL    HW216770   5.685   5.923   0.095
 5291SOL     OW16771   1.090   5.476   6.651
 5291SOL    HW116772   1.128   5.554   6.600
 5291SOL    HW216773   1.157   5.444   6.717
 5292SOL     OW16774   5.291   2.066   0.694
 5292SOL    HW116775   5.236   2.102   0.769
 5292SOL    HW216776   5.361   2.133   0.670
 5293SOL     OW16777   1.220   1.653   3.673
 5293SOL    HW116778   1.302   1.634   3.727
 5293SOL    HW216779   1.234   1.624   3.579
 5294SOL     OW16780   4.402   2.585   5.634
 5294SOL    HW116781   4.464   2.589   5.712
 5294SOL    HW216782   4.451   2.546   5.555
 5295SOL     OW16783   6.125   1.317   2.469
 5295SOL    HW116784   6.212   1.365   2.468
 5295SOL    HW216785   6.076   1.335   2.384
 5296SOL     OW16786   0.556   3.101   0.046
 5296SOL    HW116787   0.640   3.145   0.077
 5296SOL    HW216788   0.518   3.152   6.993
 5297SOL     OW16789   1.584   2.965   1.941
 5297SOL    HW116790   1.660   3.020   1.976
 5297SOL    HW216791   1.616   2.873   1.920
 5298SOL     OW16792   1.041   4.919   1.954
 5298SOL    HW116793   1.098   4.937   2.034
 5298SOL    HW216794   1.063   4.829   1.917
 5299SOL     OW16795   3.161   0.460   1.197
 5299SOL    HW116796   3.142   0.558   1.200
 5299SOL    HW216797   3.189   0.429   1.288
 5300SOL     OW16798   0.590   4.866   3.747
 5300SOL    HW116799   0.545   4.940   3.697
 5300SOL    HW216800   0.677   4.844   3.702
 5301SOL     OW16801   4.727   0.520   0.634
 5301SOL    HW116802   4.805   0.577   0.610
 5301SOL    HW216803   4.642   0.569   0.613
 5302SOL     OW16804   6.274   4.241   3.589
 5302SOL    HW116805   6.355   4.222   3.535
 5302SOL    HW216806   6.192   4.229   3.532
 5303SOL     OW16807   1.653   5.124   2.938
 5303SOL    HW116808   1.638   5.163   2.847
 5303SOL    HW216809   1.574   5.143   2.996
 5304SOL     OW16810   4.784   2.627   5.361
 5304SOL    HW116811   4.725   2.706   5.379
 5304SOL    HW216812   4.743   2.570   5.290
 5305SOL     OW16813   2.799   1.612   3.798
 5305SOL    HW116814   2.874   1.660   3.753
 5305SOL    HW216815   2.836   1.539   3.856
 5306SOL     OW16816   2.759   6.384   4.832
 5306SOL    HW116817   2.771   6.359   4.736
 5306SOL    HW216818   2.681   6.334   4.869
 5307SOL     OW16819   3.880   6.922   0.369
 5307SOL    HW116820   3.897   6.880   0.458
 5307SOL    HW216821   3.817   6.865   0.317
 5308SOL     OW16822   0.295   1.092   2.099
 5308SOL    HW116823   0.252   1.182   2.092
 5308SOL    HW216824   0.260   1.032   2.027
 5309SOL     OW16825   3.169   3.593   4.591
 5309SOL    HW116826   3.074   3.591   4.559
 5309SOL    HW216827   3.179   3.535   4.672
 5310SOL     OW16828   5.831   2.985   0.643
 5310SOL    HW116829   5.904   2.917   0.648
 5310SOL    HW216830   5.841   3.039   0.560
 5311SOL     OW16831   0.756   6.376   6.494
 5311SOL    HW116832   0.781   6.317   6.571
 5311SOL    HW216833   0.667   6.418   6.512
 5312SOL     OW16834   0.764   3.059   2.028
 5312SOL    HW116835   0.723   3.150   2.030
 5312SOL    HW216836   0.703   2.994   2.073
 5313SOL     OW16837   1.046   6.528   0.892
 5313SOL    HW116838   0.990   6.597   0.936
 5313SOL    HW216839   1.051   6.547   0.794
 5314SOL     OW16840   3.957   5.611   1.444
 5314SOL    HW116841   3.977   5.652   1.533
 5314SOL    HW216842   3.993   5.671   1.372
 5315SOL     OW16843   5.641   2.462   1.910
 5315SOL    HW116844   5.711   2.527   1.881
 5315SOL    HW216845   5.664   2.371   1.877
 5316SOL     OW16846   5.495   5.245   4.509
 5316SOL    HW116847   5.400   5.243   4.541
 5316SOL    HW216848   5.498   5.291   4.420
 5317SOL     OW16849   6.783   5.469   2.735
 5317SOL    HW116850   6.854   5.496   2.800
 5317SOL    HW216851   6.745   5.551   2.691
 5318SOL     OW16852   0.182   2.667   4.468
 5318SOL    HW116853   0.088   2.639   4.448
 5318SOL    HW216854   0.211   2.629   4.556
 5319SOL     OW16855   3.817   6.772   2.184
 5319SOL    HW116856   3.813   6.853   2.242
 5319SOL    HW216857   3.892   6.713   2.213
 5320SOL     OW16858   6.227   3.447   5.972
 5320SOL    HW116859   6.316   3.426   6.013
 5320SOL    HW216860   6.228   3.541   5.936
 5321SOL     OW16861   2.084   4.390   5.598
 5321SOL    HW116862   2.035   4.348   5.675
 5321SOL    HW216863   2.180   4.401   5.621
 5322SOL     OW16864   2.479   6.334   0.773
 5322SOL    HW116865   2.545   6.408   0.763
 5322SOL    HW216866   2.502   6.279   0.853
 5323SOL     OW16867   5.130   3.211   0.369
 5323SOL    HW116868   5.053   3.267   0.400
 5323SOL    HW216869   5.096   3.120   0.343
 5324SOL     OW16870   3.678   3.609   1.407
 5324SOL    HW116871   3.707   3.547   1.480
 5324SOL    HW216872   3.751   3.616   1.339
 5325SOL     OW16873   4.249   6.131   4.723
 5325SOL    HW116874   4.196   6.141   4.639
 5325SOL    HW216875   4.218   6.050   4.772
 5326SOL     OW16876   0.231   0.416   2.798
 5326SOL    HW116877   0.251   0.318   2.802
 5326SOL    HW216878   0.147   0.435   2.849
 5327SOL     OW16879   0.358   0.527   3.768
 5327SOL    HW116880   0.279   0.588   3.761
 5327SOL    HW216881   0.399   0.514   3.678
 5328SOL     OW16882   3.718   5.138   6.992
 5328SOL    HW116883   3.635   5.139   0.024
 5328SOL    HW216884   3.765   5.051   7.003
 5329SOL     OW16885   0.483   5.441   6.767
 5329SOL    HW116886   0.409   5.501   6.738
 5329SOL    HW216887   0.456   5.346   6.754
 5330SOL     OW16888   3.364   4.143   0.256
 5330SOL    HW116889   3.341   4.079   0.329
 5330SOL    HW216890   3.455   4.120   0.220
 5331SOL     OW16891   5.051   1.502   6.730
 5331SOL    HW116892   4.976   1.518   6.665
 5331SOL    HW216893   5.074   1.588   6.775
 5332SOL     OW16894   5.749   3.099   6.618
 5332SOL    HW116895   5.808   3.144   6.685
 5332SOL    HW216896   5.760   3.000   6.626
 5333SOL     OW16897   1.763   1.056   4.372
 5333SOL    HW116898   1.804   0.969   4.345
 5333SOL    HW216899   1.722   1.100   4.293
 5334SOL     OW16900   3.104   6.167   2.189
 5334SOL    HW116901   3.194   6.176   2.233
 5334SOL    HW216902   3.116   6.149   2.092
 5335SOL     OW16903   0.354   4.425   1.942
 5335SOL    HW116904   0.453   4.421   1.947
 5335SOL    HW216905   0.325   4.518   1.920
 5336SOL     OW16906   2.098   3.286   5.454
 5336SOL    HW116907   2.026   3.300   5.386
 5336SOL    HW216908   2.186   3.313   5.416
 5337SOL     OW16909   6.816   3.579   1.486
 5337SOL    HW116910   6.806   3.489   1.528
 5337SOL    HW216911   6.818   3.649   1.557
 5338SOL     OW16912   6.845   3.572   1.004
 5338SOL    HW116913   6.885   3.633   1.073
 5338SOL    HW216914   6.843   3.479   1.039
 5339SOL     OW16915   5.504   2.833   2.869
 5339SOL    HW116916   5.524   2.737   2.850
 5339SOL    HW216917   5.565   2.891   2.816
 5340SOL     OW16918   4.659   3.185   1.667
 5340SOL    HW116919   4.619   3.273   1.691
 5340SOL    HW216920   4.619   3.113   1.724
 5341SOL     OW16921   4.876   4.857   3.212
 5341SOL    HW116922   4.808   4.801   3.164
 5341SOL    HW216923   4.830   4.922   3.272
 5342SOL     OW16924   6.238   5.404   4.895
 5342SOL    HW116925   6.188   5.361   4.970
 5342SOL    HW216926   6.314   5.458   4.932
 5343SOL     OW16927   3.854   3.389   6.527
 5343SOL    HW116928   3.779   3.423   6.471
 5343SOL    HW216929   3.817   3.353   6.613
 5344SOL     OW16930   0.049   1.476   6.863
 5344SOL    HW116931   0.075   1.529   6.944
 5344SOL    HW216932   0.098   1.511   6.783
 5345SOL     OW16933   4.148   1.262   6.893
 5345SOL    HW116934   4.080   1.212   6.839
 5345SOL    HW216935   4.237   1.216   6.883
 5346SOL     OW16936   3.299   6.109   3.389
 5346SOL    HW116937   3.340   6.097   3.299
 5346SOL    HW216938   3.328   6.197   3.428
 5347SOL     OW16939   5.539   1.350   4.894
 5347SOL    HW116940   5.518   1.333   4.797
 5347SOL    HW216941   5.590   1.436   4.902
 5348SOL     OW16942   4.768   3.040   5.070
 5348SOL    HW116943   4.727   3.041   5.161
 5348SOL    HW216944   4.861   3.077   5.076
 5349SOL     OW16945   0.735   4.318   1.071
 5349SOL    HW116946   0.765   4.404   1.111
 5349SOL    HW216947   0.688   4.263   1.141
 5350SOL     OW16948   0.532   6.912   6.042
 5350SOL    HW116949   0.613   6.902   6.100
 5350SOL    HW216950   0.544   6.859   5.958
 5351SOL     OW16951   0.543   6.381   3.238
 5351SOL    HW116952   0.565   6.358   3.333
 5351SOL    HW216953   0.472   6.452   3.236
 5352SOL     OW16954   1.621   2.830   6.168
 5352SOL    HW116955   1.618   2.734   6.198
 5352SOL    HW216956   1.600   2.834   6.070
 5353SOL     OW16957   3.658   5.538   3.578
 5353SOL    HW116958   3.616   5.569   3.492
 5353SOL    HW216959   3.647   5.609   3.648
 5354SOL     OW16960   3.954   6.478   1.186
 5354SOL    HW116961   3.924   6.423   1.264
 5354SOL    HW216962   3.909   6.567   1.189
 5355SOL     OW16963   4.957   5.828   5.238
 5355SOL    HW116964   4.994   5.781   5.317
 5355SOL    HW216965   4.863   5.798   5.222
 5356SOL     OW16966   1.515   6.386   1.407
 5356SOL    HW116967   1.558   6.352   1.491
 5356SOL    HW216968   1.478   6.478   1.424
 5357SOL     OW16969   6.303   3.091   2.744
 5357SOL    HW116970   6.296   3.106   2.843
 5357SOL    HW216971   6.381   3.031   2.726
 5358SOL     OW16972   6.149   0.343   6.232
 5358SOL    HW116973   6.089   0.271   6.267
 5358SOL    HW216974   6.102   0.392   6.158
 5359SOL     OW16975   3.050   2.508   0.041
 5359SOL    HW116976   3.075   2.432   7.006
 5359SOL    HW216977   2.959   2.542   0.015
 5360SOL     OW16978   5.324   5.742   3.844
 5360SOL    HW116979   5.262   5.687   3.900
 5360SOL    HW216980   5.375   5.805   3.903
 5361SOL     OW16981   1.405   4.264   3.161
 5361SOL    HW116982   1.425   4.241   3.065
 5361SOL    HW216983   1.482   4.240   3.218
 5362SOL     OW16984   6.571   1.349   2.655
 5362SOL    HW116985   6.556   1.355   2.556
 5362SOL    HW216986   6.571   1.254   2.683
 5363SOL     OW16987   5.736   5.762   3.988
 5363SOL    HW116988   5.723   5.851   4.031
 5363SOL    HW216989   5.816   5.717   4.028
 5364SOL     OW16990   4.576   2.480   2.518
 5364SOL    HW116991   4.631   2.424   2.456
 5364SOL    HW216992   4.553   2.567   2.474
 5365SOL     OW16993   3.106   3.783   5.283
 5365SOL    HW116994   3.032   3.811   5.221
 5365SOL    HW216995   3.099   3.685   5.300
 5366SOL     OW16996   6.998   5.342   3.195
 5366SOL    HW116997   7.005   5.434   3.233
 5366SOL    HW216998   6.926   5.340   3.125
 5367SOL     OW16999   6.353   6.351   1.604
 5367SOL    HW117000   6.275   6.323   1.548
 5367SOL    HW217001   6.420   6.399   1.546
 5368SOL     OW17002   0.510   5.822   4.649
 5368SOL    HW117003   0.537   5.793   4.741
 5368SOL    HW217004   0.581   5.882   4.610
 5369SOL     OW17005   4.387   7.006   2.606
 5369SOL    HW117006   4.337   0.042   2.669
 5369SOL    HW217007   4.325   6.976   2.533
 5370SOL     OW17008   1.964   2.858   0.357
 5370SOL    HW117009   1.932   2.946   0.390
 5370SOL    HW217010   1.902   2.824   0.286
 5371SOL     OW17011   6.474   5.403   3.924
 5371SOL    HW117012   6.407   5.431   3.856
 5371SOL    HW217013   6.427   5.381   4.010
 5372SOL     OW17014   2.236   6.586   3.588
 5372SOL    HW117015   2.213   6.495   3.622
 5372SOL    HW217016   2.180   6.654   3.636
 5373SOL     OW17017   3.152   0.922   6.430
 5373SOL    HW117018   3.162   1.014   6.469
 5373SOL    HW217019   3.172   0.853   6.500
 5374SOL     OW17020   1.163   3.824   1.127
 5374SOL    HW117021   1.231   3.774   1.073
 5374SOL    HW217022   1.155   3.917   1.092
 5375SOL     OW17023   2.571   4.592   4.515
 5375SOL    HW117024   2.513   4.524   4.470
 5375SOL    HW217025   2.636   4.545   4.575
 5376SOL     OW17026   0.953   0.429   0.892
 5376SOL    HW117027   0.984   0.434   0.797
 5376SOL    HW217028   0.853   0.431   0.894
 5377SOL     OW17029   1.264   1.973   2.521
 5377SOL    HW117030   1.180   1.940   2.477
 5377SOL    HW217031   1.240   2.024   2.603
 5378SOL     OW17032   5.008   6.967   2.165
 5378SOL    HW117033   5.071   0.009   2.124
 5378SOL    HW217034   5.015   6.879   2.117
 5379SOL     OW17035   2.280   1.898   3.053
 5379SOL    HW117036   2.257   1.995   3.048
 5379SOL    HW217037   2.198   1.845   3.076
 5380SOL     OW17038   5.085   6.325   0.906
 5380SOL    HW117039   5.078   6.361   0.999
 5380SOL    HW217040   5.132   6.237   0.907
 5381SOL     OW17041   3.731   2.019   3.215
 5381SOL    HW117042   3.694   1.968   3.138
 5381SOL    HW217043   3.745   1.957   3.293
 5382SOL     OW17044   3.964   0.970   2.615
 5382SOL    HW117045   3.907   0.889   2.602
 5382SOL    HW217046   4.044   0.946   2.671
 5383SOL     OW17047   2.213   3.468   5.246
 5383SOL    HW117048   2.136   3.499   5.301
 5383SOL    HW217049   2.187   3.385   5.197
 5384SOL     OW17050   5.499   6.238   6.434
 5384SOL    HW117051   5.410   6.282   6.419
 5384SOL    HW217052   5.560   6.301   6.482
 5385SOL     OW17053   4.013   3.422   0.026
 5385SOL    HW117054   4.059   3.480   0.093
 5385SOL    HW217055   3.916   3.447   0.021
 5386SOL     OW17056   4.581   5.070   3.623
 5386SOL    HW117057   4.526   5.011   3.564
 5386SOL    HW217058   4.602   5.155   3.575
 5387SOL     OW17059   1.008   2.400   4.506
 5387SOL    HW117060   0.924   2.370   4.550
 5387SOL    HW217061   1.036   2.333   4.438
 5388SOL     OW17062   6.617   6.390   3.957
 5388SOL    HW117063   6.673   6.401   4.040
 5388SOL    HW217064   6.625   6.473   3.901
 5389SOL     OW17065   5.239   1.254   5.005
 5389SOL    HW117066   5.219   1.264   4.907
 5389SOL    HW217067   5.249   1.157   5.027
 5390SOL     OW17068   5.333   3.825   3.130
 5390SOL    HW117069   5.279   3.744   3.111
 5390SOL    HW217070   5.303   3.868   3.215
 5391SOL     OW17071   4.185   2.403   1.401
 5391SOL    HW117072   4.282   2.414   1.379
 5391SOL    HW217073   4.175   2.351   1.486
 5392SOL     OW17074   5.084   0.254   4.288
 5392SOL    HW117075   5.022   0.308   4.231
 5392SOL    HW217076   5.036   0.222   4.370
 5393SOL     OW17077   4.357   1.159   3.671
 5393SOL    HW117078   4.423   1.226   3.637
 5393SOL    HW217079   4.340   1.176   3.768
 5394SOL     OW17080   0.278   3.252   2.393
 5394SOL    HW117081   0.263   3.153   2.391
 5394SOL    HW217082   0.196   3.298   2.427
 5395SOL     OW17083   0.519   1.448   0.955
 5395SOL    HW117084   0.559   1.510   0.888
 5395SOL    HW217085   0.577   1.445   1.037
 5396SOL     OW17086   3.538   2.957   1.174
 5396SOL    HW117087   3.490   3.044   1.160
 5396SOL    HW217088   3.502   2.912   1.255
 5397SOL     OW17089   0.097   0.387   2.157
 5397SOL    HW117090   0.009   0.394   2.205
 5397SOL    HW217091   0.108   0.466   2.097
 5398SOL     OW17092   6.795   2.346   3.325
 5398SOL    HW117093   6.822   2.428   3.376
 5398SOL    HW217094   6.763   2.372   3.234
 5399SOL     OW17095   2.452   2.880   1.042
 5399SOL    HW117096   2.366   2.907   0.997
 5399SOL    HW217097   2.492   2.802   0.993
 5400SOL     OW17098   4.889   3.185   1.306
 5400SOL    HW117099   4.957   3.166   1.377
 5400SOL    HW217100   4.884   3.107   1.243
 5401SOL     OW17101   5.556   3.108   1.173
 5401SOL    HW117102   5.630   3.123   1.238
 5401SOL    HW217103   5.573   3.022   1.123
 5402SOL     OW17104   1.250   6.839   1.506
 5402SOL    HW117105   1.265   6.789   1.421
 5402SOL    HW217106   1.274   6.781   1.583
 5403SOL     OW17107   5.546   2.127   5.802
 5403SOL    HW117108   5.563   2.190   5.726
 5403SOL    HW217109   5.486   2.053   5.770
 5404SOL     OW17110   4.887   6.322   0.130
 5404SOL    HW117111   4.920   6.311   0.223
 5404SOL    HW217112   4.903   6.238   0.078
 5405SOL     OW17113   0.219   5.139   6.755
 5405SOL    HW117114   0.217   5.226   6.805
 5405SOL    HW217115   0.194   5.065   6.817
 5406SOL     OW17116   2.578   1.455   5.766
 5406SOL    HW117117   2.627   1.526   5.816
 5406SOL    HW217118   2.605   1.457   5.670
 5407SOL     OW17119   1.327   6.495   3.551
 5407SOL    HW117120   1.330   6.479   3.452
 5407SOL    HW217121   1.392   6.434   3.597
 5408SOL     OW17122   2.296   2.182   4.023
 5408SOL    HW117123   2.265   2.276   4.009
 5408SOL    HW217124   2.346   2.151   3.941
 5409SOL     OW17125   0.683   2.696   3.006
 5409SOL    HW117126   0.664   2.794   3.018
 5409SOL    HW217127   0.763   2.671   3.060
 5410SOL     OW17128   6.307   2.834   0.666
 5410SOL    HW117129   6.401   2.802   0.657
 5410SOL    HW217130   6.302   2.906   0.736
 5411SOL     OW17131   3.812   5.499   1.177
 5411SOL    HW117132   3.888   5.541   1.226
 5411SOL    HW217133   3.818   5.521   1.079
 5412SOL     OW17134   1.286   2.171   5.405
 5412SOL    HW117135   1.385   2.177   5.393
 5412SOL    HW217136   1.246   2.263   5.402
 5413SOL     OW17137   7.011   5.215   5.710
 5413SOL    HW117138   0.069   5.268   5.730
 5413SOL    HW217139   7.021   5.123   5.746
 5414SOL     OW17140   5.437   4.981   5.893
 5414SOL    HW117141   5.525   5.024   5.876
 5414SOL    HW217142   5.445   4.882   5.880
 5415SOL     OW17143   1.409   1.708   6.188
 5415SOL    HW117144   1.325   1.730   6.138
 5415SOL    HW217145   1.488   1.739   6.136
 5416SOL     OW17146   3.000   6.267   6.719
 5416SOL    HW117147   2.927   6.272   6.787
 5416SOL    HW217148   2.978   6.198   6.650
 5417SOL     OW17149   6.014   0.544   2.741
 5417SOL    HW117150   6.011   0.453   2.702
 5417SOL    HW217151   5.921   0.578   2.756
 5418SOL     OW17152   6.956   3.630   5.770
 5418SOL    HW117153   6.986   3.535   5.775
 5418SOL    HW217154   0.008   3.691   5.793
 5419SOL     OW17155   3.499   2.054   6.573
 5419SOL    HW117156   3.495   2.022   6.668
 5419SOL    HW217157   3.537   1.982   6.515
 5420SOL     OW17158   1.533   2.261   1.406
 5420SOL    HW117159   1.628   2.258   1.378
 5420SOL    HW217160   1.496   2.353   1.390
 5421SOL     OW17161   4.041   5.334   1.945
 5421SOL    HW117162   4.121   5.385   1.979
 5421SOL    HW217163   4.051   5.318   1.847
 5422SOL     OW17164   2.344   5.790   3.772
 5422SOL    HW117165   2.401   5.727   3.721
 5422SOL    HW217166   2.344   5.879   3.727
 5423SOL     OW17167   4.736   6.672   1.330
 5423SOL    HW117168   4.660   6.611   1.350
 5423SOL    HW217169   4.715   6.765   1.361
 5424SOL     OW17170   3.926   3.355   5.428
 5424SOL    HW117171   4.010   3.407   5.413
 5424SOL    HW217172   3.949   3.258   5.441
 5425SOL     OW17173   1.431   5.659   6.039
 5425SOL    HW117174   1.444   5.757   6.024
 5425SOL    HW217175   1.419   5.642   6.137
 5426SOL     OW17176   6.652   4.252   0.877
 5426SOL    HW117177   6.588   4.302   0.818
 5426SOL    HW217178   6.743   4.291   0.868
 5427SOL     OW17179   5.113   2.610   0.689
 5427SOL    HW117180   5.048   2.665   0.637
 5427SOL    HW217181   5.151   2.664   0.764
 5428SOL     OW17182   4.628   5.698   2.599
 5428SOL    HW117183   4.642   5.770   2.667
 5428SOL    HW217184   4.593   5.616   2.644
 5429SOL     OW17185   3.140   6.770   4.034
 5429SOL    HW117186   3.042   6.751   4.031
 5429SOL    HW217187   3.155   6.868   4.020
 5430SOL     OW17188   1.601   3.951   5.524
 5430SOL    HW117189   1.569   3.981   5.614
 5430SOL    HW217190   1.689   3.995   5.503
 5431SOL     OW17191   5.041   4.976   0.576
 5431SOL    HW117192   5.079   5.068   0.590
 5431SOL    HW217193   4.944   4.984   0.554
 5432SOL     OW17194   0.297   5.181   6.256
 5432SOL    HW117195   0.259   5.271   6.276
 5432SOL    HW217196   0.274   5.118   6.330
 5433SOL     OW17197   3.524   6.858   1.188
 5433SOL    HW117198   3.451   6.821   1.246
 5433SOL    HW217199   3.556   6.944   1.227
 5434SOL     OW17200   4.988   6.131   4.104
 5434SOL    HW117201   4.968   6.229   4.111
 5434SOL    HW217202   5.000   6.106   4.008
 5435SOL     OW17203   6.904   4.292   6.812
 5435SOL    HW117204   6.959   4.252   6.739
 5435SOL    HW217205   6.827   4.342   6.772
 5436SOL     OW17206   2.103   4.288   2.295
 5436SOL    HW117207   2.097   4.298   2.394
 5436SOL    HW217208   2.053   4.206   2.267
 5437SOL     OW17209   3.176   6.459   0.804
 5437SOL    HW117210   3.115   6.489   0.877
 5437SOL    HW217211   3.228   6.537   0.770
 5438SOL     OW17212   4.570   6.592   2.335
 5438SOL    HW117213   4.611   6.676   2.370
 5438SOL    HW217214   4.539   6.607   2.241
 5439SOL     OW17215   1.645   3.788   1.388
 5439SOL    HW117216   1.628   3.763   1.484
 5439SOL    HW217217   1.716   3.729   1.351
 5440SOL     OW17218   5.818   6.698   4.014
 5440SOL    HW117219   5.854   6.653   3.932
 5440SOL    HW217220   5.853   6.651   4.095
 5441SOL     OW17221   5.976   2.448   4.583
 5441SOL    HW117222   6.025   2.453   4.671
 5441SOL    HW217223   5.958   2.352   4.560
 5442SOL     OW17224   2.518   0.371   6.856
 5442SOL    HW117225   2.542   0.345   6.949
 5442SOL    HW217226   2.421   0.398   6.853
 5443SOL     OW17227   5.749   0.592   2.732
 5443SOL    HW117228   5.717   0.498   2.732
 5443SOL    HW217229   5.711   0.641   2.654
 5444SOL     OW17230   0.697   1.267   6.023
 5444SOL    HW117231   0.681   1.364   6.042
 5444SOL    HW217232   0.634   1.236   5.953
 5445SOL     OW17233   5.980   6.521   5.420
 5445SOL    HW117234   5.977   6.550   5.516
 5445SOL    HW217235   6.046   6.447   5.409
 5446SOL     OW17236   1.073   4.480   6.043
 5446SOL    HW117237   1.001   4.428   5.999
 5446SOL    HW217238   1.160   4.433   6.032
 5447SOL     OW17239   6.577   1.908   1.620
 5447SOL    HW117240   6.609   1.978   1.558
 5447SOL    HW217241   6.578   1.819   1.574
 5448SOL     OW17242   6.159   5.095   1.845
 5448SOL    HW117243   6.103   5.041   1.782
 5448SOL    HW217244   6.129   5.190   1.844
 5449SOL     OW17245   2.179   0.282   1.752
 5449SOL    HW117246   2.197   0.333   1.668
 5449SOL    HW217247   2.084   0.296   1.779
 5450SOL     OW17248   4.339   6.069   1.173
 5450SOL    HW117249   4.419   6.014   1.149
 5450SOL    HW217250   4.266   6.051   1.108
 5451SOL     OW17251   0.345   6.535   3.955
 5451SOL    HW117252   0.327   6.475   4.033
 5451SOL    HW217253   0.266   6.596   3.942
 5452SOL     OW17254   2.372   4.461   2.549
 5452SOL    HW117255   2.427   4.439   2.469
 5452SOL    HW217256   2.326   4.548   2.536
 5453SOL     OW17257   5.985   4.791   4.086
 5453SOL    HW117258   6.081   4.789   4.116
 5453SOL    HW217259   5.958   4.885   4.066
 5454SOL     OW17260   5.610   4.019   2.659
 5454SOL    HW117261   5.555   3.946   2.618
 5454SOL    HW217262   5.601   4.015   2.759
 5455SOL     OW17263   2.710   2.035   3.320
 5455SOL    HW117264   2.810   2.046   3.312
 5455SOL    HW217265   2.682   2.052   3.414
 5456SOL     OW17266   5.908   2.291   0.463
 5456SOL    HW117267   5.939   2.353   0.391
 5456SOL    HW217268   5.808   2.293   0.466
 5457SOL     OW17269   6.272   1.074   6.843
 5457SOL    HW117270   6.286   1.097   6.939
 5457SOL    HW217271   6.350   1.022   6.809
 5458SOL     OW17272   5.334   4.792   6.466
 5458SOL    HW117273   5.339   4.794   6.565
 5458SOL    HW217274   5.239   4.803   6.437
 5459SOL     OW17275   2.164   2.911   5.157
 5459SOL    HW117276   2.148   2.822   5.116
 5459SOL    HW217277   2.255   2.944   5.131
 5460SOL     OW17278   0.335   0.544   1.197
 5460SOL    HW117279   0.379   0.564   1.110
 5460SOL    HW217280   0.400   0.558   1.271
 5461SOL     OW17281   5.758   1.696   6.402
 5461SOL    HW117282   5.792   1.717   6.494
 5461SOL    HW217283   5.658   1.688   6.405
 5462SOL     OW17284   4.952   5.406   6.270
 5462SOL    HW117285   4.868   5.373   6.227
 5462SOL    HW217286   5.030   5.356   6.234
 5463SOL     OW17287   1.282   4.956   5.829
 5463SOL    HW117288   1.217   4.891   5.789
 5463SOL    HW217289   1.347   4.908   5.887
 5464SOL     OW17290   1.988   5.156   5.076
 5464SOL    HW117291   1.951   5.063   5.077
 5464SOL    HW217292   2.058   5.164   5.147
 5465SOL     OW17293   0.452   0.092   5.337
 5465SOL    HW117294   0.397   0.023   5.384
 5465SOL    HW217295   0.543   0.055   5.318
 5466SOL     OW17296   5.279   1.535   5.072
 5466SOL    HW117297   5.329   1.572   4.994
 5466SOL    HW217298   5.269   1.436   5.061
 5467SOL     OW17299   5.171   2.940   4.374
 5467SOL    HW117300   5.072   2.928   4.388
 5467SOL    HW217301   5.219   2.914   4.458
 5468SOL     OW17302   6.868   2.678   1.568
 5468SOL    HW117303   6.876   2.624   1.484
 5468SOL    HW217304   6.826   2.622   1.639
 5469SOL     OW17305   3.700   1.554   4.387
 5469SOL    HW117306   3.690   1.499   4.304
 5469SOL    HW217307   3.796   1.579   4.400
 5470SOL     OW17308   3.919   5.215   3.480
 5470SOL    HW117309   3.998   5.158   3.457
 5470SOL    HW217310   3.916   5.229   3.579
 5471SOL     OW17311   5.087   0.436   2.838
 5471SOL    HW117312   5.084   0.404   2.933
 5471SOL    HW217313   5.170   0.402   2.794
 5472SOL     OW17314   2.133   3.606   0.071
 5472SOL    HW117315   2.182   3.599   0.158
 5472SOL    HW217316   2.035   3.595   0.087
 5473SOL     OW17317   2.719   4.845   2.118
 5473SOL    HW117318   2.804   4.885   2.153
 5473SOL    HW217319   2.741   4.761   2.068
 5474SOL     OW17320   1.456   4.987   1.850
 5474SOL    HW117321   1.386   4.942   1.794
 5474SOL    HW217322   1.506   4.919   1.902
 5475SOL     OW17323   1.316   1.412   5.161
 5475SOL    HW117324   1.342   1.329   5.210
 5475SOL    HW217325   1.364   1.415   5.073
 5476SOL     OW17326   2.083   0.272   4.744
 5476SOL    HW117327   2.119   0.352   4.696
 5476SOL    HW217328   1.995   0.295   4.785
 5477SOL     OW17329   2.004   3.207   3.401
 5477SOL    HW117330   1.916   3.216   3.446
 5477SOL    HW217331   1.994   3.148   3.320
 5478SOL     OW17332   5.474   4.220   5.152
 5478SOL    HW117333   5.453   4.191   5.245
 5478SOL    HW217334   5.547   4.161   5.115
 5479SOL     OW17335   5.320   3.044   4.575
 5479SOL    HW117336   5.392   2.999   4.628
 5479SOL    HW217337   5.251   3.081   4.637
 5480SOL     OW17338   1.202   3.725   4.718
 5480SOL    HW117339   1.183   3.729   4.816
 5480SOL    HW217340   1.292   3.765   4.700
 5481SOL     OW17341   3.127   1.368   6.402
 5481SOL    HW117342   3.094   1.463   6.398
 5481SOL    HW217343   3.116   1.325   6.313
 5482SOL     OW17344   5.555   3.320   2.037
 5482SOL    HW117345   5.551   3.223   2.013
 5482SOL    HW217346   5.641   3.359   2.003
 5483SOL     OW17347   6.910   3.075   0.039
 5483SOL    HW117348   6.963   3.123   6.993
 5483SOL    HW217349   6.946   3.097   0.129
 5484SOL     OW17350   6.409   0.377   5.152
 5484SOL    HW117351   6.353   0.443   5.101
 5484SOL    HW217352   6.500   0.416   5.168
 5485SOL     OW17353   3.124   0.711   4.973
 5485SOL    HW117354   3.194   0.746   4.910
 5485SOL    HW217355   3.036   0.706   4.925
 5486SOL     OW17356   1.246   0.827   4.010
 5486SOL    HW117357   1.240   0.926   3.995
 5486SOL    HW217358   1.330   0.793   3.968
 5487SOL     OW17359   4.218   5.401   0.943
 5487SOL    HW117360   4.230   5.436   0.850
 5487SOL    HW217361   4.128   5.357   0.950
 5488SOL     OW17362   4.977   1.418   5.688
 5488SOL    HW117363   5.063   1.375   5.660
 5488SOL    HW217364   4.946   1.377   5.774
 5489SOL     OW17365   6.601   4.104   3.176
 5489SOL    HW117366   6.673   4.035   3.172
 5489SOL    HW217367   6.515   4.064   3.143
 5490SOL     OW17368   2.394   2.142   6.139
 5490SOL    HW117369   2.303   2.179   6.157
 5490SOL    HW217370   2.434   2.110   6.225
 5491SOL     OW17371   7.002   6.075   2.293
 5491SOL    HW117372   0.049   6.028   2.241
 5491SOL    HW217373   6.913   6.035   2.271
 5492SOL     OW17374   1.291   1.301   4.651
 5492SOL    HW117375   1.345   1.243   4.713
 5492SOL    HW217376   1.207   1.330   4.697
 5493SOL     OW17377   3.028   2.166   0.486
 5493SOL    HW117378   3.123   2.190   0.508
 5493SOL    HW217379   2.983   2.244   0.443
 5494SOL     OW17380   5.939   3.426   2.294
 5494SOL    HW117381   6.028   3.451   2.331
 5494SOL    HW217382   5.949   3.349   2.231
 5495SOL     OW17383   3.787   2.960   3.543
 5495SOL    HW117384   3.865   3.008   3.583
 5495SOL    HW217385   3.796   2.957   3.444
 5496SOL     OW17386   4.341   5.041   1.908
 5496SOL    HW117387   4.328   5.140   1.910
 5496SOL    HW217388   4.329   5.007   1.815
 5497SOL     OW17389   5.843   0.023   1.159
 5497SOL    HW117390   5.850   0.108   1.211
 5497SOL    HW217391   5.864   0.041   1.063
 5498SOL     OW17392   4.054   0.341   4.639
 5498SOL    HW117393   4.104   0.343   4.553
 5498SOL    HW217394   4.114   0.372   4.713
 5499SOL     OW17395   0.766   1.324   5.705
 5499SOL    HW117396   0.805   1.396   5.763
 5499SOL    HW217397   0.831   1.300   5.633
 5500SOL     OW17398   2.028   5.748   0.988
 5500SOL    HW117399   2.097   5.706   0.929
 5500SOL    HW217400   2.072   5.777   1.074
 5501SOL     OW17401   2.966   0.594   2.474
 5501SOL    HW117402   3.056   0.631   2.450
 5501SOL    HW217403   2.911   0.666   2.516
 5502SOL     OW17404   4.656   3.183   0.582
 5502SOL    HW117405   4.751   3.168   0.558
 5502SOL    HW217406   4.601   3.195   0.499
 5503SOL     OW17407   0.533   6.421   4.546
 5503SOL    HW117408   0.529   6.342   4.484
 5503SOL    HW217409   0.477   6.495   4.509
 5504SOL     OW17410   3.515   2.061   4.579
 5504SOL    HW117411   3.421   2.072   4.547
 5504SOL    HW217412   3.525   2.103   4.670
 5505SOL     OW17413   3.618   4.681   6.887
 5505SOL    HW117414   3.646   4.594   6.846
 5505SOL    HW217415   3.548   4.664   6.956
 5506SOL     OW17416   0.018   6.590   5.613
 5506SOL    HW117417   0.113   6.564   5.629
 5506SOL    HW217418   6.986   6.560   5.690
 5507SOL     OW17419   3.789   6.106   4.614
 5507SOL    HW117420   3.804   6.014   4.652
 5507SOL    HW217421   3.877   6.148   4.592
 5508SOL     OW17422   1.783   0.392   6.181
 5508SOL    HW117423   1.771   0.460   6.108
 5508SOL    HW217424   1.728   0.419   6.261
 5509SOL     OW17425   6.163   6.282   0.069
 5509SOL    HW117426   6.227   6.304   0.142
 5509SOL    HW217427   6.207   6.222   0.002
 5510SOL     OW17428   6.066   0.742   6.217
 5510SOL    HW117429   5.995   0.732   6.287
 5510SOL    HW217430   6.156   0.728   6.257
 5511SOL     OW17431   6.825   2.440   1.363
 5511SOL    HW117432   6.762   2.518   1.358
 5511SOL    HW217433   6.814   2.383   1.282
 5512SOL     OW17434   0.663   0.061   0.688
 5512SOL    HW117435   0.684   0.157   0.669
 5512SOL    HW217436   0.684   0.040   0.783
 5513SOL     OW17437   3.358   5.653   5.035
 5513SOL    HW117438   3.424   5.642   5.109
 5513SOL    HW217439   3.405   5.682   4.952
 5514SOL     OW17440   5.917   5.369   3.930
 5514SOL    HW117441   5.938   5.318   4.013
 5514SOL    HW217442   5.960   5.459   3.933
 5515SOL     OW17443   6.546   3.355   3.076
 5515SOL    HW117444   6.458   3.400   3.062
 5515SOL    HW217445   6.538   3.258   3.051
 5516SOL     OW17446   1.200   3.147   6.742
 5516SOL    HW117447   1.119   3.138   6.683
 5516SOL    HW217448   1.171   3.172   6.834
 5517SOL     OW17449   2.251   1.072   1.603
 5517SOL    HW117450   2.159   1.050   1.570
 5517SOL    HW217451   2.286   1.151   1.553
 5518SOL     OW17452   5.527   4.708   5.110
 5518SOL    HW117453   5.567   4.664   5.029
 5518SOL    HW217454   5.600   4.738   5.172
 5519SOL     OW17455   5.143   3.973   3.336
 5519SOL    HW117456   5.102   4.054   3.377
 5519SOL    HW217457   5.227   3.949   3.386
 5520SOL     OW17458   2.049   3.044   0.708
 5520SOL    HW117459   2.067   3.098   0.626
 5520SOL    HW217460   1.950   3.031   0.718
 5521SOL     OW17461   4.867   5.666   0.810
 5521SOL    HW117462   4.895   5.724   0.734
 5521SOL    HW217463   4.935   5.672   0.883
 5522SOL     OW17464   2.103   3.127   2.211
 5522SOL    HW117465   2.153   3.042   2.203
 5522SOL    HW217466   2.080   3.161   2.119
 5523SOL     OW17467   2.985   0.596   1.881
 5523SOL    HW117468   3.064   0.543   1.909
 5523SOL    HW217469   3.011   0.659   1.808
 5524SOL     OW17470   5.790   5.775   5.910
 5524SOL    HW117471   5.798   5.734   6.001
 5524SOL    HW217472   5.694   5.798   5.893
 5525SOL     OW17473   6.732   6.065   4.372
 5525SOL    HW117474   6.709   6.158   4.344
 5525SOL    HW217475   6.724   6.057   4.471
 5526SOL     OW17476   5.291   3.136   4.844
 5526SOL    HW117477   5.379   3.098   4.872
 5526SOL    HW217478   5.221   3.064   4.847
 5527SOL     OW17479   2.353   2.993   0.505
 5527SOL    HW117480   2.325   2.926   0.574
 5527SOL    HW217481   2.351   2.950   0.414
 5528SOL     OW17482   6.840   3.595   2.994
 5528SOL    HW117483   6.918   3.627   3.049
 5528SOL    HW217484   6.810   3.506   3.029
 5529SOL     OW17485   1.417   1.534   4.671
 5529SOL    HW117486   1.476   1.542   4.752
 5529SOL    HW217487   1.413   1.439   4.641
 5530SOL     OW17488   0.474   3.266   0.370
 5530SOL    HW117489   0.430   3.176   0.367
 5530SOL    HW217490   0.564   3.261   0.328
 5531SOL     OW17491   1.289   2.648   6.560
 5531SOL    HW117492   1.389   2.643   6.565
 5531SOL    HW217493   1.260   2.742   6.575
 5532SOL     OW17494   2.348   2.254   1.023
 5532SOL    HW117495   2.418   2.202   0.974
 5532SOL    HW217496   2.326   2.209   1.109
 5533SOL     OW17497   3.769   0.124   0.733
 5533SOL    HW117498   3.780   0.221   0.752
 5533SOL    HW217499   3.743   0.110   0.638
 5534SOL     OW17500   6.911   4.981   4.888
 5534SOL    HW117501   6.963   4.942   4.964
 5534SOL    HW217502   6.874   4.907   4.832
 5535SOL     OW17503   5.625   2.966   3.874
 5535SOL    HW117504   5.563   3.034   3.835
 5535SOL    HW217505   5.713   2.970   3.827
 5536SOL     OW17506   2.644   0.487   4.192
 5536SOL    HW117507   2.645   0.506   4.291
 5536SOL    HW217508   2.722   0.430   4.168
 5537SOL     OW17509   4.219   1.449   4.719
 5537SOL    HW117510   4.206   1.353   4.744
 5537SOL    HW217511   4.154   1.506   4.770
 5538SOL     OW17512   5.446   2.711   1.581
 5538SOL    HW117513   5.517   2.650   1.545
 5538SOL    HW217514   5.359   2.663   1.585
 5539SOL     OW17515   2.663   6.893   0.721
 5539SOL    HW117516   2.617   6.912   0.807
 5539SOL    HW217517   2.760   6.872   0.739
 5540SOL     OW17518   5.129   0.607   6.684
 5540SOL    HW117519   5.180   0.597   6.598
 5540SOL    HW217520   5.193   0.605   6.761
 5541SOL     OW17521   4.787   3.054   6.902
 5541SOL    HW117522   4.842   3.129   6.865
 5541SOL    HW217523   4.798   2.973   6.843
 5542SOL     OW17524   4.031   4.185   6.984
 5542SOL    HW117525   4.082   4.271   6.985
 5542SOL    HW217526   4.081   4.118   6.928
 5543SOL     OW17527   1.926   0.324   0.402
 5543SOL    HW117528   1.982   0.336   0.484
 5543SOL    HW217529   1.946   0.398   0.337
 5544SOL     OW17530   3.940   5.413   6.623
 5544SOL    HW117531   3.918   5.408   6.720
 5544SOL    HW217532   3.856   5.412   6.569
 5545SOL     OW17533   4.949   1.272   3.443
 5545SOL    HW117534   4.927   1.253   3.539
 5545SOL    HW217535   4.959   1.185   3.394
 5546SOL     OW17536   0.506   5.180   4.496
 5546SOL    HW117537   0.559   5.215   4.573
 5546SOL    HW217538   0.409   5.197   4.512
 5547SOL     OW17539   4.678   1.603   4.980
 5547SOL    HW117540   4.641   1.557   5.060
 5547SOL    HW217541   4.621   1.584   4.900
 5548SOL     OW17542   0.589   4.392   4.423
 5548SOL    HW117543   0.501   4.368   4.383
 5548SOL    HW217544   0.643   4.443   4.355
 5549SOL     OW17545   4.676   3.067   0.139
 5549SOL    HW117546   4.704   3.046   0.046
 5549SOL    HW217547   4.584   3.031   0.156
 5550SOL     OW17548   2.054   4.365   1.587
 5550SOL    HW117549   2.117   4.329   1.656
 5550SOL    HW217550   2.080   4.331   1.497
 5551SOL     OW17551   1.646   5.461   3.441
 5551SOL    HW117552   1.742   5.440   3.461
 5551SOL    HW217553   1.610   5.522   3.512
 5552SOL     OW17554   0.366   6.369   0.012
 5552SOL    HW117555   0.354   6.269   0.012
 5552SOL    HW217556   0.446   6.393   6.981
 5553SOL     OW17557   5.032   0.410   0.186
 5553SOL    HW117558   5.110   0.379   0.240
 5553SOL    HW217559   5.048   0.391   0.090
 5554SOL     OW17560   6.217   1.793   1.601
 5554SOL    HW117561   6.249   1.839   1.518
 5554SOL    HW217562   6.127   1.753   1.584
 5555SOL     OW17563   1.779   4.888   2.827
 5555SOL    HW117564   1.747   4.812   2.884
 5555SOL    HW217565   1.734   4.972   2.855
 5556SOL     OW17566   0.584   0.797   4.649
 5556SOL    HW117567   0.538   0.712   4.624
 5556SOL    HW217568   0.571   0.864   4.575
 5557SOL     OW17569   3.500   5.629   3.371
 5557SOL    HW117570   3.415   5.640   3.422
 5557SOL    HW217571   3.483   5.575   3.289
 5558SOL     OW17572   4.426   4.043   6.748
 5558SOL    HW117573   4.489   3.983   6.798
 5558SOL    HW217574   4.461   4.058   6.656
 5559SOL     OW17575   3.068   1.094   2.813
 5559SOL    HW117576   3.131   1.077   2.737
 5559SOL    HW217577   3.070   1.191   2.837
 5560SOL     OW17578   0.697   5.533   3.570
 5560SOL    HW117579   0.751   5.483   3.502
 5560SOL    HW217580   0.659   5.615   3.528
 5561SOL     OW17581   3.871   6.788   3.223
 5561SOL    HW117582   3.814   6.796   3.141
 5561SOL    HW217583   3.966   6.772   3.197
 5562SOL     OW17584   3.350   3.772   1.014
 5562SOL    HW117585   3.268   3.734   1.056
 5562SOL    HW217586   3.431   3.746   1.067
 5563SOL     OW17587   2.176   4.262   2.564
 5563SOL    HW117588   2.269   4.297   2.568
 5563SOL    HW217589   2.120   4.311   2.632
 5564SOL     OW17590   5.451   1.058   6.224
 5564SOL    HW117591   5.442   1.149   6.263
 5564SOL    HW217592   5.528   1.010   6.268
 5565SOL     OW17593   3.296   1.918   6.456
 5565SOL    HW117594   3.245   1.991   6.411
 5565SOL    HW217595   3.362   1.959   6.520
 5566SOL     OW17596   1.539   3.866   0.097
 5566SOL    HW117597   1.455   3.831   0.054
 5566SOL    HW217598   1.560   3.956   0.060
 5567SOL     OW17599   0.121   4.077   0.769
 5567SOL    HW117600   0.104   4.091   0.867
 5567SOL    HW217601   0.052   4.014   0.733
 5568SOL     OW17602   4.871   5.080   1.728
 5568SOL    HW117603   4.931   5.000   1.739
 5568SOL    HW217604   4.920   5.161   1.759
 5569SOL     OW17605   2.178   2.891   3.152
 5569SOL    HW117606   2.202   2.794   3.152
 5569SOL    HW217607   2.088   2.903   3.192
 5570SOL     OW17608   6.963   3.482   2.757
 5570SOL    HW117609   6.920   3.457   2.844
 5570SOL    HW217610   0.023   3.532   2.776
 5571SOL     OW17611   6.213   4.636   1.690
 5571SOL    HW117612   6.153   4.563   1.658
 5571SOL    HW217613   6.197   4.719   1.636
 5572SOL     OW17614   1.763   4.224   4.643
 5572SOL    HW117615   1.665   4.206   4.650
 5572SOL    HW217616   1.796   4.270   4.725
 5573SOL     OW17617   3.542   5.354   3.910
 5573SOL    HW117618   3.599   5.330   3.989
 5573SOL    HW217619   3.513   5.270   3.864
 5574SOL     OW17620   0.500   2.920   5.997
 5574SOL    HW117621   0.453   2.839   5.961
 5574SOL    HW217622   0.597   2.916   5.972
 5575SOL     OW17623   0.402   6.828   1.989
 5575SOL    HW117624   0.311   6.870   1.979
 5575SOL    HW217625   0.430   6.789   1.902
 5576SOL     OW17626   1.087   5.176   3.320
 5576SOL    HW117627   1.129   5.092   3.285
 5576SOL    HW217628   1.156   5.233   3.364
 5577SOL     OW17629   1.902   2.671   5.829
 5577SOL    HW117630   1.980   2.681   5.768
 5577SOL    HW217631   1.881   2.759   5.871
 5578SOL     OW17632   3.785   3.822   3.944
 5578SOL    HW117633   3.830   3.821   4.033
 5578SOL    HW217634   3.807   3.907   3.897
 5579SOL     OW17635   0.328   3.376   2.071
 5579SOL    HW117636   0.348   3.438   1.995
 5579SOL    HW217637   0.237   3.396   2.107
 5580SOL     OW17638   5.409   1.908   5.505
 5580SOL    HW117639   5.420   1.952   5.594
 5580SOL    HW217640   5.352   1.967   5.446
 5581SOL     OW17641   1.256   2.282   0.180
 5581SOL    HW117642   1.184   2.285   0.111
 5581SOL    HW217643   1.346   2.278   0.136
 5582SOL     OW17644   2.352   2.871   6.302
 5582SOL    HW117645   2.274   2.888   6.363
 5582SOL    HW217646   2.397   2.786   6.329
 5583SOL     OW17647   5.317   0.577   2.333
 5583SOL    HW117648   5.253   0.505   2.306
 5583SOL    HW217649   5.403   0.566   2.283
 5584SOL     OW17650   1.461   3.804   4.749
 5584SOL    HW117651   1.503   3.855   4.824
 5584SOL    HW217652   1.473   3.706   4.765
 5585SOL     OW17653   5.029   4.713   2.304
 5585SOL    HW117654   5.077   4.726   2.391
 5585SOL    HW217655   5.030   4.616   2.281
 5586SOL     OW17656   6.339   3.529   0.072
 5586SOL    HW117657   6.303   3.534   7.003
 5586SOL    HW217658   6.296   3.453   0.121
 5587SOL     OW17659   5.971   1.061   6.127
 5587SOL    HW117660   6.037   0.987   6.114
 5587SOL    HW217661   5.924   1.078   6.040
 5588SOL     OW17662   3.605   6.618   0.744
 5588SOL    HW117663   3.593   6.520   0.732
 5588SOL    HW217664   3.534   6.654   0.804
 5589SOL     OW17665   5.833   4.747   5.968
 5589SOL    HW117666   5.839   4.781   6.062
 5589SOL    HW217667   5.750   4.783   5.926
 5590SOL     OW17668   6.117   5.873   3.931
 5590SOL    HW117669   6.090   5.917   4.016
 5590SOL    HW217670   6.185   5.929   3.883
 5591SOL     OW17671   5.506   0.793   1.809
 5591SOL    HW117672   5.602   0.773   1.828
 5591SOL    HW217673   5.501   0.873   1.749
 5592SOL     OW17674   0.614   3.543   3.366
 5592SOL    HW117675   0.521   3.537   3.402
 5592SOL    HW217676   0.619   3.615   3.297
 5593SOL     OW17677   0.016   3.491   0.343
 5593SOL    HW117678   0.006   3.561   0.414
 5593SOL    HW217679   0.111   3.459   0.341
 5594SOL     OW17680   5.590   2.256   6.040
 5594SOL    HW117681   5.651   2.335   6.040
 5594SOL    HW217682   5.590   2.213   5.950
 5595SOL     OW17683   0.462   2.827   5.560
 5595SOL    HW117684   0.512   2.907   5.595
 5595SOL    HW217685   0.487   2.811   5.464
 5596SOL     OW17686   3.601   6.540   3.118
 5596SOL    HW117687   3.616   6.455   3.068
 5596SOL    HW217688   3.658   6.541   3.200
 5597SOL     OW17689   5.109   2.968   2.690
 5597SOL    HW117690   5.027   2.995   2.740
 5597SOL    HW217691   5.149   3.048   2.647
 5598SOL     OW17692   5.475   2.212   4.539
 5598SOL    HW117693   5.399   2.251   4.487
 5598SOL    HW217694   5.507   2.279   4.607
 5599SOL     OW17695   0.779   0.954   3.957
 5599SOL    HW117696   0.829   0.869   3.941
 5599SOL    HW217697   0.813   1.025   3.895
 5600SOL     OW17698   1.474   2.048   4.241
 5600SOL    HW117699   1.394   2.054   4.181
 5600SOL    HW217700   1.479   1.955   4.279
 5601SOL     OW17701   2.555   0.878   6.248
 5601SOL    HW117702   2.467   0.864   6.203
 5601SOL    HW217703   2.598   0.789   6.267
 5602SOL     OW17704   1.748   1.445   6.889
 5602SOL    HW117705   1.682   1.429   6.816
 5602SOL    HW217706   1.700   1.448   6.977
 5603SOL     OW17707   5.938   3.741   6.408
 5603SOL    HW117708   6.006   3.782   6.469
 5603SOL    HW217709   5.983   3.715   6.322
 5604SOL     OW17710   6.562   1.604   6.106
 5604SOL    HW117711   6.627   1.580   6.178
 5604SOL    HW217712   6.546   1.524   6.048
 5605SOL     OW17713   0.908   2.365   5.318
 5605SOL    HW117714   0.821   2.405   5.289
 5605SOL    HW217715   0.891   2.287   5.378
 5606SOL     OW17716   5.138   0.038   2.521
 5606SOL    HW117717   5.111   0.133   2.537
 5606SOL    HW217718   5.209   0.034   2.451
 5607SOL     OW17719   6.074   0.966   1.715
 5607SOL    HW117720   6.076   1.001   1.808
 5607SOL    HW217721   6.167   0.966   1.678
 5608SOL     OW17722   4.479   6.765   4.590
 5608SOL    HW117723   4.436   6.743   4.677
 5608SOL    HW217724   4.414   6.748   4.515
 5609SOL     OW17725   2.281   5.691   5.911
 5609SOL    HW117726   2.307   5.672   5.816
 5609SOL    HW217727   2.187   5.660   5.927
 5610SOL     OW17728   4.583   0.193   6.571
 5610SOL    HW117729   4.650   0.267   6.570
 5610SOL    HW217730   4.563   0.167   6.665
 5611SOL     OW17731   1.612   4.765   3.219
 5611SOL    HW117732   1.663   4.720   3.145
 5611SOL    HW217733   1.549   4.700   3.260
 5612SOL     OW17734   2.421   0.510   5.688
 5612SOL    HW117735   2.354   0.485   5.617
 5612SOL    HW217736   2.463   0.428   5.725
 5613SOL     OW17737   3.687   4.991   1.642
 5613SOL    HW117738   3.755   5.056   1.676
 5613SOL    HW217739   3.599   5.010   1.686
 5614SOL     OW17740   4.149   2.079   3.579
 5614SOL    HW117741   4.156   2.140   3.500
 5614SOL    HW217742   4.205   2.114   3.654
 5615SOL     OW17743   1.238   1.641   1.327
 5615SOL    HW117744   1.313   1.648   1.393
 5615SOL    HW217745   1.249   1.556   1.274
 5616SOL     OW17746   2.758   0.497   4.941
 5616SOL    HW117747   2.681   0.517   5.001
 5616SOL    HW217748   2.797   0.408   4.965
 5617SOL     OW17749   1.408   0.998   4.984
 5617SOL    HW117750   1.449   0.914   5.017
 5617SOL    HW217751   1.475   1.048   4.928
 5618SOL     OW17752   6.607   4.502   2.999
 5618SOL    HW117753   6.658   4.424   3.035
 5618SOL    HW217754   6.532   4.525   3.061
 5619SOL     OW17755   2.079   3.709   4.744
 5619SOL    HW117756   2.119   3.799   4.723
 5619SOL    HW217757   1.980   3.715   4.739
 5620SOL     OW17758   3.872   2.163   6.035
 5620SOL    HW117759   3.883   2.186   6.132
 5620SOL    HW217760   3.898   2.068   6.020
 5621SOL     OW17761   2.104   2.234   6.149
 5621SOL    HW117762   2.106   2.267   6.054
 5621SOL    HW217763   2.092   2.312   6.211
 5622SOL     OW17764   6.009   0.804   5.737
 5622SOL    HW117765   6.046   0.772   5.824
 5622SOL    HW217766   5.999   0.903   5.739
 5623SOL     OW17767   0.360   5.589   0.158
 5623SOL    HW117768   0.412   5.622   0.237
 5623SOL    HW217769   0.347   5.664   0.093
 5624SOL     OW17770   1.134   4.178   3.203
 5624SOL    HW117771   1.219   4.159   3.153
 5624SOL    HW217772   1.152   4.245   3.275
 5625SOL     OW17773   6.639   2.173   5.831
 5625SOL    HW117774   6.548   2.167   5.871
 5625SOL    HW217775   6.660   2.268   5.808
 5626SOL     OW17776   4.170   0.178   4.202
 5626SOL    HW117777   4.248   0.122   4.176
 5626SOL    HW217778   4.087   0.123   4.201
 5627SOL     OW17779   0.697   5.758   0.499
 5627SOL    HW117780   0.785   5.805   0.509
 5627SOL    HW217781   0.704   5.690   0.426
 5628SOL     OW17782   1.429   0.882   4.239
 5628SOL    HW117783   1.392   0.809   4.183
 5628SOL    HW217784   1.523   0.901   4.211
 5629SOL     OW17785   3.661   3.593   3.061
 5629SOL    HW117786   3.681   3.647   2.979
 5629SOL    HW217787   3.745   3.547   3.091
 5630SOL     OW17788   6.827   4.456   2.151
 5630SOL    HW117789   6.857   4.393   2.079
 5630SOL    HW217790   6.845   4.414   2.240
 5631SOL     OW17791   4.738   0.553   0.007
 5631SOL    HW117792   4.647   0.530   6.995
 5631SOL    HW217793   4.754   0.503   0.091
 5632SOL     OW17794   3.421   3.672   0.190
 5632SOL    HW117795   3.499   3.651   0.131
 5632SOL    HW217796   3.366   3.589   0.202
 5633SOL     OW17797   6.270   2.812   4.744
 5633SOL    HW117798   6.237   2.797   4.651
 5633SOL    HW217799   6.193   2.803   4.808
 5634SOL     OW17800   4.368   5.810   4.526
 5634SOL    HW117801   4.406   5.834   4.436
 5634SOL    HW217802   4.269   5.825   4.524
 5635SOL     OW17803   3.145   2.014   5.130
 5635SOL    HW117804   3.135   2.101   5.082
 5635SOL    HW217805   3.111   2.023   5.223
 5636SOL     OW17806   3.615   6.164   4.257
 5636SOL    HW117807   3.707   6.145   4.224
 5636SOL    HW217808   3.619   6.194   4.353
 5637SOL     OW17809   5.874   0.370   3.539
 5637SOL    HW117810   5.788   0.349   3.491
 5637SOL    HW217811   5.853   0.423   3.622
 5638SOL     OW17812   4.917   3.680   6.353
 5638SOL    HW117813   4.873   3.634   6.429
 5638SOL    HW217814   4.994   3.735   6.387
 5639SOL     OW17815   2.808   0.978   6.265
 5639SOL    HW117816   2.848   0.892   6.235
 5639SOL    HW217817   2.709   0.974   6.254
 5640SOL     OW17818   2.526   0.057   3.790
 5640SOL    HW117819   2.513   6.985   3.815
 5640SOL    HW217820   2.595   0.064   3.718
 5641SOL     OW17821   5.589   5.772   4.704
 5641SOL    HW117822   5.532   5.751   4.783
 5641SOL    HW217823   5.563   5.860   4.666
 5642SOL     OW17824   1.614   2.016   6.264
 5642SOL    HW117825   1.544   1.970   6.319
 5642SOL    HW217826   1.581   2.027   6.170
 5643SOL     OW17827   5.791   2.392   4.817
 5643SOL    HW117828   5.819   2.483   4.847
 5643SOL    HW217829   5.858   2.357   4.751
 5644SOL     OW17830   2.858   0.118   6.103
 5644SOL    HW117831   2.946   0.151   6.137
 5644SOL    HW217832   2.835   0.031   6.148
 5645SOL     OW17833   4.857   3.177   4.602
 5645SOL    HW117834   4.912   3.101   4.636
 5645SOL    HW217835   4.787   3.199   4.669
 5646SOL     OW17836   1.617   4.060   2.712
 5646SOL    HW117837   1.665   4.060   2.624
 5646SOL    HW217838   1.543   4.127   2.709
 5647SOL     OW17839   6.881   6.497   2.499
 5647SOL    HW117840   6.891   6.571   2.566
 5647SOL    HW217841   6.947   6.510   2.425
 5648SOL     OW17842   4.805   6.629   3.440
 5648SOL    HW117843   4.881   6.589   3.491
 5648SOL    HW217844   4.722   6.575   3.455
 5649SOL     OW17845   1.119   6.170   4.556
 5649SOL    HW117846   1.101   6.079   4.520
 5649SOL    HW217847   1.175   6.163   4.638
 5650SOL     OW17848   6.499   4.374   6.929
 5650SOL    HW117849   6.499   4.472   6.910
 5650SOL    HW217850   6.443   4.356   7.010
 5651SOL     OW17851   2.226   0.768   1.490
 5651SOL    HW117852   2.229   0.751   1.391
 5651SOL    HW217853   2.133   0.793   1.516
 5652SOL     OW17854   0.824   5.816   1.317
 5652SOL    HW117855   0.918   5.852   1.322
 5652SOL    HW217856   0.760   5.888   1.340
 5653SOL     OW17857   0.127   0.228   1.930
 5653SOL    HW117858   0.117   0.273   2.018
 5653SOL    HW217859   0.220   0.190   1.923
 5654SOL     OW17860   3.207   5.327   4.243
 5654SOL    HW117861   3.117   5.283   4.235
 5654SOL    HW217862   3.233   5.333   4.339
 5655SOL     OW17863   6.413   2.607   5.173
 5655SOL    HW117864   6.507   2.589   5.143
 5655SOL    HW217865   6.361   2.522   5.174
 5656SOL     OW17866   6.631   3.555   0.333
 5656SOL    HW117867   6.660   3.613   0.410
 5656SOL    HW217868   6.534   3.535   0.341
 5657SOL     OW17869   5.202   5.643   5.017
 5657SOL    HW117870   5.159   5.563   5.058
 5657SOL    HW217871   5.132   5.707   4.985
 5658SOL     OW17872   2.227   2.959   6.093
 5658SOL    HW117873   2.288   3.031   6.060
 5658SOL    HW217874   2.262   2.922   6.178
 5659SOL     OW17875   2.876   3.710   6.622
 5659SOL    HW117876   2.940   3.780   6.591
 5659SOL    HW217877   2.881   3.631   6.561
 5660SOL     OW17878   4.246   0.559   6.344
 5660SOL    HW117879   4.249   0.471   6.392
 5660SOL    HW217880   4.154   0.599   6.353
 5661SOL     OW17881   1.379   5.351   6.021
 5661SOL    HW117882   1.459   5.294   6.005
 5661SOL    HW217883   1.407   5.447   6.030
 5662SOL     OW17884   3.063   6.897   1.269
 5662SOL    HW117885   3.081   6.927   1.363
 5662SOL    HW217886   3.129   6.827   1.244
 5663SOL     OW17887   1.363   3.155   6.438
 5663SOL    HW117888   1.438   3.099   6.474
 5663SOL    HW217889   1.278   3.132   6.486
 5664SOL     OW17890   4.493   4.975   4.608
 5664SOL    HW117891   4.411   4.925   4.636
 5664SOL    HW217892   4.569   4.911   4.597
 5665SOL     OW17893   1.426   1.624   0.875
 5665SOL    HW117894   1.341   1.656   0.917
 5665SOL    HW217895   1.467   1.698   0.822
 5666SOL     OW17896   5.635   1.884   4.978
 5666SOL    HW117897   5.540   1.887   4.945
 5666SOL    HW217898   5.697   1.901   4.903
 5667SOL     OW17899   2.504   4.853   4.626
 5667SOL    HW117900   2.518   4.775   4.565
 5667SOL    HW217901   2.537   4.831   4.717
 5668SOL     OW17902   4.651   4.226   3.768
 5668SOL    HW117903   4.622   4.281   3.847
 5668SOL    HW217904   4.635   4.278   3.684
 5669SOL     OW17905   5.882   4.248   5.762
 5669SOL    HW117906   5.800   4.194   5.746
 5669SOL    HW217907   5.860   4.327   5.820
 5670SOL     OW17908   1.331   2.305   3.403
 5670SOL    HW117909   1.411   2.269   3.452
 5670SOL    HW217910   1.255   2.240   3.410
 5671SOL     OW17911   0.113   6.501   3.700
 5671SOL    HW117912   0.047   6.507   3.625
 5671SOL    HW217913   0.116   6.589   3.748
 5672SOL     OW17914   5.120   2.934   4.821
 5672SOL    HW117915   5.143   2.837   4.824
 5672SOL    HW217916   5.022   2.944   4.803
 5673SOL     OW17917   0.708   1.284   0.693
 5673SOL    HW117918   0.670   1.201   0.735
 5673SOL    HW217919   0.803   1.267   0.667
 5674SOL     OW17920   2.424   4.564   5.035
 5674SOL    HW117921   2.353   4.613   5.085
 5674SOL    HW217922   2.485   4.629   4.990
 5675SOL     OW17923   2.727   2.023   1.004
 5675SOL    HW117924   2.779   1.953   0.956
 5675SOL    HW217925   2.769   2.113   0.987
 5676SOL     OW17926   2.391   1.628   2.199
 5676SOL    HW117927   2.336   1.556   2.158
 5676SOL    HW217928   2.332   1.691   2.250
 5677SOL     OW17929   6.542   1.638   0.279
 5677SOL    HW117930   6.616   1.588   0.233
 5677SOL    HW217931   6.542   1.615   0.376
 5678SOL     OW17932   3.245   2.112   1.992
 5678SOL    HW117933   3.221   2.155   1.905
 5678SOL    HW217934   3.305   2.172   2.044
 5679SOL     OW17935   6.624   3.296   4.993
 5679SOL    HW117936   6.558   3.221   4.993
 5679SOL    HW217937   6.706   3.269   5.043
 5680SOL     OW17938   1.040   5.978   4.847
 5680SOL    HW117939   1.024   6.056   4.787
 5680SOL    HW217940   1.111   6.001   4.914
 5681SOL     OW17941   1.000   3.670   4.422
 5681SOL    HW117942   0.943   3.714   4.491
 5681SOL    HW217943   0.965   3.691   4.331
 5682SOL     OW17944   2.392   4.563   1.524
 5682SOL    HW117945   2.417   4.659   1.513
 5682SOL    HW217946   2.438   4.526   1.604
 5683SOL     OW17947   6.181   0.648   5.893
 5683SOL    HW117948   6.257   0.647   5.828
 5683SOL    HW217949   6.159   0.555   5.921
 5684SOL     OW17950   2.237   2.638   5.004
 5684SOL    HW117951   2.209   2.549   4.970
 5684SOL    HW217952   2.284   2.627   5.092
 5685SOL     OW17953   2.475   1.927   2.355
 5685SOL    HW117954   2.505   2.016   2.320
 5685SOL    HW217955   2.523   1.854   2.307
 5686SOL     OW17956   4.127   5.684   5.981
 5686SOL    HW117957   4.080   5.740   6.049
 5686SOL    HW217958   4.064   5.613   5.948
 5687SOL     OW17959   1.947   6.538   6.348
 5687SOL    HW117960   1.943   6.637   6.339
 5687SOL    HW217961   1.982   6.514   6.438
 5688SOL     OW17962   1.834   1.981   3.055
 5688SOL    HW117963   1.898   1.947   2.986
 5688SOL    HW217964   1.881   2.043   3.117
 5689SOL     OW17965   0.288   2.721   1.796
 5689SOL    HW117966   0.306   2.627   1.768
 5689SOL    HW217967   0.236   2.768   1.724
 5690SOL     OW17968   1.948   5.188   0.059
 5690SOL    HW117969   1.967   5.170   6.986
 5690SOL    HW217970   1.851   5.209   0.070
 5691SOL     OW17971   3.760   1.337   3.153
 5691SOL    HW117972   3.772   1.268   3.225
 5691SOL    HW217973   3.773   1.294   3.063
 5692SOL     OW17974   5.146   4.950   2.066
 5692SOL    HW117975   5.129   4.967   1.969
 5692SOL    HW217976   5.058   4.945   2.115
 5693SOL     OW17977   4.182   0.733   1.380
 5693SOL    HW117978   4.099   0.753   1.328
 5693SOL    HW217979   4.254   0.702   1.318
 5694SOL     OW17980   1.096   0.019   1.416
 5694SOL    HW117981   1.087   0.020   1.316
 5694SOL    HW217982   1.144   6.959   1.444
 5695SOL     OW17983   2.578   0.565   1.746
 5695SOL    HW117984   2.531   0.652   1.738
 5695SOL    HW217985   2.581   0.537   1.842
 5696SOL     OW17986   1.472   0.321   4.357
 5696SOL    HW117987   1.441   0.319   4.452
 5696SOL    HW217988   1.460   0.230   4.316
 5697SOL     OW17989   6.561   3.287   1.050
 5697SOL    HW117990   6.473   3.241   1.065
 5697SOL    HW217991   6.603   3.306   1.139
 5698SOL     OW17992   3.266   2.101   4.279
 5698SOL    HW117993   3.187   2.045   4.255
 5698SOL    HW217994   3.250   2.143   4.369
 5699SOL     OW17995   1.867   2.925   2.519
 5699SOL    HW117996   1.919   2.988   2.460
 5699SOL    HW217997   1.930   2.876   2.579
 5700SOL     OW17998   6.280   0.399   3.141
 5700SOL    HW117999   6.222   0.321   3.118
 5700SOL    HW218000   6.349   0.411   3.069
 5701SOL     OW18001   0.247   0.269   1.114
 5701SOL    HW118002   0.285   0.231   1.029
 5701SOL    HW218003   0.295   0.353   1.136
 5702SOL     OW18004   2.287   7.000   4.958
 5702SOL    HW118005   2.279   0.031   5.042
 5702SOL    HW218006   2.213   6.934   4.955
 5703SOL     OW18007   0.550   3.276   6.226
 5703SOL    HW118008   0.616   3.238   6.161
 5703SOL    HW218009   0.595   3.294   6.314
 5704SOL     OW18010   4.123   5.779   4.221
 5704SOL    HW118011   4.128   5.683   4.192
 5704SOL    HW218012   4.059   5.788   4.297
 5705SOL     OW18013   6.160   0.424   5.482
 5705SOL    HW118014   6.099   0.363   5.532
 5705SOL    HW218015   6.145   0.518   5.511
 5706SOL     OW18016   4.909   1.903   0.027
 5706SOL    HW118017   4.970   1.865   0.097
 5706SOL    HW218018   4.831   1.843   0.015
 5707SOL     OW18019   5.427   5.738   1.801
 5707SOL    HW118020   5.340   5.780   1.826
 5707SOL    HW218021   5.431   5.645   1.838
 5708SOL     OW18022   5.227   6.466   2.303
 5708SOL    HW118023   5.208   6.407   2.224
 5708SOL    HW218024   5.140   6.491   2.346
 5709SOL     OW18025   0.351   2.249   2.421
 5709SOL    HW118026   0.358   2.153   2.394
 5709SOL    HW218027   0.270   2.261   2.479
 5710SOL     OW18028   3.406   2.110   0.712
 5710SOL    HW118029   3.461   2.127   0.630
 5710SOL    HW218030   3.421   2.184   0.778
 5711SOL     OW18031   5.395   1.841   2.963
 5711SOL    HW118032   5.358   1.787   2.887
 5711SOL    HW218033   5.374   1.938   2.949
 5712SOL     OW18034   6.522   0.298   0.805
 5712SOL    HW118035   6.440   0.241   0.801
 5712SOL    HW218036   6.592   0.252   0.860
 5713SOL     OW18037   2.421   1.025   0.628
 5713SOL    HW118038   2.422   1.080   0.712
 5713SOL    HW218039   2.326   1.010   0.599
 5714SOL     OW18040   6.123   0.418   0.815
 5714SOL    HW118041   6.052   0.429   0.745
 5714SOL    HW218042   6.121   0.497   0.876
 5715SOL     OW18043   0.464   0.269   1.761
 5715SOL    HW118044   0.487   0.238   1.669
 5715SOL    HW218045   0.406   0.350   1.757
 5716SOL     OW18046   6.038   4.665   4.952
 5716SOL    HW118047   6.051   4.601   4.877
 5716SOL    HW218048   6.109   4.734   4.951
 5717SOL     OW18049   1.487   5.296   3.287
 5717SOL    HW118050   1.565   5.342   3.330
 5717SOL    HW218051   1.497   5.197   3.297
 5718SOL     OW18052   1.122   3.209   7.006
 5718SOL    HW118053   1.203   3.256   0.018
 5718SOL    HW218054   1.077   3.159   0.057
 5719SOL     OW18055   2.232   3.248   0.798
 5719SOL    HW118056   2.240   3.266   0.700
 5719SOL    HW218057   2.146   3.201   0.817
 5720SOL     OW18058   2.881   5.059   5.792
 5720SOL    HW118059   2.954   5.053   5.724
 5720SOL    HW218060   2.829   4.974   5.793
 5721SOL     OW18061   1.745   3.018   6.861
 5721SOL    HW118062   1.690   3.047   6.939
 5721SOL    HW218063   1.810   3.090   6.838
 5722SOL     OW18064   1.198   0.456   6.849
 5722SOL    HW118065   1.162   0.491   6.762
 5722SOL    HW218066   1.296   0.475   6.855
 5723SOL     OW18067   3.775   3.144   0.732
 5723SOL    HW118068   3.763   3.098   0.820
 5723SOL    HW218069   3.873   3.158   0.715
 5724SOL     OW18070   5.227   2.166   5.501
 5724SOL    HW118071   5.241   2.137   5.596
 5724SOL    HW218072   5.178   2.094   5.451
 5725SOL     OW18073   0.409   4.503   4.719
 5725SOL    HW118074   0.442   4.548   4.636
 5725SOL    HW218075   0.435   4.406   4.717
 5726SOL     OW18076   5.911   4.022   2.732
 5726SOL    HW118077   5.935   4.094   2.666
 5726SOL    HW218078   5.823   3.981   2.705
 5727SOL     OW18079   0.335   2.021   5.374
 5727SOL    HW118080   0.368   2.007   5.468
 5727SOL    HW218081   0.380   1.956   5.313
 5728SOL     OW18082   4.623   0.086   5.102
 5728SOL    HW118083   4.570   0.005   5.128
 5728SOL    HW218084   4.712   0.058   5.068
 5729SOL     OW18085   2.775   2.233   4.564
 5729SOL    HW118086   2.687   2.241   4.609
 5729SOL    HW218087   2.847   2.270   4.624
 5730SOL     OW18088   0.116   4.431   4.721
 5730SOL    HW118089   0.185   4.502   4.735
 5730SOL    HW218090   0.162   4.343   4.710
 5731SOL     OW18091   1.135   6.917   2.909
 5731SOL    HW118092   1.224   6.959   2.929
 5731SOL    HW218093   1.133   6.889   2.813
 5732SOL     OW18094   0.245   0.147   3.399
 5732SOL    HW118095   0.197   0.183   3.319
 5732SOL    HW218096   0.343   0.166   3.390
 5733SOL     OW18097   3.230   6.758   5.825
 5733SOL    HW118098   3.166   6.834   5.834
 5733SOL    HW218099   3.245   6.738   5.728
 5734SOL     OW18100   1.751   6.746   3.840
 5734SOL    HW118101   1.783   6.739   3.745
 5734SOL    HW218102   1.653   6.763   3.841
 5735SOL     OW18103   2.930   1.033   1.955
 5735SOL    HW118104   2.879   0.961   1.908
 5735SOL    HW218105   2.939   1.113   1.895
 5736SOL     OW18106   1.758   5.441   6.919
 5736SOL    HW118107   1.824   5.513   6.942
 5736SOL    HW218108   1.805   5.368   6.868
 5737SOL     OW18109   5.299   4.283   0.683
 5737SOL    HW118110   5.251   4.283   0.595
 5737SOL    HW218111   5.301   4.376   0.719
 5738SOL     OW18112   1.161   4.209   5.862
 5738SOL    HW118113   1.132   4.141   5.929
 5738SOL    HW218114   1.082   4.260   5.829
 5739SOL     OW18115   1.214   1.890   1.577
 5739SOL    HW118116   1.301   1.864   1.536
 5739SOL    HW218117   1.225   1.901   1.676
 5740SOL     OW18118   3.841   5.820   6.351
 5740SOL    HW118119   3.864   5.884   6.424
 5740SOL    HW218120   3.874   5.729   6.375
 5741SOL     OW18121   6.772   4.682   2.630
 5741SOL    HW118122   6.696   4.621   2.607
 5741SOL    HW218123   6.796   4.737   2.550
 5742SOL     OW18124   6.611   6.278   4.259
 5742SOL    HW118125   6.640   6.332   4.338
 5742SOL    HW218126   6.512   6.263   4.264
 5743SOL     OW18127   1.648   6.461   4.290
 5743SOL    HW118128   1.671   6.545   4.240
 5743SOL    HW218129   1.550   6.459   4.310
 5744SOL     OW18130   5.741   0.127   2.144
 5744SOL    HW118131   5.727   0.030   2.163
 5744SOL    HW218132   5.833   0.153   2.173
 5745SOL     OW18133   1.555   2.414   3.709
 5745SOL    HW118134   1.467   2.365   3.712
 5745SOL    HW218135   1.602   2.401   3.796
 5746SOL     OW18136   6.419   4.936   6.733
 5746SOL    HW118137   6.488   4.867   6.752
 5746SOL    HW218138   6.421   5.006   6.805
 5747SOL     OW18139   0.793   6.326   2.697
 5747SOL    HW118140   0.776   6.392   2.770
 5747SOL    HW218141   0.884   6.286   2.708
 5748SOL     OW18142   2.228   6.312   3.702
 5748SOL    HW118143   2.157   6.347   3.763
 5748SOL    HW218144   2.186   6.264   3.626
 5749SOL     OW18145   2.467   1.356   2.809
 5749SOL    HW118146   2.378   1.311   2.820
 5749SOL    HW218147   2.531   1.321   2.876
 5750SOL     OW18148   6.106   5.795   2.302
 5750SOL    HW118149   6.074   5.775   2.395
 5750SOL    HW218150   6.063   5.880   2.270
 5751SOL     OW18151   1.348   2.929   6.269
 5751SOL    HW118152   1.428   2.874   6.295
 5751SOL    HW218153   1.349   3.015   6.320
 5752SOL     OW18154   0.405   1.322   0.288
 5752SOL    HW118155   0.481   1.293   0.346
 5752SOL    HW218156   0.440   1.352   0.199
 5753SOL     OW18157   4.676   1.977   0.875
 5753SOL    HW118158   4.603   1.921   0.837
 5753SOL    HW218159   4.658   1.996   0.972
 5754SOL     OW18160   6.430   5.017   0.851
 5754SOL    HW118161   6.404   4.950   0.781
 5754SOL    HW218162   6.351   5.073   0.873
 5755SOL     OW18163   3.042   3.405   1.324
 5755SOL    HW118164   3.055   3.396   1.225
 5755SOL    HW218165   2.947   3.427   1.343
 5756SOL     OW18166   6.630   6.686   4.608
 5756SOL    HW118167   6.609   6.592   4.579
 5756SOL    HW218168   6.651   6.741   4.528
 5757SOL     OW18169   0.106   6.523   2.010
 5757SOL    HW118170   0.105   6.609   1.958
 5757SOL    HW218171   0.173   6.461   1.971
 5758SOL     OW18172   1.791   1.288   5.804
 5758SOL    HW118173   1.701   1.253   5.827
 5758SOL    HW218174   1.842   1.307   5.889
 5759SOL     OW18175   6.922   1.503   5.586
 5759SOL    HW118176   6.957   1.484   5.678
 5759SOL    HW218177   6.958   1.434   5.522
 5760SOL     OW18178   1.156   5.323   1.981
 5760SOL    HW118179   1.093   5.290   1.910
 5760SOL    HW218180   1.245   5.342   1.940
 5761SOL     OW18181   5.515   0.767   4.211
 5761SOL    HW118182   5.440   0.821   4.250
 5761SOL    HW218183   5.544   0.808   4.124
 5762SOL     OW18184   5.873   6.459   1.641
 5762SOL    HW118185   5.805   6.388   1.660
 5762SOL    HW218186   5.942   6.460   1.713
 5763SOL     OW18187   1.064   1.506   1.569
 5763SOL    HW118188   1.147   1.508   1.512
 5763SOL    HW218189   1.025   1.598   1.574
 5764SOL     OW18190   4.408   2.789   5.918
 5764SOL    HW118191   4.479   2.728   5.882
 5764SOL    HW218192   4.364   2.746   5.996
 5765SOL     OW18193   6.571   5.375   0.513
 5765SOL    HW118194   6.644   5.306   0.513
 5765SOL    HW218195   6.568   5.419   0.423
 5766SOL     OW18196   3.365   1.136   3.185
 5766SOL    HW118197   3.332   1.230   3.178
 5766SOL    HW218198   3.392   1.118   3.280
 5767SOL     OW18199   6.147   0.729   0.718
 5767SOL    HW118200   6.145   0.825   0.746
 5767SOL    HW218201   6.241   0.696   0.722
 5768SOL     OW18202   6.307   0.967   2.213
 5768SOL    HW118203   6.250   0.964   2.131
 5768SOL    HW218204   6.257   1.015   2.286
 5769SOL     OW18205   1.920   5.620   3.634
 5769SOL    HW118206   1.891   5.714   3.651
 5769SOL    HW218207   1.992   5.594   3.698
 5770SOL     OW18208   5.816   1.633   1.772
 5770SOL    HW118209   5.866   1.691   1.836
 5770SOL    HW218210   5.836   1.537   1.792
 5771SOL     OW18211   0.439   1.117   1.217
 5771SOL    HW118212   0.390   1.158   1.141
 5771SOL    HW218213   0.524   1.168   1.234
 5772SOL     OW18214   6.928   4.418   6.310
 5772SOL    HW118215   6.869   4.343   6.338
 5772SOL    HW218216   6.913   4.496   6.371
 5773SOL     OW18217   4.997   5.810   4.960
 5773SOL    HW118218   4.992   5.822   5.059
 5773SOL    HW218219   4.922   5.859   4.917
 5774SOL     OW18220   2.717   4.784   2.847
 5774SOL    HW118221   2.727   4.780   2.947
 5774SOL    HW218222   2.674   4.700   2.814
 5775SOL     OW18223   0.648   0.660   0.310
 5775SOL    HW118224   0.719   0.613   0.362
 5775SOL    HW218225   0.664   0.647   0.212
 5776SOL     OW18226   4.632   0.944   5.762
 5776SOL    HW118227   4.713   0.912   5.713
 5776SOL    HW218228   4.560   0.875   5.757
 5777SOL     OW18229   5.529   0.762   5.615
 5777SOL    HW118230   5.536   0.857   5.644
 5777SOL    HW218231   5.450   0.719   5.657
 5778SOL     OW18232   2.899   6.487   3.946
 5778SOL    HW118233   2.892   6.585   3.965
 5778SOL    HW218234   2.995   6.459   3.949
 5779SOL     OW18235   4.783   0.184   0.999
 5779SOL    HW118236   4.686   0.171   0.977
 5779SOL    HW218237   4.808   0.279   0.984
 5780SOL     OW18238   5.779   3.708   0.753
 5780SOL    HW118239   5.716   3.635   0.778
 5780SOL    HW218240   5.727   3.783   0.711
 5781SOL     OW18241   2.963   4.627   5.416
 5781SOL    HW118242   2.937   4.566   5.341
 5781SOL    HW218243   2.992   4.715   5.378
 5782SOL     OW18244   4.093   1.882   3.257
 5782SOL    HW118245   4.091   1.967   3.205
 5782SOL    HW218246   4.001   1.862   3.291
 5783SOL     OW18247   2.524   7.000   1.833
 5783SOL    HW118248   2.503   6.920   1.890
 5783SOL    HW218249   2.443   0.002   1.780
 5784SOL     OW18250   0.973   5.774   0.157
 5784SOL    HW118251   0.904   5.704   0.173
 5784SOL    HW218252   1.061   5.731   0.138
 5785SOL     OW18253   1.891   1.562   6.636
 5785SOL    HW118254   1.925   1.572   6.729
 5785SOL    HW218255   1.805   1.613   6.626
 5786SOL     OW18256   0.626   2.544   6.133
 5786SOL    HW118257   0.719   2.581   6.126
 5786SOL    HW218258   0.628   2.462   6.191
 5787SOL     OW18259   0.104   3.012   5.626
 5787SOL    HW118260   0.162   2.931   5.614
 5787SOL    HW218261   0.087   3.026   5.724
 5788SOL     OW18262   1.191   2.525   2.018
 5788SOL    HW118263   1.095   2.551   2.003
 5788SOL    HW218264   1.247   2.563   1.945
 5789SOL     OW18265   2.933   4.793   6.618
 5789SOL    HW118266   2.893   4.820   6.705
 5789SOL    HW218267   3.033   4.805   6.623
 5790SOL     OW18268   6.726   6.448   2.857
 5790SOL    HW118269   6.776   6.513   2.914
 5790SOL    HW218270   6.637   6.486   2.832
 5791SOL     OW18271   3.949   0.806   1.215
 5791SOL    HW118272   3.928   0.865   1.137
 5791SOL    HW218273   3.866   0.789   1.268
 5792SOL     OW18274   4.322   1.947   2.634
 5792SOL    HW118275   4.420   1.963   2.647
 5792SOL    HW218276   4.301   1.851   2.652
 5793SOL     OW18277   3.740   1.944   0.084
 5793SOL    HW118278   3.798   1.928   0.164
 5793SOL    HW218279   3.796   1.943   0.001
 5794SOL     OW18280   3.607   6.068   6.487
 5794SOL    HW118281   3.703   6.097   6.481
 5794SOL    HW218282   3.596   6.008   6.566
 5795SOL     OW18283   1.101   6.972   1.159
 5795SOL    HW118284   1.170   6.919   1.110
 5795SOL    HW218285   1.085   0.035   1.110
 5796SOL     OW18286   4.711   0.907   6.350
 5796SOL    HW118287   4.778   0.967   6.307
 5796SOL    HW218288   4.749   0.870   6.435
 5797SOL     OW18289   0.045   2.610   0.082
 5797SOL    HW118290   0.005   2.582   0.169
 5797SOL    HW218291   7.018   2.688   0.045
 5798SOL     OW18292   1.743   2.897   4.206
 5798SOL    HW118293   1.753   2.953   4.288
 5798SOL    HW218294   1.717   2.804   4.232
 5799SOL     OW18295   2.807   0.098   3.477
 5799SOL    HW118296   2.814   0.175   3.541
 5799SOL    HW218297   2.881   0.033   3.495
 5800SOL     OW18298   1.154   7.011   2.397
 5800SOL    HW118299   1.202   6.982   2.480
 5800SOL    HW218300   1.219   0.028   2.333
 5801SOL     OW18301   1.931   1.451   2.793
 5801SOL    HW118302   1.867   1.388   2.751
 5801SOL    HW218303   1.992   1.400   2.855
 5802SOL     OW18304   1.005   6.862   3.122
 5802SOL    HW118305   1.000   6.948   3.173
 5802SOL    HW218306   1.036   6.880   3.029
 5803SOL     OW18307   0.358   6.483   4.899
 5803SOL    HW118308   0.301   6.521   4.827
 5803SOL    HW218309   0.400   6.398   4.867
 5804SOL     OW18310   6.664   2.037   3.183
 5804SOL    HW118311   6.727   2.076   3.250
 5804SOL    HW218312   6.715   1.993   3.109
 5805SOL     OW18313   1.089   2.700   1.545
 5805SOL    HW118314   1.158   2.767   1.573
 5805SOL    HW218315   0.998   2.737   1.562
 5806SOL     OW18316   6.448   3.792   2.253
 5806SOL    HW118317   6.494   3.855   2.190
 5806SOL    HW218318   6.503   3.782   2.336
 5807SOL     OW18319   1.097   1.456   2.396
 5807SOL    HW118320   1.009   1.492   2.367
 5807SOL    HW218321   1.126   1.384   2.333
 5808SOL     OW18322   0.074   0.610   5.175
 5808SOL    HW118323   0.147   0.572   5.118
 5808SOL    HW218324   0.057   0.550   5.252
 5809SOL     OW18325   0.109   3.749   4.428
 5809SOL    HW118326   0.109   3.760   4.328
 5809SOL    HW218327   0.199   3.718   4.458
 5810SOL     OW18328   2.099   6.411   5.542
 5810SOL    HW118329   2.110   6.346   5.618
 5810SOL    HW218330   2.184   6.415   5.489
 5811SOL     OW18331   4.127   4.669   6.797
 5811SOL    HW118332   4.109   4.715   6.884
 5811SOL    HW218333   4.041   4.635   6.758
 5812SOL     OW18334   6.122   3.266   6.560
 5812SOL    HW118335   6.214   3.229   6.569
 5812SOL    HW218336   6.127   3.354   6.512
 5813SOL     OW18337   5.253   4.547   0.843
 5813SOL    HW118338   5.352   4.562   0.837
 5813SOL    HW218339   5.206   4.636   0.838
 5814SOL     OW18340   6.222   1.075   2.452
 5814SOL    HW118341   6.275   1.045   2.531
 5814SOL    HW218342   6.189   1.168   2.467
 5815SOL     OW18343   6.799   3.320   4.718
 5815SOL    HW118344   6.769   3.328   4.623
 5815SOL    HW218345   6.732   3.364   4.778
 5816SOL     OW18346   6.730   3.834   1.644
 5816SOL    HW118347   6.652   3.877   1.688
 5816SOL    HW218348   6.722   3.842   1.545
 5817SOL     OW18349   6.733   2.766   3.837
 5817SOL    HW118350   6.721   2.838   3.770
 5817SOL    HW218351   6.664   2.694   3.822
 5818SOL     OW18352   2.869   0.739   4.850
 5818SOL    HW118353   2.846   0.650   4.891
 5818SOL    HW218354   2.821   0.748   4.763
 5819SOL     OW18355   4.312   4.210   0.992
 5819SOL    HW118356   4.279   4.119   1.018
 5819SOL    HW218357   4.234   4.270   0.975
 5820SOL     OW18358   6.783   0.015   3.171
 5820SOL    HW118359   6.858   6.986   3.131
 5820SOL    HW218360   6.817   0.068   3.249
 5821SOL     OW18361   6.493   0.130   1.981
 5821SOL    HW118362   6.525   0.105   1.889
 5821SOL    HW218363   6.568   0.119   2.046
 5822SOL     OW18364   0.634   3.909   2.323
 5822SOL    HW118365   0.660   3.824   2.369
 5822SOL    HW218366   0.567   3.889   2.251
 5823SOL     OW18367   2.280   6.719   5.148
 5823SOL    HW118368   2.310   6.693   5.056
 5823SOL    HW218369   2.243   6.640   5.196
 5824SOL     OW18370   2.245   6.453   2.410
 5824SOL    HW118371   2.279   6.451   2.316
 5824SOL    HW218372   2.252   6.361   2.449
 5825SOL     OW18373   4.419   1.789   4.902
 5825SOL    HW118374   4.344   1.831   4.953
 5825SOL    HW218375   4.455   1.854   4.836
 5826SOL     OW18376   1.500   6.494   5.043
 5826SOL    HW118377   1.495   6.456   5.135
 5826SOL    HW218378   1.411   6.532   5.018
 5827SOL     OW18379   2.166   3.633   3.245
 5827SOL    HW118380   2.170   3.533   3.243
 5827SOL    HW218381   2.163   3.665   3.339
 5828SOL     OW18382   4.910   0.226   5.836
 5828SOL    HW118383   4.832   0.164   5.844
 5828SOL    HW218384   4.975   0.209   5.910
 5829SOL     OW18385   2.357   0.398   3.158
 5829SOL    HW118386   2.446   0.417   3.116
 5829SOL    HW218387   2.331   0.303   3.140
 5830SOL     OW18388   4.106   5.221   4.451
 5830SOL    HW118389   4.130   5.317   4.445
 5830SOL    HW218390   4.033   5.209   4.518
 5831SOL     OW18391   2.333   2.846   4.677
 5831SOL    HW118392   2.390   2.873   4.755
 5831SOL    HW218393   2.352   2.750   4.655
 5832SOL     OW18394   2.790   5.614   3.498
 5832SOL    HW118395   2.724   5.647   3.431
 5832SOL    HW218396   2.764   5.645   3.590
 5833SOL     OW18397   3.427   5.485   0.492
 5833SOL    HW118398   3.413   5.570   0.542
 5833SOL    HW218399   3.338   5.446   0.467
 5834SOL     OW18400   6.711   3.012   6.253
 5834SOL    HW118401   6.671   2.996   6.163
 5834SOL    HW218402   6.649   2.977   6.324
 5835SOL     OW18403   4.422   1.598   3.578
 5835SOL    HW118404   4.482   1.643   3.511
 5835SOL    HW218405   4.335   1.576   3.535
 5836SOL     OW18406   4.987   6.071   1.211
 5836SOL    HW118407   4.966   6.013   1.133
 5836SOL    HW218408   4.902   6.097   1.257
 5837SOL     OW18409   3.139   4.551   6.800
 5837SOL    HW118410   3.098   4.462   6.777
 5837SOL    HW218411   3.151   4.558   6.899
 5838SOL     OW18412   3.395   3.456   6.760
 5838SOL    HW118413   3.345   3.538   6.785
 5838SOL    HW218414   3.492   3.468   6.782
 5839SOL     OW18415   1.985   1.579   0.333
 5839SOL    HW118416   2.049   1.628   0.275
 5839SOL    HW218417   1.892   1.586   0.295
 5840SOL     OW18418   1.021   3.699   2.917
 5840SOL    HW118419   1.088   3.709   2.844
 5840SOL    HW218420   0.944   3.760   2.900
 5841SOL     OW18421   5.296   1.761   0.718
 5841SOL    HW118422   5.353   1.842   0.704
 5841SOL    HW218423   5.201   1.789   0.729
 5842SOL     OW18424   3.165   2.103   1.687
 5842SOL    HW118425   3.257   2.129   1.716
 5842SOL    HW218426   3.170   2.024   1.626
 5843SOL     OW18427   3.410   3.331   0.375
 5843SOL    HW118428   3.362   3.389   0.309
 5843SOL    HW218429   3.509   3.348   0.368
 5844SOL     OW18430   0.682   5.601   5.390
 5844SOL    HW118431   0.754   5.632   5.328
 5844SOL    HW218432   0.723   5.558   5.471
 5845SOL     OW18433   2.095   6.907   2.808
 5845SOL    HW118434   2.032   6.923   2.883
 5845SOL    HW218435   2.155   6.986   2.797
 5846SOL     OW18436   0.718   4.683   5.269
 5846SOL    HW118437   0.633   4.715   5.311
 5846SOL    HW218438   0.711   4.585   5.249
 5847SOL     OW18439   1.801   4.481   6.450
 5847SOL    HW118440   1.833   4.466   6.356
 5847SOL    HW218441   1.862   4.546   6.496
 5848SOL     OW18442   2.271   0.021   1.692
 5848SOL    HW118443   2.282   0.120   1.700
 5848SOL    HW218444   2.182   7.018   1.727
 5849SOL     OW18445   2.774   5.497   6.591
 5849SOL    HW118446   2.782   5.411   6.541
 5849SOL    HW218447   2.697   5.550   6.553
 5850SOL     OW18448   6.857   1.281   1.628
 5850SOL    HW118449   6.872   1.186   1.601
 5850SOL    HW218450   6.943   1.322   1.658
 5851SOL     OW18451   6.927   3.671   4.862
 5851SOL    HW118452   6.922   3.627   4.951
 5851SOL    HW218453   7.016   3.652   4.820
 5852SOL     OW18454   4.766   4.164   2.332
 5852SOL    HW118455   4.722   4.140   2.419
 5852SOL    HW218456   4.767   4.263   2.321
 5853SOL     OW18457   4.587   4.840   0.270
 5853SOL    HW118458   4.560   4.818   0.364
 5853SOL    HW218459   4.681   4.811   0.255
 5854SOL     OW18460   3.232   4.786   5.670
 5854SOL    HW118461   3.148   4.841   5.667
 5854SOL    HW218462   3.215   4.703   5.723
 5855SOL     OW18463   2.486   2.457   3.914
 5855SOL    HW118464   2.499   2.402   3.997
 5855SOL    HW218465   2.401   2.430   3.869
 5856SOL     OW18466   1.127   0.252   3.279
 5856SOL    HW118467   1.221   0.217   3.284
 5856SOL    HW218468   1.128   0.352   3.285
 5857SOL     OW18469   5.597   4.945   0.014
 5857SOL    HW118470   5.687   4.913   7.009
 5857SOL    HW218471   5.527   4.884   7.001
 5858SOL     OW18472   2.290   1.395   2.406
 5858SOL    HW118473   2.219   1.440   2.460
 5858SOL    HW218474   2.261   1.391   2.311
 5859SOL     OW18475   5.221   5.371   1.778
 5859SOL    HW118476   5.308   5.372   1.728
 5859SOL    HW218477   5.234   5.413   1.868
 5860SOL     OW18478   1.007   3.556   2.556
 5860SOL    HW118479   1.075   3.599   2.615
 5860SOL    HW218480   1.049   3.531   2.469
 5861SOL     OW18481   5.603   0.719   5.349
 5861SOL    HW118482   5.563   0.715   5.440
 5861SOL    HW218483   5.693   0.676   5.350
 5862SOL     OW18484   6.925   4.792   3.322
 5862SOL    HW118485   6.843   4.795   3.379
 5862SOL    HW218486   6.998   4.845   3.366
 5863SOL     OW18487   4.269   6.880   5.711
 5863SOL    HW118488   4.215   6.947   5.761
 5863SOL    HW218489   4.336   6.927   5.653
 5864SOL     OW18490   4.109   3.430   2.640
 5864SOL    HW118491   4.143   3.443   2.733
 5864SOL    HW218492   4.087   3.334   2.625
 5865SOL     OW18493   6.663   6.973   0.924
 5865SOL    HW118494   6.705   6.925   0.847
 5865SOL    HW218495   6.563   6.965   0.918
 5866SOL     OW18496   3.784   3.246   3.025
 5866SOL    HW118497   3.806   3.333   3.069
 5866SOL    HW218498   3.822   3.245   2.932
 5867SOL     OW18499   3.217   1.643   1.573
 5867SOL    HW118500   3.159   1.697   1.635
 5867SOL    HW218501   3.254   1.703   1.502
 5868SOL     OW18502   1.401   0.532   0.750
 5868SOL    HW118503   1.356   0.510   0.664
 5868SOL    HW218504   1.397   0.453   0.812
 5869SOL     OW18505   1.607   5.720   2.821
 5869SOL    HW118506   1.524   5.765   2.855
 5869SOL    HW218507   1.679   5.788   2.808
 5870SOL     OW18508   4.482   0.455   3.601
 5870SOL    HW118509   4.572   0.456   3.558
 5870SOL    HW218510   4.425   0.385   3.557
 5871SOL     OW18511   4.168   3.401   4.274
 5871SOL    HW118512   4.218   3.418   4.358
 5871SOL    HW218513   4.227   3.418   4.195
 5872SOL     OW18514   4.469   5.881   1.026
 5872SOL    HW118515   4.538   5.922   0.966
 5872SOL    HW218516   4.434   5.798   0.984
 5873SOL     OW18517   3.906   5.989   2.243
 5873SOL    HW118518   3.983   5.978   2.305
 5873SOL    HW218519   3.858   5.902   2.234
 5874SOL     OW18520   0.889   4.792   5.107
 5874SOL    HW118521   0.944   4.866   5.146
 5874SOL    HW218522   0.818   4.765   5.172
 5875SOL     OW18523   3.630   1.918   0.769
 5875SOL    HW118524   3.572   1.991   0.733
 5875SOL    HW218525   3.587   1.879   0.851
 5876SOL     OW18526   3.261   3.579   2.133
 5876SOL    HW118527   3.175   3.558   2.088
 5876SOL    HW218528   3.242   3.627   2.219
 5877SOL     OW18529   5.120   4.189   1.693
 5877SOL    HW118530   5.115   4.281   1.733
 5877SOL    HW218531   5.073   4.188   1.605
 5878SOL     OW18532   1.894   3.406   2.469
 5878SOL    HW118533   1.865   3.466   2.544
 5878SOL    HW218534   1.982   3.365   2.493
 5879SOL     OW18535   1.467   3.637   4.075
 5879SOL    HW118536   1.415   3.556   4.047
 5879SOL    HW218537   1.456   3.651   4.173
 5880SOL     OW18538   3.676   6.041   0.412
 5880SOL    HW118539   3.653   6.138   0.406
 5880SOL    HW218540   3.607   5.987   0.365
 5881SOL     OW18541   1.392   6.153   4.250
 5881SOL    HW118542   1.390   6.188   4.156
 5881SOL    HW218543   1.330   6.075   4.258
 5882SOL     OW18544   5.326   0.717   2.767
 5882SOL    HW118545   5.297   0.646   2.703
 5882SOL    HW218546   5.376   0.675   2.843
 5883SOL     OW18547   1.000   3.406   5.549
 5883SOL    HW118548   0.957   3.486   5.508
 5883SOL    HW218549   0.933   3.358   5.606
 5884SOL     OW18550   0.925   0.564   3.233
 5884SOL    HW118551   0.928   0.631   3.159
 5884SOL    HW218552   0.860   0.492   3.209
 5885SOL     OW18553   5.913   6.307   1.118
 5885SOL    HW118554   5.895   6.371   1.043
 5885SOL    HW218555   5.939   6.359   1.200
 5886SOL     OW18556   6.734   1.525   6.312
 5886SOL    HW118557   6.723   1.430   6.282
 5886SOL    HW218558   6.696   1.536   6.404
 5887SOL     OW18559   3.983   5.864   2.857
 5887SOL    HW118560   4.005   5.793   2.924
 5887SOL    HW218561   3.918   5.827   2.790
 5888SOL     OW18562   6.990   0.398   2.903
 5888SOL    HW118563   6.915   0.335   2.922
 5888SOL    HW218564   6.958   0.492   2.910
 5889SOL     OW18565   2.140   0.037   6.551
 5889SOL    HW118566   2.231   7.021   6.534
 5889SOL    HW218567   2.102   0.071   6.465
 5890SOL     OW18568   3.723   4.623   5.957
 5890SOL    HW118569   3.786   4.661   5.889
 5890SOL    HW218570   3.632   4.616   5.917
 5891SOL     OW18571   2.093   3.490   6.310
 5891SOL    HW118572   2.132   3.477   6.219
 5891SOL    HW218573   2.153   3.549   6.364
 5892SOL     OW18574   2.309   6.222   2.539
 5892SOL    HW118575   2.258   6.148   2.582
 5892SOL    HW218576   2.368   6.266   2.607
 5893SOL     OW18577   2.106   1.694   3.190
 5893SOL    HW118578   2.164   1.621   3.228
 5893SOL    HW218579   2.033   1.716   3.255
 5894SOL     OW18580   0.688   3.104   3.650
 5894SOL    HW118581   0.696   3.181   3.713
 5894SOL    HW218582   0.593   3.074   3.645
 5895SOL     OW18583   5.794   4.060   3.411
 5895SOL    HW118584   5.871   4.105   3.455
 5895SOL    HW218585   5.827   3.985   3.354
 5896SOL     OW18586   5.497   2.873   5.587
 5896SOL    HW118587   5.499   2.935   5.665
 5896SOL    HW218588   5.439   2.911   5.515
 5897SOL     OW18589   4.673   5.272   0.954
 5897SOL    HW118590   4.699   5.230   1.040
 5897SOL    HW218591   4.657   5.370   0.968
 5898SOL     OW18592   2.769   6.245   3.406
 5898SOL    HW118593   2.859   6.201   3.401
 5898SOL    HW218594   2.781   6.341   3.430
 5899SOL     OW18595   5.503   0.541   3.781
 5899SOL    HW118596   5.469   0.592   3.702
 5899SOL    HW218597   5.588   0.495   3.757
 5900SOL     OW18598   3.617   5.269   2.427
 5900SOL    HW118599   3.566   5.325   2.362
 5900SOL    HW218600   3.606   5.173   2.404
 5901SOL     OW18601   3.002   6.313   4.973
 5901SOL    HW118602   3.034   6.402   5.003
 5901SOL    HW218603   2.956   6.322   4.884
 5902SOL     OW18604   5.992   2.453   6.894
 5902SOL    HW118605   6.019   2.506   6.814
 5902SOL    HW218606   5.964   2.361   6.865
 5903SOL     OW18607   0.203   3.302   6.569
 5903SOL    HW118608   0.177   3.385   6.619
 5903SOL    HW218609   0.190   3.317   6.471
 5904SOL     OW18610   1.123   3.477   2.275
 5904SOL    HW118611   1.208   3.530   2.270
 5904SOL    HW218612   1.115   3.418   2.195
 5905SOL     OW18613   7.022   4.884   2.533
 5905SOL    HW118614   0.059   4.897   2.455
 5905SOL    HW218615   6.927   4.899   2.505
 5906SOL     OW18616   1.078   1.015   2.973
 5906SOL    HW118617   1.163   1.066   2.981
 5906SOL    HW218618   1.018   1.060   2.907
 5907SOL     OW18619   1.910   0.549   2.379
 5907SOL    HW118620   1.837   0.617   2.381
 5907SOL    HW218621   1.876   0.463   2.417
 5908SOL     OW18622   0.352   3.129   5.819
 5908SOL    HW118623   0.349   3.217   5.866
 5908SOL    HW218624   0.340   3.056   5.885
 5909SOL     OW18625   5.709   4.663   0.597
 5909SOL    HW118626   5.701   4.714   0.512
 5909SOL    HW218627   5.798   4.682   0.639
 5910SOL     OW18628   1.618   1.538   3.416
 5910SOL    HW118629   1.664   1.451   3.436
 5910SOL    HW218630   1.656   1.578   3.333
 5911SOL     OW18631   6.471   5.659   6.775
 5911SOL    HW118632   6.471   5.742   6.830
 5911SOL    HW218633   6.519   5.675   6.689
 5912SOL     OW18634   0.482   6.916   3.712
 5912SOL    HW118635   0.508   6.872   3.797
 5912SOL    HW218636   0.395   6.965   3.725
 5913SOL     OW18637   5.934   1.956   0.663
 5913SOL    HW118638   5.889   2.027   0.717
 5913SOL    HW218639   6.004   1.997   0.605
 5914SOL     OW18640   0.897   6.192   0.498
 5914SOL    HW118641   0.907   6.266   0.432
 5914SOL    HW218642   0.928   6.106   0.457
 5915SOL     OW18643   3.546   1.318   5.962
 5915SOL    HW118644   3.487   1.303   6.041
 5915SOL    HW218645   3.533   1.412   5.929
 5916SOL     OW18646   1.028   6.861   2.000
 5916SOL    HW118647   1.081   6.943   1.983
 5916SOL    HW218648   0.967   6.876   2.077
 5917SOL     OW18649   3.245   3.442   0.197
 5917SOL    HW118650   3.172   3.478   0.254
 5917SOL    HW218651   3.221   3.351   0.164
 5918SOL     OW18652   3.068   0.185   4.817
 5918SOL    HW118653   3.049   0.087   4.818
 5918SOL    HW218654   3.055   0.221   4.724
 5919SOL     OW18655   3.327   3.314   4.454
 5919SOL    HW118656   3.300   3.375   4.379
 5919SOL    HW218657   3.383   3.365   4.519
 5920SOL     OW18658   6.927   0.135   5.329
 5920SOL    HW118659   6.991   0.114   5.255
 5920SOL    HW218660   6.845   0.078   5.320
 5921SOL     OW18661   3.048   4.265   6.852
 5921SOL    HW118662   2.996   4.281   6.768
 5921SOL    HW218663   3.036   4.170   6.881
 5922SOL     OW18664   5.453   3.111   2.427
 5922SOL    HW118665   5.409   3.029   2.464
 5922SOL    HW218666   5.501   3.159   2.500
 5923SOL     OW18667   6.218   1.011   3.370
 5923SOL    HW118668   6.246   1.087   3.311
 5923SOL    HW218669   6.119   0.998   3.364
 5924SOL     OW18670   5.421   6.390   3.929
 5924SOL    HW118671   5.332   6.401   3.974
 5924SOL    HW218672   5.409   6.397   3.830
 5925SOL     OW18673   4.404   1.556   0.845
 5925SOL    HW118674   4.466   1.521   0.774
 5925SOL    HW218675   4.402   1.656   0.841
 5926SOL     OW18676   5.384   3.895   3.427
 5926SOL    HW118677   5.458   3.929   3.486
 5926SOL    HW218678   5.378   3.795   3.436
 5927SOL     OW18679   0.620   5.455   2.064
 5927SOL    HW118680   0.600   5.413   1.975
 5927SOL    HW218681   0.699   5.516   2.054
 5928SOL     OW18682   2.649   6.726   6.834
 5928SOL    HW118683   2.676   6.819   6.812
 5928SOL    HW218684   2.549   6.722   6.846
 5929SOL     OW18685   0.885   0.617   0.432
 5929SOL    HW118686   0.931   0.623   0.344
 5929SOL    HW218687   0.933   0.672   0.499
 5930SOL     OW18688   1.816   3.898   1.943
 5930SOL    HW118689   1.823   3.842   2.025
 5930SOL    HW218690   1.819   3.840   1.862
 5931SOL     OW18691   5.455   6.501   2.953
 5931SOL    HW118692   5.396   6.480   2.874
 5931SOL    HW218693   5.399   6.515   3.034
 5932SOL     OW18694   3.078   0.064   0.184
 5932SOL    HW118695   3.113   6.994   0.186
 5932SOL    HW218696   3.086   0.101   0.092
 5933SOL     OW18697   5.897   6.276   4.292
 5933SOL    HW118698   5.811   6.224   4.288
 5933SOL    HW218699   5.934   6.270   4.385
 5934SOL     OW18700   2.681   3.175   0.287
 5934SOL    HW118701   2.754   3.209   0.229
 5934SOL    HW218702   2.711   3.174   0.382
 5935SOL     OW18703   1.407   0.182   5.502
 5935SOL    HW118704   1.378   0.092   5.469
 5935SOL    HW218705   1.404   0.248   5.426
 5936SOL     OW18706   3.367   2.769   2.003
 5936SOL    HW118707   3.433   2.769   1.928
 5936SOL    HW218708   3.391   2.698   2.069
 5937SOL     OW18709   0.179   2.908   1.343
 5937SOL    HW118710   0.171   2.997   1.298
 5937SOL    HW218711   0.273   2.874   1.334
 5938SOL     OW18712   0.141   4.262   4.017
 5938SOL    HW118713   0.064   4.306   4.063
 5938SOL    HW218714   0.111   4.176   3.976
 5939SOL     OW18715   4.003   1.663   5.457
 5939SOL    HW118716   3.923   1.681   5.400
 5939SOL    HW218717   4.046   1.750   5.482
 5940SOL     OW18718   5.025   5.633   1.215
 5940SOL    HW118719   4.933   5.673   1.213
 5940SOL    HW218720   5.052   5.618   1.310
 5941SOL     OW18721   0.151   2.280   3.254
 5941SOL    HW118722   0.162   2.215   3.329
 5941SOL    HW218723   0.112   2.234   3.174
 5942SOL     OW18724   5.143   2.787   6.128
 5942SOL    HW118725   5.194   2.724   6.068
 5942SOL    HW218726   5.124   2.871   6.078
 5943SOL     OW18727   2.129   4.668   1.494
 5943SOL    HW118728   2.199   4.604   1.525
 5943SOL    HW218729   2.091   4.636   1.406
 5944SOL     OW18730   6.546   3.397   5.553
 5944SOL    HW118731   6.519   3.440   5.640
 5944SOL    HW218732   6.469   3.344   5.517
 5945SOL     OW18733   6.463   6.342   4.668
 5945SOL    HW118734   6.434   6.386   4.753
 5945SOL    HW218735   6.430   6.395   4.590
 5946SOL     OW18736   1.963   3.718   6.640
 5946SOL    HW118737   1.892   3.720   6.711
 5946SOL    HW218738   1.927   3.672   6.559
 5947SOL     OW18739   3.493   3.510   4.566
 5947SOL    HW118740   3.429   3.497   4.641
 5947SOL    HW218741   3.452   3.569   4.496
 5948SOL     OW18742   4.871   3.409   1.477
 5948SOL    HW118743   4.818   3.361   1.546
 5948SOL    HW218744   4.884   3.349   1.398
 5949SOL     OW18745   0.400   4.113   3.396
 5949SOL    HW118746   0.318   4.154   3.356
 5949SOL    HW218747   0.419   4.156   3.484
 5950SOL     OW18748   3.600   0.427   4.817
 5950SOL    HW118749   3.551   0.431   4.904
 5950SOL    HW218750   3.669   0.355   4.820
 5951SOL     OW18751   6.671   4.320   6.696
 5951SOL    HW118752   6.610   4.317   6.776
 5951SOL    HW218753   6.702   4.228   6.674
 5952SOL     OW18754   4.163   4.576   1.640
 5952SOL    HW118755   4.118   4.489   1.660
 5952SOL    HW218756   4.245   4.584   1.697
 5953SOL     OW18757   0.074   3.276   5.224
 5953SOL    HW118758   0.057   3.290   5.127
 5953SOL    HW218759   0.154   3.329   5.252
 5954SOL     OW18760   2.043   5.592   4.079
 5954SOL    HW118761   2.101   5.543   4.144
 5954SOL    HW218762   1.960   5.623   4.125
 5955SOL     OW18763   4.938   3.382   0.436
 5955SOL    HW118764   4.902   3.441   0.509
 5955SOL    HW218765   4.864   3.360   0.372
 5956SOL     OW18766   5.188   2.986   5.171
 5956SOL    HW118767   5.158   3.062   5.113
 5956SOL    HW218768   5.107   2.937   5.205
 5957SOL     OW18769   6.640   1.078   3.398
 5957SOL    HW118770   6.662   1.108   3.491
 5957SOL    HW218771   6.541   1.086   3.384
 5958SOL     OW18772   3.047   6.173   3.333
 5958SOL    HW118773   3.127   6.123   3.365
 5958SOL    HW218774   3.077   6.262   3.295
 5959SOL     OW18775   5.404   2.236   2.975
 5959SOL    HW118776   5.453   2.230   2.888
 5959SOL    HW218777   5.392   2.332   3.000
 5960SOL     OW18778   3.975   0.936   6.380
 5960SOL    HW118779   3.898   1.000   6.377
 5960SOL    HW218780   4.040   0.965   6.451
 5961SOL     OW18781   2.829   2.182   3.549
 5961SOL    HW118782   2.768   2.259   3.536
 5961SOL    HW218783   2.883   2.168   3.466
 5962SOL     OW18784   4.810   5.086   0.467
 5962SOL    HW118785   4.717   5.123   0.461
 5962SOL    HW218786   4.826   5.024   0.390
 5963SOL     OW18787   2.405   4.172   0.662
 5963SOL    HW118788   2.345   4.109   0.710
 5963SOL    HW218789   2.352   4.248   0.625
 5964SOL     OW18790   2.328   6.799   3.440
 5964SOL    HW118791   2.295   6.733   3.508
 5964SOL    HW218792   2.416   6.836   3.469
 5965SOL     OW18793   2.929   0.512   0.522
 5965SOL    HW118794   2.884   0.432   0.480
 5965SOL    HW218795   2.881   0.595   0.494
 5966SOL     OW18796   2.715   1.552   5.133
 5966SOL    HW118797   2.764   1.525   5.216
 5966SOL    HW218798   2.729   1.650   5.116
 5967SOL     OW18799   4.456   2.123   5.001
 5967SOL    HW118800   4.538   2.105   4.946
 5967SOL    HW218801   4.479   2.112   5.098
 5968SOL     OW18802   6.005   2.673   2.155
 5968SOL    HW118803   6.103   2.669   2.136
 5968SOL    HW218804   5.967   2.580   2.158
 5969SOL     OW18805   5.080   0.570   0.525
 5969SOL    HW118806   5.003   0.628   0.550
 5969SOL    HW218807   5.111   0.519   0.605
 5970SOL     OW18808   0.192   3.424   0.897
 5970SOL    HW118809   0.179   3.356   0.825
 5970SOL    HW218810   0.252   3.387   0.968
 5971SOL     OW18811   7.022   6.434   3.962
 5971SOL    HW118812   0.037   6.416   3.872
 5971SOL    HW218813   6.937   6.382   3.971
 5972SOL     OW18814   6.321   5.205   0.524
 5972SOL    HW118815   6.398   5.269   0.528
 5972SOL    HW218816   6.248   5.245   0.469
 5973SOL     OW18817   2.746   1.335   2.391
 5973SOL    HW118818   2.776   1.416   2.340
 5973SOL    HW218819   2.725   1.362   2.486
 5974SOL     OW18820   5.482   1.580   4.394
 5974SOL    HW118821   5.435   1.525   4.325
 5974SOL    HW218822   5.497   1.525   4.476
 5975SOL     OW18823   4.040   5.250   1.432
 5975SOL    HW118824   3.955   5.245   1.379
 5975SOL    HW218825   4.100   5.319   1.392
 5976SOL     OW18826   1.786   3.755   5.484
 5976SOL    HW118827   1.802   3.704   5.569
 5976SOL    HW218828   1.703   3.810   5.493
 5977SOL     OW18829   6.786   4.676   0.475
 5977SOL    HW118830   6.776   4.652   0.572
 5977SOL    HW218831   6.853   4.749   0.466
 5978SOL     OW18832   2.945   3.582   6.381
 5978SOL    HW118833   2.993   3.626   6.305
 5978SOL    HW218834   2.848   3.605   6.376
 5979SOL     OW18835   6.251   0.457   1.240
 5979SOL    HW118836   6.241   0.462   1.339
 5979SOL    HW218837   6.218   0.368   1.207
 5980SOL     OW18838   2.781   2.788   1.115
 5980SOL    HW118839   2.752   2.819   1.025
 5980SOL    HW218840   2.808   2.692   1.110
 5981SOL     OW18841   2.677   1.470   0.973
 5981SOL    HW118842   2.735   1.396   1.007
 5981SOL    HW218843   2.582   1.452   1.001
 5982SOL     OW18844   5.338   2.812   1.329
 5982SOL    HW118845   5.379   2.776   1.413
 5982SOL    HW218846   5.399   2.881   1.290
 5983SOL     OW18847   0.283   0.867   3.475
 5983SOL    HW118848   0.294   0.890   3.571
 5983SOL    HW218849   0.198   0.907   3.441
 5984SOL     OW18850   6.536   5.960   4.202
 5984SOL    HW118851   6.521   6.007   4.115
 5984SOL    HW218852   6.614   6.001   4.249
 5985SOL     OW18853   6.425   3.064   2.353
 5985SOL    HW118854   6.458   3.105   2.438
 5985SOL    HW218855   6.358   2.993   2.374
 5986SOL     OW18856   4.112   3.435   3.915
 5986SOL    HW118857   4.012   3.444   3.911
 5986SOL    HW218858   4.136   3.350   3.961
 5987SOL     OW18859   0.508   5.764   5.527
 5987SOL    HW118860   0.410   5.763   5.505
 5987SOL    HW218861   0.556   5.701   5.466
 5988SOL     OW18862   0.699   2.887   6.980
 5988SOL    HW118863   0.651   2.972   7.006
 5988SOL    HW218864   0.694   2.875   6.881
 5989SOL     OW18865   0.715   6.523   5.814
 5989SOL    HW118866   0.675   6.447   5.763
 5989SOL    HW218867   0.815   6.521   5.804
 5990SOL     OW18868   2.581   4.577   1.766
 5990SOL    HW118869   2.639   4.556   1.844
 5990SOL    HW218870   2.491   4.609   1.798
 5991SOL     OW18871   5.039   0.136   0.516
 5991SOL    HW118872   5.078   0.044   0.518
 5991SOL    HW218873   5.060   0.183   0.601
 5992SOL     OW18874   3.774   6.099   2.635
 5992SOL    HW118875   3.751   6.002   2.644
 5992SOL    HW218876   3.707   6.143   2.574
 5993SOL     OW18877   5.709   1.907   0.361
 5993SOL    HW118878   5.763   1.840   0.311
 5993SOL    HW218879   5.768   1.954   0.428
 5994SOL     OW18880   6.712   3.589   0.067
 5994SOL    HW118881   6.685   3.537   7.011
 5994SOL    HW218882   6.676   3.545   0.150
 5995SOL     OW18883   5.031   3.645   1.440
 5995SOL    HW118884   5.076   3.668   1.527
 5995SOL    HW218885   4.977   3.562   1.452
 5996SOL     OW18886   2.934   6.602   1.291
 5996SOL    HW118887   2.954   6.670   1.221
 5996SOL    HW218888   2.949   6.642   1.381
 5997SOL     OW18889   6.441   0.410   3.820
 5997SOL    HW118890   6.474   0.502   3.840
 5997SOL    HW218891   6.512   0.343   3.843
 5998SOL     OW18892   6.565   5.862   6.963
 5998SOL    HW118893   6.479   5.854   7.013
 5998SOL    HW218894   6.642   5.855   0.004
 5999SOL     OW18895   5.301   3.208   1.290
 5999SOL    HW118896   5.272   3.304   1.293
 5999SOL    HW218897   5.379   3.199   1.228
 6000SOL     OW18898   0.616   4.160   1.275
 6000SOL    HW118899   0.527   4.132   1.310
 6000SOL    HW218900   0.683   4.088   1.293
 6001SOL     OW18901   5.721   5.349   6.011
 6001SOL    HW118902   5.704   5.334   6.108
 6001SOL    HW218903   5.799   5.294   5.982
 6002SOL     OW18904   5.772   4.737   5.284
 6002SOL    HW118905   5.848   4.748   5.348
 6002SOL    HW218906   5.801   4.682   5.206
 6003SOL     OW18907   2.501   2.591   4.588
 6003SOL    HW118908   2.594   2.626   4.601
 6003SOL    HW218909   2.471   2.547   4.672
 6004SOL     OW18910   5.394   2.816   5.123
 6004SOL    HW118911   5.449   2.852   5.047
 6004SOL    HW218912   5.313   2.875   5.135
 6005SOL     OW18913   4.286   4.292   6.568
 6005SOL    HW118914   4.330   4.375   6.602
 6005SOL    HW218915   4.352   4.237   6.517
 6006SOL     OW18916   3.185   5.876   6.908
 6006SOL    HW118917   3.253   5.882   6.981
 6006SOL    HW218918   3.167   5.968   6.872
 6007SOL     OW18919   2.171   5.815   4.696
 6007SOL    HW118920   2.160   5.828   4.794
 6007SOL    HW218921   2.082   5.817   4.651
 6008SOL     OW18922   2.467   3.672   6.521
 6008SOL    HW118923   2.382   3.618   6.523
 6008SOL    HW218924   2.474   3.725   6.606
 6009SOL     OW18925   4.003   5.037   2.750
 6009SOL    HW118926   3.943   5.075   2.680
 6009SOL    HW218927   4.024   5.108   2.818
 6010SOL     OW18928   0.350   4.625   4.329
 6010SOL    HW118929   0.299   4.660   4.408
 6010SOL    HW218930   0.310   4.539   4.299
 6011SOL     OW18931   5.766   1.492   2.918
 6011SOL    HW118932   5.778   1.521   3.013
 6011SOL    HW218933   5.836   1.424   2.895
 6012SOL     OW18934   6.547   0.242   5.656
 6012SOL    HW118935   6.521   0.279   5.567
 6012SOL    HW218936   6.495   0.287   5.728
 6013SOL     OW18937   6.081   1.345   2.152
 6013SOL    HW118938   6.052   1.438   2.174
 6013SOL    HW218939   6.063   1.326   2.056
 6014SOL     OW18940   2.977   3.190   3.678
 6014SOL    HW118941   2.942   3.268   3.730
 6014SOL    HW218942   2.987   3.216   3.582
 6015SOL     OW18943   5.953   0.647   3.406
 6015SOL    HW118944   5.986   0.707   3.479
 6015SOL    HW218945   5.943   0.554   3.441
 6016SOL     OW18946   4.299   1.842   4.277
 6016SOL    HW118947   4.279   1.800   4.365
 6016SOL    HW218948   4.395   1.825   4.253
 6017SOL     OW18949   1.181   1.273   5.732
 6017SOL    HW118950   1.276   1.246   5.742
 6017SOL    HW218951   1.174   1.348   5.667
 6018SOL     OW18952   2.636   0.961   4.024
 6018SOL    HW118953   2.637   0.925   3.931
 6018SOL    HW218954   2.715   1.022   4.038
 6019SOL     OW18955   6.342   4.524   6.061
 6019SOL    HW118956   6.397   4.568   5.990
 6019SOL    HW218957   6.325   4.589   6.135
 6020SOL     OW18958   0.717   5.013   6.039
 6020SOL    HW118959   0.816   5.004   6.024
 6020SOL    HW218960   0.682   4.929   6.079
 6021SOL     OW18961   5.920   6.763   3.602
 6021SOL    HW118962   5.993   6.749   3.536
 6021SOL    HW218963   5.921   6.859   3.633
 6022SOL     OW18964   6.315   2.593   1.869
 6022SOL    HW118965   6.390   2.533   1.841
 6022SOL    HW218966   6.336   2.632   1.959
 6023SOL     OW18967   4.414   6.749   1.837
 6023SOL    HW118968   4.422   6.720   1.742
 6023SOL    HW218969   4.319   6.740   1.867
 6024SOL     OW18970   1.190   6.105   6.854
 6024SOL    HW118971   1.214   6.143   6.944
 6024SOL    HW218972   1.262   6.043   6.824
 6025SOL     OW18973   2.708   0.865   5.042
 6025SOL    HW118974   2.715   0.960   5.014
 6025SOL    HW218975   2.770   0.809   4.987
 6026SOL     OW18976   5.466   6.301   4.582
 6026SOL    HW118977   5.511   6.228   4.633
 6026SOL    HW218978   5.396   6.344   4.639
 6027SOL     OW18979   5.199   5.093   6.318
 6027SOL    HW118980   5.171   5.157   6.247
 6027SOL    HW218981   5.288   5.121   6.355
 6028SOL     OW18982   5.911   5.172   6.282
 6028SOL    HW118983   5.835   5.234   6.303
 6028SOL    HW218984   5.996   5.210   6.317
 6029SOL     OW18985   3.131   1.389   2.805
 6029SOL    HW118986   3.110   1.466   2.745
 6029SOL    HW218987   3.095   1.408   2.897
 6030SOL     OW18988   5.881   3.077   3.991
 6030SOL    HW118989   5.942   3.020   3.935
 6030SOL    HW218990   5.854   3.158   3.940
 6031SOL     OW18991   6.925   6.261   4.987
 6031SOL    HW118992   6.833   6.260   5.028
 6031SOL    HW218993   6.965   6.351   4.998
 6032SOL     OW18994   3.745   6.591   3.367
 6032SOL    HW118995   3.790   6.653   3.303
 6032SOL    HW218996   3.753   6.627   3.460
 6033SOL     OW18997   1.350   1.443   2.515
 6033SOL    HW118998   1.258   1.474   2.494
 6033SOL    HW218999   1.415   1.517   2.497
 6034SOL     OW19000   0.548   6.705   1.199
 6034SOL    HW119001   0.546   6.642   1.277
 6034SOL    HW219002   0.581   6.794   1.230
 6035SOL     OW19003   2.767   0.398   2.577
 6035SOL    HW119004   2.846   0.457   2.592
 6035SOL    HW219005   2.767   0.364   2.483
 6036SOL     OW19006   6.446   3.695   1.143
 6036SOL    HW119007   6.522   3.647   1.186
 6036SOL    HW219008   6.359   3.653   1.170
 6037SOL     OW19009   4.709   1.228   6.134
 6037SOL    HW119010   4.654   1.275   6.203
 6037SOL    HW219011   4.650   1.174   6.075
 6038SOL     OW19012   1.359   1.188   6.253
 6038SOL    HW119013   1.291   1.235   6.197
 6038SOL    HW219014   1.350   1.089   6.241
 6039SOL     OW19015   3.852   3.529   3.916
 6039SOL    HW119016   3.778   3.467   3.888
 6039SOL    HW219017   3.820   3.623   3.910
 6040SOL     OW19018   0.266   1.793   0.609
 6040SOL    HW119019   0.300   1.725   0.544
 6040SOL    HW219020   0.169   1.810   0.592
 6041SOL     OW19021   2.152   3.845   6.128
 6041SOL    HW119022   2.202   3.853   6.214
 6041SOL    HW219023   2.080   3.776   6.137
 6042SOL     OW19024   3.246   5.869   4.106
 6042SOL    HW119025   3.165   5.868   4.048
 6042SOL    HW219026   3.256   5.780   4.150
 6043SOL     OW19027   2.521   0.139   3.069
 6043SOL    HW119028   2.615   0.161   3.094
 6043SOL    HW219029   2.519   0.104   2.975
 6044SOL     OW19030   0.399   3.380   1.117
 6044SOL    HW119031   0.347   3.363   1.200
 6044SOL    HW219032   0.447   3.467   1.124
 6045SOL     OW19033   5.742   1.561   3.476
 6045SOL    HW119034   5.643   1.561   3.480
 6045SOL    HW219035   5.777   1.651   3.502
 6046SOL     OW19036   3.409   3.148   2.755
 6046SOL    HW119037   3.348   3.217   2.794
 6046SOL    HW219038   3.463   3.189   2.682
 6047SOL     OW19039   6.858   1.681   0.453
 6047SOL    HW119040   6.898   1.743   0.386
 6047SOL    HW219041   6.864   1.587   0.419
 6048SOL     OW19042   5.811   5.790   3.172
 6048SOL    HW119043   5.782   5.871   3.223
 6048SOL    HW219044   5.875   5.817   3.100
 6049SOL     OW19045   4.515   4.732   6.308
 6049SOL    HW119046   4.576   4.708   6.233
 6049SOL    HW219047   4.533   4.827   6.336
 6050SOL     OW19048   2.831   5.967   2.503
 6050SOL    HW119049   2.878   5.931   2.583
 6050SOL    HW219050   2.894   5.972   2.426
 6051SOL     OW19051   0.673   1.640   2.938
 6051SOL    HW119052   0.751   1.579   2.928
 6051SOL    HW219053   0.596   1.603   2.886
 6052SOL     OW19054   5.233   5.458   0.755
 6052SOL    HW119055   5.295   5.527   0.717
 6052SOL    HW219056   5.213   5.480   0.850
 6053SOL     OW19057   4.299   2.701   6.163
 6053SOL    HW119058   4.362   2.671   6.235
 6053SOL    HW219059   4.206   2.703   6.199
 6054SOL     OW19060   4.261   4.324   0.695
 6054SOL    HW119061   4.341   4.302   0.752
 6054SOL    HW219062   4.246   4.423   0.696
 6055SOL     OW19063   2.790   3.991   0.890
 6055SOL    HW119064   2.755   4.065   0.832
 6055SOL    HW219065   2.790   4.022   0.986
 6056SOL     OW19066   5.301   6.229   3.363
 6056SOL    HW119067   5.297   6.246   3.462
 6056SOL    HW219068   5.351   6.144   3.346
 6057SOL     OW19069   5.196   0.642   4.499
 6057SOL    HW119070   5.267   0.612   4.436
 6057SOL    HW219071   5.164   0.733   4.473
 6058SOL     OW19072   6.667   2.512   5.944
 6058SOL    HW119073   6.674   2.477   5.851
 6058SOL    HW219074   6.697   2.608   5.947
 6059SOL     OW19075   4.178   2.562   0.163
 6059SOL    HW119076   4.254   2.571   0.228
 6059SOL    HW219077   4.127   2.648   0.160
 6060SOL     OW19078   2.201   3.012   6.994
 6060SOL    HW119079   2.281   3.068   7.015
 6060SOL    HW219080   2.228   2.937   6.933
 6061SOL     OW19081   3.620   4.426   6.743
 6061SOL    HW119082   3.529   4.457   6.717
 6061SOL    HW219083   3.676   4.416   6.660
 6062SOL     OW19084   2.444   2.067   6.428
 6062SOL    HW119085   2.379   2.015   6.372
 6062SOL    HW219086   2.396   2.141   6.474
 6063SOL     OW19087   4.138   3.931   6.461
 6063SOL    HW119088   4.150   3.839   6.498
 6063SOL    HW219089   4.112   3.994   6.535
 6064SOL     OW19090   6.255   5.225   0.891
 6064SOL    HW119091   6.278   5.277   0.809
 6064SOL    HW219092   6.287   5.275   0.972
 6065SOL     OW19093   1.911   6.776   1.563
 6065SOL    HW119094   1.883   6.842   1.494
 6065SOL    HW219095   2.010   6.763   1.559
 6066SOL     OW19096   5.372   5.985   3.242
 6066SOL    HW119097   5.416   5.904   3.281
 6066SOL    HW219098   5.273   5.975   3.248
 6067SOL     OW19099   6.663   6.159   5.763
 6067SOL    HW119100   6.741   6.120   5.714
 6067SOL    HW219101   6.697   6.220   5.835
 6068SOL     OW19102   4.489   2.504   4.234
 6068SOL    HW119103   4.584   2.492   4.204
 6068SOL    HW219104   4.488   2.538   4.328
 6069SOL     OW19105   7.002   4.256   6.009
 6069SOL    HW119106   6.906   4.251   6.035
 6069SOL    HW219107   0.034   4.203   6.073
 6070SOL     OW19108   2.132   1.582   1.138
 6070SOL    HW119109   2.191   1.659   1.114
 6070SOL    HW219110   2.039   1.599   1.106
 6071SOL     OW19111   6.385   1.303   5.707
 6071SOL    HW119112   6.369   1.204   5.706
 6071SOL    HW219113   6.320   1.347   5.768
 6072SOL     OW19114   0.183   3.703   6.806
 6072SOL    HW119115   0.142   3.612   6.803
 6072SOL    HW219116   0.273   3.698   6.850
 6073SOL     OW19117   4.982   3.802   0.049
 6073SOL    HW119118   4.987   3.703   0.042
 6073SOL    HW219119   5.029   3.833   0.131
 6074SOL     OW19120   1.506   6.646   2.440
 6074SOL    HW119121   1.571   6.632   2.366
 6074SOL    HW219122   1.413   6.649   2.403
 6075SOL     OW19123   5.947   0.678   6.477
 6075SOL    HW119124   5.972   0.765   6.519
 6075SOL    HW219125   6.010   0.607   6.508
 6076SOL     OW19126   0.936   5.970   2.699
 6076SOL    HW119127   0.914   5.937   2.791
 6076SOL    HW219128   0.858   5.953   2.638
 6077SOL     OW19129   5.497   6.235   2.870
 6077SOL    HW119130   5.496   6.335   2.875
 6077SOL    HW219131   5.468   6.206   2.779
 6078SOL     OW19132   4.375   3.918   0.189
 6078SOL    HW119133   4.393   4.015   0.171
 6078SOL    HW219134   4.283   3.907   0.226
 6079SOL     OW19135   2.750   2.730   0.567
 6079SOL    HW119136   2.850   2.724   0.561
 6079SOL    HW219137   2.718   2.802   0.506
 6080SOL     OW19138   6.725   4.213   6.336
 6080SOL    HW119139   6.665   4.139   6.364
 6080SOL    HW219140   6.678   4.272   6.270
 6081SOL     OW19141   1.507   3.308   3.582
 6081SOL    HW119142   1.513   3.334   3.678
 6081SOL    HW219143   1.509   3.390   3.525
 6082SOL     OW19144   4.720   1.499   1.412
 6082SOL    HW119145   4.628   1.487   1.449
 6082SOL    HW219146   4.772   1.560   1.471
 6083SOL     OW19147   4.541   0.481   6.448
 6083SOL    HW119148   4.632   0.510   6.477
 6083SOL    HW219149   4.495   0.557   6.401
 6084SOL     OW19150   0.120   5.618   2.440
 6084SOL    HW119151   0.131   5.519   2.453
 6084SOL    HW219152   0.043   5.650   2.496
 6085SOL     OW19153   0.595   6.595   0.208
 6085SOL    HW119154   0.522   6.644   0.255
 6085SOL    HW219155   0.683   6.616   0.252
 6086SOL     OW19156   3.308   4.046   6.974
 6086SOL    HW119157   3.376   4.104   6.927
 6086SOL    HW219158   3.302   4.073   0.046
 6087SOL     OW19159   4.833   7.010   0.777
 6087SOL    HW119160   4.832   0.027   0.868
 6087SOL    HW219161   4.861   0.055   0.709
 6088SOL     OW19162   4.882   5.414   2.949
 6088SOL    HW119163   4.858   5.512   2.949
 6088SOL    HW219164   4.970   5.402   2.903
 6089SOL     OW19165   5.716   3.802   3.883
 6089SOL    HW119166   5.693   3.721   3.937
 6089SOL    HW219167   5.659   3.805   3.801
 6090SOL     OW19168   3.867   5.687   4.502
 6090SOL    HW119169   3.799   5.736   4.447
 6090SOL    HW219170   3.876   5.593   4.469
 6091SOL     OW19171   1.357   1.392   1.481
 6091SOL    HW119172   1.390   1.324   1.416
 6091SOL    HW219173   1.373   1.359   1.574
 6092SOL     OW19174   2.662   6.548   1.248
 6092SOL    HW119175   2.755   6.526   1.278
 6092SOL    HW219176   2.600   6.541   1.326
 6093SOL     OW19177   2.554   2.502   2.561
 6093SOL    HW119178   2.510   2.493   2.472
 6093SOL    HW219179   2.646   2.462   2.558
 6094SOL     OW19180   0.609   6.184   5.089
 6094SOL    HW119181   0.635   6.158   4.996
 6094SOL    HW219182   0.610   6.104   5.148
 6095SOL     OW19183   4.833   4.706   1.699
 6095SOL    HW119184   4.741   4.744   1.685
 6095SOL    HW219185   4.825   4.616   1.741
 6096SOL     OW19186   5.391   5.743   3.038
 6096SOL    HW119187   5.418   5.675   3.107
 6096SOL    HW219188   5.464   5.810   3.026
 6097SOL     OW19189   2.218   4.798   2.709
 6097SOL    HW119190   2.130   4.753   2.690
 6097SOL    HW219191   2.278   4.790   2.630
 6098SOL     OW19192   6.585   0.435   4.599
 6098SOL    HW119193   6.614   0.467   4.689
 6098SOL    HW219194   6.621   0.497   4.529
 6099SOL     OW19195   3.314   0.568   5.763
 6099SOL    HW119196   3.267   0.553   5.676
 6099SOL    HW219197   3.354   0.482   5.795
 6100SOL     OW19198   0.593   5.786   4.935
 6100SOL    HW119199   0.630   5.832   5.015
 6100SOL    HW219200   0.590   5.687   4.952
 6101SOL     OW19201   0.011   3.714   2.030
 6101SOL    HW119202   7.011   3.699   1.934
 6101SOL    HW219203   0.051   3.805   2.041
 6102SOL     OW19204   3.911   7.011   2.362
 6102SOL    HW119205   3.893   0.085   2.348
 6102SOL    HW219206   3.973   7.000   2.439
 6103SOL     OW19207   6.747   1.605   1.929
 6103SOL    HW119208   6.718   1.700   1.944
 6103SOL    HW219209   6.666   1.546   1.924
 6104SOL     OW19210   6.806   0.545   4.216
 6104SOL    HW119211   6.893   0.566   4.170
 6104SOL    HW219212   6.744   0.501   4.151
 6105SOL     OW19213   3.129   4.456   5.577
 6105SOL    HW119214   3.066   4.513   5.523
 6105SOL    HW219215   3.185   4.400   5.515
 6106SOL     OW19216   6.012   4.749   5.508
 6106SOL    HW119217   6.086   4.780   5.448
 6106SOL    HW219218   6.009   4.649   5.509
 6107SOL     OW19219   5.927   5.322   5.335
 6107SOL    HW119220   5.853   5.374   5.378
 6107SOL    HW219221   5.902   5.225   5.332
 6108SOL     OW19222   1.969   1.246   7.014
 6108SOL    HW119223   2.069   1.253   7.013
 6108SOL    HW219224   1.930   1.329   6.974
 6109SOL     OW19225   6.904   6.755   3.622
 6109SOL    HW119226   6.966   6.774   3.698
 6109SOL    HW219227   6.945   6.686   3.562
 6110SOL     OW19228   2.001   1.468   4.065
 6110SOL    HW119229   2.018   1.519   3.980
 6110SOL    HW219230   2.059   1.505   4.138
 6111SOL     OW19231   1.977   3.997   1.336
 6111SOL    HW119232   2.016   3.957   1.419
 6111SOL    HW219233   2.038   3.980   1.259
 6112SOL     OW19234   4.966   6.496   3.595
 6112SOL    HW119235   4.933   6.436   3.668
 6112SOL    HW219236   5.052   6.540   3.625
 6113SOL     OW19237   2.578   5.663   0.984
 6113SOL    HW119238   2.650   5.598   0.960
 6113SOL    HW219239   2.536   5.698   0.900
 6114SOL     OW19240   5.259   2.005   0.411
 6114SOL    HW119241   5.351   2.022   0.375
 6114SOL    HW219242   5.247   2.054   0.497
 6115SOL     OW19243   0.621   0.530   6.308
 6115SOL    HW119244   0.670   0.610   6.274
 6115SOL    HW219245   0.580   0.481   6.231
 6116SOL     OW19246   5.446   3.084   6.630
 6116SOL    HW119247   5.376   3.017   6.603
 6116SOL    HW219248   5.532   3.061   6.585
 6117SOL     OW19249   2.055   1.904   1.300
 6117SOL    HW119250   2.069   1.886   1.203
 6117SOL    HW219251   2.116   1.846   1.354
 6118SOL     OW19252   5.773   0.745   1.552
 6118SOL    HW119253   5.766   0.753   1.652
 6118SOL    HW219254   5.714   0.671   1.520
 6119SOL     OW19255   6.808   1.542   6.881
 6119SOL    HW119256   6.906   1.556   6.894
 6119SOL    HW219257   6.785   1.561   6.785
 6120SOL     OW19258   2.984   0.643   4.368
 6120SOL    HW119259   3.079   0.661   4.340
 6120SOL    HW219260   2.922   0.683   4.301
 6121SOL     OW19261   1.555   2.330   5.031
 6121SOL    HW119262   1.606   2.326   4.945
 6121SOL    HW219263   1.596   2.399   5.090
 6122SOL     OW19264   5.181   4.417   5.113
 6122SOL    HW119265   5.123   4.492   5.081
 6122SOL    HW219266   5.251   4.452   5.175
 6123SOL     OW19267   5.707   1.577   5.494
 6123SOL    HW119268   5.780   1.621   5.442
 6123SOL    HW219269   5.626   1.567   5.436
 6124SOL     OW19270   2.621   6.275   4.284
 6124SOL    HW119271   2.555   6.219   4.335
 6124SOL    HW219272   2.692   6.307   4.347
 6125SOL     OW19273   3.129   2.089   6.297
 6125SOL    HW119274   3.030   2.100   6.289
 6125SOL    HW219275   3.171   2.094   6.206
 6126SOL     OW19276   5.835   2.895   5.867
 6126SOL    HW119277   5.869   2.818   5.812
 6126SOL    HW219278   5.878   2.980   5.836
 6127SOL     OW19279   4.701   2.292   2.352
 6127SOL    HW119280   4.637   2.258   2.284
 6127SOL    HW219281   4.773   2.346   2.307
 6128SOL     OW19282   5.906   5.610   0.080
 6128SOL    HW119283   5.917   5.595   0.178
 6128SOL    HW219284   5.962   5.544   0.030
 6129SOL     OW19285   1.958   6.011   2.355
 6129SOL    HW119286   2.020   6.089   2.345
 6129SOL    HW219287   1.887   6.016   2.285
 6130SOL     OW19288   5.710   2.737   0.179
 6130SOL    HW119289   5.730   2.653   0.130
 6130SOL    HW219290   5.612   2.758   0.171
 6131SOL     OW19291   6.596   1.994   2.830
 6131SOL    HW119292   6.531   2.070   2.838
 6131SOL    HW219293   6.549   1.915   2.789
 6132SOL     OW19294   3.925   1.354   6.132
 6132SOL    HW119295   3.848   1.295   6.107
 6132SOL    HW219296   4.010   1.301   6.127
 6133SOL     OW19297   0.951   2.338   3.018
 6133SOL    HW119298   0.853   2.350   3.005
 6133SOL    HW219299   0.967   2.281   3.099
 6134SOL     OW19300   0.287   6.783   5.810
 6134SOL    HW119301   0.252   6.768   5.902
 6134SOL    HW219302   0.332   6.700   5.777
 6135SOL     OW19303   0.374   6.814   0.218
 6135SOL    HW119304   0.422   6.799   0.131
 6135SOL    HW219305   0.284   6.853   0.199
 6136SOL     OW19306   0.888   3.003   2.500
 6136SOL    HW119307   0.971   2.988   2.552
 6136SOL    HW219308   0.845   2.915   2.480
 6137SOL     OW19309   6.898   4.299   1.952
 6137SOL    HW119310   6.855   4.348   1.877
 6137SOL    HW219311   6.982   4.254   1.919
 6138SOL     OW19312   4.580   0.241   1.963
 6138SOL    HW119313   4.670   0.227   2.005
 6138SOL    HW219314   4.549   0.156   1.921
 6139SOL     OW19315   1.497   0.750   5.138
 6139SOL    HW119316   1.553   0.697   5.074
 6139SOL    HW219317   1.419   0.694   5.169
 6140SOL     OW19318   1.635   0.312   3.194
 6140SOL    HW119319   1.703   0.328   3.122
 6140SOL    HW219320   1.657   0.369   3.273
 6141SOL     OW19321   0.449   0.900   6.289
 6141SOL    HW119322   0.445   0.979   6.351
 6141SOL    HW219323   0.445   0.816   6.342
 6142SOL     OW19324   6.693   7.015   1.517
 6142SOL    HW119325   6.774   6.981   1.469
 6142SOL    HW219326   6.677   6.960   1.599
 6143SOL     OW19327   6.859   3.476   5.455
 6143SOL    HW119328   6.783   3.539   5.470
 6143SOL    HW219329   6.937   3.525   5.417
 6144SOL     OW19330   4.514   5.174   2.661
 6144SOL    HW119331   4.448   5.153   2.589
 6144SOL    HW219332   4.497   5.117   2.741
 6145SOL     OW19333   4.976   3.694   4.014
 6145SOL    HW119334   4.943   3.641   4.093
 6145SOL    HW219335   5.051   3.753   4.043
 6146SOL     OW19336   5.653   0.235   5.290
 6146SOL    HW119337   5.576   0.252   5.230
 6146SOL    HW219338   5.738   0.261   5.244
 6147SOL     OW19339   1.520   2.667   5.052
 6147SOL    HW119340   1.430   2.624   5.043
 6147SOL    HW219341   1.563   2.636   5.137
 6148SOL     OW19342   3.504   5.455   6.962
 6148SOL    HW119343   3.499   5.434   0.036
 6148SOL    HW219344   3.463   5.544   6.945
 6149SOL     OW19345   3.258   1.058   1.321
 6149SOL    HW119346   3.309   1.128   1.371
 6149SOL    HW219347   3.171   1.040   1.367
 6150SOL     OW19348   0.996   4.184   5.627
 6150SOL    HW119349   0.961   4.145   5.542
 6150SOL    HW219350   1.064   4.121   5.666
 6151SOL     OW19351   4.647   5.294   3.437
 6151SOL    HW119352   4.711   5.248   3.375
 6151SOL    HW219353   4.569   5.327   3.384
 6152SOL     OW19354   1.793   3.947   4.351
 6152SOL    HW119355   1.745   3.860   4.336
 6152SOL    HW219356   1.834   3.946   4.442
 6153SOL     OW19357   5.136   5.479   1.017
 6153SOL    HW119358   5.090   5.391   1.021
 6153SOL    HW219359   5.088   5.544   1.076
 6154SOL     OW19360   5.089   3.256   2.227
 6154SOL    HW119361   5.017   3.243   2.159
 6154SOL    HW219362   5.164   3.192   2.210
 6155SOL     OW19363   1.753   1.362   3.053
 6155SOL    HW119364   1.742   1.444   3.109
 6155SOL    HW219365   1.826   1.305   3.091
 6156SOL     OW19366   5.246   4.708   1.683
 6156SOL    HW119367   5.240   4.712   1.583
 6156SOL    HW219368   5.341   4.692   1.710
 6157SOL     OW19369   0.905   2.618   2.024
 6157SOL    HW119370   0.912   2.673   2.107
 6157SOL    HW219371   0.810   2.590   2.010
 6158SOL     OW19372   2.970   2.224   4.762
 6158SOL    HW119373   2.887   2.262   4.803
 6158SOL    HW219374   3.048   2.241   4.823
 6159SOL     OW19375   6.707   2.863   0.861
 6159SOL    HW119376   6.787   2.890   0.914
 6159SOL    HW219377   6.733   2.792   0.795
 6160SOL     OW19378   1.645   0.686   1.004
 6160SOL    HW119379   1.630   0.711   0.909
 6160SOL    HW219380   1.725   0.627   1.011
 6161SOL     OW19381   4.152   3.677   6.518
 6161SOL    HW119382   4.162   3.649   6.614
 6161SOL    HW219383   4.173   3.599   6.459
 6162SOL     OW19384   6.028   5.334   2.360
 6162SOL    HW119385   6.117   5.379   2.359
 6162SOL    HW219386   6.038   5.240   2.391
 6163SOL     OW19387   6.039   6.217   3.730
 6163SOL    HW119388   5.955   6.236   3.781
 6163SOL    HW219389   6.081   6.304   3.702
 6164SOL     OW19390   2.874   3.538   4.459
 6164SOL    HW119391   2.909   3.570   4.371
 6164SOL    HW219392   2.854   3.440   4.453
 6165SOL     OW19393   3.711   1.498   6.744
 6165SOL    HW119394   3.662   1.580   6.715
 6165SOL    HW219395   3.739   1.508   6.840
 6166SOL     OW19396   2.167   2.908   6.493
 6166SOL    HW119397   2.149   2.813   6.519
 6166SOL    HW219398   2.126   2.970   6.561
 6167SOL     OW19399   1.709   3.325   3.095
 6167SOL    HW119400   1.640   3.254   3.110
 6167SOL    HW219401   1.757   3.344   3.181
 6168SOL     OW19402   0.364   3.921   3.938
 6168SOL    HW119403   0.461   3.905   3.919
 6168SOL    HW219404   0.353   3.956   4.031
 6169SOL     OW19405   2.096   0.834   7.015
 6169SOL    HW119406   2.086   0.743   6.974
 6169SOL    HW219407   2.030   0.896   6.973
 6170SOL     OW19408   2.928   4.002   0.350
 6170SOL    HW119409   2.900   4.000   0.254
 6170SOL    HW219410   3.012   3.949   0.361
 6171SOL     OW19411   2.099   3.875   2.012
 6171SOL    HW119412   2.012   3.926   2.010
 6171SOL    HW219413   2.085   3.783   1.977
 6172SOL     OW19414   2.142   5.573   2.686
 6172SOL    HW119415   2.053   5.580   2.733
 6172SOL    HW219416   2.151   5.482   2.646
 6173SOL     OW19417   1.266   5.804   1.991
 6173SOL    HW119418   1.312   5.763   1.911
 6173SOL    HW219419   1.178   5.760   2.006
 6174SOL     OW19420   5.595   5.027   2.794
 6174SOL    HW119421   5.532   5.103   2.798
 6174SOL    HW219422   5.545   4.942   2.775
 6175SOL     OW19423   4.899   0.192   3.003
 6175SOL    HW119424   4.842   0.152   3.075
 6175SOL    HW219425   4.841   0.215   2.924
 6176SOL     OW19426   6.425   2.830   5.809
 6176SOL    HW119427   6.427   2.863   5.903
 6176SOL    HW219428   6.362   2.887   5.755
 6177SOL     OW19429   6.682   2.667   1.226
 6177SOL    HW119430   6.640   2.704   1.144
 6177SOL    HW219431   6.763   2.722   1.250
 6178SOL     OW19432   6.083   3.154   1.324
 6178SOL    HW119433   6.110   3.063   1.357
 6178SOL    HW219434   6.066   3.214   1.402
 6179SOL     OW19435   0.700   1.928   5.546
 6179SOL    HW119436   0.658   1.888   5.465
 6179SOL    HW219437   0.631   1.980   5.597
 6180SOL     OW19438   3.600   6.690   6.898
 6180SOL    HW119439   3.520   6.697   6.958
 6180SOL    HW219440   3.579   6.629   6.822
 6181SOL     OW19441   5.347   5.687   6.761
 6181SOL    HW119442   5.374   5.664   6.668
 6181SOL    HW219443   5.329   5.786   6.768
 6182SOL     OW19444   4.427   6.636   6.481
 6182SOL    HW119445   4.378   6.594   6.404
 6182SOL    HW219446   4.484   6.711   6.447
 6183SOL     OW19447   3.195   0.310   3.143
 6183SOL    HW119448   3.209   0.292   3.241
 6183SOL    HW219449   3.282   0.334   3.101
 6184SOL     OW19450   0.037   0.433   6.836
 6184SOL    HW119451   0.111   0.451   6.771
 6184SOL    HW219452   0.068   0.367   6.905
 6185SOL     OW19453   0.922   3.934   6.177
 6185SOL    HW119454   0.829   3.901   6.194
 6185SOL    HW219455   0.952   3.905   6.086
 6186SOL     OW19456   6.051   6.937   4.980
 6186SOL    HW119457   6.059   0.011   4.962
 6186SOL    HW219458   5.954   6.912   4.987
 6187SOL     OW19459   4.144   4.968   4.354
 6187SOL    HW119460   4.196   4.957   4.269
 6187SOL    HW219461   4.134   5.066   4.374
 6188SOL     OW19462   3.079   7.005   1.516
 6188SOL    HW119463   3.160   6.986   1.572
 6188SOL    HW219464   3.068   0.080   1.507
 6189SOL     OW19465   5.885   4.910   3.218
 6189SOL    HW119466   5.831   4.976   3.270
 6189SOL    HW219467   5.866   4.921   3.120
 6190SOL     OW19468   5.210   2.616   7.003
 6190SOL    HW119469   5.163   2.528   7.004
 6190SOL    HW219470   5.307   2.603   0.001
 6191SOL     OW19471   6.357   2.318   6.479
 6191SOL    HW119472   6.408   2.337   6.562
 6191SOL    HW219473   6.410   2.349   6.399
 6192SOL     OW19474   3.169   2.793   0.274
 6192SOL    HW119475   3.180   2.694   0.264
 6192SOL    HW219476   3.231   2.840   0.212
 6193SOL     OW19477   6.291   0.068   1.181
 6193SOL    HW119478   6.230   0.140   1.149
 6193SOL    HW219479   6.245   0.015   1.253
 6194SOL     OW19480   2.453   0.213   0.293
 6194SOL    HW119481   2.503   0.195   0.208
 6194SOL    HW219482   2.367   0.164   0.292
 6195SOL     OW19483   3.039   6.747   6.254
 6195SOL    HW119484   3.121   6.803   6.257
 6195SOL    HW219485   2.961   6.804   6.227
 6196SOL     OW19486   0.122   1.046   6.904
 6196SOL    HW119487   0.221   1.057   6.899
 6196SOL    HW219488   0.093   0.970   6.845
 6197SOL     OW19489   2.188   3.576   0.373
 6197SOL    HW119490   2.245   3.596   0.453
 6197SOL    HW219491   2.095   3.554   0.404
 6198SOL     OW19492   4.196   4.945   2.390
 6198SOL    HW119493   4.220   5.032   2.347
 6198SOL    HW219494   4.173   4.878   2.319
 6199SOL     OW19495   1.495   0.235   6.562
 6199SOL    HW119496   1.516   0.211   6.657
 6199SOL    HW219497   1.423   0.174   6.528
 6200SOL     OW19498   3.746   6.886   5.958
 6200SOL    HW119499   3.755   6.856   5.864
 6200SOL    HW219500   3.650   6.909   5.977
 6201SOL     OW19501   2.280   4.396   4.660
 6201SOL    HW119502   2.279   4.374   4.758
 6201SOL    HW219503   2.371   4.377   4.622
 6202SOL     OW19504   3.227   2.248   1.035
 6202SOL    HW119505   3.319   2.218   1.059
 6202SOL    HW219506   3.185   2.180   0.974
 6203SOL     OW19507   4.579   1.824   5.347
 6203SOL    HW119508   4.513   1.751   5.362
 6203SOL    HW219509   4.603   1.867   5.434
 6204SOL     OW19510   1.291   6.603   5.839
 6204SOL    HW119511   1.303   6.599   5.939
 6204SOL    HW219512   1.297   6.698   5.809
 6205SOL     OW19513   5.450   5.694   0.134
 6205SOL    HW119514   5.395   5.642   0.200
 6205SOL    HW219515   5.534   5.643   0.114
 6206SOL     OW19516   5.113   0.136   3.170
 6206SOL    HW119517   5.028   0.140   3.117
 6206SOL    HW219518   5.185   0.184   3.119
 6207SOL     OW19519   1.857   3.877   4.863
 6207SOL    HW119520   1.934   3.933   4.894
 6207SOL    HW219521   1.817   3.829   4.941
 6208SOL     OW19522   5.690   6.677   5.996
 6208SOL    HW119523   5.743   6.593   5.987
 6208SOL    HW219524   5.674   6.717   5.905
 6209SOL     OW19525   3.512   5.487   1.144
 6209SOL    HW119526   3.445   5.429   1.192
 6209SOL    HW219527   3.603   5.469   1.179
 6210SOL     OW19528   6.071   4.409   3.825
 6210SOL    HW119529   6.015   4.489   3.847
 6210SOL    HW219530   6.023   4.352   3.759
 6211SOL     OW19531   2.489   0.316   5.105
 6211SOL    HW119532   2.512   0.298   5.009
 6211SOL    HW219533   2.476   0.414   5.118
 6212SOL     OW19534   0.058   6.419   3.250
 6212SOL    HW119535   0.065   6.402   3.152
 6212SOL    HW219536   0.122   6.360   3.300
 6213SOL     OW19537   0.395   6.237   6.233
 6213SOL    HW119538   0.486   6.203   6.259
 6213SOL    HW219539   0.360   6.183   6.156
 6214SOL     OW19540   6.432   4.947   2.836
 6214SOL    HW119541   6.512   4.889   2.846
 6214SOL    HW219542   6.351   4.890   2.823
 6215SOL     OW19543   2.899   4.369   0.683
 6215SOL    HW119544   2.848   4.453   0.667
 6215SOL    HW219545   2.851   4.312   0.750
 6216SOL     OW19546   6.438   1.798   2.716
 6216SOL    HW119547   6.406   1.710   2.750
 6216SOL    HW219548   6.360   1.855   2.691
 6217SOL     OW19549   5.370   3.107   1.599
 6217SOL    HW119550   5.305   3.138   1.669
 6217SOL    HW219551   5.331   3.123   1.508
 6218SOL     OW19552   3.538   5.068   5.159
 6218SOL    HW119553   3.506   5.031   5.072
 6218SOL    HW219554   3.573   4.993   5.216
 6219SOL     OW19555   1.062   1.983   4.445
 6219SOL    HW119556   1.067   1.936   4.533
 6219SOL    HW219557   0.966   2.000   4.421
 6220SOL     OW19558   1.854   4.128   5.128
 6220SOL    HW119559   1.868   4.190   5.205
 6220SOL    HW219560   1.859   4.033   5.160
 6221SOL     OW19561   3.897   4.947   4.911
 6221SOL    HW119562   3.916   4.987   5.000
 6221SOL    HW219563   3.981   4.909   4.872
 6222SOL     OW19564   6.846   1.499   1.008
 6222SOL    HW119565   6.751   1.527   0.992
 6222SOL    HW219566   6.851   1.399   1.010
 6223SOL     OW19567   5.323   3.445   4.625
 6223SOL    HW119568   5.250   3.406   4.681
 6223SOL    HW219569   5.290   3.527   4.578
 6224SOL     OW19570   2.433   1.112   5.063
 6224SOL    HW119571   2.364   1.070   5.121
 6224SOL    HW219572   2.521   1.112   5.110
 6225SOL     OW19573   4.198   2.252   0.159
 6225SOL    HW119574   4.164   2.219   0.247
 6225SOL    HW219575   4.146   2.332   0.130
 6226SOL     OW19576   5.884   0.001   4.707
 6226SOL    HW119577   5.857   0.034   4.798
 6226SOL    HW219578   5.927   0.075   4.656
 6227SOL     OW19579   3.280   4.789   6.111
 6227SOL    HW119580   3.216   4.712   6.107
 6227SOL    HW219581   3.373   4.754   6.126
 6228SOL     OW19582   6.922   0.729   3.646
 6228SOL    HW119583   6.871   0.793   3.589
 6228SOL    HW219584   6.953   0.652   3.591
 6229SOL     OW19585   2.231   2.862   2.175
 6229SOL    HW119586   2.140   2.836   2.143
 6229SOL    HW219587   2.299   2.835   2.106
 6230SOL     OW19588   2.170   2.203   3.303
 6230SOL    HW119589   2.223   2.284   3.330
 6230SOL    HW219590   2.168   2.196   3.203
 6231SOL     OW19591   0.108   4.814   1.627
 6231SOL    HW119592   0.108   4.815   1.727
 6231SOL    HW219593   0.196   4.780   1.594
 6232SOL     OW19594   0.992   1.245   6.519
 6232SOL    HW119595   1.068   1.301   6.550
 6232SOL    HW219596   0.999   1.230   6.420
 6233SOL     OW19597   4.607   2.085   0.099
 6233SOL    HW119598   4.697   2.078   0.057
 6233SOL    HW219599   4.560   2.167   0.064
 6234SOL     OW19600   2.468   2.190   3.551
 6234SOL    HW119601   2.484   2.093   3.565
 6234SOL    HW219602   2.388   2.219   3.603
 6235SOL     OW19603   2.761   6.374   3.713
 6235SOL    HW119604   2.704   6.292   3.719
 6235SOL    HW219605   2.773   6.413   3.805
 6236SOL     OW19606   6.623   4.107   0.573
 6236SOL    HW119607   6.591   4.013   0.560
 6236SOL    HW219608   6.659   4.117   0.666
 6237SOL     OW19609   4.419   6.895   0.517
 6237SOL    HW119610   4.472   6.813   0.497
 6237SOL    HW219611   4.455   6.940   0.599
 6238SOL     OW19612   4.739   4.327   1.199
 6238SOL    HW119613   4.709   4.320   1.294
 6238SOL    HW219614   4.687   4.263   1.143
 6239SOL     OW19615   2.605   0.666   3.468
 6239SOL    HW119616   2.603   0.635   3.563
 6239SOL    HW219617   2.515   0.655   3.427
 6240SOL     OW19618   2.445   3.824   0.869
 6240SOL    HW119619   2.522   3.798   0.811
 6240SOL    HW219620   2.419   3.746   0.927
 6241SOL     OW19621   4.906   0.070   1.498
 6241SOL    HW119622   4.860   0.111   1.419
 6241SOL    HW219623   4.904   0.133   1.575
 6242SOL     OW19624   4.340   2.022   3.849
 6242SOL    HW119625   4.244   1.993   3.856
 6242SOL    HW219626   4.400   1.945   3.869
 6243SOL     OW19627   6.154   5.662   3.464
 6243SOL    HW119628   6.088   5.707   3.524
 6243SOL    HW219629   6.246   5.691   3.489
 6244SOL     OW19630   2.200   1.850   2.301
 6244SOL    HW119631   2.285   1.901   2.313
 6244SOL    HW219632   2.123   1.908   2.326
 6245SOL     OW19633   2.040   4.875   0.391
 6245SOL    HW119634   1.974   4.882   0.466
 6245SOL    HW219635   2.050   4.780   0.365
 6246SOL     OW19636   2.728   1.100   5.875
 6246SOL    HW119637   2.745   1.034   5.801
 6246SOL    HW219638   2.630   1.121   5.879
 6247SOL     OW19639   0.010   6.318   3.015
 6247SOL    HW119640   6.941   6.343   2.988
 6247SOL    HW219641   0.036   6.232   2.971
 6248SOL     OW19642   0.389   4.685   1.261
 6248SOL    HW119643   0.354   4.691   1.354
 6248SOL    HW219644   0.446   4.604   1.252
 6249SOL     OW19645   5.174   3.801   6.465
 6249SOL    HW119646   5.185   3.844   6.375
 6249SOL    HW219647   5.256   3.748   6.487
 6250SOL     OW19648   5.345   5.607   6.421
 6250SOL    HW119649   5.317   5.541   6.490
 6250SOL    HW219650   5.278   5.609   6.347
 6251SOL     OW19651   4.325   2.094   1.030
 6251SOL    HW119652   4.245   2.112   1.087
 6251SOL    HW219653   4.347   2.175   0.976
 6252SOL     OW19654   2.315   6.244   5.259
 6252SOL    HW119655   2.384   6.231   5.330
 6252SOL    HW219656   2.360   6.241   5.169
 6253SOL     OW19657   1.728   3.588   1.034
 6253SOL    HW119658   1.701   3.545   1.120
 6253SOL    HW219659   1.649   3.596   0.973
 6254SOL     OW19660   5.366   0.676   0.466
 6254SOL    HW119661   5.429   0.600   0.451
 6254SOL    HW219662   5.272   0.645   0.457
 6255SOL     OW19663   0.591   1.255   2.515
 6255SOL    HW119664   0.606   1.257   2.614
 6255SOL    HW219665   0.585   1.349   2.481
 6256SOL     OW19666   2.984   4.893   3.088
 6256SOL    HW119667   2.922   4.816   3.107
 6256SOL    HW219668   2.941   4.978   3.119
 6257SOL     OW19669   4.965   2.658   6.304
 6257SOL    HW119670   5.003   2.705   6.225
 6257SOL    HW219671   4.865   2.655   6.297
 6258SOL     OW19672   5.215   1.768   2.742
 6258SOL    HW119673   5.217   1.795   2.646
 6258SOL    HW219674   5.144   1.820   2.789
 6259SOL     OW19675   3.066   2.569   1.676
 6259SOL    HW119676   3.023   2.531   1.758
 6259SOL    HW219677   3.025   2.529   1.595
 6260SOL     OW19678   3.734   3.432   0.064
 6260SOL    HW119679   3.719   3.348   0.012
 6260SOL    HW219680   3.722   3.413   0.162
 6261SOL     OW19681   4.036   0.665   0.300
 6261SOL    HW119682   3.970   0.589   0.295
 6261SOL    HW219683   4.116   0.641   0.246
 6262SOL     OW19684   0.244   5.322   5.731
 6262SOL    HW119685   0.299   5.244   5.759
 6262SOL    HW219686   0.260   5.399   5.793
 6263SOL     OW19687   6.026   0.652   0.994
 6263SOL    HW119688   5.963   0.694   0.928
 6263SOL    HW219689   6.097   0.718   1.018
 6264SOL     OW19690   2.349   1.487   0.112
 6264SOL    HW119691   2.295   1.427   0.172
 6264SOL    HW219692   2.436   1.443   0.091
 6265SOL     OW19693   3.744   3.003   0.986
 6265SOL    HW119694   3.667   2.977   1.044
 6265SOL    HW219695   3.769   2.926   0.927
 6266SOL     OW19696   2.490   0.031   2.804
 6266SOL    HW119697   2.391   0.040   2.793
 6266SOL    HW219698   2.514   6.958   2.811
 6267SOL     OW19699   2.365   6.911   6.516
 6267SOL    HW119700   2.427   6.950   6.447
 6267SOL    HW219701   2.339   6.819   6.488
 6268SOL     OW19702   3.037   4.837   2.831
 6268SOL    HW119703   2.948   4.795   2.816
 6268SOL    HW219704   3.051   4.850   2.930
 6269SOL     OW19705   6.002   4.652   0.762
 6269SOL    HW119706   6.035   4.745   0.744
 6269SOL    HW219707   6.075   4.586   0.742
 6270SOL     OW19708   0.621   1.178   4.559
 6270SOL    HW119709   0.660   1.243   4.495
 6270SOL    HW219710   0.686   1.158   4.632
 6271SOL     OW19711   5.831   1.322   1.368
 6271SOL    HW119712   5.777   1.240   1.347
 6271SOL    HW219713   5.842   1.330   1.467
 6272SOL     OW19714   1.813   2.094   3.506
 6272SOL    HW119715   1.908   2.064   3.496
 6272SOL    HW219716   1.753   2.031   3.455
 6273SOL     OW19717   3.560   0.923   1.482
 6273SOL    HW119718   3.589   0.865   1.406
 6273SOL    HW219719   3.633   0.928   1.550
 6274SOL     OW19720   4.016   6.525   6.428
 6274SOL    HW119721   3.965   6.600   6.386
 6274SOL    HW219722   3.992   6.439   6.384
 6275SOL     OW19723   2.688   0.994   4.466
 6275SOL    HW119724   2.738   1.031   4.388
 6275SOL    HW219725   2.631   0.917   4.437
 6276SOL     OW19726   1.255   5.330   4.155
 6276SOL    HW119727   1.216   5.256   4.100
 6276SOL    HW219728   1.355   5.326   4.150
 6277SOL     OW19729   5.234   3.317   3.032
 6277SOL    HW119730   5.309   3.379   3.054
 6277SOL    HW219731   5.265   3.250   2.965
 6278SOL     OW19732   5.289   0.515   4.116
 6278SOL    HW119733   5.282   0.604   4.070
 6278SOL    HW219734   5.342   0.525   4.201
 6279SOL     OW19735   4.742   1.528   0.039
 6279SOL    HW119736   4.747   1.436   7.023
 6279SOL    HW219737   4.720   1.594   6.991
 6280SOL     OW19738   0.543   4.597   5.773
 6280SOL    HW119739   0.514   4.503   5.756
 6280SOL    HW219740   0.632   4.597   5.820
 6281SOL     OW19741   2.701   0.071   5.491
 6281SOL    HW119742   2.741   0.153   5.531
 6281SOL    HW219743   2.633   0.097   5.423
 6282SOL     OW19744   1.913   6.959   3.636
 6282SOL    HW119745   1.834   6.941   3.578
 6282SOL    HW219746   1.882   6.979   3.729
 6283SOL     OW19747   0.044   2.401   5.189
 6283SOL    HW119748   0.093   2.362   5.267
 6283SOL    HW219749   0.103   2.397   5.108
 6284SOL     OW19750   2.035   4.532   5.967
 6284SOL    HW119751   2.052   4.576   6.055
 6284SOL    HW219752   2.078   4.584   5.893
 6285SOL     OW19753   1.766   4.082   2.470
 6285SOL    HW119754   1.786   4.172   2.509
 6285SOL    HW219755   1.838   4.017   2.497
 6286SOL     OW19756   5.742   0.496   4.236
 6286SOL    HW119757   5.684   0.577   4.224
 6286SOL    HW219758   5.684   0.416   4.251
 6287SOL     OW19759   4.765   4.265   1.984
 6287SOL    HW119760   4.669   4.267   1.956
 6287SOL    HW219761   4.795   4.171   1.996
 6288SOL     OW19762   4.884   3.653   1.197
 6288SOL    HW119763   4.941   3.638   1.278
 6288SOL    HW219764   4.835   3.569   1.175
 6289SOL     OW19765   1.525   0.863   2.892
 6289SOL    HW119766   1.497   0.864   2.988
 6289SOL    HW219767   1.555   0.954   2.865
 6290SOL     OW19768   5.592   3.757   3.026
 6290SOL    HW119769   5.557   3.808   2.946
 6290SOL    HW219770   5.544   3.787   3.108
 6291SOL     OW19771   3.789   4.064   3.075
 6291SOL    HW119772   3.844   4.010   3.139
 6291SOL    HW219773   3.694   4.033   3.078
 6292SOL     OW19774   1.038   2.216   1.814
 6292SOL    HW119775   0.944   2.247   1.830
 6292SOL    HW219776   1.050   2.196   1.717
 6293SOL     OW19777   4.897   6.322   0.436
 6293SOL    HW119778   4.836   6.245   0.454
 6293SOL    HW219779   4.936   6.354   0.523
 6294SOL     OW19780   4.299   5.205   2.332
 6294SOL    HW119781   4.372   5.199   2.264
 6294SOL    HW219782   4.299   5.295   2.374
 6295SOL     OW19783   5.968   6.894   6.081
 6295SOL    HW119784   5.985   6.839   6.164
 6295SOL    HW219785   5.892   6.854   6.030
 6296SOL     OW19786   6.317   1.486   2.483
 6296SOL    HW119787   6.317   1.511   2.580
 6296SOL    HW219788   6.397   1.431   2.462
 6297SOL     OW19789   5.328   0.230   5.858
 6297SOL    HW119790   5.408   0.289   5.866
 6297SOL    HW219791   5.246   0.280   5.886
 6298SOL     OW19792   1.370   1.744   4.528
 6298SOL    HW119793   1.366   1.655   4.573
 6298SOL    HW219794   1.283   1.792   4.540
 6299SOL     OW19795   6.502   2.790   6.987
 6299SOL    HW119796   6.405   2.815   6.993
 6299SOL    HW219797   6.554   2.843   0.030
 6300SOL     OW19798   5.086   0.716   3.955
 6300SOL    HW119799   5.024   0.794   3.962
 6300SOL    HW219800   5.038   0.640   3.911
 6301SOL     OW19801   3.051   0.124   0.967
 6301SOL    HW119802   3.125   0.125   1.034
 6301SOL    HW219803   3.090   0.118   0.875
 6302SOL     OW19804   0.519   0.806   3.380
 6302SOL    HW119805   0.441   0.843   3.431
 6302SOL    HW219806   0.600   0.862   3.398
 6303SOL     OW19807   2.477   6.194   5.469
 6303SOL    HW119808   2.572   6.168   5.453
 6303SOL    HW219809   2.431   6.122   5.521
 6304SOL     OW19810   3.246   1.083   6.218
 6304SOL    HW119811   3.243   1.009   6.285
 6304SOL    HW219812   3.153   1.103   6.187
 6305SOL     OW19813   5.632   1.125   1.445
 6305SOL    HW119814   5.600   1.208   1.490
 6305SOL    HW219815   5.705   1.084   1.500
 6306SOL     OW19816   5.743   2.899   4.186
 6306SOL    HW119817   5.669   2.846   4.144
 6306SOL    HW219818   5.781   2.962   4.118
 6307SOL     OW19819   2.651   4.936   0.842
 6307SOL    HW119820   2.654   4.982   0.931
 6307SOL    HW219821   2.727   4.967   0.785
 6308SOL     OW19822   3.083   2.171   5.338
 6308SOL    HW119823   2.995   2.218   5.325
 6308SOL    HW219824   3.156   2.225   5.296
 6309SOL     OW19825   5.769   1.890   4.716
 6309SOL    HW119826   5.706   1.870   4.641
 6309SOL    HW219827   5.863   1.877   4.685
 6310SOL     OW19828   1.440   4.561   4.891
 6310SOL    HW119829   1.407   4.483   4.944
 6310SOL    HW219830   1.400   4.645   4.928
 6311SOL     OW19831   6.135   6.712   4.847
 6311SOL    HW119832   6.225   6.726   4.807
 6311SOL    HW219833   6.105   6.796   4.893
 6312SOL     OW19834   4.725   4.679   6.151
 6312SOL    HW119835   4.770   4.621   6.083
 6312SOL    HW219836   4.745   4.775   6.131
 6313SOL     OW19837   2.910   5.233   3.275
 6313SOL    HW119838   3.007   5.231   3.253
 6313SOL    HW219839   2.856   5.212   3.192
 6314SOL     OW19840   3.451   6.145   3.817
 6314SOL    HW119841   3.426   6.158   3.912
 6314SOL    HW219842   3.405   6.214   3.760
 6315SOL     OW19843   2.561   3.742   0.638
 6315SOL    HW119844   2.621   3.663   0.655
 6315SOL    HW219845   2.521   3.734   0.547
 6316SOL     OW19846   5.384   1.347   6.233
 6316SOL    HW119847   5.313   1.293   6.188
 6316SOL    HW219848   5.357   1.444   6.234
 6317SOL     OW19849   6.580   5.694   3.905
 6317SOL    HW119850   6.525   5.730   3.830
 6317SOL    HW219851   6.530   5.620   3.951
 6318SOL     OW19852   2.784   1.981   4.409
 6318SOL    HW119853   2.797   1.895   4.460
 6318SOL    HW219854   2.803   2.058   4.470
 6319SOL     OW19855   0.886   1.478   2.903
 6319SOL    HW119856   0.967   1.478   2.845
 6319SOL    HW219857   0.911   1.447   2.995
 6320SOL     OW19858   6.940   2.707   3.283
 6320SOL    HW119859   6.861   2.676   3.336
 6320SOL    HW219860   7.021   2.655   3.309
 6321SOL     OW19861   1.878   3.544   0.116
 6321SOL    HW119862   1.789   3.571   0.078
 6321SOL    HW219863   1.878   3.446   0.135
 6322SOL     OW19864   0.914   1.130   6.957
 6322SOL    HW119865   0.859   1.047   6.951
 6322SOL    HW219866   0.855   1.209   6.972
 6323SOL     OW19867   3.709   1.755   1.240
 6323SOL    HW119868   3.793   1.750   1.185
 6323SOL    HW219869   3.692   1.667   1.284
 6324SOL     OW19870   4.137   1.497   6.363
 6324SOL    HW119871   4.115   1.401   6.383
 6324SOL    HW219872   4.053   1.550   6.356
 6325SOL     OW19873   1.686   2.724   1.893
 6325SOL    HW119874   1.670   2.646   1.832
 6325SOL    HW219875   1.716   2.691   1.982
 6326SOL     OW19876   5.173   5.835   1.087
 6326SOL    HW119877   5.114   5.764   1.126
 6326SOL    HW219878   5.208   5.893   1.161
 6327SOL     OW19879   4.785   5.268   6.045
 6327SOL    HW119880   4.758   5.355   6.003
 6327SOL    HW219881   4.797   5.199   5.974
 6328SOL     OW19882   2.943   3.991   6.359
 6328SOL    HW119883   3.000   4.062   6.320
 6328SOL    HW219884   2.853   4.028   6.381
 6329SOL     OW19885   1.224   1.848   3.377
 6329SOL    HW119886   1.289   1.777   3.404
 6329SOL    HW219887   1.207   1.843   3.279
 6330SOL     OW19888   3.161   1.371   0.327
 6330SOL    HW119889   3.148   1.393   0.424
 6330SOL    HW219890   3.228   1.433   0.287
 6331SOL     OW19891   5.808   3.138   1.896
 6331SOL    HW119892   5.803   3.238   1.889
 6331SOL    HW219893   5.838   3.100   1.808
 6332SOL     OW19894   5.718   6.117   2.298
 6332SOL    HW119895   5.656   6.187   2.263
 6332SOL    HW219896   5.672   6.028   2.298
 6333SOL     OW19897   2.170   5.072   3.307
 6333SOL    HW119898   2.174   4.988   3.361
 6333SOL    HW219899   2.182   5.051   3.210
 6334SOL     OW19900   2.461   1.530   2.601
 6334SOL    HW119901   2.462   1.466   2.678
 6334SOL    HW219902   2.417   1.487   2.522
 6335SOL     OW19903   6.927   1.338   0.342
 6335SOL    HW119904   6.861   1.312   0.413
 6335SOL    HW219905   7.011   1.284   0.354
 6336SOL     OW19906   0.484   2.787   5.279
 6336SOL    HW119907   0.569   2.838   5.261
 6336SOL    HW219908   0.409   2.827   5.226
 6337SOL     OW19909   6.655   4.707   4.971
 6337SOL    HW119910   6.563   4.670   4.958
 6337SOL    HW219911   6.711   4.642   5.022
 6338SOL     OW19912   3.979   1.064   3.883
 6338SOL    HW119913   4.038   1.041   3.960
 6338SOL    HW219914   4.035   1.072   3.800
 6339SOL     OW19915   6.827   2.022   4.831
 6339SOL    HW119916   6.900   2.090   4.830
 6339SOL    HW219917   6.854   1.945   4.889
 6340SOL     OW19918   1.702   5.180   4.265
 6340SOL    HW119919   1.738   5.094   4.300
 6340SOL    HW219920   1.717   5.252   4.332
 6341SOL     OW19921   6.541   4.336   2.761
 6341SOL    HW119922   6.558   4.370   2.853
 6341SOL    HW219923   6.614   4.365   2.700
 6342SOL     OW19924   1.668   2.936   1.089
 6342SOL    HW119925   1.682   3.035   1.094
 6342SOL    HW219926   1.603   2.915   1.016
 6343SOL     OW19927   3.667   1.083   0.545
 6343SOL    HW119928   3.702   1.022   0.474
 6343SOL    HW219929   3.613   1.156   0.503
 6344SOL     OW19930   0.343   4.322   4.329
 6344SOL    HW119931   0.264   4.266   4.356
 6344SOL    HW219932   0.367   4.301   4.234
 6345SOL     OW19933   2.805   2.278   2.311
 6345SOL    HW119934   2.832   2.333   2.232
 6345SOL    HW219935   2.795   2.183   2.283
 6346SOL     OW19936   1.217   5.031   3.995
 6346SOL    HW119937   1.131   5.009   3.948
 6346SOL    HW219938   1.222   4.980   4.081
 6347SOL     OW19939   3.438   0.480   1.577
 6347SOL    HW119940   3.383   0.442   1.652
 6347SOL    HW219941   3.533   0.489   1.608
 6348SOL     OW19942   1.341   2.680   4.469
 6348SOL    HW119943   1.429   2.712   4.434
 6348SOL    HW219944   1.279   2.664   4.393
 6349SOL     OW19945   2.224   0.061   0.324
 6349SOL    HW119946   2.173   0.029   0.245
 6349SOL    HW219947   2.165   0.060   0.405
 6350SOL     OW19948   1.063   6.456   2.514
 6350SOL    HW119949   1.019   6.370   2.540
 6350SOL    HW219950   1.124   6.441   2.436
 6351SOL     OW19951   0.155   1.623   2.917
 6351SOL    HW119952   0.207   1.622   3.003
 6351SOL    HW219953   0.178   1.541   2.864
 6352SOL     OW19954   6.642   6.594   2.416
 6352SOL    HW119955   6.608   6.573   2.324
 6352SOL    HW219956   6.727   6.545   2.431
 6353SOL     OW19957   0.185   6.790   2.587
 6353SOL    HW119958   0.204   6.694   2.608
 6353SOL    HW219959   0.260   6.846   2.622
 6354SOL     OW19960   0.355   6.490   3.583
 6354SOL    HW119961   0.420   6.428   3.626
 6354SOL    HW219962   0.272   6.495   3.638
 6355SOL     OW19963   1.787   2.184   2.826
 6355SOL    HW119964   1.773   2.126   2.906
 6355SOL    HW219965   1.720   2.258   2.826
 6356SOL     OW19966   3.046   3.320   0.984
 6356SOL    HW119967   3.023   3.224   1.001
 6356SOL    HW219968   3.140   3.327   0.953
 6357SOL     OW19969   4.793   1.978   0.422
 6357SOL    HW119970   4.816   2.006   0.515
 6357SOL    HW219971   4.873   1.990   0.363
 6358SOL     OW19972   0.378   2.235   3.972
 6358SOL    HW119973   0.305   2.287   4.017
 6358SOL    HW219974   0.444   2.297   3.931
 6359SOL     OW19975   6.991   0.874   6.736
 6359SOL    HW119976   7.015   0.804   6.669
 6359SOL    HW219977   6.934   0.834   6.807
 6360SOL     OW19978   3.288   6.044   4.358
 6360SOL    HW119979   3.205   6.098   4.373
 6360SOL    HW219980   3.268   5.972   4.292
 6361SOL     OW19981   4.215   6.354   5.710
 6361SOL    HW119982   4.121   6.320   5.708
 6361SOL    HW219983   4.214   6.451   5.734
 6362SOL     OW19984   6.173   5.246   6.261
 6362SOL    HW119985   6.214   5.159   6.232
 6362SOL    HW219986   6.227   5.322   6.225
 6363SOL     OW19987   0.628   6.200   4.075
 6363SOL    HW119988   0.664   6.210   3.982
 6363SOL    HW219989   0.578   6.114   4.084
 6364SOL     OW19990   1.830   2.945   6.283
 6364SOL    HW119991   1.757   2.895   6.237
 6364SOL    HW219992   1.817   2.941   6.382
 6365SOL     OW19993   5.085   5.810   2.574
 6365SOL    HW119994   5.004   5.752   2.574
 6365SOL    HW219995   5.161   5.761   2.618
 6366SOL     OW19996   0.137   4.637   6.001
 6366SOL    HW119997   0.220   4.682   5.966
 6366SOL    HW219998   0.163   4.552   6.047
 6367SOL     OW19999   6.074   6.087   2.771
 6367SOL    HW120000   6.042   6.121   2.859
 6367SOL    HW220001   6.001   6.035   2.727
 6368SOL     OW20002   2.831   0.295   4.084
 6368SOL    HW120003   2.759   0.233   4.053
 6368SOL    HW220004   2.904   0.242   4.128
 6369SOL     OW20005   2.263   5.191   4.991
 6369SOL    HW120006   2.168   5.161   4.987
 6369SOL    HW220007   2.274   5.258   5.065
 6370SOL     OW20008   6.285   2.726   2.121
 6370SOL    HW120009   6.259   2.819   2.094
 6370SOL    HW220010   6.313   2.727   2.217
 6371SOL     OW20011   5.129   1.961   3.235
 6371SOL    HW120012   5.173   2.033   3.289
 6371SOL    HW220013   5.033   1.984   3.220
 6372SOL     OW20014   2.598   6.246   2.447
 6372SOL    HW120015   2.556   6.244   2.357
 6372SOL    HW220016   2.667   6.174   2.454
 6373SOL     OW20017   3.658   4.374   0.129
 6373SOL    HW120018   3.745   4.423   0.117
 6373SOL    HW220019   3.677   4.281   0.160
 6374SOL     OW20020   3.195   3.362   2.496
 6374SOL    HW120021   3.280   3.404   2.465
 6374SOL    HW220022   3.136   3.344   2.417
 6375SOL     OW20023   1.800   6.331   2.619
 6375SOL    HW120024   1.743   6.259   2.658
 6375SOL    HW220025   1.850   6.295   2.539
 6376SOL     OW20026   0.453   2.652   5.933
 6376SOL    HW120027   0.450   2.595   5.850
 6376SOL    HW220028   0.518   2.613   5.998
 6377SOL     OW20029   0.525   0.929   4.418
 6377SOL    HW120030   0.490   1.015   4.455
 6377SOL    HW220031   0.592   0.948   4.347
 6378SOL     OW20032   4.540   4.625   3.677
 6378SOL    HW120033   4.465   4.606   3.613
 6378SOL    HW220034   4.623   4.578   3.646
 6379SOL     OW20035   2.482   4.583   3.234
 6379SOL    HW120036   2.446   4.561   3.143
 6379SOL    HW220037   2.491   4.682   3.243
 6380SOL     OW20038   0.721   0.569   5.876
 6380SOL    HW120039   0.732   0.645   5.812
 6380SOL    HW220040   0.775   0.490   5.846
 6381SOL     OW20041   3.175   3.667   2.376
 6381SOL    HW120042   3.231   3.749   2.392
 6381SOL    HW220043   3.081   3.695   2.357
 6382SOL     OW20044   1.144   4.164   4.935
 6382SOL    HW120045   1.143   4.148   4.837
 6382SOL    HW220046   1.224   4.122   4.976
 6383SOL     OW20047   3.862   1.283   4.006
 6383SOL    HW120048   3.882   1.206   3.945
 6383SOL    HW220049   3.947   1.318   4.045
 6384SOL     OW20050   6.190   4.457   3.170
 6384SOL    HW120051   6.132   4.389   3.125
 6384SOL    HW220052   6.194   4.437   3.268
 6385SOL     OW20053   0.611   6.044   4.839
 6385SOL    HW120054   0.582   5.962   4.889
 6385SOL    HW220055   0.648   6.018   4.750
 6386SOL     OW20056   2.800   5.837   1.645
 6386SOL    HW120057   2.702   5.851   1.629
 6386SOL    HW220058   2.812   5.769   1.718
 6387SOL     OW20059   6.338   1.550   4.972
 6387SOL    HW120060   6.306   1.634   4.929
 6387SOL    HW220061   6.425   1.566   5.017
 6388SOL     OW20062   2.160   4.454   3.053
 6388SOL    HW120063   2.239   4.506   3.021
 6388SOL    HW220064   2.125   4.496   3.137
 6389SOL     OW20065   1.103   4.834   2.320
 6389SOL    HW120066   1.032   4.765   2.307
 6389SOL    HW220067   1.168   4.801   2.389
 6390SOL     OW20068   0.381   3.653   4.128
 6390SOL    HW120069   0.346   3.746   4.115
 6390SOL    HW220070   0.328   3.590   4.071
 6391SOL     OW20071   3.391   1.185   6.915
 6391SOL    HW120072   3.438   1.111   6.866
 6391SOL    HW220073   3.296   1.159   6.930
 6392SOL     OW20074   1.267   6.199   3.966
 6392SOL    HW120075   1.186   6.140   3.963
 6392SOL    HW220076   1.346   6.150   3.930
 6393SOL     OW20077   5.435   0.852   0.650
 6393SOL    HW120078   5.352   0.905   0.669
 6393SOL    HW220079   5.416   0.786   0.578
 6394SOL     OW20080   3.173   4.860   1.556
 6394SOL    HW120081   3.203   4.777   1.603
 6394SOL    HW220082   3.221   4.868   1.469
 6395SOL     OW20083   5.704   1.170   0.988
 6395SOL    HW120084   5.612   1.186   0.951
 6395SOL    HW220085   5.761   1.250   0.970
 6396SOL     OW20086   5.590   3.849   5.335
 6396SOL    HW120087   5.683   3.820   5.356
 6396SOL    HW220088   5.592   3.913   5.258
 6397SOL     OW20089   6.967   0.685   0.510
 6397SOL    HW120090   6.920   0.768   0.539
 6397SOL    HW220091   0.015   0.709   0.444
 6398SOL     OW20092   3.756   1.252   1.562
 6398SOL    HW120093   3.850   1.218   1.562
 6398SOL    HW220094   3.744   1.318   1.636
 6399SOL     OW20095   2.707   5.653   0.087
 6399SOL    HW120096   2.705   5.747   0.122
 6399SOL    HW220097   2.781   5.644   0.020
 6400SOL     OW20098   2.641   5.360   4.071
 6400SOL    HW120099   2.558   5.341   4.123
 6400SOL    HW220100   2.690   5.436   4.113
 6401SOL     OW20101   1.147   4.657   4.444
 6401SOL    HW120102   1.204   4.575   4.434
 6401SOL    HW220103   1.051   4.632   4.430
 6402SOL     OW20104   1.796   2.252   3.254
 6402SOL    HW120105   1.795   2.278   3.351
 6402SOL    HW220106   1.741   2.169   3.241
 6403SOL     OW20107   0.306   5.859   1.366
 6403SOL    HW120108   0.319   5.919   1.287
 6403SOL    HW220109   0.218   5.812   1.358
 6404SOL     OW20110   4.896   1.004   3.121
 6404SOL    HW120111   4.850   1.087   3.090
 6404SOL    HW220112   4.843   0.962   3.195
 6405SOL     OW20113   2.831   1.550   2.120
 6405SOL    HW120114   2.913   1.576   2.171
 6405SOL    HW220115   2.820   1.611   2.041
 6406SOL     OW20116   2.512   1.918   3.625
 6406SOL    HW120117   2.547   1.825   3.637
 6406SOL    HW220118   2.512   1.964   3.714
 6407SOL     OW20119   4.345   5.243   6.396
 6407SOL    HW120120   4.281   5.185   6.345
 6407SOL    HW220121   4.298   5.281   6.476
 6408SOL     OW20122   6.220   1.818   0.376
 6408SOL    HW120123   6.227   1.719   0.383
 6408SOL    HW220124   6.131   1.842   0.337
 6409SOL     OW20125   0.889   4.655   2.246
 6409SOL    HW120126   0.838   4.724   2.195
 6409SOL    HW220127   0.825   4.594   2.293
 6410SOL     OW20128   1.096   1.504   1.867
 6410SOL    HW120129   1.104   1.516   1.768
 6410SOL    HW220130   1.083   1.592   1.911
 6411SOL     OW20131   1.982   0.535   3.362
 6411SOL    HW120132   2.034   0.453   3.383
 6411SOL    HW220133   1.957   0.582   3.446
 6412SOL     OW20134   0.222   2.027   4.873
 6412SOL    HW120135   0.176   2.115   4.861
 6412SOL    HW220136   0.168   1.955   4.829
 6413SOL     OW20137   0.253   4.434   0.601
 6413SOL    HW120138   0.270   4.523   0.644
 6413SOL    HW220139   0.307   4.364   0.647
 6414SOL     OW20140   6.650   6.883   2.394
 6414SOL    HW120141   6.603   6.799   2.421
 6414SOL    HW220142   6.662   6.942   2.474
 6415SOL     OW20143   1.445   1.721   1.916
 6415SOL    HW120144   1.453   1.697   2.013
 6415SOL    HW220145   1.455   1.638   1.861
 6416SOL     OW20146   1.863   6.828   6.607
 6416SOL    HW120147   1.943   6.864   6.558
 6416SOL    HW220148   1.868   6.728   6.611
 6417SOL     OW20149   0.721   6.724   3.110
 6417SOL    HW120150   0.715   6.678   3.022
 6417SOL    HW220151   0.816   6.752   3.127
 6418SOL     OW20152   6.893   6.001   2.648
 6418SOL    HW120153   6.986   6.022   2.616
 6418SOL    HW220154   6.847   6.086   2.673
 6419SOL     OW20155   2.712   4.874   1.376
 6419SOL    HW120156   2.796   4.906   1.418
 6419SOL    HW220157   2.649   4.843   1.447
 6420SOL     OW20158   0.732   3.465   0.033
 6420SOL    HW120159   0.671   3.509   6.991
 6420SOL    HW220160   0.800   3.531   0.066
 6421SOL     OW20161   5.844   1.998   1.006
 6421SOL    HW120162   5.764   1.993   1.065
 6421SOL    HW220163   5.875   1.906   0.983
 6422SOL     OW20164   6.057   1.798   3.753
 6422SOL    HW120165   6.154   1.784   3.772
 6422SOL    HW220166   6.036   1.761   3.662
 6423SOL     OW20167   5.094   4.152   1.021
 6423SOL    HW120168   5.005   4.195   1.005
 6423SOL    HW220169   5.128   4.114   0.935
 6424SOL     OW20170   6.704   5.385   5.140
 6424SOL    HW120171   6.748   5.469   5.110
 6424SOL    HW220172   6.732   5.309   5.080
 6425SOL     OW20173   0.122   4.658   1.186
 6425SOL    HW120174   0.123   4.574   1.131
 6425SOL    HW220175   0.215   4.689   1.201
 6426SOL     OW20176   6.601   2.907   3.404
 6426SOL    HW120177   6.664   2.903   3.482
 6426SOL    HW220178   6.584   3.003   3.381
 6427SOL     OW20179   1.271   3.141   5.838
 6427SOL    HW120180   1.236   3.070   5.899
 6427SOL    HW220181   1.223   3.137   5.751
 6428SOL     OW20182   6.506   2.907   2.710
 6428SOL    HW120183   6.570   2.910   2.633
 6428SOL    HW220184   6.493   2.812   2.739
 6429SOL     OW20185   0.861   0.788   4.302
 6429SOL    HW120186   0.952   0.748   4.306
 6429SOL    HW220187   0.807   0.742   4.231
 6430SOL     OW20188   6.005   3.604   0.430
 6430SOL    HW120189   6.093   3.652   0.433
 6430SOL    HW220190   5.990   3.556   0.516
 6431SOL     OW20191   5.282   0.863   3.268
 6431SOL    HW120192   5.377   0.851   3.239
 6431SOL    HW220193   5.221   0.827   3.197
 6432SOL     OW20194   6.065   3.375   0.274
 6432SOL    HW120195   5.995   3.307   0.293
 6432SOL    HW220196   6.036   3.464   0.309
 6433SOL     OW20197   2.629   3.858   1.573
 6433SOL    HW120198   2.713   3.874   1.522
 6433SOL    HW220199   2.574   3.941   1.572
 6434SOL     OW20200   1.904   5.610   0.179
 6434SOL    HW120201   1.826   5.576   0.231
 6434SOL    HW220202   1.940   5.537   0.121
 6435SOL     OW20203   4.617   4.101   0.560
 6435SOL    HW120204   4.689   4.032   0.553
 6435SOL    HW220205   4.608   4.129   0.656
 6436SOL     OW20206   1.474   2.944   2.662
 6436SOL    HW120207   1.533   2.895   2.599
 6436SOL    HW220208   1.379   2.936   2.633
 6437SOL     OW20209   0.670   0.609   0.022
 6437SOL    HW120210   0.707   0.586   6.956
 6437SOL    HW220211   0.570   0.616   0.015
 6438SOL     OW20212   0.957   3.635   3.263
 6438SOL    HW120213   0.997   3.640   3.172
 6438SOL    HW220214   0.910   3.547   3.275
 6439SOL     OW20215   6.929   6.899   2.068
 6439SOL    HW120216   6.833   6.870   2.060
 6439SOL    HW220217   6.955   6.904   2.164
 6440SOL     OW20218   0.590   0.920   2.467
 6440SOL    HW120219   0.529   0.996   2.443
 6440SOL    HW220220   0.554   0.874   2.548
 6441SOL     OW20221   3.567   1.262   3.502
 6441SOL    HW120222   3.626   1.284   3.580
 6441SOL    HW220223   3.565   1.340   3.439
 6442SOL     OW20224   3.236   0.432   3.753
 6442SOL    HW120225   3.185   0.505   3.799
 6442SOL    HW220226   3.333   0.443   3.771
 6443SOL     OW20227   2.450   1.204   0.413
 6443SOL    HW120228   2.493   1.116   0.431
 6443SOL    HW220229   2.521   1.275   0.411
 6444SOL     OW20230   0.775   0.755   3.626
 6444SOL    HW120231   0.722   0.670   3.631
 6444SOL    HW220232   0.843   0.756   3.699
 6445SOL     OW20233   3.716   3.445   5.574
 6445SOL    HW120234   3.805   3.426   5.531
 6445SOL    HW220235   3.689   3.367   5.630
 6446SOL     OW20236   6.159   1.664   0.853
 6446SOL    HW120237   6.084   1.658   0.787
 6446SOL    HW220238   6.245   1.679   0.805
 6447SOL     OW20239   1.788   0.358   2.986
 6447SOL    HW120240   1.800   0.356   2.887
 6447SOL    HW220241   1.757   0.449   3.014
 6448SOL     OW20242   6.110   2.429   2.460
 6448SOL    HW120243   6.194   2.377   2.450
 6448SOL    HW220244   6.069   2.446   2.370
 6449SOL     OW20245   3.378   3.188   1.141
 6449SOL    HW120246   3.334   3.235   1.065
 6449SOL    HW220247   3.309   3.141   1.196
 6450SOL     OW20248   7.001   3.589   0.075
 6450SOL    HW120249   6.904   3.608   0.059
 6450SOL    HW220250   7.013   3.556   0.169
 6451SOL     OW20251   1.920   6.738   4.408
 6451SOL    HW120252   1.969   6.816   4.448
 6451SOL    HW220253   1.830   6.730   4.450
 6452SOL     OW20254   4.422   6.219   3.245
 6452SOL    HW120255   4.331   6.233   3.285
 6452SOL    HW220256   4.462   6.308   3.223
 6453SOL     OW20257   2.107   4.319   6.286
 6453SOL    HW120258   2.185   4.354   6.234
 6453SOL    HW220259   2.023   4.363   6.252
 6454SOL     OW20260   3.199   1.480   4.371
 6454SOL    HW120261   3.282   1.505   4.422
 6454SOL    HW220262   3.133   1.555   4.375
 6455SOL     OW20263   6.883   2.788   5.325
 6455SOL    HW120264   6.792   2.828   5.333
 6455SOL    HW220265   6.923   2.777   5.416
 6456SOL     OW20266   6.872   0.909   4.304
 6456SOL    HW120267   6.797   0.866   4.255
 6456SOL    HW220268   6.879   0.869   4.396
 6457SOL     OW20269   6.345   3.173   2.097
 6457SOL    HW120270   6.429   3.203   2.052
 6457SOL    HW220271   6.364   3.157   2.194
 6458SOL     OW20272   1.646   5.596   2.560
 6458SOL    HW120273   1.654   5.627   2.655
 6458SOL    HW220274   1.724   5.629   2.508
 6459SOL     OW20275   4.912   4.618   0.457
 6459SOL    HW120276   4.916   4.521   0.433
 6459SOL    HW220277   4.831   4.635   0.513
 6460SOL     OW20278   3.331   5.121   6.995
 6460SOL    HW120279   3.397   5.159   0.036
 6460SOL    HW220280   3.369   5.125   6.903
 6461SOL     OW20281   3.638   5.482   4.778
 6461SOL    HW120282   3.712   5.482   4.710
 6461SOL    HW220283   3.610   5.577   4.795
 6462SOL     OW20284   1.896   3.160   3.753
 6462SOL    HW120285   1.992   3.146   3.727
 6462SOL    HW220286   1.867   3.086   3.813
 6463SOL     OW20287   1.472   4.429   5.235
 6463SOL    HW120288   1.386   4.399   5.194
 6463SOL    HW220289   1.490   4.376   5.318
 6464SOL     OW20290   0.798   5.468   2.373
 6464SOL    HW120291   0.700   5.488   2.366
 6464SOL    HW220292   0.817   5.433   2.465
 6465SOL     OW20293   6.435   0.669   2.573
 6465SOL    HW120294   6.534   0.666   2.561
 6465SOL    HW220295   6.391   0.607   2.509
 6466SOL     OW20296   0.534   2.324   5.540
 6466SOL    HW120297   0.581   2.249   5.495
 6466SOL    HW220298   0.472   2.369   5.475
 6467SOL     OW20299   2.458   1.094   6.339
 6467SOL    HW120300   2.512   1.014   6.314
 6467SOL    HW220301   2.377   1.065   6.391
 6468SOL     OW20302   4.963   4.483   1.059
 6468SOL    HW120303   5.013   4.556   1.105
 6468SOL    HW220304   4.880   4.461   1.110
 6469SOL     OW20305   6.801   1.229   5.802
 6469SOL    HW120306   6.757   1.251   5.714
 6469SOL    HW220307   6.871   1.297   5.822
 6470SOL     OW20308   6.536   6.185   5.472
 6470SOL    HW120309   6.574   6.133   5.548
 6470SOL    HW220310   6.513   6.278   5.503
 6471SOL     OW20311   5.661   5.328   6.274
 6471SOL    HW120312   5.599   5.256   6.304
 6471SOL    HW220313   5.632   5.415   6.312
 6472SOL     OW20314   1.026   5.646   0.836
 6472SOL    HW120315   1.120   5.659   0.804
 6472SOL    HW220316   0.987   5.734   0.862
 6473SOL     OW20317   2.326   1.404   5.465
 6473SOL    HW120318   2.425   1.409   5.448
 6473SOL    HW220319   2.301   1.470   5.535
 6474SOL     OW20320   2.502   3.477   5.331
 6474SOL    HW120321   2.513   3.558   5.388
 6474SOL    HW220322   2.406   3.467   5.305
 6475SOL     OW20323   4.268   6.562   3.973
 6475SOL    HW120324   4.336   6.634   3.961
 6475SOL    HW220325   4.255   6.543   4.070
 6476SOL     OW20326   4.979   4.798   2.690
 6476SOL    HW120327   4.979   4.843   2.779
 6476SOL    HW220328   5.074   4.784   2.660
 6477SOL     OW20329   0.322   6.094   6.515
 6477SOL    HW120330   0.370   6.173   6.555
 6477SOL    HW220331   0.295   6.031   6.587
 6478SOL     OW20332   4.974   6.424   0.658
 6478SOL    HW120333   4.995   6.521   0.647
 6478SOL    HW220334   5.021   6.389   0.739
 6479SOL     OW20335   4.198   5.855   2.682
 6479SOL    HW120336   4.117   5.870   2.740
 6479SOL    HW220337   4.278   5.897   2.726
 6480SOL     OW20338   2.887   1.795   0.340
 6480SOL    HW120339   2.863   1.805   0.243
 6480SOL    HW220340   2.978   1.754   0.347
 6481SOL     OW20341   4.567   0.946   1.060
 6481SOL    HW120342   4.586   0.925   0.964
 6481SOL    HW220343   4.471   0.929   1.079
 6482SOL     OW20344   0.306   0.857   0.099
 6482SOL    HW120345   0.215   0.856   0.058
 6482SOL    HW220346   0.340   0.764   0.107
 6483SOL     OW20347   2.154   6.189   2.303
 6483SOL    HW120348   2.205   6.219   2.223
 6483SOL    HW220349   2.216   6.177   2.380
 6484SOL     OW20350   5.536   5.902   3.506
 6484SOL    HW120351   5.560   5.940   3.596
 6484SOL    HW220352   5.614   5.912   3.444
 6485SOL     OW20353   0.880   2.666   3.206
 6485SOL    HW120354   0.899   2.759   3.238
 6485SOL    HW220355   0.884   2.603   3.284
 6486SOL     OW20356   1.704   2.891   3.243
 6486SOL    HW120357   1.660   2.899   3.153
 6486SOL    HW220358   1.634   2.888   3.314
 6487SOL     OW20359   5.985   6.064   3.506
 6487SOL    HW120360   6.014   5.970   3.525
 6487SOL    HW220361   6.017   6.123   3.581
 6488SOL     OW20362   3.534   4.992   6.346
 6488SOL    HW120363   3.459   4.986   6.279
 6488SOL    HW220364   3.611   5.042   6.305
 6489SOL     OW20365   2.117   2.274   5.573
 6489SOL    HW120366   2.066   2.359   5.561
 6489SOL    HW220367   2.122   2.252   5.671
 6490SOL     OW20368   3.581   1.265   0.314
 6490SOL    HW120369   3.567   1.262   0.215
 6490SOL    HW220370   3.494   1.249   0.360
 6491SOL     OW20371   3.399   1.501   6.320
 6491SOL    HW120372   3.382   1.427   6.255
 6491SOL    HW220373   3.315   1.523   6.370
 6492SOL     OW20374   6.063   5.543   6.834
 6492SOL    HW120375   5.995   5.610   6.865
 6492SOL    HW220376   6.097   5.569   6.744
 6493SOL     OW20377   1.000   6.504   5.746
 6493SOL    HW120378   1.079   6.530   5.801
 6493SOL    HW220379   0.960   6.419   5.782
 6494SOL     OW20380   1.439   6.810   3.464
 6494SOL    HW120381   1.494   6.875   3.517
 6494SOL    HW220382   1.473   6.717   3.478
 6495SOL     OW20383   5.293   5.026   2.408
 6495SOL    HW120384   5.373   5.080   2.433
 6495SOL    HW220385   5.214   5.087   2.394
 6496SOL     OW20386   2.156   6.693   3.219
 6496SOL    HW120387   2.066   6.725   3.249
 6496SOL    HW220388   2.227   6.736   3.274
 6497SOL     OW20389   0.376   5.052   0.005
 6497SOL    HW120390   0.365   5.151   7.015
 6497SOL    HW220391   0.291   5.006   7.002
 6498SOL     OW20392   1.570   4.334   3.764
 6498SOL    HW120393   1.553   4.408   3.829
 6498SOL    HW220394   1.594   4.251   3.813
 6499SOL     OW20395   5.931   1.072   3.672
 6499SOL    HW120396   5.912   1.054   3.575
 6499SOL    HW220397   5.879   1.009   3.729
 6500SOL     OW20398   5.582   4.672   3.577
 6500SOL    HW120399   5.557   4.743   3.511
 6500SOL    HW220400   5.581   4.583   3.532
 6501SOL     OW20401   6.994   3.873   1.023
 6501SOL    HW120402   0.033   3.797   1.035
 6501SOL    HW220403   6.921   3.846   0.959
 6502SOL     OW20404   1.534   4.884   2.343
 6502SOL    HW120405   1.505   4.977   2.322
 6502SOL    HW220406   1.485   4.820   2.284
 6503SOL     OW20407   4.190   0.359   4.401
 6503SOL    HW120408   4.217   0.299   4.326
 6503SOL    HW220409   4.133   0.433   4.365
 6504SOL     OW20410   2.421   1.137   0.881
 6504SOL    HW120411   2.467   1.158   0.967
 6504SOL    HW220412   2.329   1.101   0.900
 6505SOL     OW20413   5.532   5.167   1.164
 6505SOL    HW120414   5.575   5.164   1.074
 6505SOL    HW220415   5.564   5.090   1.219
 6506SOL     OW20416   1.789   2.304   0.785
 6506SOL    HW120417   1.871   2.282   0.732
 6506SOL    HW220418   1.779   2.403   0.791
 6507SOL     OW20419   2.656   0.689   2.158
 6507SOL    HW120420   2.680   0.786   2.156
 6507SOL    HW220421   2.626   0.664   2.251
 6508SOL     OW20422   2.078   1.688   2.464
 6508SOL    HW120423   2.103   1.729   2.552
 6508SOL    HW220424   2.121   1.738   2.390
 6509SOL     OW20425   0.752   2.752   4.746
 6509SOL    HW120426   0.713   2.750   4.654
 6509SOL    HW220427   0.782   2.845   4.768
 6510SOL     OW20428   5.470   5.152   6.392
 6510SOL    HW120429   5.521   5.093   6.329
 6510SOL    HW220430   5.468   5.110   6.483
 6511SOL     OW20431   6.201   6.116   5.482
 6511SOL    HW120432   6.273   6.046   5.477
 6511SOL    HW220433   6.168   6.124   5.576
 6512SOL     OW20434   5.237   6.624   3.596
 6512SOL    HW120435   5.328   6.600   3.630
 6512SOL    HW220436   5.247   6.678   3.512
 6513SOL     OW20437   2.954   6.902   2.889
 6513SOL    HW120438   3.029   6.849   2.851
 6513SOL    HW220439   2.898   6.939   2.815
 6514SOL     OW20440   3.527   6.826   3.444
 6514SOL    HW120441   3.507   6.813   3.346
 6514SOL    HW220442   3.626   6.838   3.456
 6515SOL     OW20443   1.275   1.076   4.481
 6515SOL    HW120444   1.372   1.050   4.480
 6515SOL    HW220445   1.261   1.151   4.546
 6516SOL     OW20446   1.471   1.406   5.530
 6516SOL    HW120447   1.509   1.356   5.608
 6516SOL    HW220448   1.441   1.340   5.460
 6517SOL     OW20449   1.558   2.102   6.887
 6517SOL    HW120450   1.506   2.028   6.843
 6517SOL    HW220451   1.620   2.144   6.820
 6518SOL     OW20452   6.039   6.202   0.444
 6518SOL    HW120453   6.070   6.260   0.370
 6518SOL    HW220454   6.065   6.242   0.532
 6519SOL     OW20455   2.098   2.033   3.487
 6519SOL    HW120456   2.126   2.055   3.581
 6519SOL    HW220457   2.132   2.103   3.425
 6520SOL     OW20458   5.382   5.128   1.919
 6520SOL    HW120459   5.389   5.031   1.941
 6520SOL    HW220460   5.288   5.159   1.937
 6521SOL     OW20461   1.235   1.491   5.575
 6521SOL    HW120462   1.190   1.574   5.543
 6521SOL    HW220463   1.325   1.482   5.533
 6522SOL     OW20464   2.441   5.158   5.447
 6522SOL    HW120465   2.440   5.255   5.425
 6522SOL    HW220466   2.534   5.123   5.438
 6523SOL     OW20467   1.719   2.354   6.635
 6523SOL    HW120468   1.800   2.376   6.581
 6523SOL    HW220469   1.730   2.264   6.678
 6524SOL     OW20470   3.339   4.052   4.149
 6524SOL    HW120471   3.252   4.062   4.198
 6524SOL    HW220472   3.392   3.978   4.190
 6525SOL     OW20473   0.632   2.679   4.468
 6525SOL    HW120474   0.639   2.647   4.374
 6525SOL    HW220475   0.570   2.758   4.473
 6526SOL     OW20476   1.963   5.793   4.525
 6526SOL    HW120477   1.984   5.702   4.491
 6526SOL    HW220478   1.970   5.860   4.451
 6527SOL     OW20479   2.247   1.202   4.270
 6527SOL    HW120480   2.185   1.185   4.194
 6527SOL    HW220481   2.285   1.115   4.302
 6528SOL     OW20482   6.687   6.779   3.204
 6528SOL    HW120483   6.702   6.761   3.302
 6528SOL    HW220484   6.697   6.877   3.187
 6529SOL     OW20485   6.549   2.457   1.813
 6529SOL    HW120486   6.648   2.468   1.813
 6529SOL    HW220487   6.519   2.413   1.729
 6530SOL     OW20488   6.851   2.246   0.872
 6530SOL    HW120489   6.912   2.287   0.805
 6530SOL    HW220490   6.903   2.217   0.952
 6531SOL     OW20491   5.253   2.557   4.202
 6531SOL    HW120492   5.296   2.558   4.111
 6531SOL    HW220493   5.315   2.599   4.268
 6532SOL     OW20494   0.494   2.009   6.513
 6532SOL    HW120495   0.419   1.996   6.449
 6532SOL    HW220496   0.573   1.955   6.483
 6533SOL     OW20497   4.794   1.412   0.744
 6533SOL    HW120498   4.856   1.444   0.671
 6533SOL    HW220499   4.848   1.387   0.824
 6534SOL     OW20500   1.939   3.608   0.511
 6534SOL    HW120501   1.936   3.676   0.438
 6534SOL    HW220502   1.985   3.647   0.591
 6535SOL     OW20503   2.046   3.580   5.841
 6535SOL    HW120504   2.019   3.659   5.787
 6535SOL    HW220505   2.080   3.508   5.780
 6536SOL     OW20506   6.991   2.268   0.177
 6536SOL    HW120507   6.895   2.241   0.176
 6536SOL    HW220508   7.000   2.355   0.225
 6537SOL     OW20509   0.462   6.834   7.000
 6537SOL    HW120510   0.516   6.918   6.995
 6537SOL    HW220511   0.395   6.832   6.926
 6538SOL     OW20512   1.838   3.411   6.130
 6538SOL    HW120513   1.786   3.405   6.045
 6538SOL    HW220514   1.779   3.388   6.208
 6539SOL     OW20515   2.419   1.795   6.589
 6539SOL    HW120516   2.356   1.741   6.536
 6539SOL    HW220517   2.476   1.851   6.528
 6540SOL     OW20518   3.447   1.193   4.081
 6540SOL    HW120519   3.367   1.230   4.034
 6540SOL    HW220520   3.491   1.124   4.022
 6541SOL     OW20521   2.691   2.636   5.312
 6541SOL    HW120522   2.779   2.668   5.348
 6541SOL    HW220523   2.631   2.612   5.388
 6542SOL     OW20524   5.617   4.462   3.415
 6542SOL    HW120525   5.693   4.495   3.360
 6542SOL    HW220526   5.581   4.377   3.375
 6543SOL     OW20527   0.092   5.664   6.861
 6543SOL    HW120528   0.043   5.635   6.943
 6543SOL    HW220529   0.083   5.763   6.850
 6544SOL     OW20530   6.509   6.116   3.972
 6544SOL    HW120531   6.429   6.122   3.912
 6544SOL    HW220532   6.543   6.208   3.991
 6545SOL     OW20533   5.282   2.599   5.701
 6545SOL    HW120534   5.254   2.695   5.707
 6545SOL    HW220535   5.368   2.593   5.651
 6546SOL     OW20536   3.209   4.561   5.809
 6546SOL    HW120537   3.199   4.497   5.733
 6546SOL    HW220538   3.147   4.536   5.883
 6547SOL     OW20539   4.855   1.536   6.541
 6547SOL    HW120540   4.905   1.549   6.455
 6547SOL    HW220541   4.813   1.622   6.568
 6548SOL     OW20542   6.246   4.831   4.932
 6548SOL    HW120543   6.169   4.890   4.955
 6548SOL    HW220544   6.321   4.848   4.997
 6549SOL     OW20545   3.204   1.362   1.377
 6549SOL    HW120546   3.218   1.404   1.467
 6549SOL    HW220547   3.145   1.421   1.322
 6550SOL     OW20548   0.483   5.496   3.262
 6550SOL    HW120549   0.476   5.403   3.296
 6550SOL    HW220550   0.541   5.550   3.323
 6551SOL     OW20551   2.235   4.903   2.190
 6551SOL    HW120552   2.151   4.866   2.151
 6551SOL    HW220553   2.256   4.991   2.147
 6552SOL     OW20554   4.161   4.820   6.431
 6552SOL    HW120555   4.216   4.741   6.401
 6552SOL    HW220556   4.155   4.820   6.531
 6553SOL     OW20557   0.250   2.843   2.669
 6553SOL    HW120558   0.347   2.865   2.664
 6553SOL    HW220559   0.220   2.845   2.765
 6554SOL     OW20560   0.375   3.084   5.117
 6554SOL    HW120561   0.420   3.140   5.186
 6554SOL    HW220562   0.300   3.033   5.159
 6555SOL     OW20563   0.588   1.518   2.173
 6555SOL    HW120564   0.497   1.546   2.205
 6555SOL    HW220565   0.599   1.420   2.186
 6556SOL     OW20566   3.251   0.309   4.486
 6556SOL    HW120567   3.317   0.290   4.559
 6556SOL    HW220568   3.285   0.270   4.400
 6557SOL     OW20569   6.158   6.272   1.437
 6557SOL    HW120570   6.070   6.319   1.438
 6557SOL    HW220571   6.144   6.179   1.403
 6558SOL     OW20572   6.451   5.383   6.412
 6558SOL    HW120573   6.357   5.372   6.445
 6558SOL    HW220574   6.514   5.378   6.489
 6559SOL     OW20575   3.300   3.265   0.885
 6559SOL    HW120576   3.317   3.171   0.855
 6559SOL    HW220577   3.295   3.324   0.805
 6560SOL     OW20578   3.985   2.236   0.353
 6560SOL    HW120579   3.934   2.286   0.283
 6560SOL    HW220580   3.929   2.162   0.388
 6561SOL     OW20581   3.764   3.960   4.220
 6561SOL    HW120582   3.749   4.042   4.276
 6561SOL    HW220583   3.675   3.924   4.189
 6562SOL     OW20584   5.803   3.545   5.379
 6562SOL    HW120585   5.819   3.641   5.355
 6562SOL    HW220586   5.770   3.496   5.298
 6563SOL     OW20587   1.783   4.836   2.443
 6563SOL    HW120588   1.687   4.856   2.425
 6563SOL    HW220589   1.832   4.921   2.461
 6564SOL     OW20590   1.397   5.841   2.610
 6564SOL    HW120591   1.330   5.895   2.560
 6564SOL    HW220592   1.478   5.826   2.553
 6565SOL     OW20593   6.320   3.281   5.150
 6565SOL    HW120594   6.333   3.252   5.055
 6565SOL    HW220595   6.297   3.378   5.152
 6566SOL     OW20596   3.845   6.930   0.878
 6566SOL    HW120597   3.773   6.863   0.896
 6566SOL    HW220598   3.805   7.012   0.836
 6567SOL     OW20599   6.144   2.928   1.481
 6567SOL    HW120600   6.110   2.874   1.558
 6567SOL    HW220601   6.240   2.951   1.496
 6568SOL     OW20602   3.979   4.306   1.689
 6568SOL    HW120603   3.974   4.297   1.589
 6568SOL    HW220604   4.040   4.236   1.726
 6569SOL     OW20605   0.934   4.587   6.596
 6569SOL    HW120606   0.867   4.513   6.588
 6569SOL    HW220607   0.918   4.636   6.682
 6570SOL     OW20608   6.153   2.939   1.050
 6570SOL    HW120609   6.179   3.019   0.997
 6570SOL    HW220610   6.060   2.912   1.027
 6571SOL     OW20611   3.002   6.132   3.970
 6571SOL    HW120612   2.993   6.105   3.874
 6571SOL    HW220613   3.051   6.219   3.976
 6572SOL     OW20614   1.072   3.440   6.803
 6572SOL    HW120615   1.064   3.377   6.880
 6572SOL    HW220616   1.152   3.415   6.748
 6573SOL     OW20617   1.827   1.981   2.253
 6573SOL    HW120618   1.904   2.035   2.219
 6573SOL    HW220619   1.795   1.919   2.182
 6574SOL     OW20620   2.177   4.581   3.321
 6574SOL    HW120621   2.268   4.539   3.323
 6574SOL    HW220622   2.186   4.678   3.297
 6575SOL     OW20623   1.251   1.151   2.768
 6575SOL    HW120624   1.347   1.177   2.757
 6575SOL    HW220625   1.203   1.161   2.681
 6576SOL     OW20626   1.244   6.249   4.957
 6576SOL    HW120627   1.246   6.192   5.039
 6576SOL    HW220628   1.293   6.203   4.883
 6577SOL     OW20629   6.465   2.492   4.566
 6577SOL    HW120630   6.479   2.538   4.654
 6577SOL    HW220631   6.386   2.532   4.520
 6578SOL     OW20632   6.800   5.339   3.021
 6578SOL    HW120633   6.753   5.427   3.028
 6578SOL    HW220634   6.743   5.268   3.061
 6579SOL     OW20635   0.695   3.682   2.475
 6579SOL    HW120636   0.752   3.635   2.408
 6579SOL    HW220637   0.740   3.681   2.565
 6580SOL     OW20638   6.153   2.425   1.529
 6580SOL    HW120639   6.149   2.523   1.507
 6580SOL    HW220640   6.078   2.378   1.483
 6581SOL     OW20641   2.589   2.064   5.457
 6581SOL    HW120642   2.493   2.045   5.436
 6581SOL    HW220643   2.610   2.032   5.550
 6582SOL     OW20644   0.330   0.221   3.089
 6582SOL    HW120645   0.234   0.199   3.103
 6582SOL    HW220646   0.344   0.319   3.099
 6583SOL     OW20647   5.148   1.758   5.160
 6583SOL    HW120648   5.219   1.700   5.121
 6583SOL    HW220649   5.072   1.702   5.192
 6584SOL     OW20650   5.388   1.936   6.666
 6584SOL    HW120651   5.354   1.956   6.758
 6584SOL    HW220652   5.434   1.848   6.667
 6585SOL     OW20653   2.039   0.795   0.577
 6585SOL    HW120654   2.001   0.886   0.593
 6585SOL    HW220655   2.019   0.737   0.656
 6586SOL     OW20656   0.178   2.259   7.005
 6586SOL    HW120657   0.227   2.203   0.048
 6586SOL    HW220658   0.086   2.280   0.016
 6587SOL     OW20659   2.315   6.658   2.561
 6587SOL    HW120660   2.276   6.742   2.524
 6587SOL    HW220661   2.279   6.579   2.511
 6588SOL     OW20662   2.274   2.818   6.828
 6588SOL    HW120663   2.343   2.852   6.764
 6588SOL    HW220664   2.202   2.771   6.778
 6589SOL     OW20665   5.001   1.728   5.466
 6589SOL    HW120666   4.937   1.708   5.392
 6589SOL    HW220667   4.951   1.754   5.549
 6590SOL     OW20668   6.488   1.393   5.315
 6590SOL    HW120669   6.556   1.438   5.373
 6590SOL    HW220670   6.396   1.410   5.352
 6591SOL     OW20671   5.749   1.036   2.317
 6591SOL    HW120672   5.826   0.997   2.367
 6591SOL    HW220673   5.757   1.135   2.315
 6592SOL     OW20674   5.043   5.504   4.750
 6592SOL    HW120675   5.126   5.524   4.802
 6592SOL    HW220676   5.041   5.559   4.667
 6593SOL     OW20677   4.192   0.900   2.754
 6593SOL    HW120678   4.215   0.984   2.803
 6593SOL    HW220679   4.272   0.867   2.704
 6594SOL     OW20680   5.642   0.907   6.327
 6594SOL    HW120681   5.680   0.880   6.238
 6594SOL    HW220682   5.629   0.826   6.384
 6595SOL     OW20683   1.341   3.670   0.656
 6595SOL    HW120684   1.356   3.765   0.629
 6595SOL    HW220685   1.350   3.661   0.755
 6596SOL     OW20686   3.698   6.644   5.244
 6596SOL    HW120687   3.768   6.576   5.266
 6596SOL    HW220688   3.649   6.616   5.161
 6597SOL     OW20689   6.927   4.569   5.864
 6597SOL    HW120690   6.911   4.608   5.773
 6597SOL    HW220691   7.020   4.592   5.894
 6598SOL     OW20692   2.054   5.676   5.554
 6598SOL    HW120693   2.139   5.669   5.606
 6598SOL    HW220694   2.068   5.734   5.474
 6599SOL     OW20695   4.532   3.671   6.126
 6599SOL    HW120696   4.527   3.684   6.226
 6599SOL    HW220697   4.627   3.658   6.099
 6600SOL     OW20698   4.345   5.928   4.268
 6600SOL    HW120699   4.380   5.948   4.177
 6600SOL    HW220700   4.254   5.887   4.261
 6601SOL     OW20701   1.237   0.391   1.331
 6601SOL    HW120702   1.144   0.401   1.296
 6601SOL    HW220703   1.246   0.443   1.416
 6602SOL     OW20704   6.609   1.649   1.534
 6602SOL    HW120705   6.596   1.576   1.601
 6602SOL    HW220706   6.528   1.657   1.476
 6603SOL     OW20707   2.225   2.611   2.787
 6603SOL    HW120708   2.190   2.619   2.881
 6603SOL    HW220709   2.324   2.615   2.788
 6604SOL     OW20710   3.673   5.821   3.224
 6604SOL    HW120711   3.765   5.861   3.228
 6604SOL    HW220712   3.629   5.832   3.313
 6605SOL     OW20713   5.891   6.610   6.932
 6605SOL    HW120714   5.866   6.548   7.007
 6605SOL    HW220715   5.972   6.574   6.886
 6606SOL     OW20716   6.043   1.326   2.742
 6606SOL    HW120717   6.108   1.316   2.817
 6606SOL    HW220718   6.093   1.324   2.655
 6607SOL     OW20719   1.528   2.133   3.551
 6607SOL    HW120720   1.480   2.169   3.630
 6607SOL    HW220721   1.622   2.168   3.550
 6608SOL     OW20722   5.584   3.639   4.741
 6608SOL    HW120723   5.600   3.637   4.642
 6608SOL    HW220724   5.570   3.546   4.775
 6609SOL     OW20725   5.516   1.664   6.633
 6609SOL    HW120726   5.612   1.659   6.607
 6609SOL    HW220727   5.460   1.685   6.552
 6610SOL     OW20728   2.804   1.094   0.404
 6610SOL    HW120729   2.760   1.079   0.316
 6610SOL    HW220730   2.785   1.187   0.435
 6611SOL     OW20731   5.586   3.224   2.915
 6611SOL    HW120732   5.641   3.143   2.937
 6611SOL    HW220733   5.496   3.196   2.883
 6612SOL     OW20734   1.298   6.076   6.272
 6612SOL    HW120735   1.278   6.087   6.370
 6612SOL    HW220736   1.395   6.051   6.262
 6613SOL     OW20737   4.850   5.303   1.401
 6613SOL    HW120738   4.824   5.394   1.432
 6613SOL    HW220739   4.939   5.279   1.439
 6614SOL     OW20740   5.463   6.045   6.077
 6614SOL    HW120741   5.505   6.045   6.168
 6614SOL    HW220742   5.461   6.138   6.041
 6615SOL     OW20743   1.099   4.542   5.526
 6615SOL    HW120744   1.105   4.592   5.439
 6615SOL    HW220745   1.135   4.449   5.513
 6616SOL     OW20746   4.895   0.422   4.530
 6616SOL    HW120747   4.890   0.482   4.450
 6616SOL    HW220748   4.958   0.460   4.597
 6617SOL     OW20749   4.899   0.101   5.042
 6617SOL    HW120750   4.952   0.129   5.122
 6617SOL    HW220751   4.895   0.177   4.977
 6618SOL     OW20752   1.069   4.654   1.514
 6618SOL    HW120753   1.024   4.744   1.511
 6618SOL    HW220754   1.057   4.614   1.605
 6619SOL     OW20755   6.406   6.352   2.147
 6619SOL    HW120756   6.432   6.332   2.053
 6619SOL    HW220757   6.316   6.396   2.148
 6620SOL     OW20758   3.583   3.010   5.712
 6620SOL    HW120759   3.675   3.048   5.719
 6620SOL    HW220760   3.525   3.051   5.782
 6621SOL     OW20761   2.866   3.974   0.089
 6621SOL    HW120762   2.798   4.043   0.066
 6621SOL    HW220763   2.924   3.957   0.010
 6622SOL     OW20764   5.919   6.821   0.248
 6622SOL    HW120765   5.898   6.753   0.318
 6622SOL    HW220766   5.880   6.909   0.274
 6623SOL     OW20767   3.626   3.869   2.518
 6623SOL    HW120768   3.708   3.910   2.478
 6623SOL    HW220769   3.586   3.932   2.585
 6624SOL     OW20770   4.325   5.052   4.126
 6624SOL    HW120771   4.306   5.119   4.054
 6624SOL    HW220772   4.371   5.098   4.202
 6625SOL     OW20773   5.688   0.563   0.118
 6625SOL    HW120774   5.620   0.513   0.064
 6625SOL    HW220775   5.670   0.662   0.111
 6626SOL     OW20776   3.483   5.161   3.327
 6626SOL    HW120777   3.558   5.190   3.387
 6626SOL    HW220778   3.488   5.063   3.312
 6627SOL     OW20779   2.211   6.280   1.728
 6627SOL    HW120780   2.202   6.182   1.747
 6627SOL    HW220781   2.307   6.301   1.710
 6628SOL     OW20782   4.327   5.935   3.178
 6628SOL    HW120783   4.243   5.962   3.131
 6628SOL    HW220784   4.401   5.999   3.156
 6629SOL     OW20785   3.200   4.351   0.281
 6629SOL    HW120786   3.150   4.322   0.363
 6629SOL    HW220787   3.254   4.274   0.246
 6630SOL     OW20788   2.896   2.396   5.678
 6630SOL    HW120789   2.901   2.297   5.692
 6630SOL    HW220790   2.988   2.433   5.664
 6631SOL     OW20791   3.732   0.820   2.325
 6631SOL    HW120792   3.721   0.830   2.226
 6631SOL    HW220793   3.644   0.835   2.370
 6632SOL     OW20794   6.808   2.458   2.415
 6632SOL    HW120795   6.849   2.367   2.428
 6632SOL    HW220796   6.835   2.517   2.491
 6633SOL     OW20797   0.270   6.746   1.087
 6633SOL    HW120798   0.250   6.782   1.178
 6633SOL    HW220799   0.350   6.686   1.092
 6634SOL     OW20800   0.155   3.154   6.279
 6634SOL    HW120801   0.101   3.072   6.297
 6634SOL    HW220802   0.252   3.135   6.299
 6635SOL     OW20803   4.153   4.721   3.298
 6635SOL    HW120804   4.086   4.674   3.240
 6635SOL    HW220805   4.107   4.789   3.355
 6636SOL     OW20806   1.407   2.798   4.166
 6636SOL    HW120807   1.485   2.741   4.192
 6636SOL    HW220808   1.364   2.761   4.084
 6637SOL     OW20809   6.913   1.009   1.587
 6637SOL    HW120810   6.863   0.938   1.637
 6637SOL    HW220811   6.897   0.998   1.489
 6638SOL     OW20812   2.378   6.330   6.313
 6638SOL    HW120813   2.318   6.288   6.381
 6638SOL    HW220814   2.325   6.395   6.257
 6639SOL     OW20815   5.757   5.640   6.830
 6639SOL    HW120816   5.689   5.712   6.817
 6639SOL    HW220817   5.777   5.630   6.928
 6640SOL     OW20818   6.089   3.024   3.531
 6640SOL    HW120819   6.078   2.931   3.495
 6640SOL    HW220820   6.186   3.040   3.553
 6641SOL     OW20821   2.069   4.242   6.842
 6641SOL    HW120822   2.048   4.301   6.920
 6641SOL    HW220823   2.117   4.161   6.874
 6642SOL     OW20824   0.054   6.729   0.333
 6642SOL    HW120825   0.153   6.741   0.329
 6642SOL    HW220826   0.033   6.633   0.348
 6643SOL     OW20827   4.569   5.580   0.099
 6643SOL    HW120828   4.588   5.669   0.056
 6643SOL    HW220829   4.491   5.537   0.054
 6644SOL     OW20830   2.565   4.594   2.117
 6644SOL    HW120831   2.580   4.632   2.208
 6644SOL    HW220832   2.653   4.578   2.072
 6645SOL     OW20833   6.488   5.125   4.890
 6645SOL    HW120834   6.479   5.071   4.974
 6645SOL    HW220835   6.582   5.157   4.882
 6646SOL     OW20836   1.756   6.370   3.721
 6646SOL    HW120837   1.737   6.271   3.719
 6646SOL    HW220838   1.847   6.386   3.759
 6647SOL     OW20839   3.613   2.087   2.283
 6647SOL    HW120840   3.611   2.126   2.191
 6647SOL    HW220841   3.608   2.160   2.351
 6648SOL     OW20842   4.801   5.917   2.297
 6648SOL    HW120843   4.756   5.939   2.210
 6648SOL    HW220844   4.895   5.889   2.280
 6649SOL     OW20845   3.767   2.198   6.343
 6649SOL    HW120846   3.768   2.099   6.330
 6649SOL    HW220847   3.691   2.238   6.292
 6650SOL     OW20848   2.979   2.082   3.315
 6650SOL    HW120849   3.024   2.068   3.227
 6650SOL    HW220850   3.030   2.034   3.387
 6651SOL     OW20851   1.192   2.614   0.029
 6651SOL    HW120852   1.100   2.649   0.010
 6651SOL    HW220853   1.224   2.562   6.973
 6652SOL     OW20854   0.460   5.213   3.296
 6652SOL    HW120855   0.361   5.205   3.305
 6652SOL    HW220856   0.504   5.130   3.332
 6653SOL     OW20857   2.983   3.274   3.430
 6653SOL    HW120858   2.959   3.368   3.406
 6653SOL    HW220859   3.057   3.242   3.370
 6654SOL     OW20860   2.198   3.347   1.660
 6654SOL    HW120861   2.114   3.337   1.713
 6654SOL    HW220862   2.271   3.383   1.718
 6655SOL     OW20863   2.282   0.403   0.767
 6655SOL    HW120864   2.341   0.332   0.806
 6655SOL    HW220865   2.339   0.477   0.730
 6656SOL     OW20866   6.670   2.245   1.212
 6656SOL    HW120867   6.742   2.178   1.231
 6656SOL    HW220868   6.652   2.248   1.114
 6657SOL     OW20869   2.725   5.651   6.136
 6657SOL    HW120870   2.802   5.659   6.073
 6657SOL    HW220871   2.740   5.574   6.198
 6658SOL     OW20872   5.132   0.407   6.026
 6658SOL    HW120873   5.092   0.333   6.080
 6658SOL    HW220874   5.063   0.477   6.008
 6659SOL     OW20875   1.263   3.470   6.546
 6659SOL    HW120876   1.360   3.492   6.555
 6659SOL    HW220877   1.239   3.467   6.449
 6660SOL     OW20878   0.199   6.883   3.402
 6660SOL    HW120879   0.287   6.846   3.372
 6660SOL    HW220880   0.200   6.983   3.395
 6661SOL     OW20881   0.013   5.752   3.512
 6661SOL    HW120882   6.997   5.750   3.604
 6661SOL    HW220883   0.111   5.733   3.518
 6662SOL     OW20884   0.921   3.495   5.895
 6662SOL    HW120885   0.957   3.402   5.903
 6662SOL    HW220886   0.974   3.556   5.955
 6663SOL     OW20887   0.177   5.734   2.046
 6663SOL    HW120888   0.202   5.809   2.107
 6663SOL    HW220889   0.081   5.710   2.060
 6664SOL     OW20890   0.761   1.696   3.201
 6664SOL    HW120891   0.726   1.681   3.108
 6664SOL    HW220892   0.844   1.642   3.214
 6665SOL     OW20893   2.876   6.749   2.625
 6665SOL    HW120894   2.937   6.750   2.704
 6665SOL    HW220895   2.873   6.656   2.587
 6666SOL     OW20896   6.062   7.016   0.566
 6666SOL    HW120897   6.160   7.010   0.546
 6666SOL    HW220898   6.019   6.927   0.547
 6667SOL     OW20899   7.014   5.574   4.495
 6667SOL    HW120900   0.001   5.559   4.593
 6667SOL    HW220901   0.080   5.586   4.453
 6668SOL     OW20902   0.372   6.142   1.989
 6668SOL    HW120903   0.398   6.233   2.021
 6668SOL    HW220904   0.341   6.147   1.894
 6669SOL     OW20905   1.521   5.464   2.840
 6669SOL    HW120906   1.531   5.563   2.844
 6669SOL    HW220907   1.462   5.434   2.916
 6670SOL     OW20908   3.336   4.718   0.539
 6670SOL    HW120909   3.274   4.673   0.604
 6670SOL    HW220910   3.425   4.673   0.541
 6671SOL     OW20911   0.192   2.272   5.392
 6671SOL    HW120912   0.265   2.339   5.406
 6671SOL    HW220913   0.230   2.190   5.349
 6672SOL     OW20914   1.672   0.918   5.488
 6672SOL    HW120915   1.585   0.927   5.537
 6672SOL    HW220916   1.687   1.001   5.433
 6673SOL     OW20917   5.036   4.872   1.802
 6673SOL    HW120918   5.124   4.836   1.771
 6673SOL    HW220919   4.965   4.805   1.784
 6674SOL     OW20920   0.622   6.982   4.137
 6674SOL    HW120921   0.599   6.895   4.181
 6674SOL    HW220922   0.644   6.966   4.041
 6675SOL     OW20923   6.607   6.082   0.426
 6675SOL    HW120924   6.644   6.159   0.373
 6675SOL    HW220925   6.507   6.084   0.423
 6676SOL     OW20926   1.315   2.192   6.498
 6676SOL    HW120927   1.310   2.208   6.399
 6676SOL    HW220928   1.406   2.219   6.531
 6677SOL     OW20929   6.528   4.006   0.236
 6677SOL    HW120930   6.569   4.096   0.221
 6677SOL    HW220931   6.547   3.976   0.330
 6678SOL     OW20932   1.137   2.830   4.931
 6678SOL    HW120933   1.136   2.731   4.912
 6678SOL    HW220934   1.232   2.859   4.944
 6679SOL     OW20935   1.898   2.244   4.560
 6679SOL    HW120936   1.815   2.293   4.533
 6679SOL    HW220937   1.967   2.254   4.489
 6680SOL     OW20938   2.217   6.652   6.485
 6680SOL    HW120939   2.284   6.601   6.539
 6680SOL    HW220940   2.225   6.624   6.389
 6681SOL     OW20941   6.132   5.360   0.391
 6681SOL    HW120942   6.136   5.430   0.463
 6681SOL    HW220943   6.200   5.380   0.321
 6682SOL     OW20944   0.314   5.765   2.564
 6682SOL    HW120945   0.242   5.727   2.506
 6682SOL    HW220946   0.286   5.760   2.660
 6683SOL     OW20947   5.129   1.677   4.050
 6683SOL    HW120948   5.043   1.720   4.080
 6683SOL    HW220949   5.206   1.721   4.095
 6684SOL     OW20950   1.995   0.238   2.269
 6684SOL    HW120951   1.971   0.335   2.258
 6684SOL    HW220952   2.009   0.196   2.180
 6685SOL     OW20953   5.365   3.517   6.210
 6685SOL    HW120954   5.448   3.485   6.255
 6685SOL    HW220955   5.292   3.450   6.223
 6686SOL     OW20956   5.907   4.254   4.120
 6686SOL    HW120957   5.809   4.237   4.125
 6686SOL    HW220958   5.924   4.352   4.126
 6687SOL     OW20959   1.284   1.436   0.399
 6687SOL    HW120960   1.320   1.357   0.350
 6687SOL    HW220961   1.184   1.440   0.386
 6688SOL     OW20962   0.538   4.595   3.463
 6688SOL    HW120963   0.630   4.601   3.425
 6688SOL    HW220964   0.533   4.518   3.526
 6689SOL     OW20965   4.631   5.181   7.012
 6689SOL    HW120966   4.681   5.098   0.010
 6689SOL    HW220967   4.647   5.251   0.058
 6690SOL     OW20968   1.651   2.065   0.744
 6690SOL    HW120969   1.688   2.148   0.785
 6690SOL    HW220970   1.724   1.998   0.732
 6691SOL     OW20971   1.991   5.534   1.181
 6691SOL    HW120972   2.082   5.510   1.215
 6691SOL    HW220973   1.999   5.581   1.094
 6692SOL     OW20974   3.366   4.275   6.011
 6692SOL    HW120975   3.464   4.258   6.026
 6692SOL    HW220976   3.353   4.304   5.916
 6693SOL     OW20977   3.536   4.127   4.715
 6693SOL    HW120978   3.459   4.096   4.770
 6693SOL    HW220979   3.505   4.145   4.622
 6694SOL     OW20980   3.012   6.633   0.374
 6694SOL    HW120981   2.961   6.605   0.456
 6694SOL    HW220982   2.969   6.715   0.336
 6695SOL     OW20983   1.522   1.892   6.689
 6695SOL    HW120984   1.605   1.946   6.676
 6695SOL    HW220985   1.482   1.869   6.600
 6696SOL     OW20986   2.061   3.229   1.973
 6696SOL    HW120987   2.091   3.323   1.989
 6696SOL    HW220988   1.986   3.228   1.907
 6697SOL     OW20989   5.391   1.594   3.212
 6697SOL    HW120990   5.463   1.524   3.214
 6697SOL    HW220991   5.372   1.619   3.118
 6698SOL     OW20992   3.630   3.774   0.613
 6698SOL    HW120993   3.700   3.799   0.680
 6698SOL    HW220994   3.540   3.780   0.656
 6699SOL     OW20995   1.529   3.482   6.888
 6699SOL    HW120996   1.516   3.383   6.883
 6699SOL    HW220997   1.476   3.527   6.816
 6700SOL     OW20998   6.103   6.554   6.752
 6700SOL    HW120999   6.195   6.516   6.746
 6700SOL    HW221000   6.081   6.603   6.667
 6701SOL     OW21001   1.102   2.592   0.768
 6701SOL    HW121002   1.169   2.617   0.699
 6701SOL    HW221003   1.148   2.573   0.855
 6702SOL     OW21004   2.117   2.554   1.251
 6702SOL    HW121005   2.194   2.604   1.291
 6702SOL    HW221006   2.082   2.606   1.172
 6703SOL     OW21007   0.357   2.261   6.805
 6703SOL    HW121008   0.283   2.272   6.872
 6703SOL    HW221009   0.444   2.288   6.846
 6704SOL     OW21010   5.219   2.153   3.404
 6704SOL    HW121011   5.194   2.220   3.474
 6704SOL    HW221012   5.318   2.140   3.405
 6705SOL     OW21013   6.194   1.243   0.521
 6705SOL    HW121014   6.108   1.231   0.471
 6705SOL    HW221015   6.178   1.300   0.601
 6706SOL     OW21016   0.467   4.851   6.516
 6706SOL    HW121017   0.501   4.792   6.589
 6706SOL    HW221018   0.537   4.920   6.494
 6707SOL     OW21019   1.471   5.844   2.154
 6707SOL    HW121020   1.386   5.823   2.106
 6707SOL    HW221021   1.479   5.785   2.234
 6708SOL     OW21022   2.651   6.246   1.236
 6708SOL    HW121023   2.685   6.167   1.288
 6708SOL    HW221024   2.561   6.272   1.270
 6709SOL     OW21025   5.814   1.194   2.738
 6709SOL    HW121026   5.900   1.245   2.727
 6709SOL    HW221027   5.738   1.251   2.707
 6710SOL     OW21028   2.445   2.504   1.490
 6710SOL    HW121029   2.537   2.472   1.467
 6710SOL    HW221030   2.414   2.461   1.574
 6711SOL     OW21031   3.804   3.668   0.286
 6711SOL    HW121032   3.815   3.646   0.189
 6711SOL    HW221033   3.875   3.621   0.339
 6712SOL     OW21034   3.433   6.022   1.006
 6712SOL    HW121035   3.402   6.113   0.980
 6712SOL    HW221036   3.356   5.971   1.045
 6713SOL     OW21037   1.805   1.520   1.892
 6713SOL    HW121038   1.771   1.575   1.815
 6713SOL    HW221039   1.728   1.477   1.939
 6714SOL     OW21040   6.665   0.342   3.506
 6714SOL    HW121041   6.581   0.299   3.471
 6714SOL    HW221042   6.697   0.409   3.439
 6715SOL     OW21043   0.571   2.122   0.863
 6715SOL    HW121044   0.510   2.201   0.866
 6715SOL    HW221045   0.526   2.047   0.814
 6716SOL     OW21046   2.922   5.633   0.305
 6716SOL    HW121047   2.830   5.618   0.269
 6716SOL    HW221048   2.990   5.610   0.234
 6717SOL     OW21049   3.656   1.871   6.443
 6717SOL    HW121050   3.684   1.886   6.349
 6717SOL    HW221051   3.620   1.778   6.453
 6718SOL     OW21052   3.562   0.028   0.013
 6718SOL    HW121053   3.564   0.117   6.991
 6718SOL    HW221054   3.478   7.003   7.012
 6719SOL     OW21055   0.187   0.186   5.230
 6719SOL    HW121056   0.186   0.259   5.299
 6719SOL    HW221057   0.279   0.146   5.225
 6720SOL     OW21058   1.842   4.810   1.661
 6720SOL    HW121059   1.928   4.836   1.705
 6720SOL    HW221060   1.854   4.721   1.616
 6721SOL     OW21061   6.702   6.400   3.644
 6721SOL    HW121062   6.744   6.382   3.555
 6721SOL    HW221063   6.758   6.359   3.716
 6722SOL     OW21064   4.749   4.231   6.754
 6722SOL    HW121065   4.705   4.142   6.767
 6722SOL    HW221066   4.830   4.220   6.695
 6723SOL     OW21067   4.309   6.795   2.320
 6723SOL    HW121068   4.332   6.708   2.276
 6723SOL    HW221069   4.377   6.865   2.294
 6724SOL     OW21070   3.348   4.755   5.406
 6724SOL    HW121071   3.303   4.780   5.492
 6724SOL    HW221072   3.386   4.663   5.414
 6725SOL     OW21073   0.641   4.761   2.502
 6725SOL    HW121074   0.690   4.776   2.588
 6725SOL    HW221075   0.675   4.678   2.458
 6726SOL     OW21076   2.412   2.484   2.328
 6726SOL    HW121077   2.338   2.510   2.266
 6726SOL    HW221078   2.498   2.484   2.279
 6727SOL     OW21079   3.874   3.990   0.064
 6727SOL    HW121080   3.937   4.063   0.040
 6727SOL    HW221081   3.828   3.957   7.005
 6728SOL     OW21082   4.792   1.295   4.098
 6728SOL    HW121083   4.830   1.384   4.126
 6728SOL    HW221084   4.749   1.304   4.008
 6729SOL     OW21085   5.895   6.346   2.902
 6729SOL    HW121086   5.974   6.362   2.962
 6729SOL    HW221087   5.923   6.358   2.807
 6730SOL     OW21088   1.527   6.920   1.148
 6730SOL    HW121089   1.538   6.986   1.223
 6730SOL    HW221090   1.502   6.831   1.185
 6731SOL     OW21091   2.081   4.622   1.877
 6731SOL    HW121092   2.032   4.607   1.963
 6731SOL    HW221093   2.176   4.594   1.886
 6732SOL     OW21094   1.808   4.703   0.995
 6732SOL    HW121095   1.806   4.695   1.095
 6732SOL    HW221096   1.768   4.791   0.968
 6733SOL     OW21097   5.508   5.849   5.440
 6733SOL    HW121098   5.448   5.814   5.368
 6733SOL    HW221099   5.561   5.773   5.478
 6734SOL     OW21100   2.581   3.652   5.533
 6734SOL    HW121101   2.535   3.606   5.609
 6734SOL    HW221102   2.537   3.740   5.515
 6735SOL     OW21103   6.935   5.158   6.348
 6735SOL    HW121104   6.914   5.254   6.366
 6735SOL    HW221105   6.867   5.119   6.287
 6736SOL     OW21106   2.140   3.643   2.782
 6736SOL    HW121107   2.120   3.634   2.685
 6736SOL    HW221108   2.136   3.554   2.826
 6737SOL     OW21109   1.862   0.523   1.099
 6737SOL    HW121110   1.817   0.454   1.155
 6737SOL    HW221111   1.940   0.562   1.150
 6738SOL     OW21112   3.874   1.549   2.245
 6738SOL    HW121113   3.906   1.505   2.329
 6738SOL    HW221114   3.951   1.594   2.200
 6739SOL     OW21115   4.686   0.323   4.728
 6739SOL    HW121116   4.629   0.244   4.707
 6739SOL    HW221117   4.748   0.341   4.652
 6740SOL     OW21118   5.836   2.860   4.611
 6740SOL    HW121119   5.813   2.794   4.539
 6740SOL    HW221120   5.789   2.947   4.593
 6741SOL     OW21121   6.729   6.948   5.342
 6741SOL    HW121122   6.801   6.882   5.363
 6741SOL    HW221123   6.676   6.968   5.425
 6742SOL     OW21124   6.205   6.025   5.756
 6742SOL    HW121125   6.292   5.980   5.776
 6742SOL    HW221126   6.133   5.956   5.749
 6743SOL     OW21127   4.941   3.070   0.679
 6743SOL    HW121128   4.888   3.112   0.753
 6743SOL    HW221129   5.005   3.137   0.641
 6744SOL     OW21130   5.291   5.413   5.696
 6744SOL    HW121131   5.328   5.418   5.603
 6744SOL    HW221132   5.263   5.319   5.715
 6745SOL     OW21133   0.530   3.829   3.752
 6745SOL    HW121134   0.468   3.846   3.676
 6745SOL    HW221135   0.560   3.733   3.750
 6746SOL     OW21136   6.808   1.218   1.145
 6746SOL    HW121137   6.864   1.153   1.195
 6746SOL    HW221138   6.723   1.234   1.195
 6747SOL     OW21139   5.544   6.484   6.542
 6747SOL    HW121140   5.476   6.472   6.615
 6747SOL    HW221141   5.589   6.573   6.552
 6748SOL     OW21142   0.283   6.373   1.855
 6748SOL    HW121143   0.228   6.442   1.808
 6748SOL    HW221144   0.235   6.286   1.854
 6749SOL     OW21145   3.470   5.663   0.947
 6749SOL    HW121146   3.489   5.594   1.016
 6749SOL    HW221147   3.553   5.716   0.929
 6750SOL     OW21148   2.353   3.110   5.381
 6750SOL    HW121149   2.255   3.093   5.383
 6750SOL    HW221150   2.396   3.053   5.312
 6751SOL     OW21151   3.229   2.065   5.561
 6751SOL    HW121152   3.192   2.124   5.490
 6751SOL    HW221153   3.160   1.999   5.589
 6752SOL     OW21154   6.075   2.097   0.512
 6752SOL    HW121155   6.171   2.121   0.504
 6752SOL    HW221156   6.019   2.178   0.498
 6753SOL     OW21157   5.610   1.205   6.004
 6753SOL    HW121158   5.680   1.146   5.963
 6753SOL    HW221159   5.545   1.149   6.056
 6754SOL     OW21160   4.814   1.337   0.403
 6754SOL    HW121161   4.842   1.272   0.332
 6754SOL    HW221162   4.735   1.389   0.370
 6755SOL     OW21163   5.118   1.240   3.112
 6755SOL    HW121164   5.207   1.271   3.078
 6755SOL    HW221165   5.126   1.215   3.209
 6756SOL     OW21166   4.857   4.454   3.437
 6756SOL    HW121167   4.884   4.504   3.519
 6756SOL    HW221168   4.858   4.515   3.358
 6757SOL     OW21169   5.382   4.805   2.277
 6757SOL    HW121170   5.444   4.839   2.206
 6757SOL    HW221171   5.333   4.883   2.318
 6758SOL     OW21172   6.219   1.964   2.784
 6758SOL    HW121173   6.162   1.902   2.838
 6758SOL    HW221174   6.212   2.057   2.819
 6759SOL     OW21175   1.016   4.551   3.275
 6759SOL    HW121176   0.954   4.473   3.265
 6759SOL    HW221177   1.087   4.546   3.204
 6760SOL     OW21178   0.250   4.221   5.212
 6760SOL    HW121179   0.195   4.252   5.135
 6760SOL    HW221180   0.280   4.299   5.266
 6761SOL     OW21181   6.204   3.515   6.432
 6761SOL    HW121182   6.252   3.555   6.511
 6761SOL    HW221183   6.162   3.589   6.379
 6762SOL     OW21184   5.479   4.874   3.391
 6762SOL    HW121185   5.432   4.934   3.455
 6762SOL    HW221186   5.568   4.914   3.368
 6763SOL     OW21187   6.284   6.492   5.394
 6763SOL    HW121188   6.253   6.573   5.344
 6763SOL    HW221189   6.257   6.410   5.343
 6764SOL     OW21190   2.306   3.307   0.075
 6764SOL    HW121191   2.386   3.365   0.065
 6764SOL    HW221192   2.291   3.286   0.172
 6765SOL     OW21193   5.279   5.123   2.714
 6765SOL    HW121194   5.254   5.181   2.637
 6765SOL    HW221195   5.287   5.028   2.683
 6766SOL     OW21196   1.468   1.907   5.340
 6766SOL    HW121197   1.390   1.923   5.401
 6766SOL    HW221198   1.446   1.835   5.275
 6767SOL     OW21199   0.947   2.788   5.491
 6767SOL    HW121200   0.944   2.835   5.580
 6767SOL    HW221201   0.991   2.699   5.503
 6768SOL     OW21202   0.193   0.399   5.435
 6768SOL    HW121203   0.264   0.457   5.474
 6768SOL    HW221204   0.153   0.343   5.507
 6769SOL     OW21205   0.933   2.558   6.715
 6769SOL    HW121206   1.006   2.529   6.778
 6769SOL    HW221207   0.964   2.635   6.661
 6770SOL     OW21208   6.796   1.181   4.345
 6770SOL    HW121209   6.706   1.217   4.369
 6770SOL    HW221210   6.795   1.082   4.351
 6771SOL     OW21211   4.511   1.715   2.054
 6771SOL    HW121212   4.609   1.709   2.072
 6771SOL    HW221213   4.480   1.809   2.070
 6772SOL     OW21214   1.378   0.793   1.619
 6772SOL    HW121215   1.356   0.881   1.576
 6772SOL    HW221216   1.476   0.776   1.611
 6773SOL     OW21217   1.074   0.573   1.967
 6773SOL    HW121218   1.151   0.547   2.025
 6773SOL    HW221219   0.995   0.595   2.025
 6774SOL     OW21220   3.112   1.119   5.626
 6774SOL    HW121221   3.169   1.163   5.557
 6774SOL    HW221222   3.168   1.088   5.703
 6775SOL     OW21223   1.537   3.379   5.083
 6775SOL    HW121224   1.622   3.345   5.044
 6775SOL    HW221225   1.557   3.457   5.143
 6776SOL     OW21226   3.029   3.881   3.110
 6776SOL    HW121227   3.093   3.957   3.102
 6776SOL    HW221228   3.048   3.814   3.038
 6777SOL     OW21229   0.467   0.027   6.322
 6777SOL    HW121230   0.395   0.031   6.253
 6777SOL    HW221231   0.461   0.106   6.383
 6778SOL     OW21232   6.340   6.161   2.599
 6778SOL    HW121233   6.399   6.205   2.531
 6778SOL    HW221234   6.310   6.072   2.565
 6779SOL     OW21235   4.385   4.535   6.701
 6779SOL    HW121236   4.304   4.594   6.707
 6779SOL    HW221237   4.397   4.485   6.787
 6780SOL     OW21238   4.106   0.676   2.846
 6780SOL    HW121239   4.132   0.608   2.777
 6780SOL    HW221240   4.130   0.767   2.814
 6781SOL     OW21241   6.213   2.709   3.106
 6781SOL    HW121242   6.145   2.783   3.102
 6781SOL    HW221243   6.169   2.625   3.138
 6782SOL     OW21244   0.458   1.518   3.367
 6782SOL    HW121245   0.500   1.594   3.316
 6782SOL    HW221246   0.527   1.471   3.421
 6783SOL     OW21247   0.665   6.257   5.980
 6783SOL    HW121248   0.646   6.220   6.071
 6783SOL    HW221249   0.640   6.354   5.977
 6784SOL     OW21250   1.740   4.429   0.901
 6784SOL    HW121251   1.749   4.445   0.803
 6784SOL    HW221252   1.767   4.511   0.951
 6785SOL     OW21253   5.657   4.723   3.106
 6785SOL    HW121254   5.567   4.715   3.061
 6785SOL    HW221255   5.654   4.676   3.194
 6786SOL     OW21256   6.403   1.926   5.967
 6786SOL    HW121257   6.424   1.945   5.871
 6786SOL    HW221258   6.350   1.842   5.974
 6787SOL     OW21259   2.988   1.319   0.748
 6787SOL    HW121260   2.938   1.235   0.769
 6787SOL    HW221261   2.924   1.396   0.746
 6788SOL     OW21262   0.786   4.532   1.595
 6788SOL    HW121263   0.830   4.448   1.562
 6788SOL    HW221264   0.749   4.517   1.686
 6789SOL     OW21265   6.030   4.237   2.582
 6789SOL    HW121266   5.971   4.305   2.627
 6789SOL    HW221267   6.125   4.254   2.608
 6790SOL     OW21268   0.778   6.108   1.130
 6790SOL    HW121269   0.878   6.105   1.119
 6790SOL    HW221270   0.735   6.127   1.041
 6791SOL     OW21271   2.736   6.121   4.082
 6791SOL    HW121272   2.704   6.187   4.151
 6791SOL    HW221273   2.834   6.136   4.066
 6792SOL     OW21274   3.086   6.490   6.547
 6792SOL    HW121275   3.087   6.400   6.592
 6792SOL    HW221276   3.023   6.487   6.469
 6793SOL     OW21277   2.519   3.726   5.996
 6793SOL    HW121278   2.529   3.776   6.081
 6793SOL    HW221279   2.468   3.781   5.930
 6794SOL     OW21280   5.027   2.347   4.570
 6794SOL    HW121281   4.991   2.440   4.564
 6794SOL    HW221282   4.961   2.288   4.616
 6795SOL     OW21283   0.754   0.466   1.519
 6795SOL    HW121284   0.750   0.463   1.619
 6795SOL    HW221285   0.822   0.533   1.490
 6796SOL     OW21286   6.958   2.226   2.349
 6796SOL    HW121287   7.024   2.207   2.422
 6796SOL    HW221288   6.902   2.146   2.332
 6797SOL     OW21289   1.735   3.200   1.071
 6797SOL    HW121290   1.766   3.211   0.977
 6797SOL    HW221291   1.657   3.260   1.088
 6798SOL     OW21292   4.997   1.271   1.804
 6798SOL    HW121293   4.905   1.295   1.773
 6798SOL    HW221294   5.028   1.338   1.871
 6799SOL     OW21295   6.472   0.178   2.688
 6799SOL    HW121296   6.485   0.217   2.597
 6799SOL    HW221297   6.499   0.082   2.687
 6800SOL     OW21298   6.907   3.017   2.284
 6800SOL    HW121299   6.974   2.977   2.221
 6800SOL    HW221300   6.820   3.029   2.236
 6801SOL     OW21301   1.738   5.571   5.988
 6801SOL    HW121302   1.663   5.638   5.992
 6801SOL    HW221303   1.717   5.495   6.050
 6802SOL     OW21304   2.946   4.815   1.904
 6802SOL    HW121305   2.918   4.725   1.936
 6802SOL    HW221306   2.889   4.843   1.827
 6803SOL     OW21307   5.714   5.236   0.130
 6803SOL    HW121308   5.665   5.272   0.210
 6803SOL    HW221309   5.674   5.148   0.103
 6804SOL     OW21310   3.127   5.723   2.261
 6804SOL    HW121311   3.213   5.683   2.231
 6804SOL    HW221312   3.104   5.690   2.353
 6805SOL     OW21313   0.761   4.324   4.168
 6805SOL    HW121314   0.732   4.228   4.170
 6805SOL    HW221315   0.730   4.366   4.083
 6806SOL     OW21316   5.798   3.333   2.518
 6806SOL    HW121317   5.870   3.358   2.583
 6806SOL    HW221318   5.825   3.362   2.427
 6807SOL     OW21319   2.887   3.731   2.302
 6807SOL    HW121320   2.880   3.719   2.202
 6807SOL    HW221321   2.815   3.792   2.334
 6808SOL     OW21322   3.665   0.129   3.454
 6808SOL    HW121323   3.667   0.039   3.410
 6808SOL    HW221324   3.703   0.197   3.391
 6809SOL     OW21325   5.677   2.586   0.830
 6809SOL    HW121326   5.749   2.563   0.765
 6809SOL    HW221327   5.718   2.627   0.912
 6810SOL     OW21328   2.928   1.019   4.833
 6810SOL    HW121329   2.862   1.071   4.779
 6810SOL    HW221330   2.906   0.922   4.827
 6811SOL     OW21331   6.841   1.435   1.378
 6811SOL    HW121332   6.833   1.377   1.460
 6811SOL    HW221333   6.851   1.378   1.297
 6812SOL     OW21334   3.426   4.503   5.420
 6812SOL    HW121335   3.474   4.476   5.504
 6812SOL    HW221336   3.362   4.431   5.394
 6813SOL     OW21337   0.155   4.232   1.904
 6813SOL    HW121338   0.139   4.242   1.806
 6813SOL    HW221339   0.206   4.311   1.938
 6814SOL     OW21340   5.437   1.382   1.322
 6814SOL    HW121341   5.508   1.409   1.387
 6814SOL    HW221342   5.421   1.284   1.329
 6815SOL     OW21343   0.762   6.136   6.641
 6815SOL    HW121344   0.778   6.049   6.595
 6815SOL    HW221345   0.846   6.164   6.688
 6816SOL     OW21346   6.575   7.022   3.743
 6816SOL    HW121347   6.582   7.012   3.842
 6816SOL    HW221348   6.498   0.058   3.721
 6817SOL     OW21349   5.134   1.555   1.723
 6817SOL    HW121350   5.115   1.460   1.746
 6817SOL    HW221351   5.217   1.560   1.668
 6818SOL     OW21352   1.300   0.315   5.067
 6818SOL    HW121353   1.210   0.355   5.055
 6818SOL    HW221354   1.343   0.352   5.149
 6819SOL     OW21355   4.892   3.959   1.417
 6819SOL    HW121356   4.880   4.015   1.499
 6819SOL    HW221357   4.884   4.017   1.336
 6820SOL     OW21358   2.503   4.803   1.561
 6820SOL    HW121359   2.437   4.850   1.619
 6820SOL    HW221360   2.551   4.733   1.615
 6821SOL     OW21361   2.616   2.938   6.092
 6821SOL    HW121362   2.531   2.986   6.072
 6821SOL    HW221363   2.686   2.967   6.027
 6822SOL     OW21364   6.238   3.538   5.272
 6822SOL    HW121365   6.190   3.515   5.356
 6822SOL    HW221366   6.330   3.572   5.295
 6823SOL     OW21367   0.445   3.036   6.260
 6823SOL    HW121368   0.478   3.128   6.241
 6823SOL    HW221369   0.463   2.977   6.181
 6824SOL     OW21370   1.603   0.589   4.804
 6824SOL    HW121371   1.519   0.564   4.756
 6824SOL    HW221372   1.640   0.673   4.764
 6825SOL     OW21373   4.291   4.218   1.295
 6825SOL    HW121374   4.368   4.234   1.356
 6825SOL    HW221375   4.303   4.131   1.247
 6826SOL     OW21376   5.514   0.853   3.140
 6826SOL    HW121377   5.577   0.812   3.073
 6826SOL    HW221378   5.558   0.932   3.182
 6827SOL     OW21379   4.834   5.566   5.511
 6827SOL    HW121380   4.779   5.624   5.571
 6827SOL    HW221381   4.840   5.474   5.549
 6828SOL     OW21382   3.109   2.073   2.280
 6828SOL    HW121383   3.093   2.171   2.269
 6828SOL    HW221384   3.093   2.026   2.193
 6829SOL     OW21385   4.865   6.403   4.240
 6829SOL    HW121386   4.878   6.500   4.218
 6829SOL    HW221387   4.769   6.379   4.226
 6830SOL     OW21388   3.735   5.511   2.373
 6830SOL    HW121389   3.662   5.579   2.381
 6830SOL    HW221390   3.704   5.425   2.414
 6831SOL     OW21391   1.324   1.035   6.609
 6831SOL    HW121392   1.245   1.075   6.657
 6831SOL    HW221393   1.392   1.105   6.592
 6832SOL     OW21394   2.483   2.951   6.708
 6832SOL    HW121395   2.493   2.935   6.610
 6832SOL    HW221396   2.542   3.027   6.736
 6833SOL     OW21397   4.511   4.845   6.914
 6833SOL    HW121398   4.475   4.907   6.984
 6833SOL    HW221399   4.447   4.842   6.837
 6834SOL     OW21400   5.898   6.115   5.854
 6834SOL    HW121401   5.865   6.067   5.935
 6834SOL    HW221402   5.926   6.048   5.785
 6835SOL     OW21403   3.513   0.526   3.653
 6835SOL    HW121404   3.463   0.496   3.571
 6835SOL    HW221405   3.610   0.508   3.640
 6836SOL     OW21406   0.383   4.576   6.268
 6836SOL    HW121407   0.446   4.652   6.284
 6836SOL    HW221408   0.429   4.505   6.215
 6837SOL     OW21409   6.688   0.790   2.072
 6837SOL    HW121410   6.787   0.779   2.058
 6837SOL    HW221411   6.662   0.756   2.162
 6838SOL     OW21412   3.252   3.906   6.064
 6838SOL    HW121413   3.204   3.988   6.094
 6838SOL    HW221414   3.254   3.903   5.964
 6839SOL     OW21415   6.055   3.020   5.227
 6839SOL    HW121416   6.072   3.104   5.175
 6839SOL    HW221417   6.094   2.942   5.178
 6840SOL     OW21418   2.839   6.045   4.718
 6840SOL    HW121419   2.873   6.001   4.635
 6840SOL    HW221420   2.831   6.144   4.703
 6841SOL     OW21421   4.828   6.755   0.445
 6841SOL    HW121422   4.884   6.753   0.528
 6841SOL    HW221423   4.732   6.740   0.469
 6842SOL     OW21424   0.003   3.837   4.134
 6842SOL    HW121425   0.007   3.915   4.071
 6842SOL    HW221426   6.943   3.842   4.188
 6843SOL     OW21427   4.594   2.814   1.710
 6843SOL    HW121428   4.615   2.888   1.774
 6843SOL    HW221429   4.512   2.838   1.657
 6844SOL     OW21430   3.345   6.679   4.668
 6844SOL    HW121431   3.331   6.611   4.740
 6844SOL    HW221432   3.420   6.740   4.693
 6845SOL     OW21433   4.488   4.179   0.360
 6845SOL    HW121434   4.389   4.175   0.373
 6845SOL    HW221435   4.534   4.171   0.449
 6846SOL     OW21436   4.161   3.368   2.914
 6846SOL    HW121437   4.078   3.314   2.900
 6846SOL    HW221438   4.140   3.448   2.970
 6847SOL     OW21439   6.494   3.247   1.864
 6847SOL    HW121440   6.574   3.190   1.843
 6847SOL    HW221441   6.423   3.229   1.795
 6848SOL     OW21442   0.170   6.259   4.569
 6848SOL    HW121443   0.235   6.220   4.503
 6848SOL    HW221444   0.183   6.215   4.658
 6849SOL     OW21445   2.903   6.824   4.708
 6849SOL    HW121446   2.873   6.765   4.782
 6849SOL    HW221447   2.978   6.781   4.658
 6850SOL     OW21448   5.472   3.369   1.557
 6850SOL    HW121449   5.446   3.281   1.596
 6850SOL    HW221450   5.527   3.420   1.624
 6851SOL     OW21451   1.198   5.497   5.697
 6851SOL    HW121452   1.177   5.570   5.762
 6851SOL    HW221453   1.144   5.416   5.719
 6852SOL     OW21454   6.504   5.311   2.336
 6852SOL    HW121455   6.584   5.313   2.397
 6852SOL    HW221456   6.511   5.232   2.276
 6853SOL     OW21457   6.265   4.232   4.941
 6853SOL    HW121458   6.354   4.191   4.960
 6853SOL    HW221459   6.202   4.213   5.016
 6854SOL     OW21460   6.949   1.835   6.253
 6854SOL    HW121461   6.974   1.914   6.310
 6854SOL    HW221462   6.868   1.857   6.199
 6855SOL     OW21463   3.107   6.565   2.083
 6855SOL    HW121464   3.011   6.537   2.081
 6855SOL    HW221465   3.112   6.665   2.076
 6856SOL     OW21466   0.060   4.324   5.746
 6856SOL    HW121467   0.051   4.412   5.699
 6856SOL    HW221468   0.009   4.326   5.832
 6857SOL     OW21469   3.754   1.122   6.367
 6857SOL    HW121470   3.743   1.208   6.418
 6857SOL    HW221471   3.757   1.142   6.269
 6858SOL     OW21472   3.584   3.029   6.477
 6858SOL    HW121473   3.559   3.092   6.403
 6858SOL    HW221474   3.517   3.036   6.551
 6859SOL     OW21475   3.356   0.913   0.546
 6859SOL    HW121476   3.261   0.944   0.539
 6859SOL    HW221477   3.395   0.942   0.634
 6860SOL     OW21478   4.001   4.046   6.671
 6860SOL    HW121479   3.920   4.102   6.687
 6860SOL    HW221480   4.070   4.066   6.741
 6861SOL     OW21481   4.954   4.061   0.581
 6861SOL    HW121482   5.032   4.040   0.641
 6861SOL    HW221483   4.955   4.159   0.559
 6862SOL     OW21484   2.479   4.959   4.304
 6862SOL    HW121485   2.487   5.012   4.388
 6862SOL    HW221486   2.570   4.937   4.270
 6863SOL     OW21487   0.777   2.821   4.170
 6863SOL    HW121488   0.856   2.777   4.126
 6863SOL    HW221489   0.805   2.855   4.260
 6864SOL     OW21490   4.685   5.350   6.413
 6864SOL    HW121491   4.705   5.384   6.505
 6864SOL    HW221492   4.612   5.405   6.373
 6865SOL     OW21493   6.789   3.347   4.419
 6865SOL    HW121494   6.767   3.307   4.330
 6865SOL    HW221495   6.863   3.414   4.407
 6866SOL     OW21496   0.528   3.384   2.318
 6866SOL    HW121497   0.443   3.335   2.336
 6866SOL    HW221498   0.595   3.320   2.280
 6867SOL     OW21499   2.617   5.553   2.956
 6867SOL    HW121500   2.572   5.482   2.901
 6867SOL    HW221501   2.567   5.565   3.042
 6868SOL     OW21502   1.836   5.535   4.837
 6868SOL    HW121503   1.859   5.494   4.749
 6868SOL    HW221504   1.831   5.464   4.907
 6869SOL     OW21505   6.648   3.750   4.909
 6869SOL    HW121506   6.743   3.759   4.879
 6869SOL    HW221507   6.640   3.672   4.971
 6870SOL     OW21508   5.624   3.626   2.347
 6870SOL    HW121509   5.598   3.534   2.317
 6870SOL    HW221510   5.612   3.690   2.271
 6871SOL     OW21511   5.278   6.743   1.826
 6871SOL    HW121512   5.363   6.781   1.862
 6871SOL    HW221513   5.248   6.798   1.748
 6872SOL     OW21514   3.003   3.976   6.812
 6872SOL    HW121515   3.027   3.959   6.716
 6872SOL    HW221516   3.057   3.914   6.870
 6873SOL     OW21517   5.855   4.307   5.238
 6873SOL    HW121518   5.873   4.402   5.265
 6873SOL    HW221519   5.785   4.268   5.298
 6874SOL     OW21520   1.130   1.871   5.245
 6874SOL    HW121521   1.170   1.879   5.337
 6874SOL    HW221522   1.154   1.952   5.192
 6875SOL     OW21523   3.388   1.973   3.894
 6875SOL    HW121524   3.354   2.050   3.948
 6875SOL    HW221525   3.481   1.992   3.863
 6876SOL     OW21526   3.631   6.550   4.560
 6876SOL    HW121527   3.657   6.537   4.656
 6876SOL    HW221528   3.562   6.622   4.554
 6877SOL     OW21529   1.827   3.565   6.413
 6877SOL    HW121530   1.745   3.515   6.388
 6877SOL    HW221531   1.904   3.533   6.357
 6878SOL     OW21532   1.563   2.446   4.592
 6878SOL    HW121533   1.563   2.372   4.524
 6878SOL    HW221534   1.474   2.452   4.635
 6879SOL     OW21535   0.875   1.003   5.946
 6879SOL    HW121536   0.928   1.086   5.962
 6879SOL    HW221537   0.794   1.025   5.892
 6880SOL     OW21538   2.206   4.014   4.168
 6880SOL    HW121539   2.108   4.016   4.149
 6880SOL    HW221540   2.234   3.921   4.192
 6881SOL     OW21541   5.873   5.871   1.876
 6881SOL    HW121542   5.780   5.881   1.911
 6881SOL    HW221543   5.927   5.815   1.938
 6882SOL     OW21544   2.576   6.181   5.109
 6882SOL    HW121545   2.590   6.107   5.175
 6882SOL    HW221546   2.656   6.242   5.111
 6883SOL     OW21547   3.569   6.414   1.647
 6883SOL    HW121548   3.601   6.343   1.585
 6883SOL    HW221549   3.630   6.494   1.641
 6884SOL     OW21550   2.569   5.100   3.495
 6884SOL    HW121551   2.619   5.143   3.570
 6884SOL    HW221552   2.478   5.140   3.488
 6885SOL     OW21553   4.232   5.342   5.282
 6885SOL    HW121554   4.233   5.285   5.364
 6885SOL    HW221555   4.156   5.314   5.223
 6886SOL     OW21556   5.508   1.590   2.066
 6886SOL    HW121557   5.434   1.539   2.110
 6886SOL    HW221558   5.487   1.688   2.069
 6887SOL     OW21559   4.777   0.797   5.200
 6887SOL    HW121560   4.819   0.865   5.140
 6887SOL    HW221561   4.790   0.706   5.161
 6888SOL     OW21562   6.085   0.044   5.311
 6888SOL    HW121563   6.124   0.102   5.383
 6888SOL    HW221564   6.106   6.972   5.330
 6889SOL     OW21565   1.435   4.394   6.274
 6889SOL    HW121566   1.380   4.376   6.193
 6889SOL    HW221567   1.405   4.480   6.316
 6890SOL     OW21568   2.144   0.223   0.584
 6890SOL    HW121569   2.207   0.293   0.551
 6890SOL    HW221570   2.146   0.221   0.684
 6891SOL     OW21571   3.811   5.170   5.349
 6891SOL    HW121572   3.723   5.148   5.307
 6891SOL    HW221573   3.818   5.126   5.438
 6892SOL     OW21574   3.457   1.560   4.501
 6892SOL    HW121575   3.470   1.535   4.597
 6892SOL    HW221576   3.545   1.560   4.454
 6893SOL     OW21577   5.810   0.514   1.743
 6893SOL    HW121578   5.888   0.573   1.763
 6893SOL    HW221579   5.751   0.558   1.676
 6894SOL     OW21580   6.013   4.628   5.792
 6894SOL    HW121581   5.976   4.700   5.850
 6894SOL    HW221582   6.053   4.557   5.849
 6895SOL     OW21583   4.283   4.902   6.754
 6895SOL    HW121584   4.231   4.816   6.756
 6895SOL    HW221585   4.258   4.958   6.833
 6896SOL     OW21586   4.434   0.871   2.993
 6896SOL    HW121587   4.456   0.836   2.902
 6896SOL    HW221588   4.432   0.795   3.059
 6897SOL     OW21589   3.482   1.808   0.521
 6897SOL    HW121590   3.383   1.821   0.527
 6897SOL    HW221591   3.507   1.722   0.566
 6898SOL     OW21592   3.852   1.651   3.048
 6898SOL    HW121593   3.847   1.564   3.000
 6898SOL    HW221594   3.944   1.689   3.039
 6899SOL     OW21595   5.845   6.256   6.381
 6899SOL    HW121596   5.800   6.324   6.323
 6899SOL    HW221597   5.862   6.173   6.328
 6900SOL     OW21598   3.961   1.324   5.749
 6900SOL    HW121599   4.039   1.275   5.788
 6900SOL    HW221600   3.880   1.265   5.754
 6901SOL     OW21601   1.207   0.967   0.217
 6901SOL    HW121602   1.214   0.870   0.192
 6901SOL    HW221603   1.112   0.996   0.206
 6902SOL     OW21604   6.632   5.442   1.961
 6902SOL    HW121605   6.634   5.474   1.867
 6902SOL    HW221606   6.541   5.458   1.999
 6903SOL     OW21607   4.241   4.815   0.919
 6903SOL    HW121608   4.325   4.771   0.951
 6903SOL    HW221609   4.265   4.895   0.863
 6904SOL     OW21610   0.898   1.865   3.514
 6904SOL    HW121611   0.950   1.810   3.448
 6904SOL    HW221612   0.961   1.908   3.578
 6905SOL     OW21613   3.976   5.266   0.951
 6905SOL    HW121614   3.959   5.202   0.876
 6905SOL    HW221615   3.987   5.215   1.036
 6906SOL     OW21616   5.244   6.044   3.787
 6906SOL    HW121617   5.310   6.047   3.862
 6906SOL    HW221618   5.259   6.122   3.727
 6907SOL     OW21619   3.473   0.897   1.191
 6907SOL    HW121620   3.403   0.953   1.235
 6907SOL    HW221621   3.431   0.815   1.153
 6908SOL     OW21622   6.506   0.074   0.097
 6908SOL    HW121623   6.579   0.142   0.092
 6908SOL    HW221624   6.436   0.105   0.161
 6909SOL     OW21625   3.402   3.091   6.679
 6909SOL    HW121626   3.385   3.169   6.619
 6909SOL    HW221627   3.362   3.108   6.769
 6910SOL     OW21628   6.392   0.751   1.509
 6910SOL    HW121629   6.415   0.791   1.420
 6910SOL    HW221630   6.296   0.723   1.509
 6911SOL     OW21631   4.459   0.571   4.738
 6911SOL    HW121632   4.481   0.506   4.810
 6911SOL    HW221633   4.373   0.617   4.760
 6912SOL     OW21634   4.442   4.899   2.097
 6912SOL    HW121635   4.511   4.837   2.060
 6912SOL    HW221636   4.415   4.964   2.026
 6913SOL     OW21637   4.178   5.766   5.734
 6913SOL    HW121638   4.246   5.838   5.727
 6913SOL    HW221639   4.168   5.737   5.829
 6914SOL     OW21640   6.299   4.966   0.082
 6914SOL    HW121641   6.244   4.912   0.018
 6914SOL    HW221642   6.280   4.936   0.176
 6915SOL     OW21643   1.475   5.641   0.636
 6915SOL    HW121644   1.399   5.587   0.672
 6915SOL    HW221645   1.543   5.655   0.708
 6916SOL     OW21646   6.417   0.965   5.706
 6916SOL    HW121647   6.501   0.963   5.761
 6916SOL    HW221648   6.402   0.876   5.663
 6917SOL     OW21649   4.470   0.116   6.820
 6917SOL    HW121650   4.409   0.049   6.778
 6917SOL    HW221651   4.416   0.185   6.869
 6918SOL     OW21652   2.148   2.954   3.596
 6918SOL    HW121653   2.186   2.989   3.510
 6918SOL    HW221654   2.049   2.947   3.588
 6919SOL     OW21655   0.931   6.325   3.314
 6919SOL    HW121656   0.834   6.331   3.294
 6919SOL    HW221657   0.945   6.280   3.402
 6920SOL     OW21658   4.942   6.526   4.726
 6920SOL    HW121659   4.999   6.481   4.657
 6920SOL    HW221660   4.991   6.529   4.813
 6921SOL     OW21661   1.166   6.212   2.942
 6921SOL    HW121662   1.076   6.247   2.915
 6921SOL    HW221663   1.224   6.288   2.970
 6922SOL     OW21664   2.054   5.998   0.267
 6922SOL    HW121665   2.146   5.969   0.241
 6922SOL    HW221666   2.047   6.098   0.262
 6923SOL     OW21667   4.431   6.771   3.945
 6923SOL    HW121668   4.505   6.767   4.012
 6923SOL    HW221669   4.435   6.857   3.895
 6924SOL     OW21670   6.787   6.008   1.656
 6924SOL    HW121671   6.833   6.015   1.568
 6924SOL    HW221672   6.699   6.055   1.652
 6925SOL     OW21673   6.218   5.427   3.302
 6925SOL    HW121674   6.281   5.429   3.224
 6925SOL    HW221675   6.212   5.518   3.343
 6926SOL     OW21676   2.853   4.069   5.331
 6926SOL    HW121677   2.842   4.033   5.424
 6926SOL    HW221678   2.802   4.012   5.267
 6927SOL     OW21679   3.842   2.775   0.226
 6927SOL    HW121680   3.742   2.779   0.223
 6927SOL    HW221681   3.871   2.739   0.314
 6928SOL     OW21682   6.700   0.082   6.524
 6928SOL    HW121683   6.673   0.165   6.476
 6928SOL    HW221684   6.699   0.099   6.623
 6929SOL     OW21685   3.079   5.339   1.069
 6929SOL    HW121686   3.060   5.426   1.023
 6929SOL    HW221687   3.166   5.346   1.117
 6930SOL     OW21688   1.391   0.182   3.386
 6930SOL    HW121689   1.420   0.243   3.460
 6930SOL    HW221690   1.471   0.143   3.342
 6931SOL     OW21691   2.385   0.153   0.845
 6931SOL    HW121692   2.428   0.074   0.887
 6931SOL    HW221693   2.286   0.145   0.852
 6932SOL     OW21694   2.645   2.319   0.046
 6932SOL    HW121695   2.548   2.338   0.062
 6932SOL    HW221696   2.654   2.233   7.020
 6933SOL     OW21697   2.845   6.280   6.400
 6933SOL    HW121698   2.937   6.260   6.433
 6933SOL    HW221699   2.844   6.370   6.356
 6934SOL     OW21700   5.570   4.625   6.440
 6934SOL    HW121701   5.481   4.670   6.433
 6934SOL    HW221702   5.559   4.526   6.432
 6935SOL     OW21703   4.405   5.989   2.873
 6935SOL    HW121704   4.309   6.016   2.880
 6935SOL    HW221705   4.462   6.071   2.864
 6936SOL     OW21706   0.351   4.729   0.995
 6936SOL    HW121707   0.353   4.720   1.095
 6936SOL    HW221708   0.443   4.751   0.962
 6937SOL     OW21709   4.438   6.277   5.878
 6937SOL    HW121710   4.353   6.311   5.838
 6937SOL    HW221711   4.425   6.182   5.907
 6938SOL     OW21712   6.096   2.409   4.809
 6938SOL    HW121713   6.195   2.406   4.822
 6938SOL    HW221714   6.052   2.340   4.866
 6939SOL     OW21715   6.947   4.725   2.151
 6939SOL    HW121716   6.874   4.793   2.149
 6939SOL    HW221717   6.906   4.633   2.151
 6940SOL     OW21718   4.185   0.848   4.991
 6940SOL    HW121719   4.212   0.776   5.054
 6940SOL    HW221720   4.122   0.911   5.037
 6941SOL     OW21721   4.105   3.224   4.055
 6941SOL    HW121722   4.024   3.167   4.037
 6941SOL    HW221723   4.105   3.252   4.150
 6942SOL     OW21724   6.766   1.487   0.135
 6942SOL    HW121725   6.772   1.493   0.036
 6942SOL    HW221726   6.795   1.396   0.165
 6943SOL     OW21727   6.415   6.137   0.113
 6943SOL    HW121728   6.459   6.148   0.023
 6943SOL    HW221729   6.413   6.040   0.137
 6944SOL     OW21730   1.078   6.195   6.107
 6944SOL    HW121731   1.062   6.263   6.179
 6944SOL    HW221732   1.150   6.132   6.136
 6945SOL     OW21733   4.525   2.079   5.262
 6945SOL    HW121734   4.492   1.985   5.262
 6945SOL    HW221735   4.625   2.080   5.261
 6946SOL     OW21736   5.718   3.688   3.465
 6946SOL    HW121737   5.814   3.671   3.489
 6946SOL    HW221738   5.684   3.612   3.409
 6947SOL     OW21739   3.461   6.812   2.698
 6947SOL    HW121740   3.395   6.874   2.656
 6947SOL    HW221741   3.554   6.841   2.676
 6948SOL     OW21742   3.932   2.096   4.727
 6948SOL    HW121743   3.852   2.130   4.777
 6948SOL    HW221744   3.930   2.130   4.633
 6949SOL     OW21745   4.911   1.120   2.377
 6949SOL    HW121746   4.892   1.068   2.460
 6949SOL    HW221747   4.992   1.176   2.391
 6950SOL     OW21748   2.545   1.381   3.950
 6950SOL    HW121749   2.493   1.298   3.932
 6950SOL    HW221750   2.563   1.389   4.048
 6951SOL     OW21751   5.086   5.444   5.192
 6951SOL    HW121752   5.068   5.522   5.252
 6951SOL    HW221753   5.056   5.360   5.236
 6952SOL     OW21754   0.206   5.158   5.245
 6952SOL    HW121755   0.287   5.213   5.264
 6952SOL    HW221756   0.142   5.165   5.321
 6953SOL     OW21757   6.008   2.499   5.146
 6953SOL    HW121758   5.974   2.424   5.088
 6953SOL    HW221759   5.963   2.584   5.119
 6954SOL     OW21760   1.053   5.061   2.525
 6954SOL    HW121761   0.991   5.079   2.449
 6954SOL    HW221762   1.096   5.147   2.554
 6955SOL     OW21763   6.593   5.968   3.295
 6955SOL    HW121764   6.580   5.888   3.237
 6955SOL    HW221765   6.637   5.940   3.381
 6956SOL     OW21766   3.049   5.190   0.830
 6956SOL    HW121767   3.140   5.185   0.790
 6956SOL    HW221768   3.054   5.233   0.920
 6957SOL     OW21769   0.440   4.116   0.420
 6957SOL    HW121770   0.510   4.104   0.491
 6957SOL    HW221771   0.457   4.051   0.346
 6958SOL     OW21772   2.072   3.936   6.465
 6958SOL    HW121773   2.028   3.897   6.546
 6958SOL    HW221774   2.016   4.011   6.429
 6959SOL     OW21775   4.005   1.403   3.725
 6959SOL    HW121776   4.037   1.312   3.700
 6959SOL    HW221777   4.084   1.463   3.740
 6960SOL     OW21778   0.127   4.950   6.918
 6960SOL    HW121779   0.083   4.875   6.868
 6960SOL    HW221780   0.084   4.959   7.008
 6961SOL     OW21781   6.929   1.365   2.971
 6961SOL    HW121782   6.953   1.433   3.041
 6961SOL    HW221783   6.858   1.402   2.911
 6962SOL     OW21784   3.119   3.472   0.628
 6962SOL    HW121785   3.112   3.419   0.543
 6962SOL    HW221786   3.214   3.468   0.660
 6963SOL     OW21787   6.271   5.902   2.521
 6963SOL    HW121788   6.367   5.880   2.504
 6963SOL    HW221789   6.216   5.876   2.441
 6964SOL     OW21790   4.034   6.159   5.041
 6964SOL    HW121791   3.969   6.085   5.022
 6964SOL    HW221792   3.990   6.247   5.024
 6965SOL     OW21793   6.651   2.081   5.558
 6965SOL    HW121794   6.667   2.092   5.656
 6965SOL    HW221795   6.577   2.141   5.529
 6966SOL     OW21796   4.740   2.527   4.148
 6966SOL    HW121797   4.822   2.478   4.178
 6966SOL    HW221798   4.764   2.589   4.074
 6967SOL     OW21799   2.254   2.239   6.570
 6967SOL    HW121800   2.261   2.262   6.667
 6967SOL    HW221801   2.273   2.320   6.515
 6968SOL     OW21802   4.058   7.018   2.606
 6968SOL    HW121803   4.041   0.019   2.702
 6968SOL    HW221804   4.075   6.920   2.599
 6969SOL     OW21805   2.983   2.234   1.149
 6969SOL    HW121806   2.934   2.235   1.062
 6969SOL    HW221807   3.081   2.246   1.132
 6970SOL     OW21808   4.151   3.870   0.732
 6970SOL    HW121809   4.152   3.839   0.827
 6970SOL    HW221810   4.245   3.881   0.700
 6971SOL     OW21811   5.924   0.760   2.061
 6971SOL    HW121812   5.944   0.805   2.148
 6971SOL    HW221813   6.005   0.711   2.030
 6972SOL     OW21814   5.391   4.935   4.988
 6972SOL    HW121815   5.435   4.855   5.030
 6972SOL    HW221816   5.420   5.018   5.036
 6973SOL     OW21817   1.558   4.328   2.923
 6973SOL    HW121818   1.572   4.269   2.843
 6973SOL    HW221819   1.646   4.351   2.964
 6974SOL     OW21820   3.107   4.002   4.977
 6974SOL    HW121821   3.065   3.917   5.009
 6974SOL    HW221822   3.093   4.074   5.046
 6975SOL     OW21823   3.122   0.807   6.003
 6975SOL    HW121824   3.048   0.774   5.945
 6975SOL    HW221825   3.208   0.805   5.953
 6976SOL     OW21826   1.720   6.024   0.460
 6976SOL    HW121827   1.656   6.045   0.386
 6976SOL    HW221828   1.792   5.964   0.426
 6977SOL     OW21829   4.309   2.366   2.863
 6977SOL    HW121830   4.404   2.386   2.839
 6977SOL    HW221831   4.269   2.307   2.794
 6978SOL     OW21832   5.578   1.213   2.579
 6978SOL    HW121833   5.509   1.159   2.530
 6978SOL    HW221834   5.555   1.217   2.676
 6979SOL     OW21835   0.728   4.243   3.608
 6979SOL    HW121836   0.811   4.299   3.613
 6979SOL    HW221837   0.747   4.161   3.555
 6980SOL     OW21838   3.706   1.765   4.178
 6980SOL    HW121839   3.775   1.764   4.251
 6980SOL    HW221840   3.718   1.685   4.120
 6981SOL     OW21841   3.642   4.848   6.632
 6981SOL    HW121842   3.717   4.907   6.661
 6981SOL    HW221843   3.620   4.784   6.706
 6982SOL     OW21844   0.479   6.772   4.294
 6982SOL    HW121845   0.434   6.683   4.294
 6982SOL    HW221846   0.411   6.844   4.287
 6983SOL     OW21847   6.172   0.333   3.678
 6983SOL    HW121848   6.117   0.301   3.601
 6983SOL    HW221849   6.239   0.400   3.646
 6984SOL     OW21850   2.297   1.121   5.585
 6984SOL    HW121851   2.316   1.200   5.526
 6984SOL    HW221852   2.380   1.095   5.633
 6985SOL     OW21853   5.287   6.484   2.724
 6985SOL    HW121854   5.254   6.433   2.645
 6985SOL    HW221855   5.244   6.574   2.726
 6986SOL     OW21856   1.970   7.003   5.004
 6986SOL    HW121857   1.951   0.076   5.024
 6986SOL    HW221858   1.884   6.957   4.981
 6987SOL     OW21859   6.785   3.695   6.565
 6987SOL    HW121860   6.755   3.658   6.653
 6987SOL    HW221861   6.881   3.722   6.571
 6988SOL     OW21862   5.271   1.196   5.289
 6988SOL    HW121863   5.289   1.247   5.206
 6988SOL    HW221864   5.333   1.118   5.295
 6989SOL     OW21865   1.368   2.973   3.915
 6989SOL    HW121866   1.457   2.987   3.872
 6989SOL    HW221867   1.369   3.010   4.008
 6990SOL     OW21868   3.842   3.128   0.422
 6990SOL    HW121869   3.905   3.134   0.499
 6990SOL    HW221870   3.894   3.116   0.338
 6991SOL     OW21871   4.406   4.461   5.432
 6991SOL    HW121872   4.443   4.466   5.525
 6991SOL    HW221873   4.369   4.369   5.417
 6992SOL     OW21874   5.877   6.335   5.105
 6992SOL    HW121875   5.841   6.324   5.197
 6992SOL    HW221876   5.828   6.274   5.043
 6993SOL     OW21877   0.685   6.316   3.495
 6993SOL    HW121878   0.732   6.351   3.576
 6993SOL    HW221879   0.700   6.217   3.489
 6994SOL     OW21880   1.536   3.027   0.023
 6994SOL    HW121881   1.480   2.952   0.059
 6994SOL    HW221882   1.565   3.086   0.099
 6995SOL     OW21883   1.226   4.517   3.878
 6995SOL    HW121884   1.188   4.600   3.918
 6995SOL    HW221885   1.207   4.439   3.938
 6996SOL     OW21886   2.460   0.490   6.029
 6996SOL    HW121887   2.363   0.469   6.020
 6996SOL    HW221888   2.482   0.572   5.975
 6997SOL     OW21889   5.061   0.049   4.115
 6997SOL    HW121890   5.072   0.128   4.176
 6997SOL    HW221891   5.050   0.082   4.021
 6998SOL     OW21892   1.552   2.625   3.478
 6998SOL    HW121893   1.530   2.719   3.454
 6998SOL    HW221894   1.471   2.580   3.516
 6999SOL     OW21895   5.027   2.012   6.810
 6999SOL    HW121896   4.985   1.973   6.892
 6999SOL    HW221897   4.967   2.082   6.771
 7000SOL     OW21898   6.634   6.653   0.959
 7000SOL    HW121899   6.667   6.582   1.021
 7000SOL    HW221900   6.568   6.711   1.008
 7001SOL     OW21901   2.941   2.131   5.665
 7001SOL    HW121902   2.950   2.086   5.576
 7001SOL    HW221903   2.937   2.062   5.737
 7002SOL     OW21904   2.002   4.467   2.663
 7002SOL    HW121905   2.009   4.566   2.674
 7002SOL    HW221906   2.001   4.423   2.753
 7003SOL     OW21907   1.549   6.591   6.555
 7003SOL    HW121908   1.585   6.615   6.464
 7003SOL    HW221909   1.562   6.668   6.617
 7004SOL     OW21910   1.179   4.690   0.777
 7004SOL    HW121911   1.192   4.591   0.770
 7004SOL    HW221912   1.082   4.709   0.793
 7005SOL     OW21913   5.796   6.577   5.647
 7005SOL    HW121914   5.715   6.636   5.639
 7005SOL    HW221915   5.781   6.510   5.719
 7006SOL     OW21916   4.512   5.655   4.903
 7006SOL    HW121917   4.570   5.692   4.976
 7006SOL    HW221918   4.516   5.716   4.824
 7007SOL     OW21919   4.901   5.390   2.378
 7007SOL    HW121920   4.828   5.323   2.382
 7007SOL    HW221921   4.881   5.465   2.442
 7008SOL     OW21922   1.773   4.244   4.203
 7008SOL    HW121923   1.808   4.178   4.270
 7008SOL    HW221924   1.848   4.278   4.147
 7009SOL     OW21925   0.201   4.377   2.413
 7009SOL    HW121926   0.255   4.441   2.358
 7009SOL    HW221927   0.235   4.377   2.507
 7010SOL     OW21928   4.282   4.529   6.262
 7010SOL    HW121929   4.323   4.542   6.172
 7010SOL    HW221930   4.354   4.507   6.328
 7011SOL     OW21931   1.657   1.616   4.951
 7011SOL    HW121932   1.665   1.674   4.870
 7011SOL    HW221933   1.736   1.631   5.011
 7012SOL     OW21934   1.449   1.190   1.283
 7012SOL    HW121935   1.520   1.240   1.235
 7012SOL    HW221936   1.377   1.162   1.219
 7013SOL     OW21937   0.263   1.353   2.037
 7013SOL    HW121938   0.227   1.444   2.017
 7013SOL    HW221939   0.349   1.340   1.988
 7014SOL     OW21940   1.937   4.808   0.663
 7014SOL    HW121941   1.976   4.834   0.751
 7014SOL    HW221942   1.841   4.838   0.658
 7015SOL     OW21943   5.637   2.152   2.251
 7015SOL    HW121944   5.692   2.195   2.322
 7015SOL    HW221945   5.541   2.179   2.262
 7016SOL     OW21946   4.186   4.578   1.093
 7016SOL    HW121947   4.259   4.607   1.154
 7016SOL    HW221948   4.155   4.656   1.039
 7017SOL     OW21949   4.374   1.855   4.583
 7017SOL    HW121950   4.316   1.873   4.662
 7017SOL    HW221951   4.373   1.757   4.563
 7018SOL     OW21952   0.460   4.326   3.584
 7018SOL    HW121953   0.550   4.301   3.620
 7018SOL    HW221954   0.407   4.372   3.655
 7019SOL     OW21955   1.719   5.648   1.116
 7019SOL    HW121956   1.780   5.599   1.177
 7019SOL    HW221957   1.689   5.733   1.159
 7020SOL     OW21958   7.022   6.262   6.159
 7020SOL    HW121959   0.010   6.269   6.258
 7020SOL    HW221960   7.014   6.166   6.132
 7021SOL     OW21961   4.136   6.847   5.458
 7021SOL    HW121962   4.162   6.861   5.553
 7021SOL    HW221963   4.044   6.809   5.454
 7022SOL     OW21964   4.884   5.485   6.566
 7022SOL    HW121965   4.876   5.437   6.478
 7022SOL    HW221966   4.914   5.421   6.637
 7023SOL     OW21967   5.582   4.019   2.929
 7023SOL    HW121968   5.493   4.034   2.972
 7023SOL    HW221969   5.654   4.028   2.998
 7024SOL     OW21970   0.213   6.034   1.702
 7024SOL    HW121971   0.287   6.056   1.638
 7024SOL    HW221972   0.244   5.963   1.765
 7025SOL     OW21973   2.506   6.982   6.737
 7025SOL    HW121974   2.452   6.920   6.681
 7025SOL    HW221975   2.521   0.044   6.687
 7026SOL     OW21976   3.292   1.522   0.799
 7026SOL    HW121977   3.379   1.518   0.750
 7026SOL    HW221978   3.277   1.615   0.833
 7027SOL     OW21979   4.615   6.984   4.155
 7027SOL    HW121980   4.668   0.018   4.092
 7027SOL    HW221981   4.636   6.888   4.136
 7028SOL     OW21982   2.729   0.272   4.620
 7028SOL    HW121983   2.733   0.209   4.542
 7028SOL    HW221984   2.822   0.292   4.651
 7029SOL     OW21985   3.760   0.909   5.044
 7029SOL    HW121986   3.663   0.894   5.027
 7029SOL    HW221987   3.813   0.831   5.010
 7030SOL     OW21988   2.139   3.733   3.496
 7030SOL    HW121989   2.079   3.812   3.502
 7030SOL    HW221990   2.106   3.660   3.555
 7031SOL     OW21991   1.549   0.393   4.983
 7031SOL    HW121992   1.588   0.449   4.910
 7031SOL    HW221993   1.450   0.383   4.967
 7032SOL     OW21994   6.470   2.045   3.677
 7032SOL    HW121995   6.531   2.086   3.608
 7032SOL    HW221996   6.376   2.045   3.642
 7033SOL     OW21997   0.295   0.295   4.560
 7033SOL    HW121998   0.196   0.305   4.554
 7033SOL    HW221999   0.334   0.295   4.468
 7034SOL     OW22000   0.652   5.644   2.644
 7034SOL    HW122001   0.684   5.739   2.646
 7034SOL    HW222002   0.607   5.626   2.556
 7035SOL     OW22003   6.656   5.140   1.905
 7035SOL    HW122004   6.625   5.232   1.929
 7035SOL    HW222005   6.577   5.081   1.890
 7036SOL     OW22006   6.494   4.443   0.745
 7036SOL    HW122007   6.408   4.397   0.769
 7036SOL    HW222008   6.484   4.490   0.658
 7037SOL     OW22009   0.413   0.262   6.829
 7037SOL    HW122010   0.328   0.225   6.868
 7037SOL    HW222011   0.485   0.192   6.835
 7038SOL     OW22012   1.715   3.344   4.159
 7038SOL    HW122013   1.665   3.427   4.182
 7038SOL    HW222014   1.762   3.356   4.072
 7039SOL     OW22015   4.038   2.364   6.203
 7039SOL    HW122016   3.966   2.429   6.179
 7039SOL    HW222017   4.057   2.370   6.301
 7040SOL     OW22018   5.406   2.675   6.604
 7040SOL    HW122019   5.385   2.618   6.524
 7040SOL    HW222020   5.479   2.632   6.658
 7041SOL     OW22021   2.970   1.625   2.640
 7041SOL    HW122022   3.022   1.587   2.563
 7041SOL    HW222023   2.883   1.577   2.649
 7042SOL     OW22024   1.500   0.442   6.871
 7042SOL    HW122025   1.533   0.350   6.847
 7042SOL    HW222026   1.510   0.456   6.970
 7043SOL     OW22027   1.337   2.429   2.670
 7043SOL    HW122028   1.433   2.409   2.648
 7043SOL    HW222029   1.292   2.466   2.589
 7044SOL     OW22030   5.071   6.206   2.291
 7044SOL    HW122031   4.997   6.257   2.334
 7044SOL    HW222032   5.049   6.109   2.290
 7045SOL     OW22033   6.115   4.614   1.194
 7045SOL    HW122034   6.091   4.538   1.134
 7045SOL    HW222035   6.184   4.585   1.260
 7046SOL     OW22036   2.678   0.869   3.778
 7046SOL    HW122037   2.757   0.867   3.718
 7046SOL    HW222038   2.596   0.887   3.725
 7047SOL     OW22039   1.616   1.107   3.049
 7047SOL    HW122040   1.632   1.170   2.974
 7047SOL    HW222041   1.692   1.043   3.056
 7048SOL     OW22042   6.753   5.895   0.537
 7048SOL    HW122043   6.832   5.900   0.476
 7048SOL    HW222044   6.679   5.952   0.501
 7049SOL     OW22045   1.550   0.954   0.141
 7049SOL    HW122046   1.602   1.007   0.208
 7049SOL    HW222047   1.501   0.880   0.188
 7050SOL     OW22048   3.821   4.103   4.572
 7050SOL    HW122049   3.780   4.144   4.490
 7050SOL    HW222050   3.873   4.022   4.547
 7051SOL     OW22051   0.262   6.543   2.651
 7051SOL    HW122052   0.251   6.466   2.713
 7051SOL    HW222053   0.356   6.578   2.658
 7052SOL     OW22054   6.955   1.061   3.702
 7052SOL    HW122055   6.954   1.037   3.799
 7052SOL    HW222056   0.010   1.016   3.658
 7053SOL     OW22057   6.536   4.092   5.978
 7053SOL    HW122058   6.541   4.192   5.989
 7053SOL    HW222059   6.623   4.059   5.943
 7054SOL     OW22060   6.799   0.181   1.703
 7054SOL    HW122061   6.754   0.104   1.658
 7054SOL    HW222062   6.802   0.166   1.801
 7055SOL     OW22063   3.862   6.743   5.001
 7055SOL    HW122064   3.790   6.723   5.067
 7055SOL    HW222065   3.942   6.686   5.020
 7056SOL     OW22066   4.653   5.191   3.953
 7056SOL    HW122067   4.589   5.195   3.876
 7056SOL    HW222068   4.706   5.106   3.947
 7057SOL     OW22069   0.649   6.023   3.195
 7057SOL    HW122070   0.720   5.980   3.251
 7057SOL    HW222071   0.688   6.101   3.146
 7058SOL     OW22072   0.127   4.271   4.983
 7058SOL    HW122073   0.063   4.200   4.952
 7058SOL    HW222074   0.125   4.348   4.921
 7059SOL     OW22075   2.290   0.390   2.719
 7059SOL    HW122076   2.389   0.392   2.726
 7059SOL    HW222077   2.252   0.474   2.758
 7060SOL     OW22078   3.610   0.064   1.300
 7060SOL    HW122079   3.592   0.150   1.254
 7060SOL    HW222080   3.689   0.074   1.361
 7061SOL     OW22081   0.338   0.963   3.074
 7061SOL    HW122082   0.243   0.942   3.054
 7061SOL    HW222083   0.343   1.048   3.126
 7062SOL     OW22084   6.638   1.311   5.609
 7062SOL    HW122085   6.553   1.319   5.661
 7062SOL    HW222086   6.655   1.396   5.560
 7063SOL     OW22087   2.798   0.025   1.984
 7063SOL    HW122088   2.708   0.035   1.941
 7063SOL    HW222089   2.822   0.110   2.030
 7064SOL     OW22090   4.521   2.149   0.437
 7064SOL    HW122091   4.572   2.081   0.386
 7064SOL    HW222092   4.438   2.108   0.475
 7065SOL     OW22093   3.656   3.758   1.774
 7065SOL    HW122094   3.586   3.826   1.796
 7065SOL    HW222095   3.695   3.721   1.859
 7066SOL     OW22096   3.201   6.673   1.205
 7066SOL    HW122097   3.292   6.643   1.235
 7066SOL    HW222098   3.168   6.612   1.133
 7067SOL     OW22099   6.919   3.842   4.639
 7067SOL    HW122100   7.012   3.835   4.601
 7067SOL    HW222101   6.915   3.791   4.725
 7068SOL     OW22102   0.901   0.717   2.184
 7068SOL    HW122103   0.826   0.702   2.250
 7068SOL    HW222104   0.975   0.765   2.229
 7069SOL     OW22105   1.611   3.993   4.890
 7069SOL    HW122106   1.702   3.962   4.861
 7069SOL    HW222107   1.587   4.077   4.841
 7070SOL     OW22108   5.008   5.649   4.497
 7070SOL    HW122109   5.081   5.606   4.444
 7070SOL    HW222110   4.939   5.685   4.434
 7071SOL     OW22111   1.315   6.746   5.151
 7071SOL    HW122112   1.282   6.675   5.088
 7071SOL    HW222113   1.243   6.813   5.166
 7072SOL     OW22114   0.069   6.199   6.443
 7072SOL    HW122115   0.165   6.171   6.439
 7072SOL    HW222116   0.061   6.281   6.499
 7073SOL     OW22117   1.260   1.807   6.857
 7073SOL    HW122118   1.277   1.741   6.783
 7073SOL    HW222119   1.278   1.900   6.823
 7074SOL     OW22120   2.822   1.859   0.798
 7074SOL    HW122121   2.730   1.837   0.765
 7074SOL    HW222122   2.850   1.792   0.867
 7075SOL     OW22123   1.226   5.515   2.666
 7075SOL    HW122124   1.299   5.563   2.715
 7075SOL    HW222125   1.206   5.565   2.581
 7076SOL     OW22126   3.401   2.355   6.643
 7076SOL    HW122127   3.307   2.354   6.609
 7076SOL    HW222128   3.440   2.263   6.640
 7077SOL     OW22129   1.682   4.791   5.894
 7077SOL    HW122130   1.745   4.869   5.893
 7077SOL    HW222131   1.677   4.751   5.803
 7078SOL     OW22132   6.716   0.673   2.592
 7078SOL    HW122133   6.775   0.754   2.594
 7078SOL    HW222134   6.717   0.628   2.681
 7079SOL     OW22135   5.038   5.496   5.893
 7079SOL    HW122136   5.118   5.488   5.952
 7079SOL    HW222137   4.995   5.586   5.907
 7080SOL     OW22138   5.660   0.054   4.157
 7080SOL    HW122139   5.597   0.131   4.166
 7080SOL    HW222140   5.609   6.997   4.124
 7081SOL     OW22141   3.690   0.859   5.424
 7081SOL    HW122142   3.787   0.859   5.451
 7081SOL    HW222143   3.672   0.938   5.365
 7082SOL     OW22144   5.189   1.453   6.458
 7082SOL    HW122145   5.126   1.441   6.381
 7082SOL    HW222146   5.172   1.542   6.501
 7083SOL     OW22147   3.310   6.705   6.083
 7083SOL    HW122148   3.317   6.792   6.132
 7083SOL    HW222149   3.292   6.722   5.986
 7084SOL     OW22150   6.625   6.299   0.204
 7084SOL    HW122151   6.573   6.381   0.227
 7084SOL    HW222152   6.564   6.220   0.204
 7085SOL     OW22153   2.956   2.636   0.852
 7085SOL    HW122154   2.916   2.549   0.824
 7085SOL    HW222155   2.957   2.641   0.951
 7086SOL     OW22156   6.865   0.899   6.368
 7086SOL    HW122157   6.943   0.860   6.416
 7086SOL    HW222158   6.786   0.839   6.379
 7087SOL     OW22159   1.723   2.742   4.843
 7087SOL    HW122160   1.785   2.819   4.854
 7087SOL    HW222161   1.656   2.743   4.918
 7088SOL     OW22162   0.140   1.742   5.646
 7088SOL    HW122163   0.092   1.743   5.558
 7088SOL    HW222164   0.230   1.700   5.634
 7089SOL     OW22165   2.604   1.763   0.654
 7089SOL    HW122166   2.520   1.815   0.667
 7089SOL    HW222167   2.618   1.744   0.557
 7090SOL     OW22168   2.217   3.039   4.500
 7090SOL    HW122169   2.251   2.973   4.567
 7090SOL    HW222170   2.222   3.131   4.537
 7091SOL     OW22171   0.173   6.087   0.485
 7091SOL    HW122172   0.238   6.135   0.425
 7091SOL    HW222173   0.108   6.153   0.522
 7092SOL     OW22174   3.347   3.320   6.530
 7092SOL    HW122175   3.372   3.391   6.595
 7092SOL    HW222176   3.250   3.327   6.508
 7093SOL     OW22177   3.858   2.936   5.969
 7093SOL    HW122178   3.779   2.930   6.030
 7093SOL    HW222179   3.905   2.848   5.967
 7094SOL     OW22180   0.114   0.361   6.460
 7094SOL    HW122181   0.084   0.394   6.371
 7094SOL    HW222182   0.067   0.276   6.483
 7095SOL     OW22183   0.304   4.333   6.473
 7095SOL    HW122184   0.304   4.431   6.492
 7095SOL    HW222185   0.398   4.301   6.462
 7096SOL     OW22186   5.533   0.828   2.293
 7096SOL    HW122187   5.581   0.796   2.212
 7096SOL    HW222188   5.580   0.908   2.331
 7097SOL     OW22189   1.278   0.526   1.564
 7097SOL    HW122190   1.308   0.621   1.571
 7097SOL    HW222191   1.252   0.492   1.655
 7098SOL     OW22192   1.875   6.988   5.865
 7098SOL    HW122193   1.866   6.949   5.773
 7098SOL    HW222194   1.854   0.062   5.862
 7099SOL     OW22195   0.417   1.066   6.501
 7099SOL    HW122196   0.439   1.047   6.596
 7099SOL    HW222197   0.500   1.095   6.453
 7100SOL     OW22198   5.566   2.328   0.860
 7100SOL    HW122199   5.547   2.305   0.955
 7100SOL    HW222200   5.602   2.421   0.854
 7101SOL     OW22201   1.744   0.303   4.448
 7101SOL    HW122202   1.664   0.342   4.402
 7101SOL    HW222203   1.727   0.207   4.469
 7102SOL     OW22204   4.496   2.805   0.870
 7102SOL    HW122205   4.516   2.764   0.958
 7102SOL    HW222206   4.526   2.744   0.797
 7103SOL     OW22207   2.471   6.354   6.020
 7103SOL    HW122208   2.464   6.277   6.084
 7103SOL    HW222209   2.449   6.323   5.928
 7104SOL     OW22210   0.693   2.304   1.983
 7104SOL    HW122211   0.722   2.299   2.079
 7104SOL    HW222212   0.655   2.216   1.955
 7105SOL     OW22213   2.382   4.164   5.321
 7105SOL    HW122214   2.290   4.137   5.350
 7105SOL    HW222215   2.427   4.085   5.279
 7106SOL     OW22216   3.155   2.570   5.329
 7106SOL    HW122217   3.198   2.647   5.282
 7106SOL    HW222218   3.188   2.484   5.290
 7107SOL     OW22219   2.616   0.665   6.895
 7107SOL    HW122220   2.688   0.706   6.951
 7107SOL    HW222221   2.555   0.612   6.953
 7108SOL     OW22222   4.261   6.534   2.139
 7108SOL    HW122223   4.351   6.550   2.099
 7108SOL    HW222224   4.225   6.446   2.107
 7109SOL     OW22225   3.983   6.413   5.988
 7109SOL    HW122226   3.997   6.374   5.897
 7109SOL    HW222227   3.987   6.513   5.983
 7110SOL     OW22228   3.574   5.269   3.092
 7110SOL    HW122229   3.612   5.186   3.050
 7110SOL    HW222230   3.554   5.251   3.189
 7111SOL     OW22231   1.295   2.717   3.924
 7111SOL    HW122232   1.206   2.712   3.879
 7111SOL    HW222233   1.343   2.800   3.895
 7112SOL     OW22234   1.525   6.263   2.381
 7112SOL    HW122235   1.563   6.255   2.474
 7112SOL    HW222236   1.482   6.176   2.356
 7113SOL     OW22237   2.996   3.928   4.679
 7113SOL    HW122238   3.036   3.965   4.763
 7113SOL    HW222239   2.974   3.831   4.692
 7114SOL     OW22240   4.287   0.462   1.174
 7114SOL    HW122241   4.332   0.418   1.251
 7114SOL    HW222242   4.274   0.395   1.100
 7115SOL     OW22243   4.025   1.857   1.648
 7115SOL    HW122244   4.070   1.879   1.735
 7115SOL    HW222245   3.942   1.912   1.638
 7116SOL     OW22246   5.933   3.482   2.937
 7116SOL    HW122247   5.858   3.428   2.975
 7116SOL    HW222248   5.928   3.576   2.973
 7117SOL     OW22249   6.493   6.634   1.764
 7117SOL    HW122250   6.422   6.669   1.702
 7117SOL    HW222251   6.567   6.594   1.710
 7118SOL     OW22252   6.944   2.612   2.035
 7118SOL    HW122253   6.942   2.712   2.035
 7118SOL    HW222254   6.866   2.577   2.087
 7119SOL     OW22255   6.939   1.714   2.867
 7119SOL    HW122256   6.878   1.660   2.809
 7119SOL    HW222257   0.011   1.691   2.846
 7120SOL     OW22258   5.361   0.047   3.487
 7120SOL    HW122259   5.441   0.061   3.545
 7120SOL    HW222260   5.278   0.067   3.540
 7121SOL     OW22261   3.740   6.694   1.740
 7121SOL    HW122262   3.679   6.760   1.697
 7121SOL    HW222263   3.708   6.676   1.834
 7122SOL     OW22264   6.652   6.877   0.266
 7122SOL    HW122265   6.559   6.893   0.233
 7122SOL    HW222266   6.717   6.927   0.208
 7123SOL     OW22267   2.397   5.329   0.713
 7123SOL    HW122268   2.316   5.361   0.764
 7123SOL    HW222269   2.373   5.247   0.661
 7124SOL     OW22270   0.503   5.705   1.478
 7124SOL    HW122271   0.453   5.770   1.420
 7124SOL    HW222272   0.479   5.611   1.451
 7125SOL     OW22273   6.981   6.665   2.682
 7125SOL    HW122274   0.012   6.617   2.750
 7125SOL    HW222275   0.017   6.702   2.610
 7126SOL     OW22276   0.965   5.012   0.471
 7126SOL    HW122277   0.948   5.081   0.541
 7126SOL    HW222278   0.880   4.994   0.420
 7127SOL     OW22279   3.469   0.174   4.694
 7127SOL    HW122280   3.409   0.100   4.667
 7127SOL    HW222281   3.557   0.136   4.724
 7128SOL     OW22282   2.839   4.594   1.606
 7128SOL    HW122283   2.873   4.549   1.689
 7128SOL    HW222284   2.754   4.550   1.578
 7129SOL     OW22285   2.811   1.560   1.480
 7129SOL    HW122286   2.831   1.658   1.482
 7129SOL    HW222287   2.800   1.527   1.574
 7130SOL     OW22288   2.217   6.032   1.943
 7130SOL    HW122289   2.271   6.004   1.864
 7130SOL    HW222290   2.252   6.119   1.979
 7131SOL     OW22291   2.830   1.216   3.707
 7131SOL    HW122292   2.873   1.252   3.790
 7131SOL    HW222293   2.752   1.159   3.731
 7132SOL     OW22294   3.268   4.057   3.058
 7132SOL    HW122295   3.241   4.114   3.135
 7132SOL    HW222296   3.207   4.075   2.981
 7133SOL     OW22297   5.228   4.736   2.612
 7133SOL    HW122298   5.245   4.645   2.649
 7133SOL    HW222299   5.315   4.777   2.583
 7134SOL     OW22300   5.300   4.422   3.651
 7134SOL    HW122301   5.230   4.374   3.705
 7134SOL    HW222302   5.255   4.474   3.578
 7135SOL     OW22303   0.942   2.106   4.924
 7135SOL    HW122304   0.997   2.139   4.848
 7135SOL    HW222305   0.985   2.133   5.010
 7136SOL     OW22306   2.274   2.000   6.725
 7136SOL    HW122307   2.339   1.942   6.676
 7136SOL    HW222308   2.285   2.094   6.694
 7137SOL     OW22309   3.821   1.398   4.945
 7137SOL    HW122310   3.793   1.304   4.927
 7137SOL    HW222311   3.917   1.400   4.973
 7138SOL     OW22312   2.120   3.783   6.910
 7138SOL    HW122313   2.141   3.707   6.972
 7138SOL    HW222314   2.109   3.747   6.817
 7139SOL     OW22315   3.298   2.281   0.504
 7139SOL    HW122316   3.375   2.292   0.441
 7139SOL    HW222317   3.329   2.235   0.587
 7140SOL     OW22318   6.349   3.189   5.398
 7140SOL    HW122319   6.259   3.188   5.442
 7140SOL    HW222320   6.338   3.214   5.302
 7141SOL     OW22321   2.019   6.890   0.655
 7141SOL    HW122322   2.077   6.918   0.731
 7141SOL    HW222323   1.977   6.971   0.614
 7142SOL     OW22324   4.089   6.767   4.254
 7142SOL    HW122325   4.031   6.703   4.304
 7142SOL    HW222326   4.154   6.716   4.197
 7143SOL     OW22327   1.544   3.286   3.843
 7143SOL    HW122328   1.557   3.198   3.797
 7143SOL    HW222329   1.632   3.332   3.852
 7144SOL     OW22330   0.962   2.628   4.119
 7144SOL    HW122331   1.026   2.638   4.195
 7144SOL    HW222332   1.011   2.634   4.033
 7145SOL     OW22333   4.310   6.616   5.829
 7145SOL    HW122334   4.343   6.619   5.924
 7145SOL    HW222335   4.268   6.703   5.806
 7146SOL     OW22336   2.808   4.629   0.675
 7146SOL    HW122337   2.859   4.648   0.591
 7146SOL    HW222338   2.853   4.674   0.752
 7147SOL     OW22339   0.360   0.847   4.173
 7147SOL    HW122340   0.417   0.786   4.117
 7147SOL    HW222341   0.419   0.903   4.231
 7148SOL     OW22342   0.756   1.568   0.785
 7148SOL    HW122343   0.719   1.478   0.761
 7148SOL    HW222344   0.855   1.568   0.771
 7149SOL     OW22345   6.531   0.616   3.397
 7149SOL    HW122346   6.468   0.679   3.351
 7149SOL    HW222347   6.577   0.559   3.329
 7150SOL     OW22348   5.560   3.754   6.992
 7150SOL    HW122349   5.500   3.697   0.024
 7150SOL    HW222350   5.653   3.718   6.995
 7151SOL     OW22351   2.241   5.871   1.242
 7151SOL    HW122352   2.279   5.800   1.300
 7151SOL    HW222353   2.172   5.922   1.293
 7152SOL     OW22354   1.361   2.220   3.731
 7152SOL    HW122355   1.263   2.238   3.720
 7152SOL    HW222356   1.375   2.158   3.808
 7153SOL     OW22357   3.293   1.735   3.648
 7153SOL    HW122358   3.331   1.698   3.732
 7153SOL    HW222359   3.274   1.661   3.584
 7154SOL     OW22360   4.560   6.368   4.529
 7154SOL    HW122361   4.559   6.272   4.556
 7154SOL    HW222362   4.601   6.422   4.603
 7155SOL     OW22363   2.397   0.150   2.316
 7155SOL    HW122364   2.323   0.093   2.351
 7155SOL    HW222365   2.379   0.172   2.220
 7156SOL     OW22366   0.682   6.026   4.564
 7156SOL    HW122367   0.670   6.077   4.479
 7156SOL    HW222368   0.763   6.059   4.612
 7157SOL     OW22369   5.012   4.301   1.478
 7157SOL    HW122370   4.972   4.393   1.482
 7157SOL    HW222371   4.978   4.254   1.397
 7158SOL     OW22372   5.349   0.184   4.330
 7158SOL    HW122373   5.257   0.225   4.334
 7158SOL    HW222374   5.388   0.201   4.239
 7159SOL     OW22375   0.874   5.181   0.172
 7159SOL    HW122376   0.840   5.241   0.245
 7159SOL    HW222377   0.799   5.122   0.140
 7160SOL     OW22378   6.360   0.823   1.925
 7160SOL    HW122379   6.445   0.810   1.977
 7160SOL    HW222380   6.345   0.921   1.909
 7161SOL     OW22381   3.588   4.135   3.806
 7161SOL    HW122382   3.578   4.132   3.706
 7161SOL    HW222383   3.500   4.154   3.848
 7162SOL     OW22384   2.840   4.949   3.663
 7162SOL    HW122385   2.794   4.893   3.594
 7162SOL    HW222386   2.881   5.029   3.620
 7163SOL     OW22387   2.740   6.528   3.356
 7163SOL    HW122388   2.653   6.483   3.376
 7163SOL    HW222389   2.725   6.627   3.348
 7164SOL     OW22390   2.652   1.742   3.363
 7164SOL    HW122391   2.737   1.725   3.313
 7164SOL    HW222392   2.629   1.839   3.359
 7165SOL     OW22393   4.996   0.345   1.777
 7165SOL    HW122394   4.900   0.370   1.764
 7165SOL    HW222395   5.050   0.427   1.796
 7166SOL     OW22396   4.980   5.312   1.897
 7166SOL    HW122397   5.058   5.347   1.843
 7166SOL    HW222398   5.008   5.301   1.992
 7167SOL     OW22399   5.349   3.009   5.413
 7167SOL    HW122400   5.429   3.043   5.363
 7167SOL    HW222401   5.278   2.984   5.347
 7168SOL     OW22402   1.112   1.848   4.670
 7168SOL    HW122403   1.015   1.824   4.678
 7168SOL    HW222404   1.166   1.795   4.735
 7169SOL     OW22405   1.376   2.895   6.776
 7169SOL    HW122406   1.391   2.879   6.874
 7169SOL    HW222407   1.278   2.903   6.759
 7170SOL     OW22408   6.757   5.245   4.381
 7170SOL    HW122409   6.686   5.286   4.438
 7170SOL    HW222410   6.800   5.169   4.430
 7171SOL     OW22411   4.135   2.662   5.745
 7171SOL    HW122412   4.220   2.698   5.706
 7171SOL    HW222413   4.114   2.710   5.831
 7172SOL     OW22414   0.971   6.930   0.850
 7172SOL    HW122415   1.046   6.992   0.825
 7172SOL    HW222416   0.895   6.982   0.887
 7173SOL     OW22417   5.793   6.314   5.426
 7173SOL    HW122418   5.857   6.389   5.442
 7173SOL    HW222419   5.702   6.341   5.458
 7174SOL     OW22420   0.557   5.361   0.081
 7174SOL    HW122421   0.640   5.398   0.039
 7174SOL    HW222422   0.550   5.394   0.175
 7175SOL     OW22423   6.593   2.772   5.319
 7175SOL    HW122424   6.562   2.852   5.371
 7175SOL    HW222425   6.516   2.734   5.267
 7176SOL     OW22426   6.131   3.625   1.462
 7176SOL    HW122427   6.180   3.681   1.529
 7176SOL    HW222428   6.068   3.564   1.510
 7177SOL     OW22429   1.107   6.101   2.272
 7177SOL    HW122430   1.042   6.068   2.204
 7177SOL    HW222431   1.084   6.195   2.299
 7178SOL     OW22432   0.177   2.391   6.336
 7178SOL    HW122433   0.161   2.330   6.258
 7178SOL    HW222434   0.243   2.461   6.309
 7179SOL     OW22435   2.308   4.498   6.159
 7179SOL    HW122436   2.371   4.508   6.082
 7179SOL    HW222437   2.356   4.513   6.245
 7180SOL     OW22438   1.331   6.434   3.120
 7180SOL    HW122439   1.292   6.525   3.128
 7180SOL    HW222440   1.414   6.428   3.176
 7181SOL     OW22441   5.435   6.714   2.565
 7181SOL    HW122442   5.338   6.724   2.589
 7181SOL    HW222443   5.486   6.684   2.646
 7182SOL     OW22444   3.410   3.276   5.577
 7182SOL    HW122445   3.344   3.316   5.640
 7182SOL    HW222446   3.398   3.317   5.486
 7183SOL     OW22447   1.511   5.005   3.268
 7183SOL    HW122448   1.411   4.999   3.262
 7183SOL    HW222449   1.551   4.918   3.237
 7184SOL     OW22450   2.190   6.122   2.906
 7184SOL    HW122451   2.241   6.044   2.870
 7184SOL    HW222452   2.254   6.187   2.946
 7185SOL     OW22453   4.188   2.304   6.436
 7185SOL    HW122454   4.162   2.263   6.523
 7185SOL    HW222455   4.187   2.403   6.445
 7186SOL     OW22456   0.284   0.002   4.298
 7186SOL    HW122457   0.234   7.010   4.213
 7186SOL    HW222458   0.307   0.099   4.305
 7187SOL     OW22459   2.398   6.254   1.299
 7187SOL    HW122460   2.325   6.303   1.346
 7187SOL    HW222461   2.365   6.223   1.209
 7188SOL     OW22462   5.126   0.582   1.833
 7188SOL    HW122463   5.069   0.647   1.782
 7188SOL    HW222464   5.221   0.593   1.807
 7189SOL     OW22465   6.534   0.172   4.668
 7189SOL    HW122466   6.463   0.175   4.738
 7189SOL    HW222467   6.550   0.264   4.632
 7190SOL     OW22468   4.699   5.094   3.262
 7190SOL    HW122469   4.615   5.098   3.209
 7190SOL    HW222470   4.774   5.134   3.209
 7191SOL     OW22471   0.923   2.975   1.824
 7191SOL    HW122472   0.996   2.917   1.859
 7191SOL    HW222473   0.876   3.020   1.900
 7192SOL     OW22474   3.866   5.413   6.191
 7192SOL    HW122475   3.766   5.411   6.192
 7192SOL    HW222476   3.899   5.361   6.112
 7193SOL     OW22477   5.211   1.441   3.406
 7193SOL    HW122478   5.248   1.511   3.345
 7193SOL    HW222479   5.129   1.476   3.453
 7194SOL     OW22480   3.158   1.725   1.172
 7194SOL    HW122481   3.235   1.715   1.235
 7194SOL    HW222482   3.098   1.645   1.180
 7195SOL     OW22483   0.187   5.974   2.152
 7195SOL    HW122484   0.229   6.020   2.074
 7195SOL    HW222485   0.225   6.011   2.237
 7196SOL     OW22486   3.617   3.126   1.873
 7196SOL    HW122487   3.557   3.176   1.936
 7196SOL    HW222488   3.703   3.177   1.861
 7197SOL     OW22489   1.736   1.735   4.715
 7197SOL    HW122490   1.772   1.666   4.653
 7197SOL    HW222491   1.680   1.801   4.665
 7198SOL     OW22492   0.677   6.178   6.281
 7198SOL    HW122493   0.717   6.086   6.274
 7198SOL    HW222494   0.726   6.230   6.351
 7199SOL     OW22495   6.165   6.529   2.681
 7199SOL    HW122496   6.233   6.481   2.738
 7199SOL    HW222497   6.088   6.468   2.664
 7200SOL     OW22498   2.316   1.993   1.766
 7200SOL    HW122499   2.272   1.919   1.817
 7200SOL    HW222500   2.348   2.063   1.831
 7201SOL     OW22501   2.642   4.836   3.357
 7201SOL    HW122502   2.646   4.778   3.438
 7201SOL    HW222503   2.646   4.932   3.384
 7202SOL     OW22504   3.931   0.315   5.724
 7202SOL    HW122505   3.977   0.297   5.811
 7202SOL    HW222506   3.949   0.410   5.695
 7203SOL     OW22507   6.081   0.140   6.628
 7203SOL    HW122508   6.027   0.062   6.661
 7203SOL    HW222509   6.177   0.115   6.625
 7204SOL     OW22510   6.053   1.610   2.232
 7204SOL    HW122511   6.148   1.636   2.218
 7204SOL    HW222512   5.993   1.676   2.187
 7205SOL     OW22513   2.146   5.157   1.889
 7205SOL    HW122514   2.073   5.109   1.840
 7205SOL    HW222515   2.164   5.245   1.845
 7206SOL     OW22516   5.807   1.350   1.786
 7206SOL    HW122517   5.726   1.338   1.728
 7206SOL    HW222518   5.780   1.349   1.882
 7207SOL     OW22519   4.440   6.759   1.538
 7207SOL    HW122520   4.509   6.829   1.520
 7207SOL    HW222521   4.350   6.802   1.544
 7208SOL     OW22522   3.145   6.995   5.303
 7208SOL    HW122523   3.053   7.020   5.334
 7208SOL    HW222524   3.138   6.945   5.216
 7209SOL     OW22525   3.905   3.661   4.420
 7209SOL    HW122526   3.902   3.597   4.343
 7209SOL    HW222527   3.881   3.613   4.504
 7210SOL     OW22528   4.872   0.735   3.755
 7210SOL    HW122529   4.785   0.727   3.707
 7210SOL    HW222530   4.931   0.658   3.730
 7211SOL     OW22531   1.630   5.238   2.706
 7211SOL    HW122532   1.599   5.321   2.752
 7211SOL    HW222533   1.581   5.227   2.620
 7212SOL     OW22534   5.159   6.909   3.868
 7212SOL    HW122535   5.146   6.814   3.897
 7212SOL    HW222536   5.129   6.919   3.774
 7213SOL     OW22537   5.759   0.383   5.512
 7213SOL    HW122538   5.718   0.349   5.427
 7213SOL    HW222539   5.709   0.464   5.542
 7214SOL     OW22540   0.486   5.018   5.238
 7214SOL    HW122541   0.541   5.062   5.167
 7214SOL    HW222542   0.449   4.933   5.203
 7215SOL     OW22543   1.198   2.972   2.552
 7215SOL    HW122544   1.185   2.952   2.649
 7215SOL    HW222545   1.165   3.065   2.533
 7216SOL     OW22546   2.509   1.653   1.770
 7216SOL    HW122547   2.487   1.728   1.831
 7216SOL    HW222548   2.576   1.684   1.701
 7217SOL     OW22549   1.304   3.059   2.000
 7217SOL    HW122550   1.385   3.006   1.980
 7217SOL    HW222551   1.227   2.998   2.019
 7218SOL     OW22552   6.257   2.120   6.330
 7218SOL    HW122553   6.160   2.098   6.337
 7218SOL    HW222554   6.279   2.193   6.395
 7219SOL     OW22555   3.706   0.715   1.345
 7219SOL    HW122556   3.742   0.623   1.358
 7219SOL    HW222557   3.621   0.711   1.291
 7220SOL     OW22558   6.940   1.132   2.826
 7220SOL    HW122559   6.940   1.181   2.913
 7220SOL    HW222560   7.016   1.165   2.770
 7221SOL     OW22561   5.532   4.874   5.379
 7221SOL    HW122562   5.625   4.840   5.366
 7221SOL    HW222563   5.475   4.802   5.417
 7222SOL     OW22564   5.750   6.489   3.106
 7222SOL    HW122565   5.672   6.432   3.132
 7222SOL    HW222566   5.803   6.442   3.035
 7223SOL     OW22567   4.105   0.839   5.348
 7223SOL    HW122568   4.091   0.922   5.294
 7223SOL    HW222569   4.185   0.790   5.314
 7224SOL     OW22570   4.971   0.788   4.573
 7224SOL    HW122571   4.982   0.703   4.624
 7224SOL    HW222572   4.878   0.794   4.537
 7225SOL     OW22573   2.296   0.387   0.437
 7225SOL    HW122574   2.352   0.327   0.379
 7225SOL    HW222575   2.355   0.435   0.502
 7226SOL     OW22576   5.784   6.581   6.652
 7226SOL    HW122577   5.721   6.585   6.729
 7226SOL    HW222578   5.805   6.673   6.621
 7227SOL     OW22579   6.929   2.406   6.408
 7227SOL    HW122580   6.887   2.497   6.407
 7227SOL    HW222581   0.003   2.415   6.389
 7228SOL     OW22582   2.050   0.607   2.674
 7228SOL    HW122583   1.958   0.567   2.674
 7228SOL    HW222584   2.066   0.655   2.588
 7229SOL     OW22585   0.775   0.398   4.165
 7229SOL    HW122586   0.726   0.484   4.149
 7229SOL    HW222587   0.749   0.362   4.255
 7230SOL     OW22588   5.693   5.370   2.024
 7230SOL    HW122589   5.714   5.277   1.993
 7230SOL    HW222590   5.752   5.435   1.978
 7231SOL     OW22591   5.754   1.341   6.524
 7231SOL    HW122592   5.654   1.343   6.521
 7231SOL    HW222593   5.787   1.255   6.486
 7232SOL     OW22594   3.664   4.425   0.821
 7232SOL    HW122595   3.755   4.406   0.784
 7232SOL    HW222596   3.596   4.417   0.748
 7233SOL     OW22597   0.375   2.307   5.878
 7233SOL    HW122598   0.411   2.400   5.871
 7233SOL    HW222599   0.449   2.244   5.901
 7234SOL     OW22600   5.769   1.873   2.651
 7234SOL    HW122601   5.792   1.881   2.554
 7234SOL    HW222602   5.706   1.796   2.664
 7235SOL     OW22603   6.029   2.946   4.439
 7235SOL    HW122604   5.970   2.941   4.519
 7235SOL    HW222605   6.023   2.861   4.386
 7236SOL     OW22606   2.956   0.991   3.283
 7236SOL    HW122607   3.009   1.072   3.308
 7236SOL    HW222608   3.008   0.909   3.306
 7237SOL     OW22609   5.976   5.422   5.769
 7237SOL    HW122610   6.016   5.438   5.859
 7237SOL    HW222611   5.888   5.470   5.763
 7238SOL     OW22612   0.624   1.271   1.645
 7238SOL    HW122613   0.560   1.318   1.585
 7238SOL    HW222614   0.707   1.326   1.657
 7239SOL     OW22615   4.274   1.035   2.344
 7239SOL    HW122616   4.188   1.078   2.373
 7239SOL    HW222617   4.330   1.103   2.297
 7240SOL     OW22618   2.504   3.314   1.138
 7240SOL    HW122619   2.433   3.292   1.205
 7240SOL    HW222620   2.592   3.280   1.169
 7241SOL     OW22621   4.794   6.737   4.456
 7241SOL    HW122622   4.837   6.797   4.389
 7241SOL    HW222623   4.822   6.764   4.548
 7242SOL     OW22624   5.299   5.174   0.359
 7242SOL    HW122625   5.257   5.204   0.445
 7242SOL    HW222626   5.245   5.100   0.320
 7243SOL     OW22627   0.416   5.635   0.467
 7243SOL    HW122628   0.323   5.652   0.435
 7243SOL    HW222629   0.426   5.667   0.561
 7244SOL     OW22630   5.479   1.586   0.831
 7244SOL    HW122631   5.417   1.658   0.799
 7244SOL    HW222632   5.470   1.577   0.930
 7245SOL     OW22633   6.308   1.885   4.635
 7245SOL    HW122634   6.344   1.977   4.622
 7245SOL    HW222635   6.295   1.841   4.546
 7246SOL     OW22636   1.346   5.838   5.429
 7246SOL    HW122637   1.431   5.882   5.398
 7246SOL    HW222638   1.268   5.882   5.385
 7247SOL     OW22639   3.446   5.729   3.039
 7247SOL    HW122640   3.446   5.638   3.083
 7247SOL    HW222641   3.508   5.789   3.088
 7248SOL     OW22642   3.184   1.068   4.955
 7248SOL    HW122643   3.101   1.049   4.903
 7248SOL    HW222644   3.258   1.091   4.892
 7249SOL     OW22645   5.683   4.656   6.195
 7249SOL    HW122646   5.755   4.601   6.153
 7249SOL    HW222647   5.690   4.649   6.295
 7250SOL     OW22648   2.988   3.710   0.172
 7250SOL    HW122649   2.965   3.617   0.200
 7250SOL    HW222650   2.999   3.713   0.072
 7251SOL     OW22651   5.272   0.834   4.754
 7251SOL    HW122652   5.325   0.824   4.669
 7251SOL    HW222653   5.334   0.828   4.832
 7252SOL     OW22654   4.533   3.740   5.346
 7252SOL    HW122655   4.439   3.759   5.319
 7252SOL    HW222656   4.575   3.678   5.279
 7253SOL     OW22657   5.105   4.930   1.426
 7253SOL    HW122658   5.114   4.995   1.502
 7253SOL    HW222659   5.114   4.979   1.339
 7254SOL     OW22660   5.448   6.985   5.671
 7254SOL    HW122661   5.471   0.038   5.612
 7254SOL    HW222662   5.532   6.951   5.716
 7255SOL     OW22663   4.071   3.671   1.826
 7255SOL    HW122664   4.000   3.711   1.767
 7255SOL    HW222665   4.056   3.700   1.920
 7256SOL     OW22666   3.828   5.200   3.819
 7256SOL    HW122667   3.733   5.229   3.809
 7256SOL    HW222668   3.831   5.103   3.845
 7257SOL     OW22669   5.930   3.853   3.261
 7257SOL    HW122670   5.983   3.829   3.342
 7257SOL    HW222671   5.989   3.900   3.196
 7258SOL     OW22672   2.155   7.002   5.685
 7258SOL    HW122673   2.156   6.919   5.629
 7258SOL    HW222674   2.128   6.978   5.779
 7259SOL     OW22675   2.355   5.574   6.374
 7259SOL    HW122676   2.301   5.570   6.458
 7259SOL    HW222677   2.306   5.627   6.305
 7260SOL     OW22678   4.864   1.545   2.472
 7260SOL    HW122679   4.798   1.619   2.457
 7260SOL    HW222680   4.821   1.472   2.525
 7261SOL     OW22681   1.831   4.685   1.290
 7261SOL    HW122682   1.871   4.774   1.311
 7261SOL    HW222683   1.738   4.682   1.327
 7262SOL     OW22684   6.214   1.419   5.841
 7262SOL    HW122685   6.231   1.395   5.936
 7262SOL    HW222686   6.139   1.486   5.836
 7263SOL     OW22687   5.351   6.079   1.833
 7263SOL    HW122688   5.284   6.015   1.794
 7263SOL    HW222689   5.343   6.078   1.933
 7264SOL     OW22690   1.670   6.647   4.519
 7264SOL    HW122691   1.694   6.643   4.616
 7264SOL    HW222692   1.686   6.557   4.478
 7265SOL     OW22693   4.345   3.462   6.114
 7265SOL    HW122694   4.429   3.514   6.102
 7265SOL    HW222695   4.269   3.511   6.071
 7266SOL     OW22696   4.031   1.474   1.328
 7266SOL    HW122697   3.964   1.433   1.267
 7266SOL    HW222698   4.117   1.424   1.322
 7267SOL     OW22699   0.297   3.039   4.154
 7267SOL    HW122700   0.335   3.023   4.245
 7267SOL    HW222701   0.206   2.998   4.149
 7268SOL     OW22702   3.393   0.626   0.305
 7268SOL    HW122703   3.305   0.670   0.324
 7268SOL    HW222704   3.462   0.663   0.368
 7269SOL     OW22705   1.167   6.739   2.323
 7269SOL    HW122706   1.187   6.744   2.421
 7269SOL    HW222707   1.105   6.814   2.298
 7270SOL     OW22708   3.309   1.850   2.038
 7270SOL    HW122709   3.314   1.846   2.138
 7270SOL    HW222710   3.293   1.945   2.009
 7271SOL     OW22711   6.316   5.085   3.850
 7271SOL    HW122712   6.393   5.090   3.786
 7271SOL    HW222713   6.257   5.009   3.824
 7272SOL     OW22714   6.420   1.682   1.342
 7272SOL    HW122715   6.326   1.716   1.342
 7272SOL    HW222716   6.466   1.710   1.257
 7273SOL     OW22717   5.531   6.043   5.649
 7273SOL    HW122718   5.517   5.978   5.575
 7273SOL    HW222719   5.532   5.995   5.737
 7274SOL     OW22720   6.783   5.033   4.026
 7274SOL    HW122721   6.838   5.095   4.083
 7274SOL    HW222722   6.782   4.943   4.068
 7275SOL     OW22723   5.488   6.424   1.143
 7275SOL    HW122724   5.512   6.465   1.231
 7275SOL    HW222725   5.543   6.342   1.129
 7276SOL     OW22726   2.804   1.859   4.004
 7276SOL    HW122727   2.803   1.912   3.919
 7276SOL    HW222728   2.824   1.764   3.983
 7277SOL     OW22729   5.883   1.046   4.192
 7277SOL    HW122730   5.867   0.970   4.255
 7277SOL    HW222731   5.813   1.116   4.205
 7278SOL     OW22732   2.326   1.690   3.489
 7278SOL    HW122733   2.263   1.703   3.565
 7278SOL    HW222734   2.360   1.779   3.458
 7279SOL     OW22735   4.024   4.363   1.035
 7279SOL    HW122736   3.987   4.347   0.944
 7279SOL    HW222737   4.081   4.445   1.034
 7280SOL     OW22738   6.593   1.818   5.435
 7280SOL    HW122739   6.496   1.841   5.423
 7280SOL    HW222740   6.647   1.902   5.429
 7281SOL     OW22741   3.810   5.738   2.211
 7281SOL    HW122742   3.761   5.687   2.283
 7281SOL    HW222743   3.867   5.674   2.159
 7282SOL     OW22744   6.814   3.667   2.282
 7282SOL    HW122745   6.894   3.695   2.230
 7282SOL    HW222746   6.759   3.603   2.229
 7283SOL     OW22747   3.683   6.040   3.018
 7283SOL    HW122748   3.764   6.089   2.985
 7283SOL    HW222749   3.713   5.959   3.070
 7284SOL     OW22750   1.112   1.460   2.741
 7284SOL    HW122751   1.118   1.364   2.714
 7284SOL    HW222752   1.194   1.508   2.708
 7285SOL     OW22753   5.039   2.627   2.155
 7285SOL    HW122754   5.030   2.683   2.238
 7285SOL    HW222755   5.007   2.679   2.077
 7286SOL     OW22756   6.328   1.371   3.529
 7286SOL    HW122757   6.373   1.459   3.539
 7286SOL    HW222758   6.263   1.358   3.604
 7287SOL     OW22759   3.557   0.826   4.016
 7287SOL    HW122760   3.538   0.741   3.967
 7287SOL    HW222761   3.562   0.902   3.951
 7288SOL     OW22762   3.407   1.636   1.895
 7288SOL    HW122763   3.375   1.711   1.952
 7288SOL    HW222764   3.455   1.569   1.952
 7289SOL     OW22765   5.704   3.005   2.248
 7289SOL    HW122766   5.758   3.018   2.331
 7289SOL    HW222767   5.616   3.052   2.257
 7290SOL     OW22768   4.261   1.611   5.261
 7290SOL    HW122769   4.286   1.585   5.354
 7290SOL    HW222770   4.339   1.597   5.200
 7291SOL     OW22771   1.592   1.020   0.676
 7291SOL    HW122772   1.588   1.117   0.651
 7291SOL    HW222773   1.501   0.988   0.699
 7292SOL     OW22774   2.749   1.079   2.810
 7292SOL    HW122775   2.786   1.172   2.810
 7292SOL    HW222776   2.783   1.029   2.889
 7293SOL     OW22777   6.367   1.396   3.890
 7293SOL    HW122778   6.283   1.377   3.838
 7293SOL    HW222779   6.356   1.363   3.984
 7294SOL     OW22780   3.976   6.552   2.238
 7294SOL    HW122781   4.071   6.541   2.208
 7294SOL    HW222782   3.961   6.496   2.320
 7295SOL     OW22783   5.194   3.926   1.405
 7295SOL    HW122784   5.177   3.834   1.368
 7295SOL    HW222785   5.113   3.982   1.393
 7296SOL     OW22786   3.509   6.058   1.961
 7296SOL    HW122787   3.527   6.129   1.893
 7296SOL    HW222788   3.502   5.969   1.915
 7297SOL     OW22789   4.422   6.326   0.572
 7297SOL    HW122790   4.500   6.388   0.579
 7297SOL    HW222791   4.353   6.352   0.641
 7298SOL     OW22792   4.256   5.799   1.474
 7298SOL    HW122793   4.322   5.742   1.424
 7298SOL    HW222794   4.182   5.827   1.413
 7299SOL     OW22795   0.409   3.417   5.144
 7299SOL    HW122796   0.450   3.477   5.212
 7299SOL    HW222797   0.423   3.322   5.172
 7300SOL     OW22798   0.310   4.852   2.500
 7300SOL    HW122799   0.258   4.857   2.414
 7300SOL    HW222800   0.385   4.917   2.498
 7301SOL     OW22801   4.077   2.084   6.278
 7301SOL    HW122802   4.140   2.096   6.202
 7301SOL    HW222803   4.068   2.170   6.329
 7302SOL     OW22804   5.282   2.365   6.867
 7302SOL    HW122805   5.255   2.360   6.771
 7302SOL    HW222806   5.242   2.288   6.917
 7303SOL     OW22807   3.396   2.134   1.418
 7303SOL    HW122808   3.409   2.232   1.434
 7303SOL    HW222809   3.445   2.082   1.488
 7304SOL     OW22810   2.246   5.823   0.619
 7304SOL    HW122811   2.322   5.763   0.646
 7304SOL    HW222812   2.279   5.891   0.554
 7305SOL     OW22813   6.339   0.424   6.684
 7305SOL    HW122814   6.325   0.388   6.592
 7305SOL    HW222815   6.391   0.357   6.738
 7306SOL     OW22816   1.131   3.154   1.296
 7306SOL    HW122817   1.175   3.220   1.234
 7306SOL    HW222818   1.165   3.168   1.389
 7307SOL     OW22819   2.236   0.475   2.155
 7307SOL    HW122820   2.232   0.442   2.249
 7307SOL    HW222821   2.247   0.398   2.093
 7308SOL     OW22822   3.563   0.762   3.454
 7308SOL    HW122823   3.647   0.722   3.417
 7308SOL    HW222824   3.531   0.708   3.531
 7309SOL     OW22825   2.163   5.556   3.780
 7309SOL    HW122826   2.104   5.505   3.842
 7309SOL    HW222827   2.186   5.644   3.821
 7310SOL     OW22828   2.494   2.664   6.441
 7310SOL    HW122829   2.591   2.673   6.419
 7310SOL    HW222830   2.484   2.619   6.530
 7311SOL     OW22831   0.244   6.131   6.028
 7311SOL    HW122832   0.330   6.157   5.983
 7311SOL    HW222833   0.178   6.206   6.018
 7312SOL     OW22834   6.104   2.299   4.262
 7312SOL    HW122835   6.019   2.257   4.292
 7312SOL    HW222836   6.179   2.234   4.272
 7313SOL     OW22837   3.028   0.808   2.769
 7313SOL    HW122838   3.011   0.905   2.782
 7313SOL    HW222839   3.057   0.791   2.674
 7314SOL     OW22840   1.823   5.096   5.943
 7314SOL    HW122841   1.897   5.088   6.009
 7314SOL    HW222842   1.858   5.075   5.851
 7315SOL     OW22843   2.997   5.101   2.046
 7315SOL    HW122844   2.987   5.003   2.027
 7315SOL    HW222845   3.094   5.125   2.049
 7316SOL     OW22846   3.732   1.494   1.336
 7316SOL    HW122847   3.787   1.454   1.262
 7316SOL    HW222848   3.747   1.443   1.420
 7317SOL     OW22849   4.654   2.272   0.653
 7317SOL    HW122850   4.623   2.213   0.579
 7317SOL    HW222851   4.744   2.242   0.684
 7318SOL     OW22852   5.112   0.036   0.201
 7318SOL    HW122853   5.129   0.135   0.206
 7318SOL    HW222854   5.198   7.011   0.218
 7319SOL     OW22855   5.395   6.204   6.712
 7319SOL    HW122856   5.425   6.214   6.617
 7319SOL    HW222857   5.471   6.223   6.774
 7320SOL     OW22858   0.669   2.972   0.459
 7320SOL    HW122859   0.585   2.948   0.410
 7320SOL    HW222860   0.736   2.898   0.448
 7321SOL     OW22861   2.302   2.426   6.395
 7321SOL    HW122862   2.374   2.495   6.395
 7321SOL    HW222863   2.231   2.453   6.330
 7322SOL     OW22864   1.050   2.614   3.863
 7322SOL    HW122865   0.989   2.676   3.815
 7322SOL    HW222866   1.060   2.530   3.810
 7323SOL     OW22867   1.389   2.383   0.804
 7323SOL    HW122868   1.432   2.319   0.867
 7323SOL    HW222869   1.322   2.334   0.748
 7324SOL     OW22870   4.812   3.939   4.152
 7324SOL    HW122871   4.904   3.975   4.136
 7324SOL    HW222872   4.752   3.966   4.077
 7325SOL     OW22873   3.604   1.700   6.199
 7325SOL    HW122874   3.690   1.652   6.215
 7325SOL    HW222875   3.528   1.647   6.237
 7326SOL     OW22876   4.063   6.916   0.640
 7326SOL    HW122877   3.964   6.920   0.652
 7326SOL    HW222878   4.088   6.831   0.594
 7327SOL     OW22879   1.857   4.250   3.389
 7327SOL    HW122880   1.902   4.179   3.334
 7327SOL    HW222881   1.880   4.237   3.485
 7328SOL     OW22882   4.466   5.477   6.294
 7328SOL    HW122883   4.419   5.395   6.327
 7328SOL    HW222884   4.420   5.512   6.213
 7329SOL     OW22885   2.700   3.988   0.514
 7329SOL    HW122886   2.786   3.992   0.464
 7329SOL    HW222887   2.670   3.893   0.523
 7330SOL     OW22888   2.514   2.653   0.904
 7330SOL    HW122889   2.419   2.621   0.897
 7330SOL    HW222890   2.548   2.676   0.813
 7331SOL     OW22891   5.166   1.894   2.502
 7331SOL    HW122892   5.122   1.908   2.413
 7331SOL    HW222893   5.187   1.983   2.543
 7332SOL     OW22894   2.795   6.187   5.727
 7332SOL    HW122895   2.851   6.122   5.779
 7332SOL    HW222896   2.813   6.175   5.630
 7333SOL     OW22897   6.880   0.492   1.366
 7333SOL    HW122898   6.782   0.479   1.354
 7333SOL    HW222899   6.926   0.403   1.365
 7334SOL     OW22900   1.652   4.683   4.493
 7334SOL    HW122901   1.570   4.670   4.548
 7334SOL    HW222902   1.644   4.629   4.409
 7335SOL     OW22903   0.828   3.574   2.279
 7335SOL    HW122904   0.764   3.528   2.217
 7335SOL    HW222905   0.867   3.508   2.343
 7336SOL     OW22906   2.532   6.562   1.002
 7336SOL    HW122907   2.607   6.552   1.067
 7336SOL    HW222908   2.445   6.542   1.048
 7337SOL     OW22909   3.516   1.038   3.850
 7337SOL    HW122910   3.587   1.027   3.780
 7337SOL    HW222911   3.427   1.046   3.805
 7338SOL     OW22912   4.625   3.919   1.264
 7338SOL    HW122913   4.627   3.832   1.216
 7338SOL    HW222914   4.616   3.903   1.362
 7339SOL     OW22915   0.201   6.183   4.827
 7339SOL    HW122916   0.162   6.145   4.911
 7339SOL    HW222917   0.279   6.241   4.850
 7340SOL     OW22918   2.625   6.207   0.392
 7340SOL    HW122919   2.683   6.273   0.439
 7340SOL    HW222920   2.554   6.173   0.454
 7341SOL     OW22921   6.301   5.674   4.385
 7341SOL    HW122922   6.362   5.681   4.306
 7341SOL    HW222923   6.320   5.589   4.434
 7342SOL     OW22924   0.939   5.182   0.900
 7342SOL    HW122925   0.975   5.133   0.979
 7342SOL    HW222926   0.854   5.228   0.924
 7343SOL     OW22927   5.826   2.335   3.041
 7343SOL    HW122928   5.804   2.414   2.984
 7343SOL    HW222929   5.894   2.278   2.995
 7344SOL     OW22930   2.289   1.392   6.793
 7344SOL    HW122931   2.269   1.340   6.876
 7344SOL    HW222932   2.344   1.337   6.731
 7345SOL     OW22933   2.285   6.478   0.185
 7345SOL    HW122934   2.229   6.551   0.147
 7345SOL    HW222935   2.354   6.517   0.246
 7346SOL     OW22936   3.906   4.983   2.244
 7346SOL    HW122937   3.933   4.933   2.326
 7346SOL    HW222938   3.987   5.022   2.200
 7347SOL     OW22939   6.498   2.740   2.338
 7347SOL    HW122940   6.509   2.647   2.374
 7347SOL    HW222941   6.575   2.797   2.368
 7348SOL     OW22942   0.044   1.278   4.934
 7348SOL    HW122943   0.039   1.213   5.010
 7348SOL    HW222944   6.977   1.287   4.892
 7349SOL     OW22945   3.632   1.421   0.846
 7349SOL    HW122946   3.635   1.322   0.861
 7349SOL    HW222947   3.588   1.465   0.924
 7350SOL     OW22948   2.292   1.181   2.583
 7350SOL    HW122949   2.316   1.256   2.520
 7350SOL    HW222950   2.370   1.120   2.592
 7351SOL     OW22951   4.145   5.074   0.736
 7351SOL    HW122952   4.105   5.033   0.654
 7351SOL    HW222953   4.133   5.174   0.733
 7352SOL     OW22954   6.688   0.480   3.222
 7352SOL    HW122955   6.651   0.394   3.185
 7352SOL    HW222956   6.769   0.506   3.170
 7353SOL     OW22957   5.169   2.016   4.645
 7353SOL    HW122958   5.164   2.091   4.579
 7353SOL    HW222959   5.186   1.930   4.598
 7354SOL     OW22960   6.343   4.292   4.474
 7354SOL    HW122961   6.431   4.248   4.457
 7354SOL    HW222962   6.300   4.316   4.387
 7355SOL     OW22963   0.695   5.314   0.911
 7355SOL    HW122964   0.651   5.354   0.830
 7355SOL    HW222965   0.667   5.365   0.992
 7356SOL     OW22966   7.021   2.099   6.306
 7356SOL    HW122967   7.016   2.195   6.332
 7356SOL    HW222968   7.018   2.092   6.206
 7357SOL     OW22969   1.107   1.620   0.107
 7357SOL    HW122970   1.129   1.542   0.049
 7357SOL    HW222971   1.187   1.679   0.115
 7358SOL     OW22972   3.418   0.389   4.112
 7358SOL    HW122973   3.457   0.403   4.202
 7358SOL    HW222974   3.492   0.376   4.045
 7359SOL     OW22975   3.601   2.916   3.092
 7359SOL    HW122976   3.611   2.858   3.012
 7359SOL    HW222977   3.506   2.943   3.103
 7360SOL     OW22978   0.086   3.835   5.853
 7360SOL    HW122979   0.083   3.933   5.835
 7360SOL    HW222980   0.164   3.813   5.911
 7361SOL     OW22981   5.166   6.520   1.568
 7361SOL    HW122982   5.218   6.447   1.523
 7361SOL    HW222983   5.226   6.597   1.587
 7362SOL     OW22984   1.625   6.663   6.303
 7362SOL    HW122985   1.600   6.661   6.206
 7362SOL    HW222986   1.723   6.682   6.311
 7363SOL     OW22987   4.939   2.821   6.550
 7363SOL    HW122988   4.872   2.795   6.620
 7363SOL    HW222989   4.937   2.753   6.476
 7364SOL     OW22990   4.832   0.845   1.152
 7364SOL    HW122991   4.902   0.828   1.083
 7364SOL    HW222992   4.752   0.887   1.109
 7365SOL     OW22993   3.575   1.014   1.861
 7365SOL    HW122994   3.647   1.002   1.792
 7365SOL    HW222995   3.487   0.987   1.822
 7366SOL     OW22996   0.585   6.572   6.970
 7366SOL    HW122997   0.589   6.592   0.044
 7366SOL    HW222998   0.571   6.657   6.919
 7367SOL     OW22999   4.530   2.963   6.764
 7367SOL    HW123000   4.481   2.969   6.678
 7367SOL    HW223001   4.575   3.051   6.782
 7368SOL     OW23002   3.174   3.042   3.800
 7368SOL    HW123003   3.156   2.972   3.730
 7368SOL    HW223004   3.097   3.106   3.803
 7369SOL     OW23005   4.719   1.644   6.159
 7369SOL    HW123006   4.739   1.734   6.121
 7369SOL    HW223007   4.681   1.654   6.251
 7370SOL     OW23008   0.994   5.482   1.065
 7370SOL    HW123009   1.022   5.520   0.976
 7370SOL    HW223010   1.068   5.426   1.101
 7371SOL     OW23011   2.170   5.157   4.505
 7371SOL    HW123012   2.148   5.072   4.457
 7371SOL    HW223013   2.133   5.153   4.598
 7372SOL     OW23014   2.995   6.559   5.353
 7372SOL    HW123015   2.917   6.582   5.411
 7372SOL    HW223016   3.074   6.538   5.411
 7373SOL     OW23017   3.621   0.635   0.902
 7373SOL    HW123018   3.585   0.626   0.994
 7373SOL    HW223019   3.576   0.569   0.841
 7374SOL     OW23020   2.360   3.205   6.429
 7374SOL    HW123021   2.324   3.121   6.387
 7374SOL    HW223022   2.389   3.268   6.357
 7375SOL     OW23023   2.428   6.308   3.016
 7375SOL    HW123024   2.490   6.278   2.942
 7375SOL    HW223025   2.478   6.307   3.103
 7376SOL     OW23026   3.590   4.475   6.333
 7376SOL    HW123027   3.512   4.442   6.281
 7376SOL    HW223028   3.671   4.478   6.274
 7377SOL     OW23029   5.863   5.511   1.816
 7377SOL    HW123030   5.893   5.606   1.806
 7377SOL    HW223031   5.828   5.478   1.728
 7378SOL     OW23032   0.145   2.868   6.233
 7378SOL    HW123033   0.129   2.798   6.163
 7378SOL    HW223034   0.173   2.824   6.318
 7379SOL     OW23035   4.118   1.080   1.272
 7379SOL    HW123036   4.157   1.170   1.289
 7379SOL    HW223037   4.123   1.025   1.356
 7380SOL     OW23038   6.457   2.309   5.445
 7380SOL    HW123039   6.432   2.267   5.358
 7380SOL    HW223040   6.436   2.407   5.442
 7381SOL     OW23041   4.521   2.654   0.063
 7381SOL    HW123042   4.492   2.559   0.078
 7381SOL    HW223043   4.598   2.655   7.022
 7382SOL     OW23044   0.969   5.620   3.740
 7382SOL    HW123045   0.973   5.620   3.640
 7382SOL    HW223046   1.005   5.534   3.775
 7383SOL     OW23047   0.383   4.756   3.320
 7383SOL    HW123048   0.433   4.692   3.379
 7383SOL    HW223049   0.370   4.715   3.230
 7384SOL     OW23050   6.335   1.971   1.781
 7384SOL    HW123051   6.435   1.959   1.777
 7384SOL    HW223052   6.293   1.923   1.704
 7385SOL     OW23053   4.974   0.787   1.689
 7385SOL    HW123054   5.001   0.856   1.756
 7385SOL    HW223055   4.951   0.832   1.603
 7386SOL     OW23056   0.046   2.726   5.806
 7386SOL    HW123057   0.022   2.693   5.897
 7386SOL    HW223058   0.142   2.756   5.805
 7387SOL     OW23059   5.630   6.377   4.103
 7387SOL    HW123060   5.613   6.324   4.187
 7387SOL    HW223061   5.544   6.407   4.064
 7388SOL     OW23062   5.308   4.022   5.005
 7388SOL    HW123063   5.324   3.989   4.912
 7388SOL    HW223064   5.372   4.096   5.026
 7389SOL     OW23065   0.516   4.263   4.665
 7389SOL    HW123066   0.593   4.201   4.685
 7389SOL    HW223067   0.533   4.309   4.577
 7390SOL     OW23068   3.137   0.122   6.271
 7390SOL    HW123069   3.079   0.124   6.353
 7390SOL    HW223070   3.189   0.207   6.265
 7391SOL     OW23071   6.735   4.515   0.225
 7391SOL    HW123072   6.810   4.529   0.160
 7391SOL    HW223073   6.756   4.561   0.311
 7392SOL     OW23074   2.017   4.292   2.893
 7392SOL    HW123075   2.057   4.358   2.958
 7392SOL    HW223076   2.063   4.204   2.902
 7393SOL     OW23077   0.477   3.928   0.169
 7393SOL    HW123078   0.565   3.964   0.138
 7393SOL    HW223079   0.403   3.983   0.130
 7394SOL     OW23080   2.899   2.652   6.197
 7394SOL    HW123081   2.987   2.604   6.186
 7394SOL    HW223082   2.831   2.588   6.233
 7395SOL     OW23083   2.143   6.677   0.048
 7395SOL    HW123084   2.122   6.745   0.119
 7395SOL    HW223085   2.058   6.637   0.014
 7396SOL     OW23086   0.060   6.791   1.873
 7396SOL    HW123087   7.004   6.807   1.931
 7396SOL    HW223088   0.041   6.826   1.781
 7397SOL     OW23089   6.083   4.597   4.642
 7397SOL    HW123090   6.133   4.667   4.591
 7397SOL    HW223091   6.148   4.531   4.680
 7398SOL     OW23092   4.589   6.650   3.186
 7398SOL    HW123093   4.491   6.633   3.186
 7398SOL    HW223094   4.637   6.569   3.218
 7399SOL     OW23095   5.455   4.732   4.581
 7399SOL    HW123096   5.361   4.754   4.607
 7399SOL    HW223097   5.506   4.817   4.566
 7400SOL     OW23098   2.685   4.192   0.031
 7400SOL    HW123099   2.718   4.287   0.036
 7400SOL    HW223100   2.604   4.182   0.088
 7401SOL     OW23101   5.816   1.985   5.149
 7401SOL    HW123102   5.781   1.993   5.243
 7401SOL    HW223103   5.741   1.961   5.088
 7402SOL     OW23104   2.756   6.280   4.586
 7402SOL    HW123105   2.672   6.235   4.557
 7402SOL    HW223106   2.818   6.287   4.508
 7403SOL     OW23107   2.333   3.201   1.344
 7403SOL    HW123108   2.233   3.208   1.333
 7403SOL    HW223109   2.361   3.106   1.332
 7404SOL     OW23110   1.121   2.086   2.727
 7404SOL    HW123111   1.091   2.179   2.708
 7404SOL    HW223112   1.063   2.046   2.798
 7405SOL     OW23113   3.980   5.077   6.646
 7405SOL    HW123114   3.884   5.095   6.627
 7405SOL    HW223115   4.001   5.105   6.740
 7406SOL     OW23116   0.760   6.406   2.225
 7406SOL    HW123117   0.854   6.391   2.253
 7406SOL    HW223118   0.743   6.504   2.215
 7407SOL     OW23119   2.235   0.973   5.850
 7407SOL    HW123120   2.290   0.992   5.769
 7407SOL    HW223121   2.254   0.880   5.881
 7408SOL     OW23122   0.375   4.163   4.965
 7408SOL    HW123123   0.293   4.212   4.937
 7408SOL    HW223124   0.350   4.069   4.989
 7409SOL     OW23125   2.411   6.739   5.462
 7409SOL    HW123126   2.437   6.775   5.552
 7409SOL    HW223127   2.491   6.735   5.403
 7410SOL     OW23128   5.159   5.081   6.645
 7410SOL    HW123129   5.199   4.995   6.676
 7410SOL    HW223130   5.084   5.062   6.581
 7411SOL     OW23131   5.241   5.119   5.760
 7411SOL    HW123132   5.325   5.069   5.777
 7411SOL    HW223133   5.181   5.112   5.840
 7412SOL     OW23134   1.500   1.252   6.781
 7412SOL    HW123135   1.464   1.243   6.688
 7412SOL    HW223136   1.475   1.341   6.819
 7413SOL     OW23137   7.000   3.517   4.363
 7413SOL    HW123138   7.007   3.609   4.401
 7413SOL    HW223139   0.068   3.483   4.341
 7414SOL     OW23140   0.210   5.262   2.739
 7414SOL    HW123141   0.247   5.170   2.726
 7414SOL    HW223142   0.286   5.326   2.754
 7415SOL     OW23143   2.566   1.512   3.492
 7415SOL    HW123144   2.477   1.547   3.523
 7415SOL    HW223145   2.618   1.586   3.450
 7416SOL     OW23146   6.105   0.179   3.137
 7416SOL    HW123147   6.068   0.105   3.194
 7416SOL    HW223148   6.086   0.159   3.041
 7417SOL     OW23149   0.878   5.973   0.820
 7417SOL    HW123150   0.926   5.957   0.906
 7417SOL    HW223151   0.877   6.071   0.800
 7418SOL     OW23152   0.830   3.847   0.470
 7418SOL    HW123153   0.796   3.777   0.532
 7418SOL    HW223154   0.799   3.828   0.377
 7419SOL     OW23155   5.709   1.534   5.813
 7419SOL    HW123156   5.723   1.461   5.746
 7419SOL    HW223157   5.700   1.494   5.904
 7420SOL     OW23158   6.895   5.768   2.523
 7420SOL    HW123159   6.890   5.860   2.561
 7420SOL    HW223160   6.805   5.723   2.531
 7421SOL     OW23161   3.956   2.381   1.280
 7421SOL    HW123162   4.044   2.386   1.327
 7421SOL    HW223163   3.882   2.377   1.347
 7422SOL     OW23164   0.945   1.909   0.760
 7422SOL    HW123165   0.907   1.896   0.851
 7422SOL    HW223166   1.045   1.918   0.766
 7423SOL     OW23167   2.465   4.889   6.910
 7423SOL    HW123168   2.413   4.871   6.827
 7423SOL    HW223169   2.407   4.871   6.990
 7424SOL     OW23170   5.511   0.464   4.643
 7424SOL    HW123171   5.507   0.560   4.615
 7424SOL    HW223172   5.544   0.408   4.567
 7425SOL     OW23173   4.192   0.386   4.874
 7425SOL    HW123174   4.137   0.353   4.951
 7425SOL    HW223175   4.265   0.320   4.855
 7426SOL     OW23176   0.477   1.661   0.201
 7426SOL    HW123177   0.571   1.629   0.210
 7426SOL    HW223178   0.466   1.709   0.113
 7427SOL     OW23179   4.788   5.869   4.778
 7427SOL    HW123180   4.821   5.913   4.695
 7427SOL    HW223181   4.716   5.803   4.754
 7428SOL     OW23182   2.809   1.338   5.594
 7428SOL    HW123183   2.876   1.273   5.630
 7428SOL    HW223184   2.737   1.288   5.545
 7429SOL     OW23185   6.734   6.928   3.513
 7429SOL    HW123186   6.804   6.863   3.542
 7429SOL    HW223187   6.689   6.967   3.593
 7430SOL     OW23188   0.213   4.682   4.547
 7430SOL    HW123189   0.119   4.707   4.524
 7430SOL    HW223190   0.242   4.733   4.628
 7431SOL     OW23191   0.761   4.166   2.267
 7431SOL    HW123192   0.685   4.231   2.260
 7431SOL    HW223193   0.730   4.084   2.316
 7432SOL     OW23194   1.371   6.414   4.559
 7432SOL    HW123195   1.309   6.336   4.564
 7432SOL    HW223196   1.457   6.391   4.606
 7433SOL     OW23197   0.112   6.346   1.170
 7433SOL    HW123198   0.072   6.429   1.208
 7433SOL    HW223199   0.070   6.266   1.213
 7434SOL     OW23200   4.053   7.008   6.977
 7434SOL    HW123201   3.979   6.973   0.011
 7434SOL    HW223202   4.052   6.960   6.889
 7435SOL     OW23203   1.227   5.722   6.559
 7435SOL    HW123204   1.177   5.783   6.621
 7435SOL    HW223205   1.324   5.723   6.583
 7436SOL     OW23206   4.485   3.409   6.934
 7436SOL    HW123207   4.464   3.394   0.007
 7436SOL    HW223208   4.508   3.505   6.919
 7437SOL     OW23209   6.755   5.484   5.579
 7437SOL    HW123210   6.732   5.403   5.632
 7437SOL    HW223211   6.844   5.519   5.607
 7438SOL     OW23212   5.523   3.861   1.584
 7438SOL    HW123213   5.557   3.855   1.678
 7438SOL    HW223214   5.556   3.945   1.542
 7439SOL     OW23215   1.334   5.864   3.613
 7439SOL    HW123216   1.339   5.958   3.579
 7439SOL    HW223217   1.351   5.800   3.538
 7440SOL     OW23218   0.661   1.685   3.488
 7440SOL    HW123219   0.741   1.690   3.428
 7440SOL    HW223220   0.687   1.707   3.582
 7441SOL     OW23221   6.215   6.952   3.637
 7441SOL    HW123222   6.127   6.997   3.622
 7441SOL    HW223223   6.288   7.019   3.629
 7442SOL     OW23224   1.513   0.635   6.192
 7442SOL    HW123225   1.498   0.631   6.291
 7442SOL    HW223226   1.602   0.677   6.174
 7443SOL     OW23227   6.788   1.718   1.297
 7443SOL    HW123228   6.769   1.790   1.364
 7443SOL    HW223229   6.830   1.640   1.342
 7444SOL     OW23230   0.853   2.112   5.413
 7444SOL    HW123231   0.887   2.063   5.333
 7444SOL    HW223232   0.816   2.047   5.479
 7445SOL     OW23233   5.860   2.506   1.647
 7445SOL    HW123234   5.957   2.485   1.665
 7445SOL    HW223235   5.836   2.593   1.691
 7446SOL     OW23236   6.130   3.327   2.043
 7446SOL    HW123237   6.213   3.273   2.059
 7446SOL    HW223238   6.050   3.271   2.062
 7447SOL     OW23239   0.196   3.948   6.193
 7447SOL    HW123240   0.188   4.038   6.237
 7447SOL    HW223241   0.106   3.921   6.158
 7448SOL     OW23242   6.966   6.456   5.841
 7448SOL    HW123243   0.029   6.432   5.883
 7448SOL    HW223244   6.891   6.415   5.893
 7449SOL     OW23245   4.484   0.718   1.288
 7449SOL    HW123246   4.490   0.757   1.380
 7449SOL    HW223247   4.561   0.656   1.272
 7450SOL     OW23248   3.675   0.513   1.765
 7450SOL    HW123249   3.674   0.416   1.743
 7450SOL    HW223250   3.767   0.540   1.792
 7451SOL     OW23251   1.598   1.019   2.497
 7451SOL    HW123252   1.567   0.949   2.561
 7451SOL    HW223253   1.607   1.106   2.546
 7452SOL     OW23254   1.708   6.616   3.581
 7452SOL    HW123255   1.714   6.612   3.481
 7452SOL    HW223256   1.723   6.525   3.619
 7453SOL     OW23257   5.858   5.133   5.636
 7453SOL    HW123258   5.848   5.038   5.664
 7453SOL    HW223259   5.937   5.174   5.681
 7454SOL     OW23260   0.895   3.061   6.694
 7454SOL    HW123261   0.876   3.122   6.771
 7454SOL    HW223262   0.828   2.987   6.693
 7455SOL     OW23263   5.239   1.158   0.302
 7455SOL    HW123264   5.330   1.200   0.307
 7455SOL    HW223265   5.226   1.098   0.380
 7456SOL     OW23266   1.091   3.158   5.616
 7456SOL    HW123267   1.068   3.255   5.625
 7456SOL    HW223268   1.125   3.141   5.523
 7457SOL     OW23269   6.414   6.448   6.286
 7457SOL    HW123270   6.364   6.361   6.284
 7457SOL    HW223271   6.509   6.432   6.259
 7458SOL     OW23272   2.506   0.209   1.223
 7458SOL    HW123273   2.594   0.248   1.195
 7458SOL    HW223274   2.512   0.181   1.319
 7459SOL     OW23275   4.719   0.205   4.376
 7459SOL    HW123276   4.620   0.194   4.381
 7459SOL    HW223277   4.742   0.302   4.381
 7460SOL     OW23278   0.488   5.456   6.325
 7460SOL    HW123279   0.530   5.432   6.412
 7460SOL    HW223280   0.557   5.496   6.265
 7461SOL     OW23281   4.620   0.954   4.069
 7461SOL    HW123282   4.525   0.947   4.102
 7461SOL    HW223283   4.682   0.931   4.144
 7462SOL     OW23284   1.783   1.043   2.304
 7462SOL    HW123285   1.728   1.012   2.382
 7462SOL    HW223286   1.806   1.140   2.316
 7463SOL     OW23287   3.452   3.933   2.171
 7463SOL    HW123288   3.537   3.985   2.164
 7463SOL    HW223289   3.469   3.838   2.146
 7464SOL     OW23290   4.980   6.914   0.015
 7464SOL    HW123291   5.015   6.820   0.021
 7464SOL    HW223292   5.032   6.973   0.077
 7465SOL     OW23293   3.276   1.240   2.265
 7465SOL    HW123294   3.192   1.225   2.213
 7465SOL    HW223295   3.354   1.210   2.211
 7466SOL     OW23296   6.803   0.527   6.544
 7466SOL    HW123297   6.785   0.453   6.479
 7466SOL    HW223298   6.807   0.490   6.637
 7467SOL     OW23299   5.214   1.500   1.431
 7467SOL    HW123300   5.160   1.578   1.398
 7467SOL    HW223301   5.285   1.479   1.363
 7468SOL     OW23302   5.646   3.235   4.495
 7468SOL    HW123303   5.696   3.212   4.412
 7468SOL    HW223304   5.550   3.252   4.473
 7469SOL     OW23305   6.101   1.062   1.987
 7469SOL    HW123306   6.112   1.152   1.943
 7469SOL    HW223307   6.005   1.049   2.011
 7470SOL     OW23308   0.623   3.413   2.656
 7470SOL    HW123309   0.698   3.357   2.691
 7470SOL    HW223310   0.629   3.418   2.556
 7471SOL     OW23311   6.092   4.285   5.594
 7471SOL    HW123312   6.017   4.279   5.660
 7471SOL    HW223313   6.150   4.205   5.602
 7472SOL     OW23314   3.478   4.879   3.289
 7472SOL    HW123315   3.554   4.876   3.224
 7472SOL    HW223316   3.392   4.881   3.239
 7473SOL     OW23317   0.755   3.392   5.085
 7473SOL    HW123318   0.777   3.337   5.004
 7473SOL    HW223319   0.817   3.471   5.090
 7474SOL     OW23320   3.374   1.906   3.442
 7474SOL    HW123321   3.354   1.847   3.520
 7474SOL    HW223322   3.448   1.969   3.466
 7475SOL     OW23323   4.203   1.232   6.525
 7475SOL    HW123324   4.220   1.178   6.608
 7475SOL    HW223325   4.288   1.271   6.492
 7476SOL     OW23326   3.370   6.996   5.471
 7476SOL    HW123327   3.289   6.988   5.413
 7476SOL    HW223328   3.366   0.058   5.522
 7477SOL     OW23329   4.888   3.868   3.823
 7477SOL    HW123330   4.898   3.961   3.858
 7477SOL    HW223331   4.908   3.802   3.895
 7478SOL     OW23332   1.578   4.623   1.382
 7478SOL    HW123333   1.489   4.668   1.373
 7478SOL    HW223334   1.576   4.534   1.337
 7479SOL     OW23335   4.295   0.529   5.932
 7479SOL    HW123336   4.390   0.501   5.913
 7479SOL    HW223337   4.294   0.595   6.007
 7480SOL     OW23338   6.344   4.938   0.571
 7480SOL    HW123339   6.296   5.015   0.529
 7480SOL    HW223340   6.435   4.931   0.532
 7481SOL     OW23341   6.429   5.989   0.779
 7481SOL    HW123342   6.334   5.974   0.752
 7481SOL    HW223343   6.449   6.087   0.775
 7482SOL     OW23344   5.268   0.390   3.712
 7482SOL    HW123345   5.344   0.431   3.762
 7482SOL    HW223346   5.287   0.394   3.614
 7483SOL     OW23347   3.344   6.961   6.190
 7483SOL    HW123348   3.400   6.924   6.264
 7483SOL    HW223349   3.273   7.020   6.228
 7484SOL     OW23350   3.367   0.526   2.347
 7484SOL    HW123351   3.362   0.614   2.299
 7484SOL    HW223352   3.333   0.538   2.441
 7485SOL     OW23353   0.920   6.777   5.284
 7485SOL    HW123354   0.879   6.698   5.238
 7485SOL    HW223355   0.959   6.748   5.371
 7486SOL     OW23356   1.717   0.813   4.691
 7486SOL    HW123357   1.666   0.873   4.630
 7486SOL    HW223358   1.768   0.868   4.758
 7487SOL     OW23359   4.199   5.481   3.189
 7487SOL    HW123360   4.107   5.442   3.187
 7487SOL    HW223361   4.246   5.461   3.103
 7488SOL     OW23362   3.406   0.409   5.406
 7488SOL    HW123363   3.470   0.484   5.390
 7488SOL    HW223364   3.347   0.397   5.326
 7489SOL     OW23365   6.163   3.583   3.190
 7489SOL    HW123366   6.121   3.674   3.192
 7489SOL    HW223367   6.127   3.527   3.263
 7490SOL     OW23368   5.614   1.585   2.684
 7490SOL    HW123369   5.646   1.572   2.778
 7490SOL    HW223370   5.525   1.541   2.673
 7491SOL     OW23371   0.174   6.594   6.784
 7491SOL    HW123372   0.079   6.615   6.806
 7491SOL    HW223373   0.196   6.503   6.816
 7492SOL     OW23374   2.148   2.606   3.709
 7492SOL    HW123375   2.091   2.624   3.629
 7492SOL    HW223376   2.239   2.644   3.694
 7493SOL     OW23377   5.416   4.721   6.986
 7493SOL    HW123378   5.354   4.647   6.964
 7493SOL    HW223379   5.476   4.693   0.038
 7494SOL     OW23380   4.902   1.630   1.570
 7494SOL    HW123381   4.935   1.652   1.478
 7494SOL    HW223382   4.976   1.591   1.624
 7495SOL     OW23383   0.938   1.706   2.569
 7495SOL    HW123384   0.968   1.769   2.497
 7495SOL    HW223385   1.016   1.651   2.599
 7496SOL     OW23386   0.888   4.486   5.721
 7496SOL    HW123387   0.821   4.437   5.666
 7496SOL    HW223388   0.953   4.532   5.662
 7497SOL     OW23389   2.262   4.672   2.376
 7497SOL    HW123390   2.312   4.615   2.310
 7497SOL    HW223391   2.211   4.743   2.327
 7498SOL     OW23392   4.973   1.148   4.280
 7498SOL    HW123393   4.900   1.161   4.213
 7498SOL    HW223394   4.934   1.149   4.372
 7499SOL     OW23395   4.314   5.266   3.613
 7499SOL    HW123396   4.311   5.186   3.554
 7499SOL    HW223397   4.232   5.322   3.598
 7500SOL     OW23398   4.748   4.073   1.617
 7500SOL    HW123399   4.808   4.042   1.690
 7500SOL    HW223400   4.667   4.015   1.613
 7501SOL     OW23401   0.545   4.646   3.900
 7501SOL    HW123402   0.538   4.674   3.996
 7501SOL    HW223403   0.565   4.726   3.844
 7502SOL     OW23404   1.734   2.320   4.802
 7502SOL    HW123405   1.678   2.376   4.741
 7502SOL    HW223406   1.828   2.320   4.770
 7503SOL     OW23407   1.849   2.577   6.841
 7503SOL    HW123408   1.807   2.490   6.814
 7503SOL    HW223409   1.784   2.652   6.825
 7504SOL     OW23410   3.907   5.725   3.453
 7504SOL    HW123411   3.924   5.626   3.446
 7504SOL    HW223412   3.837   5.741   3.523
 7505SOL     OW23413   1.673   2.222   4.108
 7505SOL    HW123414   1.593   2.167   4.131
 7505SOL    HW223415   1.756   2.169   4.126
 7506SOL     OW23416   3.583   1.612   3.845
 7506SOL    HW123417   3.591   1.692   3.786
 7506SOL    HW223418   3.583   1.529   3.788
 7507SOL     OW23419   1.856   6.500   5.606
 7507SOL    HW123420   1.801   6.417   5.595
 7507SOL    HW223421   1.944   6.489   5.560
 7508SOL     OW23422   4.753   5.746   4.406
 7508SOL    HW123423   4.696   5.756   4.488
 7508SOL    HW223424   4.770   5.837   4.366
 7509SOL     OW23425   4.170   3.661   5.964
 7509SOL    HW123426   4.199   3.756   5.974
 7509SOL    HW223427   4.109   3.653   5.885
 7510SOL     OW23428   2.899   3.681   4.715
 7510SOL    HW123429   2.834   3.648   4.783
 7510SOL    HW223430   2.880   3.639   4.626
 7511SOL     OW23431   1.491   0.541   2.489
 7511SOL    HW123432   1.445   0.590   2.416
 7511SOL    HW223433   1.429   0.473   2.528
 7512SOL     OW23434   2.523   2.844   1.711
 7512SOL    HW123435   2.577   2.761   1.699
 7512SOL    HW223436   2.573   2.922   1.673
 7513SOL     OW23437   0.865   3.469   6.620
 7513SOL    HW123438   0.936   3.451   6.688
 7513SOL    HW223439   0.823   3.558   6.638
 7514SOL     OW23440   2.873   5.770   3.163
 7514SOL    HW123441   2.879   5.673   3.140
 7514SOL    HW223442   2.788   5.788   3.213
 7515SOL     OW23443   0.269   4.976   2.763
 7515SOL    HW123444   0.297   4.924   2.683
 7515SOL    HW223445   0.283   4.921   2.846
 7516SOL     OW23446   1.517   1.283   2.645
 7516SOL    HW123447   1.459   1.329   2.578
 7516SOL    HW223448   1.526   1.339   2.727
 7517SOL     OW23449   0.365   5.027   1.431
 7517SOL    HW123450   0.451   5.034   1.381
 7517SOL    HW223451   0.295   4.989   1.371
 7518SOL     OW23452   5.243   4.962   3.166
 7518SOL    HW123453   5.206   4.911   3.244
 7518SOL    HW223454   5.214   4.919   3.081
 7519SOL     OW23455   1.399   6.642   4.060
 7519SOL    HW123456   1.333   6.601   3.997
 7519SOL    HW223457   1.396   6.594   4.148
 7520SOL     OW23458   2.528   0.038   4.268
 7520SOL    HW123459   2.450   7.002   4.250
 7520SOL    HW223460   2.511   0.091   4.350
 7521SOL     OW23461   5.104   3.931   6.043
 7521SOL    HW123462   5.108   3.847   5.989
 7521SOL    HW223463   5.038   3.994   6.003
 7522SOL     OW23464   1.783   0.504   2.710
 7522SOL    HW123465   1.695   0.514   2.757
 7522SOL    HW223466   1.775   0.435   2.638
 7523SOL     OW23467   5.988   0.349   6.826
 7523SOL    HW123468   6.043   0.288   6.768
 7523SOL    HW223469   5.955   0.299   6.906
 7524SOL     OW23470   6.122   0.824   4.408
 7524SOL    HW123471   6.206   0.862   4.447
 7524SOL    HW223472   6.105   0.865   4.319
 7525SOL     OW23473   0.929   5.906   0.548
 7525SOL    HW123474   0.925   5.941   0.641
 7525SOL    HW223475   0.991   5.827   0.544
 7526SOL     OW23476   3.761   2.920   4.911
 7526SOL    HW123477   3.745   2.841   4.851
 7526SOL    HW223478   3.685   2.985   4.902
 7527SOL     OW23479   5.035   5.255   2.170
 7527SOL    HW123480   4.952   5.280   2.221
 7527SOL    HW223481   5.060   5.160   2.190
 7528SOL     OW23482   5.815   3.034   6.223
 7528SOL    HW123483   5.730   3.041   6.275
 7528SOL    HW223484   5.798   3.059   6.128
 7529SOL     OW23485   2.939   0.324   5.038
 7529SOL    HW123486   2.994   0.270   4.974
 7529SOL    HW223487   2.997   0.391   5.084
 7530SOL     OW23488   6.546   3.063   3.036
 7530SOL    HW123489   6.568   2.975   3.079
 7530SOL    HW223490   6.468   3.051   2.975
 7531SOL     OW23491   2.647   2.030   4.168
 7531SOL    HW123492   2.680   2.001   4.258
 7531SOL    HW223493   2.699   1.983   4.097
 7532SOL     OW23494   4.996   4.457   2.258
 7532SOL    HW123495   5.016   4.377   2.202
 7532SOL    HW223496   4.900   4.455   2.286
 7533SOL     OW23497   3.307   0.364   4.823
 7533SOL    HW123498   3.394   0.319   4.805
 7533SOL    HW223499   3.235   0.296   4.833
 7534SOL     OW23500   5.191   6.840   4.160
 7534SOL    HW123501   5.164   6.930   4.126
 7534SOL    HW223502   5.155   6.827   4.252
 7535SOL     OW23503   3.687   4.733   0.189
 7535SOL    HW123504   3.603   4.703   0.142
 7535SOL    HW223505   3.755   4.661   0.184
 7536SOL     OW23506   3.613   6.278   4.495
 7536SOL    HW123507   3.601   6.371   4.532
 7536SOL    HW223508   3.691   6.235   4.541
 7537SOL     OW23509   1.942   4.356   5.356
 7537SOL    HW123510   2.023   4.367   5.414
 7537SOL    HW223511   1.949   4.416   5.277
 7538SOL     OW23512   3.358   2.961   3.254
 7538SOL    HW123513   3.434   2.950   3.319
 7538SOL    HW223514   3.273   2.978   3.304
 7539SOL     OW23515   1.651   2.651   4.235
 7539SOL    HW123516   1.664   2.574   4.173
 7539SOL    HW223517   1.695   2.631   4.323
 7540SOL     OW23518   1.928   1.132   0.255
 7540SOL    HW123519   1.997   1.060   0.256
 7540SOL    HW223520   1.929   1.178   0.166
 7541SOL     OW23521   6.917   1.993   5.193
 7541SOL    HW123522   6.882   1.927   5.128
 7541SOL    HW223523   7.017   1.996   5.188
 7542SOL     OW23524   1.917   0.833   6.502
 7542SOL    HW123525   1.868   0.755   6.538
 7542SOL    HW223526   1.853   0.897   6.459
 7543SOL     OW23527   3.731   3.195   6.958
 7543SOL    HW123528   3.706   3.207   6.862
 7543SOL    HW223529   3.816   3.141   6.964
 7544SOL     OW23530   1.549   1.917   2.862
 7544SOL    HW123531   1.482   1.990   2.877
 7544SOL    HW223532   1.619   1.950   2.799
 7545SOL     OW23533   5.531   6.725   3.670
 7545SOL    HW123534   5.525   6.810   3.722
 7545SOL    HW223535   5.587   6.659   3.721
 7546SOL     OW23536   4.936   6.827   6.372
 7546SOL    HW123537   5.030   6.857   6.355
 7546SOL    HW223538   4.897   6.791   6.287
 7547SOL     OW23539   3.190   6.942   0.475
 7547SOL    HW123540   3.183   6.896   0.387
 7547SOL    HW223541   3.135   0.002   0.473
 7548SOL     OW23542   1.109   2.861   1.034
 7548SOL    HW123543   1.172   2.892   0.963
 7548SOL    HW223544   1.154   2.866   1.123
 7549SOL     OW23545   6.229   2.013   2.041
 7549SOL    HW123546   6.140   1.975   2.064
 7549SOL    HW223547   6.246   2.002   1.943
 7550SOL     OW23548   0.969   4.930   1.480
 7550SOL    HW123549   0.946   5.016   1.434
 7550SOL    HW223550   1.029   4.949   1.557
 7551SOL     OW23551   4.393   4.175   6.352
 7551SOL    HW123552   4.451   4.235   6.296
 7551SOL    HW223553   4.334   4.121   6.292
 7552SOL     OW23554   3.286   5.443   3.950
 7552SOL    HW123555   3.377   5.403   3.939
 7552SOL    HW223556   3.278   5.483   4.041
 7553SOL     OW23557   4.744   4.108   6.149
 7553SOL    HW123558   4.745   4.032   6.215
 7553SOL    HW223559   4.699   4.187   6.189
 7554SOL     OW23560   6.627   0.918   0.844
 7554SOL    HW123561   6.707   0.877   0.889
 7554SOL    HW223562   6.603   0.862   0.764
 7555SOL     OW23563   1.377   5.907   5.964
 7555SOL    HW123564   1.292   5.951   5.995
 7555SOL    HW223565   1.436   5.975   5.922
 7556SOL     OW23566   6.800   3.432   3.727
 7556SOL    HW123567   6.721   3.446   3.787
 7556SOL    HW223568   6.881   3.472   3.769
 7557SOL     OW23569   4.109   3.284   0.257
 7557SOL    HW123570   4.038   3.263   0.190
 7557SOL    HW223571   4.177   3.210   0.257
 7558SOL     OW23572   1.099   2.872   3.549
 7558SOL    HW123573   1.077   2.807   3.621
 7558SOL    HW223574   1.106   2.964   3.588
 7559SOL     OW23575   1.315   4.777   0.552
 7559SOL    HW123576   1.257   4.767   0.633
 7559SOL    HW223577   1.257   4.788   0.471
 7560SOL     OW23578   4.776   0.153   5.459
 7560SOL    HW123579   4.805   0.095   5.383
 7560SOL    HW223580   4.682   0.182   5.445
 7561SOL     OW23581   0.474   3.679   0.296
 7561SOL    HW123582   0.462   3.760   0.238
 7561SOL    HW223583   0.570   3.653   0.298
 7562SOL     OW23584   5.081   6.270   5.332
 7562SOL    HW123585   5.176   6.247   5.353
 7562SOL    HW223586   5.030   6.185   5.316
 7563SOL     OW23587   2.554   1.047   2.589
 7563SOL    HW123588   2.632   1.061   2.650
 7563SOL    HW223589   2.572   1.091   2.502
 7564SOL     OW23590   4.950   6.641   4.103
 7564SOL    HW123591   5.020   6.664   4.035
 7564SOL    HW223592   4.943   6.715   4.170
 7565SOL     OW23593   4.659   4.449   0.111
 7565SOL    HW123594   4.658   4.350   0.128
 7565SOL    HW223595   4.565   4.484   0.112
 7566SOL     OW23596   2.198   5.381   5.456
 7566SOL    HW123597   2.227   5.455   5.517
 7566SOL    HW223598   2.159   5.306   5.511
 7567SOL     OW23599   2.526   3.058   0.059
 7567SOL    HW123600   2.547   3.105   6.997
 7567SOL    HW223601   2.582   3.096   0.132
 7568SOL     OW23602   4.426   4.694   3.187
 7568SOL    HW123603   4.331   4.723   3.198
 7568SOL    HW223604   4.462   4.663   3.275
 7569SOL     OW23605   4.001   0.471   1.178
 7569SOL    HW123606   3.956   0.536   1.117
 7569SOL    HW223607   4.099   0.488   1.178
 7570SOL     OW23608   5.929   5.129   4.763
 7570SOL    HW123609   5.981   5.155   4.682
 7570SOL    HW223610   5.887   5.040   4.748
 7571SOL     OW23611   5.489   4.112   1.961
 7571SOL    HW123612   5.526   4.117   2.054
 7571SOL    HW223613   5.396   4.148   1.961
 7572SOL     OW23614   1.153   1.369   4.013
 7572SOL    HW123615   1.099   1.448   3.985
 7572SOL    HW223616   1.093   1.295   4.042
 7573SOL     OW23617   3.326   5.506   5.681
 7573SOL    HW123618   3.346   5.585   5.623
 7573SOL    HW223619   3.346   5.527   5.776
 7574SOL     OW23620   5.076   5.889   2.314
 7574SOL    HW123621   5.126   5.881   2.400
 7574SOL    HW223622   5.080   5.802   2.265
 7575SOL     OW23623   5.161   2.683   4.869
 7575SOL    HW123624   5.084   2.624   4.844
 7575SOL    HW223625   5.226   2.631   4.925
 7576SOL     OW23626   6.378   3.107   1.628
 7576SOL    HW123627   6.415   3.084   1.539
 7576SOL    HW223628   6.355   3.023   1.678
 7577SOL     OW23629   4.381   0.225   4.864
 7577SOL    HW123630   4.451   0.243   4.933
 7577SOL    HW223631   4.354   0.129   4.867
 7578SOL     OW23632   2.481   5.126   4.532
 7578SOL    HW123633   2.404   5.168   4.581
 7578SOL    HW223634   2.505   5.040   4.576
 7579SOL     OW23635   4.222   2.346   4.009
 7579SOL    HW123636   4.298   2.404   3.979
 7579SOL    HW223637   4.257   2.271   4.065
 7580SOL     OW23638   2.141   3.335   2.565
 7580SOL    HW123639   2.176   3.378   2.648
 7580SOL    HW223640   2.177   3.243   2.557
 7581SOL     OW23641   5.783   0.796   1.283
 7581SOL    HW123642   5.773   0.805   1.382
 7581SOL    HW223643   5.725   0.863   1.237
 7582SOL     OW23644   3.268   1.785   0.893
 7582SOL    HW123645   3.276   1.778   0.993
 7582SOL    HW223646   3.233   1.875   0.869
 7583SOL     OW23647   6.604   3.608   2.827
 7583SOL    HW123648   6.521   3.552   2.820
 7583SOL    HW223649   6.653   3.584   2.911
 7584SOL     OW23650   2.156   1.326   1.193
 7584SOL    HW123651   2.147   1.425   1.178
 7584SOL    HW223652   2.066   1.285   1.202
 7585SOL     OW23653   2.023   5.389   6.642
 7585SOL    HW123654   2.094   5.320   6.630
 7585SOL    HW223655   2.061   5.467   6.692
 7586SOL     OW23656   2.156   1.056   1.884
 7586SOL    HW123657   2.091   1.132   1.891
 7586SOL    HW223658   2.169   1.031   1.788
 7587SOL     OW23659   1.955   0.746   5.895
 7587SOL    HW123660   2.053   0.728   5.886
 7587SOL    HW223661   1.935   0.836   5.859
 7588SOL     OW23662   1.012   4.196   1.567
 7588SOL    HW123663   0.998   4.103   1.602
 7588SOL    HW223664   0.929   4.226   1.519
 7589SOL     OW23665   5.900   6.145   0.034
 7589SOL    HW123666   5.948   6.091   0.104
 7589SOL    HW223667   5.921   6.242   0.046
 7590SOL     OW23668   1.727   0.665   6.979
 7590SOL    HW123669   1.675   0.692   6.898
 7590SOL    HW223670   1.815   0.625   6.951
 7591SOL     OW23671   6.562   5.036   0.048
 7591SOL    HW123672   6.463   5.021   0.050
 7591SOL    HW223673   6.585   5.104   7.003
 7592SOL     OW23674   5.448   5.838   6.526
 7592SOL    HW123675   5.427   5.747   6.491
 7592SOL    HW223676   5.495   5.891   6.455
 7593SOL     OW23677   6.339   3.235   0.130
 7593SOL    HW123678   6.362   3.187   0.046
 7593SOL    HW223679   6.241   3.224   0.149
 7594SOL     OW23680   0.848   5.874   3.329
 7594SOL    HW123681   0.912   5.847   3.257
 7594SOL    HW223682   0.878   5.961   3.368
 7595SOL     OW23683   6.506   2.041   6.952
 7595SOL    HW123684   6.526   1.949   6.918
 7595SOL    HW223685   6.567   2.062   0.004
 7596SOL     OW23686   4.856   4.485   1.901
 7596SOL    HW123687   4.869   4.549   1.976
 7596SOL    HW223688   4.828   4.396   1.937
 7597SOL     OW23689   2.574   6.094   1.920
 7597SOL    HW123690   2.582   6.007   1.969
 7597SOL    HW223691   2.666   6.131   1.903
 7598SOL     OW23692   6.694   0.542   2.867
 7598SOL    HW123693   6.715   0.621   2.924
 7598SOL    HW223694   6.642   0.475   2.921
 7599SOL     OW23695   6.522   2.480   2.429
 7599SOL    HW123696   6.611   2.435   2.423
 7599SOL    HW223697   6.450   2.411   2.426
 7600SOL     OW23698   2.195   1.843   1.989
 7600SOL    HW123699   2.149   1.774   1.933
 7600SOL    HW223700   2.138   1.863   2.069
 7601SOL     OW23701   1.361   6.936   4.743
 7601SOL    HW123702   1.346   7.012   4.806
 7601SOL    HW223703   1.299   6.860   4.766
 7602SOL     OW23704   2.138   3.215   5.096
 7602SOL    HW123705   2.220   3.169   5.060
 7602SOL    HW223706   2.064   3.149   5.103
 7603SOL     OW23707   0.784   0.914   2.039
 7603SOL    HW123708   0.690   0.917   2.072
 7603SOL    HW223709   0.835   0.845   2.090
 7604SOL     OW23710   5.063   6.292   6.790
 7604SOL    HW123711   5.142   6.253   6.742
 7604SOL    HW223712   5.037   6.233   6.865
 7605SOL     OW23713   5.642   4.072   5.714
 7605SOL    HW123714   5.622   4.092   5.809
 7605SOL    HW223715   5.613   3.978   5.693
 7606SOL     OW23716   6.463   1.805   3.047
 7606SOL    HW123717   6.436   1.811   2.951
 7606SOL    HW223718   6.482   1.897   3.082
 7607SOL     OW23719   5.465   0.059   6.631
 7607SOL    HW123720   5.371   0.032   6.615
 7607SOL    HW223721   5.470   0.114   6.714
 7608SOL     OW23722   3.931   3.255   3.327
 7608SOL    HW123723   3.994   3.220   3.257
 7608SOL    HW223724   3.959   3.220   3.417
 7609SOL     OW23725   1.671   3.137   4.693
 7609SOL    HW123726   1.579   3.098   4.694
 7609SOL    HW223727   1.729   3.085   4.631
 7610SOL     OW23728   5.489   1.021   1.655
 7610SOL    HW123729   5.529   1.046   1.566
 7610SOL    HW223730   5.456   1.103   1.701
 7611SOL     OW23731   1.874   1.620   1.074
 7611SOL    HW123732   1.837   1.711   1.092
 7611SOL    HW223733   1.825   1.553   1.130
 7612SOL     OW23734   4.400   1.383   2.519
 7612SOL    HW123735   4.387   1.303   2.577
 7612SOL    HW223736   4.314   1.404   2.471
 7613SOL     OW23737   5.356   1.044   2.476
 7613SOL    HW123738   5.310   1.011   2.393
 7613SOL    HW223739   5.330   0.986   2.554
 7614SOL     OW23740   3.942   1.278   0.238
 7614SOL    HW123741   3.849   1.309   0.259
 7614SOL    HW223742   4.004   1.307   0.311
 7615SOL     OW23743   4.080   4.667   6.115
 7615SOL    HW123744   4.142   4.636   6.187
 7615SOL    HW223745   4.001   4.712   6.157
 7616SOL     OW23746   0.055   4.832   3.889
 7616SOL    HW123747   0.036   4.734   3.898
 7616SOL    HW223748   7.016   4.872   3.823
 7617SOL     OW23749   3.299   6.071   2.410
 7617SOL    HW123750   3.273   6.136   2.481
 7617SOL    HW223751   3.252   5.984   2.424
 7618SOL     OW23752   1.743   2.579   0.756
 7618SOL    HW123753   1.764   2.639   0.833
 7618SOL    HW223754   1.647   2.591   0.730
 7619SOL     OW23755   5.981   3.547   5.826
 7619SOL    HW123756   6.057   3.500   5.872
 7619SOL    HW223757   5.900   3.488   5.828
 7620SOL     OW23758   3.137   6.462   1.807
 7620SOL    HW123759   3.152   6.364   1.794
 7620SOL    HW223760   3.147   6.484   1.904
 7621SOL     OW23761   2.643   2.069   1.254
 7621SOL    HW123762   2.677   2.036   1.166
 7621SOL    HW223763   2.604   1.993   1.305
 7622SOL     OW23764   4.817   1.807   1.138
 7622SOL    HW123765   4.822   1.825   1.040
 7622SOL    HW223766   4.750   1.735   1.155
 7623SOL     OW23767   5.335   0.573   5.811
 7623SOL    HW123768   5.278   0.609   5.885
 7623SOL    HW223769   5.416   0.529   5.849
 7624SOL     OW23770   0.040   0.597   3.998
 7624SOL    HW123771   0.098   0.548   4.062
 7624SOL    HW223772   0.093   0.625   3.918
 7625SOL     OW23773   4.281   6.484   0.724
 7625SOL    HW123774   4.226   6.459   0.803
 7625SOL    HW223775   4.234   6.554   0.670
 7626SOL     OW23776   2.309   4.682   4.740
 7626SOL    HW123777   2.350   4.747   4.676
 7626SOL    HW223778   2.321   4.589   4.705
 7627SOL     OW23779   6.948   1.868   0.272
 7627SOL    HW123780   6.958   1.955   0.320
 7627SOL    HW223781   6.886   1.880   0.195
 7628SOL     OW23782   4.101   2.184   1.170
 7628SOL    HW123783   4.033   2.242   1.215
 7628SOL    HW223784   4.060   2.141   1.090
 7629SOL     OW23785   6.631   4.982   3.275
 7629SOL    HW123786   6.657   5.001   3.180
 7629SOL    HW223787   6.689   5.035   3.337
 7630SOL     OW23788   0.029   1.055   2.252
 7630SOL    HW123789   0.126   1.042   2.231
 7630SOL    HW223790   7.012   1.116   2.184
 7631SOL     OW23791   1.556   2.036   3.304
 7631SOL    HW123792   1.548   2.079   3.394
 7631SOL    HW223793   1.473   2.055   3.251
 7632SOL     OW23794   4.226   1.863   6.731
 7632SOL    HW123795   4.211   1.858   6.633
 7632SOL    HW223796   4.175   1.940   6.769
 7633SOL     OW23797   5.779   4.614   6.821
 7633SOL    HW123798   5.800   4.690   6.883
 7633SOL    HW223799   5.840   4.538   6.839
 7634SOL     OW23800   1.328   1.946   1.816
 7634SOL    HW123801   1.304   2.012   1.887
 7634SOL    HW223802   1.373   1.867   1.858
 7635SOL     OW23803   3.037   4.915   6.038
 7635SOL    HW123804   3.128   4.888   6.069
 7635SOL    HW223805   3.036   5.013   6.019
 7636SOL     OW23806   1.926   0.676   3.592
 7636SOL    HW123807   1.867   0.756   3.584
 7636SOL    HW223808   1.879   0.605   3.645
 7637SOL     OW23809   2.403   5.838   4.075
 7637SOL    HW123810   2.329   5.822   4.140
 7637SOL    HW223811   2.366   5.836   3.982
 7638SOL     OW23812   4.385   4.520   1.801
 7638SOL    HW123813   4.393   4.443   1.865
 7638SOL    HW223814   4.458   4.586   1.819
 7639SOL     OW23815   0.422   2.186   4.549
 7639SOL    HW123816   0.437   2.282   4.572
 7639SOL    HW223817   0.398   2.135   4.631
 7640SOL     OW23818   2.048   3.201   6.105
 7640SOL    HW123819   1.959   3.246   6.101
 7640SOL    HW223820   2.058   3.153   6.192
 7641SOL     OW23821   6.360   2.784   3.365
 7641SOL    HW123822   6.330   2.756   3.274
 7641SOL    HW223823   6.449   2.830   3.359
 7642SOL     OW23824   2.526   1.570   3.185
 7642SOL    HW123825   2.527   1.626   3.102
 7642SOL    HW223826   2.550   1.627   3.263
 7643SOL     OW23827   5.106   3.368   3.503
 7643SOL    HW123828   5.034   3.437   3.510
 7643SOL    HW223829   5.174   3.384   3.575
 7644SOL     OW23830   6.417   3.303   3.725
 7644SOL    HW123831   6.439   3.325   3.820
 7644SOL    HW223832   6.492   3.249   3.686
 7645SOL     OW23833   4.529   3.244   6.706
 7645SOL    HW123834   4.434   3.255   6.675
 7645SOL    HW223835   4.540   3.287   6.795
 7646SOL     OW23836   0.986   1.783   1.308
 7646SOL    HW123837   0.952   1.798   1.401
 7646SOL    HW223838   1.075   1.737   1.312
 7647SOL     OW23839   2.080   5.056   1.192
 7647SOL    HW123840   2.080   4.989   1.266
 7647SOL    HW223841   2.031   5.019   1.113
 7648SOL     OW23842   4.108   0.479   3.340
 7648SOL    HW123843   4.118   0.501   3.243
 7648SOL    HW223844   4.092   0.564   3.391
 7649SOL     OW23845   2.868   1.483   1.771
 7649SOL    HW123846   2.958   1.460   1.808
 7649SOL    HW223847   2.841   1.574   1.803
 7650SOL     OW23848   5.608   4.867   2.129
 7650SOL    HW123849   5.648   4.951   2.092
 7650SOL    HW223850   5.679   4.813   2.173
 7651SOL     OW23851   3.966   1.843   6.025
 7651SOL    HW123852   3.941   1.746   6.026
 7651SOL    HW223853   4.024   1.862   5.946
 7652SOL     OW23854   0.874   3.313   2.694
 7652SOL    HW123855   0.874   3.219   2.729
 7652SOL    HW223856   0.936   3.369   2.749
 7653SOL     OW23857   3.917   2.124   1.451
 7653SOL    HW123858   3.860   2.042   1.457
 7653SOL    HW223859   3.899   2.183   1.529
 7654SOL     OW23860   4.849   3.256   4.334
 7654SOL    HW123861   4.808   3.189   4.272
 7654SOL    HW223862   4.817   3.240   4.427
 7655SOL     OW23863   4.684   6.476   5.289
 7655SOL    HW123864   4.637   6.558   5.322
 7655SOL    HW223865   4.626   6.396   5.303
 7656SOL     OW23866   1.358   6.098   4.739
 7656SOL    HW123867   1.445   6.092   4.690
 7656SOL    HW223868   1.343   6.013   4.790
 7657SOL     OW23869   4.609   1.595   4.463
 7657SOL    HW123870   4.511   1.600   4.483
 7657SOL    HW223871   4.632   1.502   4.433
 7658SOL     OW23872   3.573   0.633   6.605
 7658SOL    HW123873   3.652   0.595   6.556
 7658SOL    HW223874   3.489   0.598   6.564
 7659SOL     OW23875   5.455   0.029   0.195
 7659SOL    HW123876   5.471   6.998   0.277
 7659SOL    HW223877   5.479   0.124   0.214
 7660SOL     OW23878   6.230   4.597   4.228
 7660SOL    HW123879   6.309   4.544   4.258
 7660SOL    HW223880   6.249   4.636   4.137
 7661SOL     OW23881   5.550   3.178   3.472
 7661SOL    HW123882   5.489   3.146   3.544
 7661SOL    HW223883   5.645   3.160   3.497
 7662SOL     OW23884   6.941   5.755   2.225
 7662SOL    HW123885   6.958   5.744   2.323
 7662SOL    HW223886   6.926   5.665   2.184
 7663SOL     OW23887   6.784   5.477   6.827
 7663SOL    HW123888   6.852   5.464   6.899
 7663SOL    HW223889   6.779   5.574   6.804
 7664SOL     OW23890   2.735   5.509   4.726
 7664SOL    HW123891   2.821   5.521   4.676
 7664SOL    HW223892   2.688   5.597   4.731
 7665SOL     OW23893   2.218   6.268   4.660
 7665SOL    HW123894   2.124   6.260   4.627
 7665SOL    HW223895   2.265   6.180   4.650
 7666SOL     OW23896   1.612   1.217   0.933
 7666SOL    HW123897   1.552   1.286   0.973
 7666SOL    HW223898   1.629   1.238   0.837
 7667SOL     OW23899   4.820   5.704   6.696
 7667SOL    HW123900   4.854   5.629   6.638
 7667SOL    HW223901   4.809   5.672   6.789
 7668SOL     OW23902   2.486   4.148   1.688
 7668SOL    HW123903   2.427   4.162   1.767
 7668SOL    HW223904   2.558   4.218   1.687
 7669SOL     OW23905   4.368   6.239   4.953
 7669SOL    HW123906   4.341   6.194   4.867
 7669SOL    HW223907   4.446   6.298   4.936
 7670SOL     OW23908   1.726   4.945   0.925
 7670SOL    HW123909   1.683   4.931   0.836
 7670SOL    HW223910   1.690   5.028   0.966
 7671SOL     OW23911   5.490   2.561   4.389
 7671SOL    HW123912   5.426   2.485   4.404
 7671SOL    HW223913   5.464   2.638   4.447
 7672SOL     OW23914   5.798   6.917   2.604
 7672SOL    HW123915   5.734   6.962   2.541
 7672SOL    HW223916   5.763   6.825   2.625
 7673SOL     OW23917   0.262   4.075   0.130
 7673SOL    HW123918   0.244   4.161   0.176
 7673SOL    HW223919   0.198   4.063   0.053
 7674SOL     OW23920   6.844   1.278   4.763
 7674SOL    HW123921   6.903   1.306   4.687
 7674SOL    HW223922   6.778   1.210   4.730
 7675SOL     OW23923   4.805   0.010   3.187
 7675SOL    HW123924   4.764   6.972   3.121
 7675SOL    HW223925   4.867   6.983   3.247
 7676SOL     OW23926   1.258   6.767   0.967
 7676SOL    HW123927   1.328   6.710   1.009
 7676SOL    HW223928   1.248   6.743   0.871
 7677SOL     OW23929   1.819   2.615   2.649
 7677SOL    HW123930   1.773   2.637   2.564
 7677SOL    HW223931   1.912   2.652   2.648
 7678SOL     OW23932   5.789   6.793   6.495
 7678SOL    HW123933   5.741   6.881   6.497
 7678SOL    HW223934   5.750   6.735   6.423
 7679SOL     OW23935   1.265   5.174   5.505
 7679SOL    HW123936   1.197   5.129   5.563
 7679SOL    HW223937   1.350   5.122   5.506
 7680SOL     OW23938   4.453   1.824   6.872
 7680SOL    HW123939   4.361   1.844   6.838
 7680SOL    HW223940   4.469   1.876   6.956
 7681SOL     OW23941   2.682   2.231   6.397
 7681SOL    HW123942   2.585   2.209   6.408
 7681SOL    HW223943   2.727   2.234   6.486
 7682SOL     OW23944   2.787   0.131   1.033
 7682SOL    HW123945   2.749   0.223   1.025
 7682SOL    HW223946   2.879   0.128   0.994
 7683SOL     OW23947   6.171   1.429   3.151
 7683SOL    HW123948   6.087   1.379   3.172
 7683SOL    HW223949   6.170   1.517   3.197
 7684SOL     OW23950   4.013   1.590   5.718
 7684SOL    HW123951   4.000   1.596   5.619
 7684SOL    HW223952   4.002   1.495   5.747
 7685SOL     OW23953   3.851   3.804   0.802
 7685SOL    HW123954   3.933   3.750   0.782
 7685SOL    HW223955   3.838   3.808   0.901
 7686SOL     OW23956   3.094   0.642   3.876
 7686SOL    HW123957   3.012   0.604   3.919
 7686SOL    HW223958   3.148   0.690   3.944
 7687SOL     OW23959   4.815   5.093   5.836
 7687SOL    HW123960   4.821   5.088   5.736
 7687SOL    HW223961   4.832   5.002   5.875
 7688SOL     OW23962   0.028   0.328   3.814
 7688SOL    HW123963   0.037   0.322   3.714
 7688SOL    HW223964   6.956   0.338   3.838
 7689SOL     OW23965   3.908   0.177   4.404
 7689SOL    HW123966   3.921   0.249   4.472
 7689SOL    HW223967   3.910   0.088   4.450
 7690SOL     OW23968   0.235   5.655   3.207
 7690SOL    HW123969   0.298   5.591   3.163
 7690SOL    HW223970   0.259   5.665   3.303
 7691SOL     OW23971   5.671   4.215   5.418
 7691SOL    HW123972   5.575   4.187   5.417
 7691SOL    HW223973   5.717   4.173   5.496
 7692SOL     OW23974   1.978   6.198   1.164
 7692SOL    HW123975   1.930   6.236   1.243
 7692SOL    HW223976   1.920   6.204   1.084
 7693SOL     OW23977   5.455   0.874   0.285
 7693SOL    HW123978   5.418   0.806   0.348
 7693SOL    HW223979   5.392   0.887   0.209
 7694SOL     OW23980   6.571   4.860   3.895
 7694SOL    HW123981   6.647   4.897   3.950
 7694SOL    HW223982   6.557   4.918   3.815
 7695SOL     OW23983   3.753   0.330   6.538
 7695SOL    HW123984   3.756   0.318   6.638
 7695SOL    HW223985   3.693   0.260   6.498
 7696SOL     OW23986   0.333   3.749   5.464
 7696SOL    HW123987   0.265   3.685   5.427
 7696SOL    HW223988   0.303   3.843   5.446
 7697SOL     OW23989   4.200   1.937   1.843
 7697SOL    HW123990   4.298   1.956   1.844
 7697SOL    HW223991   4.161   1.956   1.933
 7698SOL     OW23992   0.248   3.409   5.735
 7698SOL    HW123993   0.164   3.363   5.708
 7698SOL    HW223994   0.248   3.422   5.835
 7699SOL     OW23995   2.323   4.348   0.059
 7699SOL    HW123996   2.406   4.330   0.112
 7699SOL    HW223997   2.347   4.379   6.991
 7700SOL     OW23998   5.716   0.089   5.590
 7700SOL    HW123999   5.732   0.064   5.494
 7700SOL    HW224000   5.694   0.187   5.595
 7701SOL     OW24001   6.182   1.997   5.054
 7701SOL    HW124002   6.136   1.922   5.101
 7701SOL    HW224003   6.114   2.062   5.020
 7702SOL     OW24004   2.568   6.016   5.986
 7702SOL    HW124005   2.481   6.043   6.025
 7702SOL    HW224006   2.559   5.926   5.942
 7703SOL     OW24007   0.555   1.939   5.966
 7703SOL    HW124008   0.584   2.035   5.968
 7703SOL    HW224009   0.620   1.883   6.018
 7704SOL     OW24010   3.635   4.697   0.632
 7704SOL    HW124011   3.656   4.601   0.652
 7704SOL    HW224012   3.655   4.753   0.713
 7705SOL     OW24013   3.801   4.980   5.582
 7705SOL    HW124014   3.811   4.897   5.637
 7705SOL    HW224015   3.707   5.014   5.589
 7706SOL     OW24016   6.303   0.832   4.878
 7706SOL    HW124017   6.227   0.780   4.841
 7706SOL    HW224018   6.313   0.917   4.826
 7707SOL     OW24019   0.054   4.962   5.855
 7707SOL    HW124020   0.091   5.029   5.920
 7707SOL    HW224021   0.127   4.899   5.828
 7708SOL     OW24022   5.230   6.992   4.476
 7708SOL    HW124023   5.295   0.033   4.436
 7708SOL    HW224024   5.152   0.019   4.513
 7709SOL     OW24025   3.558   2.003   1.871
 7709SOL    HW124026   3.522   1.967   1.956
 7709SOL    HW224027   3.610   2.087   1.889
 7710SOL     OW24028   2.579   2.046   6.906
 7710SOL    HW124029   2.551   1.968   6.850
 7710SOL    HW224030   2.609   2.013   6.995
 7711SOL     OW24031   5.155   6.839   6.046
 7711SOL    HW124032   5.220   6.907   6.011
 7711SOL    HW224033   5.065   6.854   6.005
 7712SOL     OW24034   5.151   5.098   1.216
 7712SOL    HW124035   5.186   5.176   1.268
 7712SOL    HW224036   5.086   5.130   1.148
 7713SOL     OW24037   1.192   4.673   6.873
 7713SOL    HW124038   1.112   4.617   6.898
 7713SOL    HW224039   1.271   4.644   6.928
 7714SOL     OW24040   5.463   4.098   4.367
 7714SOL    HW124041   5.452   4.153   4.450
 7714SOL    HW224042   5.507   4.153   4.296
 7715SOL     OW24043   4.557   2.067   1.379
 7715SOL    HW124044   4.553   1.976   1.338
 7715SOL    HW224045   4.465   2.099   1.399
 7716SOL     OW24046   4.718   2.814   3.293
 7716SOL    HW124047   4.807   2.850   3.320
 7716SOL    HW224048   4.654   2.820   3.369
 7717SOL     OW24049   3.342   0.541   6.506
 7717SOL    HW124050   3.324   0.442   6.508
 7717SOL    HW224051   3.365   0.569   6.412
 7718SOL     OW24052   2.993   6.048   3.701
 7718SOL    HW124053   2.929   6.000   3.641
 7718SOL    HW224054   3.086   6.014   3.684
 7719SOL     OW24055   6.126   2.361   5.638
 7719SOL    HW124056   6.108   2.413   5.554
 7719SOL    HW224057   6.046   2.305   5.660
 7720SOL     OW24058   5.700   6.182   2.011
 7720SOL    HW124059   5.704   6.089   2.048
 7720SOL    HW224060   5.655   6.242   2.077
 7721SOL     OW24061   1.598   4.366   2.600
 7721SOL    HW124062   1.609   4.456   2.641
 7721SOL    HW224063   1.504   4.334   2.613
 7722SOL     OW24064   1.016   6.110   4.199
 7722SOL    HW124065   1.079   6.078   4.271
 7722SOL    HW224066   0.957   6.181   4.236
 7723SOL     OW24067   6.578   3.204   0.626
 7723SOL    HW124068   6.566   3.218   0.527
 7723SOL    HW224069   6.574   3.293   0.672
 7724SOL     OW24070   1.866   5.450   0.756
 7724SOL    HW124071   1.920   5.533   0.741
 7724SOL    HW224072   1.784   5.473   0.809
 7725SOL     OW24073   5.159   3.623   4.401
 7725SOL    HW124074   5.255   3.651   4.389
 7725SOL    HW224075   5.110   3.692   4.454
 7726SOL     OW24076   5.697   4.250   3.758
 7726SOL    HW124077   5.645   4.220   3.678
 7726SOL    HW224078   5.756   4.175   3.789
 7727SOL     OW24079   6.628   2.791   2.082
 7727SOL    HW124080   6.688   2.711   2.081
 7727SOL    HW224081   6.552   2.776   2.145
 7728SOL     OW24082   2.337   2.220   2.805
 7728SOL    HW124083   2.419   2.248   2.754
 7728SOL    HW224084   2.257   2.234   2.748
 7729SOL     OW24085   5.375   2.505   1.335
 7729SOL    HW124086   5.402   2.466   1.424
 7729SOL    HW224087   5.450   2.561   1.300
 7730SOL     OW24088   5.066   0.086   1.883
 7730SOL    HW124089   5.130   0.042   1.820
 7730SOL    HW224090   5.055   0.181   1.857
 7731SOL     OW24091   6.752   0.770   5.049
 7731SOL    HW124092   6.753   0.698   5.118
 7731SOL    HW224093   6.718   0.855   5.090
 7732SOL     OW24094   4.558   4.830   0.542
 7732SOL    HW124095   4.502   4.756   0.506
 7732SOL    HW224096   4.625   4.793   0.606
 7733SOL     OW24097   3.338   6.840   0.903
 7733SOL    HW124098   3.285   6.877   0.980
 7733SOL    HW224099   3.389   6.913   0.858
 7734SOL     OW24100   1.726   1.605   3.178
 7734SOL    HW124101   1.803   1.646   3.131
 7734SOL    HW224102   1.648   1.668   3.176
 7735SOL     OW24103   4.883   3.803   0.711
 7735SOL    HW124104   4.901   3.890   0.665
 7735SOL    HW224105   4.855   3.820   0.806
 7736SOL     OW24106   5.539   4.709   5.949
 7736SOL    HW124107   5.600   4.697   6.027
 7736SOL    HW224108   5.499   4.621   5.924
 7737SOL     OW24109   4.875   2.000   0.683
 7737SOL    HW124110   4.930   1.917   0.696
 7737SOL    HW224111   4.812   2.011   0.760
 7738SOL     OW24112   2.712   4.633   6.981
 7738SOL    HW124113   2.756   4.543   6.990
 7738SOL    HW224114   2.656   4.650   0.038
 7739SOL     OW24115   6.275   3.435   1.833
 7739SOL    HW124116   6.212   3.390   1.896
 7739SOL    HW224117   6.369   3.414   1.859
 7740SOL     OW24118   0.776   6.703   3.789
 7740SOL    HW124119   0.776   6.783   3.730
 7740SOL    HW224120   0.827   6.723   3.873
 7741SOL     OW24121   3.002   5.490   4.581
 7741SOL    HW124122   3.006   5.586   4.551
 7741SOL    HW224123   3.095   5.456   4.596
 7742SOL     OW24124   6.396   0.755   4.095
 7742SOL    HW124125   6.312   0.703   4.110
 7742SOL    HW224126   6.463   0.697   4.049
 7743SOL     OW24127   4.822   2.772   2.845
 7743SOL    HW124128   4.847   2.745   2.753
 7743SOL    HW224129   4.800   2.869   2.847
 7744SOL     OW24130   7.002   6.812   4.786
 7744SOL    HW124131   0.069   6.811   4.828
 7744SOL    HW224132   7.005   6.867   4.703
 7745SOL     OW24133   5.050   3.437   5.440
 7745SOL    HW124134   5.027   3.340   5.428
 7745SOL    HW224135   5.117   3.464   5.371
 7746SOL     OW24136   1.518   0.743   0.356
 7746SOL    HW124137   1.609   0.763   0.393
 7746SOL    HW224138   1.517   0.651   0.318
 7747SOL     OW24139   5.649   4.965   1.279
 7747SOL    HW124140   5.640   4.949   1.377
 7747SOL    HW224141   5.739   4.934   1.248
 7748SOL     OW24142   3.082   3.360   6.463
 7748SOL    HW124143   3.026   3.432   6.420
 7748SOL    HW224144   3.047   3.270   6.436
 7749SOL     OW24145   5.497   3.732   6.461
 7749SOL    HW124146   5.493   3.830   6.479
 7749SOL    HW224147   5.589   3.698   6.481
 7750SOL     OW24148   6.169   5.069   2.990
 7750SOL    HW124149   6.213   4.981   3.008
 7750SOL    HW224150   6.155   5.117   3.076
 7751SOL     OW24151   0.254   2.452   1.698
 7751SOL    HW124152   0.255   2.486   1.604
 7751SOL    HW224153   0.314   2.372   1.705
 7752SOL     OW24154   4.214   1.537   3.401
 7752SOL    HW124155   4.122   1.499   3.385
 7752SOL    HW224156   4.266   1.534   3.315
 7753SOL     OW24157   3.241   1.757   5.099
 7753SOL    HW124158   3.221   1.708   5.184
 7753SOL    HW224159   3.200   1.848   5.102
 7754SOL     OW24160   5.531   5.727   2.189
 7754SOL    HW124161   5.568   5.757   2.101
 7754SOL    HW224162   5.603   5.727   2.258
 7755SOL     OW24163   0.557   4.758   4.473
 7755SOL    HW124164   0.635   4.773   4.413
 7755SOL    HW224165   0.489   4.702   4.426
 7756SOL     OW24166   2.606   4.903   2.571
 7756SOL    HW124167   2.601   4.932   2.476
 7756SOL    HW224168   2.653   4.973   2.625
 7757SOL     OW24169   0.304   4.701   1.867
 7757SOL    HW124170   0.374   4.763   1.832
 7757SOL    HW224171   0.216   4.748   1.869
 7758SOL     OW24172   1.260   2.443   4.587
 7758SOL    HW124173   1.269   2.536   4.552
 7758SOL    HW224174   1.165   2.413   4.577
 7759SOL     OW24175   3.392   1.723   1.344
 7759SOL    HW124176   3.481   1.710   1.300
 7759SOL    HW224177   3.366   1.820   1.338
 7760SOL     OW24178   4.931   3.192   0.106
 7760SOL    HW124179   4.840   3.151   0.104
 7760SOL    HW224180   5.000   3.120   0.103
 7761SOL     OW24181   4.479   5.231   3.140
 7761SOL    HW124182   4.457   5.295   3.212
 7761SOL    HW224183   4.464   5.273   3.051
 7762SOL     OW24184   5.595   1.353   1.573
 7762SOL    HW124185   5.635   1.442   1.551
 7762SOL    HW224186   5.522   1.364   1.639
 7763SOL     OW24187   2.401   0.370   4.264
 7763SOL    HW124188   2.499   0.389   4.264
 7763SOL    HW224189   2.377   0.316   4.345
 7764SOL     OW24190   2.616   4.391   5.581
 7764SOL    HW124191   2.660   4.356   5.499
 7764SOL    HW224192   2.561   4.320   5.623
 7765SOL     OW24193   5.485   3.605   4.358
 7765SOL    HW124194   5.447   3.514   4.374
 7765SOL    HW224195   5.576   3.597   4.318
 7766SOL     OW24196   6.776   3.482   6.748
 7766SOL    HW124197   6.802   3.450   6.657
 7766SOL    HW224198   6.859   3.493   6.804
 7767SOL     OW24199   4.209   0.315   3.730
 7767SOL    HW124200   4.288   0.374   3.713
 7767SOL    HW224201   4.157   0.305   3.645
 7768SOL     OW24202   3.720   5.632   3.884
 7768SOL    HW124203   3.699   5.543   3.842
 7768SOL    HW224204   3.637   5.669   3.926
 7769SOL     OW24205   3.559   2.907   6.136
 7769SOL    HW124206   3.476   2.858   6.165
 7769SOL    HW224207   3.533   2.982   6.076
 7770SOL     OW24208   1.211   3.530   4.532
 7770SOL    HW124209   1.136   3.558   4.472
 7770SOL    HW224210   1.229   3.603   4.598
 7771SOL     OW24211   1.912   4.147   6.402
 7771SOL    HW124212   1.826   4.196   6.415
 7771SOL    HW224213   1.983   4.212   6.374
 7772SOL     OW24214   5.358   6.114   2.101
 7772SOL    HW124215   5.289   6.186   2.088
 7772SOL    HW224216   5.373   6.101   2.199
 7773SOL     OW24217   1.901   6.500   6.630
 7773SOL    HW124218   1.820   6.441   6.631
 7773SOL    HW224219   1.978   6.453   6.672
 7774SOL     OW24220   5.344   1.485   2.651
 7774SOL    HW124221   5.318   1.389   2.641
 7774SOL    HW224222   5.298   1.523   2.731
 7775SOL     OW24223   2.923   2.037   1.337
 7775SOL    HW124224   2.964   2.114   1.288
 7775SOL    HW224225   2.826   2.030   1.312
 7776SOL     OW24226   2.734   1.139   4.695
 7776SOL    HW124227   2.755   1.236   4.686
 7776SOL    HW224228   2.738   1.095   4.605
 7777SOL     OW24229   6.231   5.921   3.332
 7777SOL    HW124230   6.245   5.918   3.233
 7777SOL    HW224231   6.219   5.828   3.367
 7778SOL     OW24232   0.140   4.640   2.646
 7778SOL    HW124233   0.067   4.661   2.581
 7778SOL    HW224234   0.216   4.704   2.632
 7779SOL     OW24235   4.138   6.311   2.046
 7779SOL    HW124236   4.164   6.291   1.951
 7779SOL    HW224237   4.045   6.348   2.048
 7780SOL     OW24238   5.922   5.961   4.894
 7780SOL    HW124239   6.019   5.986   4.893
 7780SOL    HW224240   5.889   5.958   4.988
 7781SOL     OW24241   1.858   3.326   0.801
 7781SOL    HW124242   1.937   3.382   0.827
 7781SOL    HW224243   1.853   3.320   0.701
 7782SOL     OW24244   5.411   3.337   4.385
 7782SOL    HW124245   5.385   3.356   4.479
 7782SOL    HW224246   5.330   3.330   4.328
 7783SOL     OW24247   1.928   6.233   4.628
 7783SOL    HW124248   1.855   6.302   4.629
 7783SOL    HW224249   1.947   6.204   4.722
 7784SOL     OW24250   1.651   1.909   1.770
 7784SOL    HW124251   1.556   1.908   1.800
 7784SOL    HW224252   1.672   1.997   1.726
 7785SOL     OW24253   0.166   6.076   3.222
 7785SOL    HW124254   0.191   6.082   3.125
 7785SOL    HW224255   0.202   6.156   3.270
 7786SOL     OW24256   4.507   1.070   6.014
 7786SOL    HW124257   4.565   0.996   5.979
 7786SOL    HW224258   4.453   1.036   6.091
 7787SOL     OW24259   2.382   2.351   1.717
 7787SOL    HW124260   2.480   2.334   1.710
 7787SOL    HW224261   2.349   2.325   1.808
 7788SOL     OW24262   0.582   3.927   1.747
 7788SOL    HW124263   0.658   3.959   1.803
 7788SOL    HW224264   0.497   3.936   1.799
 7789SOL     OW24265   3.740   1.163   6.083
 7789SOL    HW124266   3.680   1.225   6.032
 7789SOL    HW224267   3.732   1.071   6.045
 7790SOL     OW24268   4.249   5.406   2.491
 7790SOL    HW124269   4.244   5.466   2.572
 7790SOL    HW224270   4.200   5.321   2.510
 7791SOL     OW24271   3.040   5.603   2.484
 7791SOL    HW124272   2.972   5.609   2.557
 7791SOL    HW224273   3.040   5.511   2.445
 7792SOL     OW24274   1.431   1.429   3.054
 7792SOL    HW124275   1.382   1.515   3.039
 7792SOL    HW224276   1.490   1.411   2.975
 7793SOL     OW24277   5.309   1.269   0.675
 7793SOL    HW124278   5.369   1.291   0.752
 7793SOL    HW224279   5.275   1.353   0.634
 7794SOL     OW24280   1.025   7.012   3.542
 7794SOL    HW124281   1.060   0.029   3.458
 7794SOL    HW224282   1.046   6.914   3.543
 7795SOL     OW24283   3.545   4.524   1.124
 7795SOL    HW124284   3.464   4.566   1.082
 7795SOL    HW224285   3.594   4.592   1.178
 7796SOL     OW24286   3.192   1.760   0.236
 7796SOL    HW124287   3.221   1.665   0.226
 7796SOL    HW224288   3.193   1.785   0.333
 7797SOL     OW24289   1.143   5.560   3.038
 7797SOL    HW124290   1.179   5.474   3.072
 7797SOL    HW224291   1.216   5.611   2.992
 7798SOL     OW24292   2.143   3.237   0.502
 7798SOL    HW124293   2.242   3.238   0.486
 7798SOL    HW224294   2.095   3.241   0.415
 7799SOL     OW24295   3.634   5.980   3.880
 7799SOL    HW124296   3.581   6.054   3.840
 7799SOL    HW224297   3.572   5.906   3.907
 7800SOL     OW24298   1.571   0.711   2.153
 7800SOL    HW124299   1.667   0.732   2.173
 7800SOL    HW224300   1.513   0.754   2.222
 7801SOL     OW24301   0.866   2.104   1.031
 7801SOL    HW124302   0.816   2.042   1.092
 7801SOL    HW224303   0.801   2.160   0.980
 7802SOL     OW24304   6.714   4.046   3.935
 7802SOL    HW124305   6.664   3.988   3.998
 7802SOL    HW224306   6.650   4.091   3.872
 7803SOL     OW24307   2.973   2.753   5.705
 7803SOL    HW124308   2.910   2.826   5.678
 7803SOL    HW224309   2.940   2.709   5.788
 7804SOL     OW24310   3.623   1.556   5.397
 7804SOL    HW124311   3.660   1.554   5.490
 7804SOL    HW224312   3.541   1.613   5.395
 7805SOL     OW24313   5.238   2.908   6.550
 7805SOL    HW124314   5.265   2.815   6.576
 7805SOL    HW224315   5.138   2.912   6.538
 7806SOL     OW24316   6.411   1.646   5.759
 7806SOL    HW124317   6.432   1.555   5.726
 7806SOL    HW224318   6.360   1.640   5.845
 7807SOL     OW24319   2.323   5.564   5.632
 7807SOL    HW124320   2.342   5.505   5.710
 7807SOL    HW224321   2.409   5.595   5.592
 7808SOL     OW24322   6.278   3.762   3.772
 7808SOL    HW124323   6.269   3.699   3.849
 7808SOL    HW224324   6.261   3.714   3.687
 7809SOL     OW24325   5.007   6.435   1.982
 7809SOL    HW124326   4.958   6.362   2.029
 7809SOL    HW224327   4.985   6.433   1.884
 7810SOL     OW24328   2.527   6.676   5.738
 7810SOL    HW124329   2.560   6.770   5.734
 7810SOL    HW224330   2.603   6.613   5.752
 7811SOL     OW24331   1.167   5.942   2.486
 7811SOL    HW124332   1.142   5.983   2.399
 7811SOL    HW224333   1.089   5.945   2.548
 7812SOL     OW24334   2.791   0.914   5.679
 7812SOL    HW124335   2.813   0.831   5.731
 7812SOL    HW224336   2.871   0.942   5.626
 7813SOL     OW24337   5.286   0.855   1.471
 7813SOL    HW124338   5.323   0.764   1.494
 7813SOL    HW224339   5.251   0.898   1.555
 7814SOL     OW24340   5.588   2.832   2.495
 7814SOL    HW124341   5.619   2.813   2.402
 7814SOL    HW224342   5.666   2.834   2.557
 7815SOL     OW24343   5.018   5.607   3.768
 7815SOL    HW124344   4.993   5.609   3.865
 7815SOL    HW224345   4.960   5.542   3.720
 7816SOL     OW24346   0.772   1.178   5.131
 7816SOL    HW124347   0.836   1.249   5.101
 7816SOL    HW224348   0.703   1.218   5.191
 7817SOL     OW24349   4.206   2.063   6.955
 7817SOL    HW124350   4.137   1.991   6.962
 7817SOL    HW224351   4.205   2.118   0.014
 7818SOL     OW24352   5.783   1.150   3.028
 7818SOL    HW124353   5.796   1.176   2.932
 7818SOL    HW224354   5.836   1.068   3.047
 7819SOL     OW24355   1.620   3.556   5.296
 7819SOL    HW124356   1.526   3.566   5.327
 7819SOL    HW224357   1.676   3.519   5.371
 7820SOL     OW24358   1.444   1.227   5.327
 7820SOL    HW124359   1.535   1.185   5.331
 7820SOL    HW224360   1.374   1.157   5.339
 7821SOL     OW24361   3.971   6.304   6.246
 7821SOL    HW124362   3.933   6.212   6.239
 7821SOL    HW224363   3.967   6.349   6.156
 7822SOL     OW24364   0.272   1.670   4.970
 7822SOL    HW124365   0.245   1.700   5.062
 7822SOL    HW224366   0.190   1.660   4.913
 7823SOL     OW24367   2.519   3.263   5.547
 7823SOL    HW124368   2.449   3.203   5.507
 7823SOL    HW224369   2.506   3.356   5.513
 7824SOL     OW24370   5.349   4.116   3.032
 7824SOL    HW124371   5.350   4.037   3.094
 7824SOL    HW224372   5.266   4.114   2.977
 7825SOL     OW24373   3.495   3.459   2.785
 7825SOL    HW124374   3.452   3.533   2.733
 7825SOL    HW224375   3.592   3.479   2.798
 7826SOL     OW24376   6.595   0.036   0.468
 7826SOL    HW124377   6.532   0.102   0.429
 7826SOL    HW224378   6.605   6.982   0.406
 7827SOL     OW24379   4.318   3.116   0.312
 7827SOL    HW124380   4.331   3.108   0.411
 7827SOL    HW224381   4.367   3.042   0.266
 7828SOL     OW24382   0.785   5.674   1.087
 7828SOL    HW124383   0.785   5.710   1.180
 7828SOL    HW224384   0.860   5.608   1.076
 7829SOL     OW24385   3.598   4.093   3.422
 7829SOL    HW124386   3.693   4.094   3.392
 7829SOL    HW224387   3.539   4.066   3.346
 7830SOL     OW24388   5.873   3.594   6.797
 7830SOL    HW124389   5.823   3.581   6.882
 7830SOL    HW224390   5.809   3.620   6.725
 7831SOL     OW24391   1.571   2.697   0.306
 7831SOL    HW124392   1.661   2.688   0.264
 7831SOL    HW224393   1.551   2.616   0.360
 7832SOL     OW24394   3.276   2.996   5.619
 7832SOL    HW124395   3.356   3.049   5.647
 7832SOL    HW224396   3.264   3.003   5.520
 7833SOL     OW24397   0.247   6.628   1.486
 7833SOL    HW124398   0.335   6.587   1.463
 7833SOL    HW224399   0.193   6.640   1.403
 7834SOL     OW24400   6.611   0.357   1.589
 7834SOL    HW124401   6.618   0.331   1.492
 7834SOL    HW224402   6.670   0.299   1.644
 7835SOL     OW24403   2.585   2.342   4.387
 7835SOL    HW124404   2.657   2.289   4.431
 7835SOL    HW224405   2.555   2.415   4.448
 7836SOL     OW24406   1.774   0.616   0.387
 7836SOL    HW124407   1.835   0.617   0.308
 7836SOL    HW224408   1.774   0.705   0.431
 7837SOL     OW24409   5.060   6.713   2.008
 7837SOL    HW124410   5.149   6.714   1.961
 7837SOL    HW224411   5.030   6.619   2.022
 7838SOL     OW24412   3.994   6.357   4.148
 7838SOL    HW124413   3.951   6.423   4.086
 7838SOL    HW224414   4.033   6.282   4.095
 7839SOL     OW24415   7.019   4.541   3.360
 7839SOL    HW124416   0.040   4.536   3.449
 7839SOL    HW224417   7.008   4.636   3.332
 7840SOL     OW24418   4.891   3.292   5.786
 7840SOL    HW124419   4.822   3.349   5.741
 7840SOL    HW224420   4.864   3.279   5.882
 7841SOL     OW24421   1.118   1.889   6.497
 7841SOL    HW124422   1.144   1.797   6.526
 7841SOL    HW224423   1.048   1.925   6.559
 7842SOL     OW24424   3.388   0.574   1.965
 7842SOL    HW124425   3.472   0.562   1.913
 7842SOL    HW224426   3.371   0.672   1.979
 7843SOL     OW24427   0.322   3.099   2.031
 7843SOL    HW124428   0.305   3.128   1.937
 7843SOL    HW224429   0.305   3.176   2.093
 7844SOL     OW24430   3.826   1.274   4.432
 7844SOL    HW124431   3.756   1.280   4.361
 7844SOL    HW224432   3.805   1.338   4.506
 7845SOL     OW24433   1.560   1.091   3.983
 7845SOL    HW124434   1.593   1.139   4.065
 7845SOL    HW224435   1.460   1.093   3.982
 7846SOL     OW24436   4.501   6.428   1.815
 7846SOL    HW124437   4.584   6.396   1.769
 7846SOL    HW224438   4.421   6.390   1.769
 7847SOL     OW24439   0.321   0.360   0.139
 7847SOL    HW124440   0.230   0.323   0.117
 7847SOL    HW224441   0.385   0.284   0.152
 7848SOL     OW24442   3.921   4.669   0.958
 7848SOL    HW124443   3.885   4.698   1.046
 7848SOL    HW224444   3.876   4.584   0.929
 7849SOL     OW24445   5.243   3.936   4.522
 7849SOL    HW124446   5.197   3.895   4.601
 7849SOL    HW224447   5.339   3.952   4.544
 7850SOL     OW24448   0.949   2.239   4.173
 7850SOL    HW124449   0.963   2.154   4.123
 7850SOL    HW224450   0.853   2.247   4.200
 7851SOL     OW24451   5.136   6.734   0.932
 7851SOL    HW124452   5.109   6.676   1.010
 7851SOL    HW224453   5.230   6.713   0.906
 7852SOL     OW24454   2.445   6.841   0.319
 7852SOL    HW124455   2.450   6.742   0.310
 7852SOL    HW224456   2.422   6.865   0.413
 7853SOL     OW24457   1.808   2.673   0.172
 7853SOL    HW124458   1.856   2.724   0.100
 7853SOL    HW224459   1.747   2.606   0.131
 7854SOL     OW24460   3.270   4.156   3.317
 7854SOL    HW124461   3.324   4.225   3.365
 7854SOL    HW224462   3.254   4.079   3.379
 7855SOL     OW24463   4.144   0.123   5.081
 7855SOL    HW124464   4.185   0.134   5.172
 7855SOL    HW224465   4.202   0.063   5.026
 7856SOL     OW24466   3.479   3.885   6.631
 7856SOL    HW124467   3.568   3.840   6.641
 7856SOL    HW224468   3.428   3.877   6.716
 7857SOL     OW24469   0.969   2.775   5.144
 7857SOL    HW124470   1.017   2.820   5.069
 7857SOL    HW224471   0.874   2.760   5.119
 7858SOL     OW24472   5.762   4.138   3.156
 7858SOL    HW124473   5.739   4.106   3.248
 7858SOL    HW224474   5.858   4.165   3.153
 7859SOL     OW24475   0.639   6.053   7.004
 7859SOL    HW124476   0.542   6.075   6.989
 7859SOL    HW224477   0.672   5.997   6.928
 7860SOL     OW24478   4.830   6.708   1.648
 7860SOL    HW124479   4.828   6.766   1.729
 7860SOL    HW224480   4.860   6.762   1.569
 7861SOL     OW24481   5.147   3.433   0.707
 7861SOL    HW124482   5.187   3.520   0.677
 7861SOL    HW224483   5.070   3.410   0.648
 7862SOL     OW24484   2.702   4.327   1.695
 7862SOL    HW124485   2.802   4.325   1.687
 7862SOL    HW224486   2.676   4.390   1.769
 7863SOL     OW24487   5.363   5.858   2.413
 7863SOL    HW124488   5.330   5.767   2.389
 7863SOL    HW224489   5.463   5.860   2.408
 7864SOL     OW24490   1.218   5.959   4.336
 7864SOL    HW124491   1.235   5.947   4.434
 7864SOL    HW224492   1.134   5.911   4.311
 7865SOL     OW24493   3.450   0.882   3.050
 7865SOL    HW124494   3.431   0.958   3.112
 7865SOL    HW224495   3.547   0.856   3.056
 7866SOL     OW24496   1.896   2.573   4.698
 7866SOL    HW124497   1.930   2.649   4.754
 7866SOL    HW224498   1.804   2.593   4.667
 7867SOL     OW24499   5.449   4.019   2.267
 7867SOL    HW124500   5.444   4.119   2.260
 7867SOL    HW224501   5.361   3.979   2.243
 7868SOL     OW24502   5.431   0.257   0.736
 7868SOL    HW124503   5.509   0.314   0.762
 7868SOL    HW224504   5.346   0.299   0.770
 7869SOL     OW24505   6.491   1.810   4.353
 7869SOL    HW124506   6.504   1.712   4.366
 7869SOL    HW224507   6.561   1.860   4.403
 7870SOL     OW24508   6.832   6.625   3.014
 7870SOL    HW124509   6.929   6.644   3.022
 7870SOL    HW224510   6.782   6.675   3.085
 7871SOL     OW24511   5.394   3.272   3.715
 7871SOL    HW124512   5.464   3.308   3.777
 7871SOL    HW224513   5.306   3.314   3.737
 7872SOL     OW24514   6.404   3.369   4.058
 7872SOL    HW124515   6.419   3.454   4.108
 7872SOL    HW224516   6.315   3.332   4.081
 7873SOL     OW24517   0.073   5.557   4.766
 7873SOL    HW124518   0.070   5.656   4.781
 7873SOL    HW224519   0.168   5.527   4.761
 7874SOL     OW24520   6.157   1.405   0.953
 7874SOL    HW124521   6.181   1.495   0.917
 7874SOL    HW224522   6.125   1.347   0.877
 7875SOL     OW24523   4.462   3.070   0.785
 7875SOL    HW124524   4.488   2.986   0.834
 7875SOL    HW224525   4.539   3.100   0.728
 7876SOL     OW24526   0.277   0.546   5.012
 7876SOL    HW124527   0.228   0.539   4.925
 7876SOL    HW224528   0.368   0.505   5.003
 7877SOL     OW24529   6.008   2.524   2.733
 7877SOL    HW124530   6.020   2.516   2.634
 7877SOL    HW224531   6.097   2.536   2.777
 7878SOL     OW24532   4.515   3.918   1.699
 7878SOL    HW124533   4.438   3.897   1.638
 7878SOL    HW224534   4.490   3.995   1.758
 7879SOL     OW24535   5.700   0.897   4.383
 7879SOL    HW124536   5.739   0.817   4.338
 7879SOL    HW224537   5.603   0.904   4.361
 7880SOL     OW24538   1.276   6.653   6.107
 7880SOL    HW124539   1.274   6.622   6.202
 7880SOL    HW224540   1.193   6.706   6.088
 7881SOL     OW24541   0.864   4.781   3.659
 7881SOL    HW124542   0.838   4.766   3.563
 7881SOL    HW224543   0.919   4.864   3.665
 7882SOL     OW24544   1.487   4.321   1.763
 7882SOL    HW124545   1.479   4.273   1.851
 7882SOL    HW224546   1.522   4.414   1.779
 7883SOL     OW24547   3.247   2.084   3.220
 7883SOL    HW124548   3.232   2.179   3.245
 7883SOL    HW224549   3.310   2.042   3.285
 7884SOL     OW24550   0.530   3.488   4.531
 7884SOL    HW124551   0.528   3.507   4.629
 7884SOL    HW224552   0.547   3.573   4.481
 7885SOL     OW24553   5.803   5.187   2.635
 7885SOL    HW124554   5.737   5.120   2.671
 7885SOL    HW224555   5.870   5.209   2.707
 7886SOL     OW24556   4.882   3.574   2.511
 7886SOL    HW124557   4.803   3.550   2.454
 7886SOL    HW224558   4.966   3.560   2.459
 7887SOL     OW24559   1.238   2.920   1.719
 7887SOL    HW124560   1.282   2.991   1.664
 7887SOL    HW224561   1.158   2.959   1.766
 7888SOL     OW24562   6.309   1.067   4.713
 7888SOL    HW124563   6.216   1.082   4.679
 7888SOL    HW224564   6.339   1.147   4.766
 7889SOL     OW24565   5.922   5.171   0.417
 7889SOL    HW124566   5.832   5.207   0.393
 7889SOL    HW224567   5.988   5.246   0.418
 7890SOL     OW24568   2.176   3.115   3.812
 7890SOL    HW124569   2.181   3.048   3.738
 7890SOL    HW224570   2.225   3.081   3.892
 7891SOL     OW24571   6.435   2.130   4.825
 7891SOL    HW124572   6.491   2.104   4.903
 7891SOL    HW224573   6.402   2.224   4.837
 7892SOL     OW24574   0.772   1.913   4.866
 7892SOL    HW124575   0.683   1.955   4.855
 7892SOL    HW224576   0.840   1.983   4.889
 7893SOL     OW24577   5.683   0.272   0.221
 7893SOL    HW124578   5.731   0.329   0.289
 7893SOL    HW224579   5.608   0.324   0.181
 7894SOL     OW24580   2.908   0.745   6.984
 7894SOL    HW124581   2.896   0.652   7.019
 7894SOL    HW224582   3.006   0.765   6.977
 7895SOL     OW24583   6.350   6.093   3.533
 7895SOL    HW124584   6.324   6.023   3.466
 7895SOL    HW224585   6.399   6.167   3.487
 7896SOL     OW24586   2.520   2.113   0.873
 7896SOL    HW124587   2.593   2.078   0.932
 7896SOL    HW224588   2.556   2.128   0.781
 7897SOL     OW24589   3.516   2.753   0.359
 7897SOL    HW124590   3.485   2.792   0.272
 7897SOL    HW224591   3.547   2.827   0.419
 7898SOL     OW24592   5.421   6.854   3.048
 7898SOL    HW124593   5.367   6.886   3.127
 7898SOL    HW224594   5.494   6.794   3.080
 7899SOL     OW24595   6.057   4.020   4.097
 7899SOL    HW124596   6.123   4.049   4.028
 7899SOL    HW224597   5.982   4.086   4.100
 7900SOL     OW24598   0.312   3.876   0.740
 7900SOL    HW124599   0.262   3.963   0.742
 7900SOL    HW224600   0.337   3.854   0.646
 7901SOL     OW24601   0.636   2.117   0.182
 7901SOL    HW124602   0.538   2.122   0.162
 7901SOL    HW224603   0.649   2.076   0.272
 7902SOL     OW24604   2.031   6.646   1.970
 7902SOL    HW124605   2.085   6.695   1.901
 7902SOL    HW224606   1.954   6.599   1.926
 7903SOL     OW24607   2.464   2.271   5.111
 7903SOL    HW124608   2.430   2.213   5.037
 7903SOL    HW224609   2.426   2.240   5.198
 7904SOL     OW24610   4.387   2.243   3.158
 7904SOL    HW124611   4.322   2.203   3.095
 7904SOL    HW224612   4.379   2.343   3.156
 7905SOL     OW24613   5.336   2.140   1.382
 7905SOL    HW124614   5.329   2.185   1.293
 7905SOL    HW224615   5.336   2.041   1.369
 7906SOL     OW24616   1.495   4.835   0.104
 7906SOL    HW124617   1.481   4.752   0.049
 7906SOL    HW224618   1.489   4.915   0.046
 7907SOL     OW24619   5.973   6.343   2.645
 7907SOL    HW124620   5.907   6.359   2.572
 7907SOL    HW224621   5.986   6.245   2.657
 7908SOL     OW24622   1.679   0.004   6.417
 7908SOL    HW124623   1.679   0.043   6.326
 7908SOL    HW224624   1.752   6.960   6.425
 7909SOL     OW24625   6.295   4.165   2.074
 7909SOL    HW124626   6.287   4.143   1.977
 7909SOL    HW224627   6.261   4.258   2.091
 7910SOL     OW24628   1.114   4.113   6.200
 7910SOL    HW124629   1.041   4.046   6.190
 7910SOL    HW224630   1.203   4.066   6.197
 7911SOL     OW24631   6.799   4.460   6.086
 7911SOL    HW124632   6.850   4.502   6.011
 7911SOL    HW224633   6.859   4.446   6.164
 7912SOL     OW24634   5.723   5.708   0.950
 7912SOL    HW124635   5.631   5.742   0.968
 7912SOL    HW224636   5.719   5.629   0.889
 7913SOL     OW24637   1.278   5.029   0.160
 7913SOL    HW124638   1.192   5.057   0.117
 7913SOL    HW224639   1.262   4.945   0.212
 7914SOL     OW24640   0.661   0.016   5.115
 7914SOL    HW124641   0.687   0.112   5.103
 7914SOL    HW224642   0.582   7.019   5.058
 7915SOL     OW24643   2.972   5.005   2.596
 7915SOL    HW124644   2.970   5.002   2.696
 7915SOL    HW224645   3.001   5.096   2.566
 7916SOL     OW24646   1.378   0.581   4.315
 7916SOL    HW124647   1.422   0.492   4.325
 7916SOL    HW224648   1.321   0.581   4.233
 7917SOL     OW24649   4.448   2.051   1.798
 7917SOL    HW124650   4.519   2.030   1.730
 7917SOL    HW224651   4.470   2.138   1.843
 7918SOL     OW24652   2.558   2.581   3.666
 7918SOL    HW124653   2.515   2.670   3.652
 7918SOL    HW224654   2.546   2.553   3.761
 7919SOL     OW24655   1.541   6.013   5.314
 7919SOL    HW124656   1.635   6.032   5.341
 7919SOL    HW224657   1.479   6.069   5.369
 7920SOL     OW24658   5.247   0.757   1.193
 7920SOL    HW124659   5.170   0.692   1.192
 7920SOL    HW224660   5.272   0.777   1.288
 7921SOL     OW24661   5.210   2.759   0.895
 7921SOL    HW124662   5.309   2.763   0.893
 7921SOL    HW224663   5.172   2.852   0.896
 7922SOL     OW24664   2.925   0.249   2.096
 7922SOL    HW124665   2.895   0.235   2.190
 7922SOL    HW224666   2.883   0.333   2.061
 7923SOL     OW24667   4.355   1.526   6.766
 7923SOL    HW124668   4.285   1.471   6.812
 7923SOL    HW224669   4.353   1.619   6.801
 7924SOL     OW24670   6.137   5.789   0.114
 7924SOL    HW124671   6.137   5.701   0.160
 7924SOL    HW224672   6.187   5.782   0.028
 7925SOL     OW24673   1.884   5.238   6.816
 7925SOL    HW124674   1.828   5.167   6.772
 7925SOL    HW224675   1.949   5.274   6.749
 7926SOL     OW24676   5.060   5.863   6.658
 7926SOL    HW124677   4.991   5.807   6.703
 7926SOL    HW224678   5.130   5.889   6.725
 7927SOL     OW24679   4.532   0.355   2.761
 7927SOL    HW124680   4.602   0.425   2.774
 7927SOL    HW224681   4.518   0.305   2.846
 7928SOL     OW24682   5.973   2.189   2.868
 7928SOL    HW124683   5.896   2.155   2.814
 7928SOL    HW224684   6.026   2.254   2.813
 7929SOL     OW24685   4.561   4.133   5.950
 7929SOL    HW124686   4.476   4.083   5.962
 7929SOL    HW224687   4.628   4.103   6.019
 7930SOL     OW24688   4.315   6.677   6.105
 7930SOL    HW124689   4.291   6.629   6.189
 7930SOL    HW224690   4.351   6.768   6.127
 7931SOL     OW24691   3.752   1.882   1.740
 7931SOL    HW124692   3.661   1.898   1.779
 7931SOL    HW224693   3.793   1.801   1.782
 7932SOL     OW24694   1.487   3.785   1.116
 7932SOL    HW124695   1.466   3.882   1.107
 7932SOL    HW224696   1.526   3.768   1.207
 7933SOL     OW24697   1.097   2.030   0.109
 7933SOL    HW124698   1.069   2.041   0.204
 7933SOL    HW224699   1.166   1.958   0.102
 7934SOL     OW24700   0.950   5.235   0.644
 7934SOL    HW124701   0.927   5.331   0.625
 7934SOL    HW224702   0.964   5.223   0.742
 7935SOL     OW24703   5.930   2.587   3.277
 7935SOL    HW124704   5.836   2.559   3.254
 7935SOL    HW224705   5.962   2.533   3.355
 7936SOL     OW24706   3.063   5.772   3.926
 7936SOL    HW124707   3.133   5.723   3.874
 7936SOL    HW224708   2.990   5.800   3.864
 7937SOL     OW24709   3.974   1.034   0.511
 7937SOL    HW124710   4.059   1.004   0.468
 7937SOL    HW224711   3.938   1.113   0.462
 7938SOL     OW24712   3.248   6.954   3.570
 7938SOL    HW124713   3.259   6.854   3.568
 7938SOL    HW224714   3.177   6.978   3.636
 7939SOL     OW24715   0.842   1.090   2.823
 7939SOL    HW124716   0.774   1.161   2.841
 7939SOL    HW224717   0.849   1.076   2.724
 7940SOL     OW24718   5.771   1.310   4.235
 7940SOL    HW124719   5.809   1.351   4.318
 7940SOL    HW224720   5.671   1.310   4.241
 7941SOL     OW24721   3.330   0.091   1.132
 7941SOL    HW124722   3.406   0.034   1.099
 7941SOL    HW224723   3.322   0.083   1.231
 7942SOL     OW24724   1.444   4.739   0.857
 7942SOL    HW124725   1.346   4.723   0.847
 7942SOL    HW224726   1.471   4.726   0.952
 7943SOL     OW24727   1.518   6.298   5.810
 7943SOL    HW124728   1.420   6.280   5.807
 7943SOL    HW224729   1.553   6.308   5.717
 7944SOL     OW24730   0.695   2.467   1.343
 7944SOL    HW124731   0.698   2.560   1.378
 7944SOL    HW224732   0.784   2.423   1.358
 7945SOL     OW24733   6.005   4.216   3.059
 7945SOL    HW124734   5.940   4.269   3.005
 7945SOL    HW224735   6.054   4.152   2.998
 7946SOL     OW24736   3.938   1.160   6.734
 7946SOL    HW124737   3.885   1.102   6.797
 7946SOL    HW224738   3.966   1.106   6.655
 7947SOL     OW24739   0.002   3.988   6.573
 7947SOL    HW124740   7.014   4.013   6.477
 7947SOL    HW224741   0.036   3.894   6.579
 7948SOL     OW24742   1.936   5.261   2.718
 7948SOL    HW124743   1.983   5.173   2.721
 7948SOL    HW224744   1.911   5.289   2.811
 7949SOL     OW24745   2.932   5.958   5.851
 7949SOL    HW124746   2.982   5.916   5.776
 7949SOL    HW224747   2.835   5.935   5.844
 7950SOL     OW24748   6.224   4.688   5.289
 7950SOL    HW124749   6.245   4.714   5.195
 7950SOL    HW224750   6.261   4.597   5.307
 7951SOL     OW24751   4.514   6.339   2.436
 7951SOL    HW124752   4.540   6.431   2.407
 7951SOL    HW224753   4.533   6.274   2.363
 7952SOL     OW24754   6.335   3.830   5.351
 7952SOL    HW124755   6.384   3.839   5.265
 7952SOL    HW224756   6.400   3.820   5.426
 7953SOL     OW24757   1.576   6.352   0.615
 7953SOL    HW124758   1.671   6.378   0.634
 7953SOL    HW224759   1.544   6.401   0.534
 7954SOL     OW24760   3.699   3.997   6.846
 7954SOL    HW124761   3.660   3.907   6.865
 7954SOL    HW224762   3.625   4.062   6.828
 7955SOL     OW24763   1.474   1.249   6.512
 7955SOL    HW124764   1.563   1.293   6.527
 7955SOL    HW224765   1.467   1.220   6.417
 7956SOL     OW24766   6.913   6.038   0.215
 7956SOL    HW124767   6.945   6.120   0.168
 7956SOL    HW224768   6.983   6.006   0.279
 7957SOL     OW24769   5.201   1.423   6.002
 7957SOL    HW124770   5.280   1.453   5.949
 7957SOL    HW224771   5.180   1.328   5.981
 7958SOL     OW24772   5.212   2.429   0.250
 7958SOL    HW124773   5.191   2.405   0.345
 7958SOL    HW224774   5.298   2.387   0.223
 7959SOL     OW24775   5.473   2.264   0.186
 7959SOL    HW124776   5.540   2.268   0.260
 7959SOL    HW224777   5.460   2.169   0.158
 7960SOL     OW24778   0.965   1.364   5.505
 7960SOL    HW124779   1.019   1.340   5.424
 7960SOL    HW224780   0.996   1.453   5.540
 7961SOL     OW24781   6.346   6.754   6.976
 7961SOL    HW124782   6.324   6.664   7.013
 7961SOL    HW224783   6.270   6.786   6.918
 7962SOL     OW24784   6.286   0.078   5.517
 7962SOL    HW124785   6.227   0.083   5.598
 7962SOL    HW224786   6.339   0.162   5.509
 7963SOL     OW24787   6.808   6.381   3.401
 7963SOL    HW124788   6.896   6.425   3.380
 7963SOL    HW224789   6.769   6.343   3.317
 7964SOL     OW24790   6.154   4.217   1.708
 7964SOL    HW124791   6.113   4.173   1.789
 7964SOL    HW224792   6.090   4.212   1.632
 7965SOL     OW24793   4.382   2.153   6.310
 7965SOL    HW124794   4.320   2.209   6.366
 7965SOL    HW224795   4.405   2.069   6.359
 7966SOL     OW24796   5.097   3.913   4.789
 7966SOL    HW124797   5.088   3.863   4.874
 7966SOL    HW224798   5.008   3.915   4.742
 7967SOL     OW24799   1.493   4.629   0.395
 7967SOL    HW124800   1.586   4.664   0.383
 7967SOL    HW224801   1.445   4.685   0.463
 7968SOL     OW24802   0.910   3.256   4.870
 7968SOL    HW124803   0.914   3.291   4.777
 7968SOL    HW224804   0.986   3.294   4.924
 7969SOL     OW24805   3.557   5.498   6.628
 7969SOL    HW124806   3.457   5.502   6.634
 7969SOL    HW224807   3.595   5.589   6.648
 7970SOL     OW24808   6.247   2.831   4.149
 7970SOL    HW124809   6.158   2.807   4.188
 7970SOL    HW224810   6.300   2.747   4.132
 7971SOL     OW24811   2.766   1.387   6.573
 7971SOL    HW124812   2.769   1.368   6.671
 7971SOL    HW224813   2.672   1.408   6.546
 7972SOL     OW24814   3.132   3.934   4.295
 7972SOL    HW124815   3.179   3.877   4.228
 7972SOL    HW224816   3.047   3.890   4.323
 7973SOL     OW24817   5.630   4.472   2.133
 7973SOL    HW124818   5.674   4.414   2.201
 7973SOL    HW224819   5.531   4.470   2.147
 7974SOL     OW24820   0.358   2.513   5.345
 7974SOL    HW124821   0.411   2.597   5.338
 7974SOL    HW224822   0.377   2.455   5.265
 7975SOL     OW24823   5.506   0.648   1.157
 7975SOL    HW124824   5.595   0.688   1.179
 7975SOL    HW224825   5.437   0.720   1.150
 7976SOL     OW24826   0.392   0.343   0.715
 7976SOL    HW124827   0.475   0.389   0.683
 7976SOL    HW224828   0.414   0.290   0.797
 7977SOL     OW24829   5.706   5.961   3.708
 7977SOL    HW124830   5.724   5.886   3.771
 7977SOL    HW224831   5.663   6.037   3.757
 7978SOL     OW24832   0.384   4.357   1.372
 7978SOL    HW124833   0.296   4.310   1.367
 7978SOL    HW224834   0.420   4.350   1.464
 7979SOL     OW24835   2.122   2.447   4.653
 7979SOL    HW124836   2.169   2.504   4.585
 7979SOL    HW224837   2.043   2.496   4.688
 7980SOL     OW24838   3.666   5.883   0.931
 7980SOL    HW124839   3.682   5.913   0.837
 7980SOL    HW224840   3.579   5.920   0.963
 7981SOL     OW24841   1.250   3.858   3.799
 7981SOL    HW124842   1.233   3.822   3.708
 7981SOL    HW224843   1.333   3.914   3.798
 7982SOL     OW24844   6.954   0.760   5.597
 7982SOL    HW124845   6.956   0.717   5.687
 7982SOL    HW224846   7.014   0.840   5.596
 7983SOL     OW24847   4.424   1.133   1.632
 7983SOL    HW124848   4.455   1.067   1.701
 7983SOL    HW224849   4.371   1.205   1.676
 7984SOL     OW24850   0.081   2.466   2.895
 7984SOL    HW124851   0.175   2.491   2.873
 7984SOL    HW224852   0.077   2.369   2.920
 7985SOL     OW24853   3.300   2.797   5.209
 7985SOL    HW124854   3.302   2.748   5.122
 7985SOL    HW224855   3.393   2.817   5.238
 7986SOL     OW24856   4.111   0.940   4.530
 7986SOL    HW124857   4.098   0.846   4.560
 7986SOL    HW224858   4.204   0.970   4.553
 7987SOL     OW24859   0.813   3.236   6.889
 7987SOL    HW124860   0.869   3.191   6.958
 7987SOL    HW224861   0.796   3.331   6.917
 7988SOL     OW24862   0.097   1.393   1.754
 7988SOL    HW124863   0.133   1.439   1.672
 7988SOL    HW224864   0.120   1.296   1.749
 7989SOL     OW24865   0.062   4.136   1.045
 7989SOL    HW124866   6.999   4.171   1.080
 7989SOL    HW224867   0.064   4.037   1.054
 7990SOL     OW24868   5.081   5.672   5.452
 7990SOL    HW124869   5.131   5.709   5.530
 7990SOL    HW224870   5.001   5.622   5.483
 7991SOL     OW24871   5.794   0.807   4.638
 7991SOL    HW124872   5.748   0.868   4.574
 7991SOL    HW224873   5.865   0.754   4.590
 7992SOL     OW24874   2.376   6.693   6.891
 7992SOL    HW124875   2.312   6.678   6.967
 7992SOL    HW224876   2.368   6.619   6.825
 7993SOL     OW24877   6.251   5.613   0.841
 7993SOL    HW124878   6.327   5.556   0.810
 7993SOL    HW224879   6.273   5.651   0.931
 7994SOL     OW24880   6.639   6.877   4.064
 7994SOL    HW124881   6.566   6.824   4.105
 7994SOL    HW224882   6.619   6.975   4.073
 7995SOL     OW24883   0.847   5.433   1.316
 7995SOL    HW124884   0.862   5.486   1.399
 7995SOL    HW224885   0.908   5.467   1.244
 7996SOL     OW24886   2.924   6.858   3.452
 7996SOL    HW124887   2.836   6.828   3.416
 7996SOL    HW224888   2.987   6.872   3.376
 7997SOL     OW24889   1.977   2.052   5.853
 7997SOL    HW124890   2.029   2.006   5.782
 7997SOL    HW224891   2.012   2.144   5.867
 7998SOL     OW24892   2.692   0.898   0.594
 7998SOL    HW124893   2.603   0.936   0.619
 7998SOL    HW224894   2.748   0.969   0.552
 7999SOL     OW24895   1.167   0.195   3.967
 7999SOL    HW124896   1.190   0.242   3.882
 7999SOL    HW224897   1.145   0.263   4.038
 8000SOL     OW24898   3.864   5.629   0.927
 8000SOL    HW124899   3.826   5.707   0.878
 8000SOL    HW224900   3.863   5.549   0.868
 8001SOL     OW24901   4.341   4.834   1.354
 8001SOL    HW124902   4.316   4.742   1.383
 8001SOL    HW224903   4.269   4.873   1.297
 8002SOL     OW24904   1.110   6.828   4.196
 8002SOL    HW124905   1.099   6.742   4.247
 8002SOL    HW224906   1.130   6.902   4.260
 8003SOL     OW24907   2.110   5.227   2.373
 8003SOL    HW124908   2.154   5.143   2.340
 8003SOL    HW224909   2.143   5.304   2.319
 8004SOL     OW24910   1.072   3.360   4.027
 8004SOL    HW124911   1.168   3.380   4.007
 8004SOL    HW224912   1.060   3.349   4.125
 8005SOL     OW24913   2.324   0.676   2.728
 8005SOL    HW124914   2.363   0.747   2.669
 8005SOL    HW224915   2.227   0.664   2.706
 8006SOL     OW24916   4.151   4.794   5.557
 8006SOL    HW124917   4.073   4.773   5.498
 8006SOL    HW224918   4.122   4.790   5.653
 8007SOL     OW24919   0.140   0.463   0.763
 8007SOL    HW124920   0.219   0.409   0.732
 8007SOL    HW224921   0.164   0.560   0.762
 8008SOL     OW24922   4.920   4.943   6.882
 8008SOL    HW124923   4.872   5.020   6.840
 8008SOL    HW224924   4.876   4.857   6.854
 8009SOL     OW24925   6.044   1.168   0.285
 8009SOL    HW124926   6.035   1.070   0.271
 8009SOL    HW224927   6.116   1.204   0.225
 8010SOL     OW24928   2.701   0.590   5.578
 8010SOL    HW124929   2.778   0.643   5.542
 8010SOL    HW224930   2.721   0.560   5.671
 8011SOL     OW24931   3.960   2.190   3.266
 8011SOL    HW124932   3.998   2.215   3.178
 8011SOL    HW224933   3.870   2.147   3.252
 8012SOL     OW24934   6.162   1.241   4.381
 8012SOL    HW124935   6.072   1.273   4.353
 8012SOL    HW224936   6.155   1.191   4.467
 8013SOL     OW24937   3.624   1.098   2.965
 8013SOL    HW124938   3.529   1.115   2.992
 8013SOL    HW224939   3.640   1.132   2.873
 8014SOL     OW24940   2.169   2.434   2.568
 8014SOL    HW124941   2.211   2.480   2.646
 8014SOL    HW224942   2.226   2.446   2.487
 8015SOL     OW24943   3.710   0.454   5.153
 8015SOL    HW124944   3.649   0.463   5.074
 8015SOL    HW224945   3.656   0.459   5.237
 8016SOL     OW24946   3.609   2.372   5.426
 8016SOL    HW124947   3.645   2.446   5.370
 8016SOL    HW224948   3.570   2.301   5.368
 8017SOL     OW24949   6.585   6.178   1.284
 8017SOL    HW124950   6.654   6.114   1.249
 8017SOL    HW224951   6.502   6.170   1.229
 8018SOL     OW24952   3.964   3.044   0.134
 8018SOL    HW124953   4.047   2.999   0.102
 8018SOL    HW224954   3.896   2.974   0.159
 8019SOL     OW24955   2.447   3.234   0.431
 8019SOL    HW124956   2.434   3.139   0.459
 8019SOL    HW224957   2.512   3.239   0.356
 8020SOL     OW24958   0.417   0.515   5.541
 8020SOL    HW124959   0.499   0.459   5.535
 8020SOL    HW224960   0.437   0.608   5.510
 8021SOL     OW24961   1.293   3.193   0.779
 8021SOL    HW124962   1.308   3.221   0.873
 8021SOL    HW224963   1.242   3.263   0.730
 8022SOL     OW24964   4.283   0.492   1.721
 8022SOL    HW124965   4.295   0.455   1.812
 8022SOL    HW224966   4.337   0.575   1.711
 8023SOL     OW24967   4.730   6.153   1.309
 8023SOL    HW124968   4.718   6.197   1.398
 8023SOL    HW224969   4.724   6.222   1.237
 8024SOL     OW24970   2.624   1.347   0.074
 8024SOL    HW124971   2.683   1.397   0.137
 8024SOL    HW224972   2.642   1.249   0.083
 8025SOL     OW24973   1.138   5.557   1.584
 8025SOL    HW124974   1.039   5.569   1.589
 8025SOL    HW224975   1.164   5.473   1.631
 8026SOL     OW24976   0.602   5.790   6.576
 8026SOL    HW124977   0.629   5.695   6.561
 8026SOL    HW224978   0.679   5.840   6.616
 8027SOL     OW24979   3.647   6.964   6.768
 8027SOL    HW124980   3.619   6.953   6.864
 8027SOL    HW224981   3.705   0.021   6.760
 8028SOL     OW24982   3.858   5.455   5.362
 8028SOL    HW124983   3.942   5.465   5.415
 8028SOL    HW224984   3.852   5.362   5.325
 8029SOL     OW24985   0.966   0.399   1.196
 8029SOL    HW124986   0.932   0.431   1.108
 8029SOL    HW224987   0.982   0.300   1.191
 8030SOL     OW24988   0.607   4.488   1.360
 8030SOL    HW124989   0.525   4.436   1.384
 8030SOL    HW224990   0.667   4.494   1.439
 8031SOL     OW24991   0.085   0.174   3.165
 8031SOL    HW124992   0.057   0.255   3.114
 8031SOL    HW224993   0.023   0.099   3.145
 8032SOL     OW24994   0.191   3.089   1.097
 8032SOL    HW124995   0.284   3.119   1.078
 8032SOL    HW224996   0.165   3.018   1.031
 8033SOL     OW24997   4.020   4.293   1.304
 8033SOL    HW124998   4.116   4.286   1.329
 8033SOL    HW224999   4.012   4.318   1.207
 8034SOL     OW25000   6.790   6.881   5.935
 8034SOL    HW125001   6.754   6.888   5.842
 8034SOL    HW225002   6.879   6.836   5.933
 8035SOL     OW25003   5.953   0.697   3.143
 8035SOL    HW125004   6.050   0.703   3.123
 8035SOL    HW225005   5.940   0.674   3.240
 8036SOL     OW25006   4.995   2.458   4.284
 8036SOL    HW125007   5.078   2.475   4.230
 8036SOL    HW225008   5.007   2.495   4.376
 8037SOL     OW25009   2.170   1.208   5.956
 8037SOL    HW125010   2.167   1.109   5.961
 8037SOL    HW225011   2.248   1.242   6.009
 8038SOL     OW25012   6.753   5.439   2.279
 8038SOL    HW125013   6.813   5.472   2.206
 8038SOL    HW225014   6.658   5.440   2.248
 8039SOL     OW25015   1.542   2.491   5.297
 8039SOL    HW125016   1.568   2.406   5.343
 8039SOL    HW225017   1.558   2.568   5.357
 8040SOL     OW25018   1.102   5.896   6.047
 8040SOL    HW125019   1.148   5.866   6.130
 8040SOL    HW225020   1.006   5.866   6.049
 8041SOL     OW25021   3.295   1.384   3.113
 8041SOL    HW125022   3.386   1.386   3.072
 8041SOL    HW225023   3.231   1.434   3.053
 8042SOL     OW25024   4.107   4.086   5.783
 8042SOL    HW125025   4.180   4.018   5.769
 8042SOL    HW225026   4.122   4.132   5.871
 8043SOL     OW25027   5.553   5.350   6.848
 8043SOL    HW125028   5.456   5.327   6.846
 8043SOL    HW225029   5.564   5.442   6.885
 8044SOL     OW25030   2.091   2.986   1.325
 8044SOL    HW125031   2.041   2.908   1.361
 8044SOL    HW225032   2.185   2.960   1.305
 8045SOL     OW25033   6.781   2.971   4.300
 8045SOL    HW125034   6.835   2.994   4.381
 8045SOL    HW225035   6.761   3.055   4.249
 8046SOL     OW25036   6.807   4.425   1.697
 8046SOL    HW125037   6.761   4.476   1.770
 8046SOL    HW225038   6.750   4.426   1.615
 8047SOL     OW25039   3.243   6.205   6.828
 8047SOL    HW125040   3.301   6.203   6.747
 8047SOL    HW225041   3.149   6.225   6.801
 8048SOL     OW25042   3.701   2.096   5.828
 8048SOL    HW125043   3.778   2.114   5.889
 8048SOL    HW225044   3.645   2.179   5.821
 8049SOL     OW25045   1.693   1.592   0.374
 8049SOL    HW125046   1.657   1.581   0.466
 8049SOL    HW225047   1.649   1.524   0.314
 8050SOL     OW25048   0.722   4.605   5.989
 8050SOL    HW125049   0.820   4.590   5.992
 8050SOL    HW225050   0.695   4.669   6.061
 8051SOL     OW25051   4.243   6.984   3.078
 8051SOL    HW125052   4.265   0.048   3.121
 8051SOL    HW225053   4.175   6.998   3.007
 8052SOL     OW25054   3.233   1.795   2.638
 8052SOL    HW125055   3.265   1.757   2.725
 8052SOL    HW225056   3.138   1.768   2.623
 8053SOL     OW25057   1.566   2.577   6.628
 8053SOL    HW125058   1.618   2.492   6.637
 8053SOL    HW225059   1.583   2.636   6.707
 8054SOL     OW25060   5.064   3.477   5.034
 8054SOL    HW125061   4.987   3.539   5.049
 8054SOL    HW225062   5.139   3.501   5.096
 8055SOL     OW25063   6.461   0.496   6.970
 8055SOL    HW125064   6.368   0.518   7.000
 8055SOL    HW225065   6.492   0.565   6.905
 8056SOL     OW25066   2.394   0.965   3.664
 8056SOL    HW125067   2.413   1.028   3.588
 8056SOL    HW225068   2.368   0.876   3.628
 8057SOL     OW25069   2.874   2.078   1.982
 8057SOL    HW125070   2.883   2.171   2.016
 8057SOL    HW225071   2.965   2.038   1.970
 8058SOL     OW25072   3.866   6.337   1.913
 8058SOL    HW125073   3.770   6.367   1.921
 8058SOL    HW225074   3.868   6.242   1.881
 8059SOL     OW25075   2.524   2.680   5.824
 8059SOL    HW125076   2.555   2.654   5.916
 8059SOL    HW225077   2.598   2.730   5.778
 8060SOL     OW25078   6.503   0.791   5.923
 8060SOL    HW125079   6.452   0.812   6.006
 8060SOL    HW225080   6.586   0.845   5.920
 8061SOL     OW25081   6.958   0.830   2.700
 8061SOL    HW125082   6.931   0.809   2.793
 8061SOL    HW225083   6.968   0.929   2.690
 8062SOL     OW25084   4.364   5.430   5.571
 8062SOL    HW125085   4.311   5.345   5.565
 8062SOL    HW225086   4.454   5.417   5.531
 8063SOL     OW25087   2.756   5.037   3.147
 8063SOL    HW125088   2.743   4.948   3.191
 8063SOL    HW225089   2.670   5.067   3.106
 8064SOL     OW25090   6.432   1.712   0.750
 8064SOL    HW125091   6.482   1.696   0.835
 8064SOL    HW225092   6.486   1.771   0.690
 8065SOL     OW25093   4.252   6.222   6.213
 8065SOL    HW125094   4.253   6.144   6.276
 8065SOL    HW225095   4.163   6.227   6.167
 8066SOL     OW25096   0.313   0.028   6.101
 8066SOL    HW125097   0.289   0.094   6.029
 8066SOL    HW225098   0.386   6.993   6.069
 8067SOL     OW25099   5.768   1.341   3.646
 8067SOL    HW125100   5.723   1.406   3.584
 8067SOL    HW225101   5.820   1.392   3.715
 8068SOL     OW25102   5.916   3.261   1.535
 8068SOL    HW125103   5.843   3.318   1.496
 8068SOL    HW225104   5.972   3.316   1.597
 8069SOL     OW25105   1.797   3.599   2.650
 8069SOL    HW125106   1.776   3.552   2.735
 8069SOL    HW225107   1.851   3.681   2.668
 8070SOL     OW25108   4.800   4.806   1.123
 8070SOL    HW125109   4.736   4.827   1.197
 8070SOL    HW225110   4.874   4.749   1.158
 8071SOL     OW25111   2.147   6.965   6.244
 8071SOL    HW125112   2.163   6.980   6.146
 8071SOL    HW225113   2.217   7.013   6.296
 8072SOL     OW25114   2.340   2.127   4.902
 8072SOL    HW125115   2.284   2.120   4.819
 8072SOL    HW225116   2.285   2.100   4.981
 8073SOL     OW25117   4.699   0.238   6.883
 8073SOL    HW125118   4.679   0.323   6.931
 8073SOL    HW225119   4.614   0.188   6.867
 8074SOL     OW25120   0.393   0.598   0.053
 8074SOL    HW125121   0.358   0.512   0.089
 8074SOL    HW225122   0.359   0.612   6.983
 8075SOL     OW25123   6.966   6.937   1.095
 8075SOL    HW125124   6.967   6.957   0.997
 8075SOL    HW225125   7.011   7.011   1.145
 8076SOL     OW25126   0.079   5.865   0.329
 8076SOL    HW125127   0.098   5.770   0.354
 8076SOL    HW225128   0.134   5.926   0.387
 8077SOL     OW25129   5.142   4.810   0.859
 8077SOL    HW125130   5.107   4.872   0.788
 8077SOL    HW225131   5.195   4.863   0.925
 8078SOL     OW25132   6.964   1.031   1.252
 8078SOL    HW125133   0.029   1.030   1.205
 8078SOL    HW225134   6.950   0.944   1.298
 8079SOL     OW25135   0.937   0.975   6.576
 8079SOL    HW125136   0.945   1.074   6.567
 8079SOL    HW225137   0.980   0.931   6.496
 8080SOL     OW25138   0.772   3.132   3.394
 8080SOL    HW125139   0.814   3.217   3.364
 8080SOL    HW225140   0.741   3.141   3.488
 8081SOL     OW25141   6.185   6.729   5.236
 8081SOL    HW125142   6.105   6.737   5.177
 8081SOL    HW225143   6.256   6.792   5.203
 8082SOL     OW25144   3.646   2.059   3.855
 8082SOL    HW125145   3.656   2.158   3.844
 8082SOL    HW225146   3.675   2.033   3.947
 8083SOL     OW25147   6.022   1.829   4.610
 8083SOL    HW125148   6.083   1.822   4.530
 8083SOL    HW225149   6.065   1.785   4.689
 8084SOL     OW25150   4.054   0.840   5.857
 8084SOL    HW125151   4.139   0.887   5.833
 8084SOL    HW225152   4.045   0.837   5.957
 8085SOL     OW25153   1.866   6.048   4.394
 8085SOL    HW125154   1.782   6.095   4.367
 8085SOL    HW225155   1.914   6.101   4.463
 8086SOL     OW25156   6.954   1.406   2.348
 8086SOL    HW125157   6.970   1.373   2.255
 8086SOL    HW225158   6.935   1.328   2.408
 8087SOL     OW25159   7.004   0.711   6.521
 8087SOL    HW125160   6.943   0.637   6.551
 8087SOL    HW225161   0.050   0.673   6.461
 8088SOL     OW25162   6.864   0.504   5.022
 8088SOL    HW125163   6.921   0.571   5.068
 8088SOL    HW225164   6.921   0.445   4.965
 8089SOL     OW25165   6.294   1.782   6.518
 8089SOL    HW125166   6.289   1.717   6.594
 8089SOL    HW225167   6.365   1.850   6.537
 8090SOL     OW25168   4.274   2.161   5.296
 8090SOL    HW125169   4.239   2.077   5.339
 8090SOL    HW225170   4.373   2.165   5.305
 8091SOL     OW25171   1.157   4.301   4.019
 8091SOL    HW125172   1.164   4.245   4.102
 8091SOL    HW225173   1.105   4.252   3.950
 8092SOL     OW25174   4.889   0.648   6.070
 8092SOL    HW125175   4.904   0.745   6.051
 8092SOL    HW225176   4.880   0.598   5.984
 8093SOL     OW25177   3.409   6.046   3.131
 8093SOL    HW125178   3.503   6.046   3.096
 8093SOL    HW225179   3.349   6.005   3.062
 8094SOL     OW25180   1.829   3.767   3.888
 8094SOL    HW125181   1.809   3.860   3.920
 8094SOL    HW225182   1.927   3.760   3.869
 8095SOL     OW25183   1.432   4.935   5.263
 8095SOL    HW125184   1.447   4.953   5.360
 8095SOL    HW225185   1.436   5.022   5.213
 8096SOL     OW25186   0.757   5.228   0.432
 8096SOL    HW125187   0.725   5.134   0.418
 8096SOL    HW225188   0.827   5.229   0.503
 8097SOL     OW25189   4.639   6.205   0.197
 8097SOL    HW125190   4.717   6.248   0.151
 8097SOL    HW225191   4.575   6.170   0.128
 8098SOL     OW25192   2.289   5.412   5.192
 8098SOL    HW125193   2.347   5.493   5.184
 8098SOL    HW225194   2.248   5.410   5.283
 8099SOL     OW25195   1.936   3.850   2.476
 8099SOL    HW125196   2.002   3.790   2.431
 8099SOL    HW225197   1.958   3.857   2.573
 8100SOL     OW25198   6.578   0.209   6.770
 8100SOL    HW125199   6.508   0.201   6.842
 8100SOL    HW225200   6.632   0.291   6.786
 8101SOL     OW25201   2.957   5.595   0.930
 8101SOL    HW125202   2.922   5.687   0.952
 8101SOL    HW225203   2.888   5.527   0.953
 8102SOL     OW25204   0.921   3.905   4.676
 8102SOL    HW125205   1.008   3.855   4.675
 8102SOL    HW225206   0.860   3.862   4.743
 8103SOL     OW25207   3.340   0.750   1.434
 8103SOL    HW125208   3.409   0.821   1.450
 8103SOL    HW225209   3.385   0.661   1.428
 8104SOL     OW25210   1.868   5.271   0.363
 8104SOL    HW125211   1.920   5.215   0.299
 8104SOL    HW225212   1.821   5.344   0.313
 8105SOL     OW25213   0.241   0.085   3.674
 8105SOL    HW125214   0.211   0.169   3.719
 8105SOL    HW225215   0.235   0.096   3.575
 8106SOL     OW25216   2.098   0.189   5.982
 8106SOL    HW125217   2.014   0.215   5.935
 8106SOL    HW225218   2.108   0.089   5.979
 8107SOL     OW25219   1.414   6.300   6.386
 8107SOL    HW125220   1.370   6.295   6.296
 8107SOL    HW225221   1.485   6.230   6.391
 8108SOL     OW25222   1.148   1.465   6.893
 8108SOL    HW125223   1.063   1.514   6.913
 8108SOL    HW225224   1.127   1.380   6.845
 8109SOL     OW25225   6.328   2.848   1.740
 8109SOL    HW125226   6.348   2.769   1.798
 8109SOL    HW225227   6.229   2.863   1.738
 8110SOL     OW25228   3.490   5.127   1.070
 8110SOL    HW125229   3.513   5.190   0.996
 8110SOL    HW225230   3.523   5.035   1.047
 8111SOL     OW25231   6.540   1.337   2.383
 8111SOL    HW125232   6.583   1.417   2.340
 8111SOL    HW225233   6.585   1.254   2.351
 8112SOL     OW25234   1.854   4.798   6.557
 8112SOL    HW125235   1.937   4.748   6.533
 8112SOL    HW225236   1.795   4.805   6.477
 8113SOL     OW25237   5.366   3.908   5.891
 8113SOL    HW125238   5.326   3.891   5.801
 8113SOL    HW225239   5.336   3.997   5.925
 8114SOL     OW25240   1.549   3.983   2.275
 8114SOL    HW125241   1.586   3.892   2.292
 8114SOL    HW225242   1.599   4.050   2.329
 8115SOL     OW25243   2.676   1.689   5.884
 8115SOL    HW125244   2.760   1.743   5.879
 8115SOL    HW225245   2.625   1.713   5.966
 8116SOL     OW25246   3.624   3.224   1.332
 8116SOL    HW125247   3.639   3.259   1.425
 8116SOL    HW225248   3.530   3.246   1.304
 8117SOL     OW25249   2.575   6.712   4.109
 8117SOL    HW125250   2.535   6.719   4.200
 8117SOL    HW225251   2.583   6.615   4.083
 8118SOL     OW25252   6.586   3.029   0.243
 8118SOL    HW125253   6.567   3.050   0.147
 8118SOL    HW225254   6.565   3.109   0.299
 8119SOL     OW25255   6.039   6.459   0.257
 8119SOL    HW125256   6.104   6.531   0.280
 8119SOL    HW225257   6.060   6.424   0.165
 8120SOL     OW25258   2.043   0.066   2.014
 8120SOL    HW125259   2.016   0.027   1.926
 8120SOL    HW225260   2.096   7.022   2.065
 8121SOL     OW25261   0.958   3.067   2.235
 8121SOL    HW125262   0.876   3.055   2.180
 8121SOL    HW225263   0.939   3.040   2.330
 8122SOL     OW25264   0.113   5.083   1.555
 8122SOL    HW125265   0.193   5.062   1.498
 8122SOL    HW225266   0.083   5.000   1.602
 8123SOL     OW25267   0.087   1.833   6.635
 8123SOL    HW125268   0.164   1.895   6.644
 8123SOL    HW225269   0.120   1.739   6.630
 8124SOL     OW25270   5.495   5.624   4.992
 8124SOL    HW125271   5.395   5.623   4.991
 8124SOL    HW225272   5.528   5.579   5.074
 8125SOL     OW25273   2.071   5.355   3.033
 8125SOL    HW125274   2.093   5.430   3.095
 8125SOL    HW225275   2.017   5.390   2.956
 8126SOL     OW25276   3.935   5.144   4.678
 8126SOL    HW125277   4.027   5.142   4.717
 8126SOL    HW225278   3.906   5.050   4.658
 8127SOL     OW25279   4.113   2.123   6.679
 8127SOL    HW125280   4.028   2.070   6.669
 8127SOL    HW225281   4.101   2.191   6.751
 8128SOL     OW25282   3.387   2.956   1.413
 8128SOL    HW125283   3.288   2.944   1.424
 8128SOL    HW225284   3.416   3.037   1.464
 8129SOL     OW25285   1.020   2.545   2.546
 8129SOL    HW125286   0.964   2.612   2.594
 8129SOL    HW225287   1.023   2.460   2.598
 8130SOL     OW25288   0.602   5.685   6.872
 8130SOL    HW125289   0.580   5.706   6.967
 8130SOL    HW225290   0.559   5.598   6.847
 8131SOL     OW25291   1.700   3.265   6.662
 8131SOL    HW125292   1.760   3.284   6.741
 8131SOL    HW225293   1.607   3.250   6.695
 8132SOL     OW25294   0.752   0.731   5.178
 8132SOL    HW125295   0.769   0.644   5.223
 8132SOL    HW225296   0.722   0.799   5.245
 8133SOL     OW25297   3.323   5.146   0.777
 8133SOL    HW125298   3.374   5.098   0.705
 8133SOL    HW225299   3.363   5.236   0.790
 8134SOL     OW25300   5.706   1.439   6.079
 8134SOL    HW125301   5.793   1.461   6.124
 8134SOL    HW225302   5.692   1.340   6.081
 8135SOL     OW25303   2.428   6.811   2.003
 8135SOL    HW125304   2.381   6.746   1.943
 8135SOL    HW225305   2.516   6.772   2.031
 8136SOL     OW25306   4.999   4.175   2.172
 8136SOL    HW125307   4.930   4.162   2.243
 8136SOL    HW225308   5.033   4.086   2.141
 8137SOL     OW25309   4.281   1.380   5.626
 8137SOL    HW125310   4.290   1.462   5.683
 8137SOL    HW225311   4.281   1.299   5.683
 8138SOL     OW25312   5.182   0.777   2.464
 8138SOL    HW125313   5.247   0.730   2.403
 8138SOL    HW225314   5.193   0.741   2.557
 8139SOL     OW25315   0.124   2.087   3.473
 8139SOL    HW125316   0.137   2.137   3.559
 8139SOL    HW225317   0.026   2.082   3.453
 8140SOL     OW25318   4.326   1.463   3.975
 8140SOL    HW125319   4.412   1.505   4.002
 8140SOL    HW225320   4.272   1.528   3.921
 8141SOL     OW25321   5.181   4.789   4.634
 8141SOL    HW125322   5.143   4.775   4.542
 8141SOL    HW225323   5.152   4.714   4.693
 8142SOL     OW25324   0.062   5.983   6.908
 8142SOL    HW125325   0.065   5.959   7.005
 8142SOL    HW225326   7.015   6.053   6.894
 8143SOL     OW25327   6.672   2.990   5.760
 8143SOL    HW125328   6.681   3.057   5.686
 8143SOL    HW225329   6.582   2.947   5.756
 8144SOL     OW25330   5.332   0.557   6.472
 8144SOL    HW125331   5.366   0.608   6.551
 8144SOL    HW225332   5.321   0.620   6.395
 8145SOL     OW25333   5.570   6.049   3.069
 8145SOL    HW125334   5.545   6.109   2.993
 8145SOL    HW225335   5.492   6.041   3.132
 8146SOL     OW25336   3.777   0.823   4.350
 8146SOL    HW125337   3.812   0.760   4.281
 8146SOL    HW225338   3.851   0.884   4.381
 8147SOL     OW25339   4.940   0.625   3.272
 8147SOL    HW125340   4.841   0.628   3.287
 8147SOL    HW225341   4.976   0.541   3.312
 8148SOL     OW25342   5.317   4.331   3.266
 8148SOL    HW125343   5.350   4.277   3.343
 8148SOL    HW225344   5.389   4.339   3.197
 8149SOL     OW25345   3.988   4.846   3.486
 8149SOL    HW125346   4.016   4.838   3.581
 8149SOL    HW225347   3.895   4.883   3.482
 8150SOL     OW25348   0.595   5.314   1.251
 8150SOL    HW125349   0.621   5.223   1.219
 8150SOL    HW225350   0.676   5.363   1.282
 8151SOL     OW25351   0.901   1.383   4.975
 8151SOL    HW125352   0.861   1.474   4.972
 8151SOL    HW225353   1.000   1.389   4.968
 8152SOL     OW25354   1.542   0.498   2.805
 8152SOL    HW125355   1.488   0.533   2.882
 8152SOL    HW225356   1.480   0.458   2.737
 8153SOL     OW25357   1.580   6.994   0.094
 8153SOL    HW125358   1.615   0.064   0.093
 8153SOL    HW225359   1.632   6.938   0.029
 8154SOL     OW25360   2.584   6.831   3.870
 8154SOL    HW125361   2.575   6.790   3.960
 8154SOL    HW225362   2.598   6.759   3.802
 8155SOL     OW25363   3.688   3.295   3.918
 8155SOL    HW125364   3.632   3.281   4.000
 8155SOL    HW225365   3.629   3.318   3.841
 8156SOL     OW25366   6.622   0.580   5.277
 8156SOL    HW125367   6.670   0.629   5.350
 8156SOL    HW225368   6.664   0.489   5.265
 8157SOL     OW25369   6.146   2.764   6.853
 8157SOL    HW125370   6.110   2.672   6.835
 8157SOL    HW225371   6.188   2.800   6.770
 8158SOL     OW25372   1.888   5.123   2.478
 8158SOL    HW125373   1.971   5.159   2.435
 8158SOL    HW225374   1.849   5.193   2.539
 8159SOL     OW25375   1.120   5.033   1.720
 8159SOL    HW125376   1.069   5.020   1.804
 8159SOL    HW225377   1.179   4.953   1.704
 8160SOL     OW25378   4.533   2.338   1.905
 8160SOL    HW125379   4.529   2.383   1.816
 8160SOL    HW225380   4.619   2.361   1.951
 8161SOL     OW25381   4.274   2.116   1.391
 8161SOL    HW125382   4.228   2.163   1.467
 8161SOL    HW225383   4.208   2.099   1.318
 8162SOL     OW25384   6.632   0.623   1.567
 8162SOL    HW125385   6.546   0.675   1.564
 8162SOL    HW225386   6.611   0.526   1.578
 8163SOL     OW25387   2.071   3.487   4.430
 8163SOL    HW125388   2.101   3.574   4.469
 8163SOL    HW225389   2.044   3.425   4.504
 8164SOL     OW25390   4.749   2.006   2.401
 8164SOL    HW125391   4.733   2.105   2.400
 8164SOL    HW225392   4.792   1.981   2.488
 8165SOL     OW25393   2.302   5.084   1.034
 8165SOL    HW125394   2.246   5.107   1.113
 8165SOL    HW225395   2.324   4.986   1.036
 8166SOL     OW25396   3.672   6.730   1.006
 8166SOL    HW125397   3.612   6.781   1.069
 8166SOL    HW225398   3.652   6.632   1.014
 8167SOL     OW25399   4.833   2.999   4.162
 8167SOL    HW125400   4.878   3.051   4.090
 8167SOL    HW225401   4.883   2.913   4.177
 8168SOL     OW25402   3.527   1.815   2.794
 8168SOL    HW125403   3.503   1.902   2.750
 8168SOL    HW225404   3.447   1.755   2.794
 8169SOL     OW25405   5.236   4.272   5.633
 8169SOL    HW125406   5.162   4.260   5.699
 8169SOL    HW225407   5.199   4.308   5.547
 8170SOL     OW25408   1.210   4.862   4.261
 8170SOL    HW125409   1.214   4.780   4.318
 8170SOL    HW225410   1.146   4.927   4.301
 8171SOL     OW25411   1.605   1.635   5.525
 8171SOL    HW125412   1.672   1.642   5.451
 8171SOL    HW225413   1.554   1.549   5.515
 8172SOL     OW25414   0.108   6.536   1.703
 8172SOL    HW125415   0.083   6.620   1.751
 8172SOL    HW225416   0.154   6.559   1.617
 8173SOL     OW25417   5.846   2.801   6.393
 8173SOL    HW125418   5.794   2.727   6.350
 8173SOL    HW225419   5.825   2.888   6.349
 8174SOL     OW25420   5.471   0.162   2.129
 8174SOL    HW125421   5.428   0.121   2.049
 8174SOL    HW225422   5.569   0.140   2.129
 8175SOL     OW25423   1.476   3.151   5.243
 8175SOL    HW125424   1.501   3.223   5.179
 8175SOL    HW225425   1.519   3.065   5.216
 8176SOL     OW25426   4.089   5.193   2.986
 8176SOL    HW125427   4.064   5.288   3.007
 8176SOL    HW225428   4.056   5.133   3.058
 8177SOL     OW25429   0.870   0.192   6.022
 8177SOL    HW125430   0.779   0.197   6.065
 8177SOL    HW225431   0.940   0.187   6.093
 8178SOL     OW25432   1.730   6.853   6.088
 8178SOL    HW125433   1.769   6.887   6.003
 8178SOL    HW225434   1.630   6.853   6.082
 8179SOL     OW25435   3.457   0.786   0.076
 8179SOL    HW125436   3.466   0.870   0.130
 8179SOL    HW225437   3.442   0.708   0.137
 8180SOL     OW25438   4.788   5.193   5.495
 8180SOL    HW125439   4.826   5.251   5.567
 8180SOL    HW225440   4.856   5.179   5.423
 8181SOL     OW25441   2.592   2.189   2.659
 8181SOL    HW125442   2.534   2.149   2.588
 8181SOL    HW225443   2.635   2.273   2.624
 8182SOL     OW25444   4.798   2.401   6.089
 8182SOL    HW125445   4.768   2.352   6.007
 8182SOL    HW225446   4.874   2.351   6.131
 8183SOL     OW25447   1.928   2.893   3.968
 8183SOL    HW125448   1.864   2.911   4.043
 8183SOL    HW225449   1.929   2.795   3.948
 8184SOL     OW25450   5.976   5.883   5.719
 8184SOL    HW125451   5.929   5.819   5.780
 8184SOL    HW225452   5.972   5.849   5.625
 8185SOL     OW25453   1.735   1.879   2.615
 8185SOL    HW125454   1.725   1.797   2.672
 8185SOL    HW225455   1.774   1.853   2.526
 8186SOL     OW25456   3.807   4.451   6.170
 8186SOL    HW125457   3.883   4.461   6.234
 8186SOL    HW225458   3.838   4.475   6.078
 8187SOL     OW25459   1.898   1.027   6.115
 8187SOL    HW125460   1.900   0.937   6.158
 8187SOL    HW225461   1.893   1.016   6.016
 8188SOL     OW25462   5.745   3.024   2.785
 8188SOL    HW125463   5.713   3.099   2.728
 8188SOL    HW225464   5.827   2.983   2.744
 8189SOL     OW25465   6.800   4.968   2.775
 8189SOL    HW125466   6.756   5.004   2.693
 8189SOL    HW225467   6.754   4.883   2.803
 8190SOL     OW25468   5.323   3.480   2.571
 8190SOL    HW125469   5.299   3.573   2.597
 8190SOL    HW225470   5.369   3.481   2.482
 8191SOL     OW25471   0.342   5.542   2.151
 8191SOL    HW125472   0.293   5.615   2.103
 8191SOL    HW225473   0.431   5.529   2.107
 8192SOL     OW25474   1.433   3.404   0.618
 8192SOL    HW125475   1.346   3.452   0.603
 8192SOL    HW225476   1.441   3.327   0.555
 8193SOL     OW25477   3.718   0.145   5.688
 8193SOL    HW125478   3.638   0.193   5.724
 8193SOL    HW225479   3.801   0.193   5.715
 8194SOL     OW25480   1.784   0.338   1.335
 8194SOL    HW125481   1.873   0.302   1.365
 8194SOL    HW225482   1.770   0.314   1.239
 8195SOL     OW25483   5.421   0.686   0.842
 8195SOL    HW125484   5.436   0.742   0.760
 8195SOL    HW225485   5.323   0.673   0.856
 8196SOL     OW25486   1.994   0.479   6.967
 8196SOL    HW125487   2.010   0.511   6.874
 8196SOL    HW225488   1.975   0.380   6.966
 8197SOL     OW25489   0.604   6.819   0.951
 8197SOL    HW125490   0.536   6.866   0.894
 8197SOL    HW225491   0.558   6.779   1.030
 8198SOL     OW25492   3.697   6.953   2.649
 8198SOL    HW125493   3.724   6.976   2.556
 8198SOL    HW225494   3.768   6.898   2.692
 8199SOL     OW25495   5.598   4.652   0.150
 8199SOL    HW125496   5.658   4.672   0.228
 8199SOL    HW225497   5.588   4.553   0.140
 8200SOL     OW25498   4.410   2.941   1.528
 8200SOL    HW125499   4.332   2.902   1.479
 8200SOL    HW225500   4.463   2.999   1.465
 8201SOL     OW25501   6.405   0.745   4.546
 8201SOL    HW125502   6.433   0.740   4.642
 8201SOL    HW225503   6.392   0.652   4.510
 8202SOL     OW25504   1.937   3.990   4.137
 8202SOL    HW125505   1.918   4.063   4.071
 8202SOL    HW225506   1.862   3.983   4.202
 8203SOL     OW25507   5.889   3.928   0.459
 8203SOL    HW125508   5.906   3.830   0.472
 8203SOL    HW225509   5.911   3.977   0.543
 8204SOL     OW25510   3.515   0.491   0.633
 8204SOL    HW125511   3.541   0.569   0.576
 8204SOL    HW225512   3.421   0.502   0.665
 8205SOL     OW25513   5.692   6.092   2.613
 8205SOL    HW125514   5.623   6.162   2.632
 8205SOL    HW225515   5.747   6.120   2.535
 8206SOL     OW25516   3.943   1.659   4.461
 8206SOL    HW125517   3.961   1.746   4.507
 8206SOL    HW225518   4.023   1.632   4.407
 8207SOL     OW25519   3.145   5.593   0.013
 8207SOL    HW125520   3.224   5.566   6.981
 8207SOL    HW225521   3.122   5.688   7.017
 8208SOL     OW25522   1.625   5.486   6.676
 8208SOL    HW125523   1.580   5.402   6.646
 8208SOL    HW225524   1.668   5.471   6.765
 8209SOL     OW25525   0.906   6.027   5.244
 8209SOL    HW125526   0.873   6.051   5.335
 8209SOL    HW225527   0.933   6.110   5.195
 8210SOL     OW25528   2.488   1.935   0.380
 8210SOL    HW125529   2.448   1.849   0.413
 8210SOL    HW225530   2.536   1.981   0.455
 8211SOL     OW25531   3.039   3.590   4.228
 8211SOL    HW125532   3.121   3.644   4.208
 8211SOL    HW225533   3.055   3.495   4.200
 8212SOL     OW25534   3.747   5.997   0.698
 8212SOL    HW125535   3.829   6.050   0.720
 8212SOL    HW225536   3.722   6.012   0.602
 8213SOL     OW25537   4.434   4.340   1.588
 8213SOL    HW125538   4.432   4.276   1.665
 8213SOL    HW225539   4.426   4.433   1.622
 8214SOL     OW25540   4.413   5.407   3.356
 8214SOL    HW125541   4.344   5.454   3.301
 8214SOL    HW225542   4.414   5.445   3.448
 8215SOL     OW25543   2.237   6.181   6.536
 8215SOL    HW125544   2.207   6.247   6.605
 8215SOL    HW225545   2.163   6.118   6.515
 8216SOL     OW25546   5.772   5.815   1.627
 8216SOL    HW125547   5.791   5.839   1.722
 8216SOL    HW225548   5.785   5.896   1.569
 8217SOL     OW25549   3.117   6.442   4.512
 8217SOL    HW125550   3.189   6.443   4.442
 8217SOL    HW225551   3.072   6.532   4.515
 8218SOL     OW25552   2.603   6.024   4.869
 8218SOL    HW125553   2.609   6.093   4.941
 8218SOL    HW225554   2.665   6.047   4.794
 8219SOL     OW25555   3.819   3.196   2.129
 8219SOL    HW125556   3.808   3.098   2.113
 8219SOL    HW225557   3.834   3.242   2.042
 8220SOL     OW25558   3.272   3.994   5.258
 8220SOL    HW125559   3.201   4.063   5.243
 8220SOL    HW225560   3.230   3.903   5.259
 8221SOL     OW25561   6.242   3.614   4.020
 8221SOL    HW125562   6.332   3.594   4.061
 8221SOL    HW225563   6.192   3.677   4.079
 8222SOL     OW25564   6.181   2.428   0.067
 8222SOL    HW125565   6.124   2.451   7.012
 8222SOL    HW225566   6.198   2.330   0.069
 8223SOL     OW25567   2.267   6.558   5.770
 8223SOL    HW125568   2.263   6.497   5.691
 8223SOL    HW225569   2.356   6.603   5.773
 8224SOL     OW25570   4.738   1.170   6.798
 8224SOL    HW125571   4.819   1.228   6.810
 8224SOL    HW225572   4.656   1.224   6.817
 8225SOL     OW25573   5.874   2.989   0.163
 8225SOL    HW125574   5.905   2.976   0.069
 8225SOL    HW225575   5.803   2.920   0.184
 8226SOL     OW25576   3.980   0.647   6.887
 8226SOL    HW125577   4.012   0.656   6.793
 8226SOL    HW225578   3.939   0.556   6.900
 8227SOL     OW25579   4.434   2.506   3.077
 8227SOL    HW125580   4.513   2.567   3.068
 8227SOL    HW225581   4.383   2.505   2.992
 8228SOL     OW25582   2.989   6.970   4.941
 8228SOL    HW125583   2.959   7.004   5.030
 8228SOL    HW225584   2.912   6.927   4.894
 8229SOL     OW25585   4.578   4.909   1.280
 8229SOL    HW125586   4.616   4.952   1.362
 8229SOL    HW225587   4.483   4.882   1.297
 8230SOL     OW25588   6.330   0.688   5.644
 8230SOL    HW125589   6.335   0.603   5.592
 8230SOL    HW225590   6.252   0.742   5.613
 8231SOL     OW25591   2.971   1.297   2.186
 8231SOL    HW125592   2.929   1.263   2.270
 8231SOL    HW225593   2.906   1.357   2.138
 8232SOL     OW25594   3.620   6.059   3.445
 8232SOL    HW125595   3.668   6.147   3.443
 8232SOL    HW225596   3.549   6.059   3.375
 8233SOL     OW25597   1.769   1.299   6.517
 8233SOL    HW125598   1.802   1.383   6.474
 8233SOL    HW225599   1.805   1.294   6.611
 8234SOL     OW25600   1.033   2.960   0.638
 8234SOL    HW125601   0.983   2.873   0.640
 8234SOL    HW225602   1.019   3.004   0.549
 8235SOL     OW25603   1.049   1.225   1.571
 8235SOL    HW125604   1.005   1.233   1.660
 8235SOL    HW225605   1.026   1.305   1.515
 8236SOL     OW25606   0.315   0.507   1.769
 8236SOL    HW125607   0.354   0.596   1.747
 8236SOL    HW225608   0.236   0.519   1.829
 8237SOL     OW25609   3.996   4.698   5.335
 8237SOL    HW125610   4.003   4.600   5.356
 8237SOL    HW225611   3.902   4.721   5.311
 8238SOL     OW25612   0.320   5.270   0.919
 8238SOL    HW125613   0.336   5.343   0.985
 8238SOL    HW225614   0.359   5.185   0.953
 8239SOL     OW25615   2.823   1.378   5.935
 8239SOL    HW125616   2.821   1.415   5.842
 8239SOL    HW225617   2.780   1.288   5.937
 8240SOL     OW25618   3.588   3.122   4.856
 8240SOL    HW125619   3.494   3.113   4.889
 8240SOL    HW225620   3.597   3.205   4.802
 8241SOL     OW25621   1.487   3.224   5.955
 8241SOL    HW125622   1.398   3.203   5.915
 8241SOL    HW225623   1.508   3.156   6.026
 8242SOL     OW25624   0.437   2.973   2.234
 8242SOL    HW125625   0.345   2.957   2.271
 8242SOL    HW225626   0.430   3.021   2.146
 8243SOL     OW25627   1.110   6.097   3.669
 8243SOL    HW125628   1.202   6.111   3.631
 8243SOL    HW225629   1.117   6.079   3.767
 8244SOL     OW25630   6.954   1.131   3.111
 8244SOL    HW125631   6.956   1.228   3.089
 8244SOL    HW225632   6.860   1.101   3.124
 8245SOL     OW25633   5.235   2.897   2.941
 8245SOL    HW125634   5.328   2.890   2.906
 8245SOL    HW225635   5.170   2.883   2.867
 8246SOL     OW25636   1.759   4.752   6.828
 8246SOL    HW125637   1.815   4.776   6.748
 8246SOL    HW225638   1.689   4.823   6.841
 8247SOL     OW25639   3.164   5.315   3.535
 8247SOL    HW125640   3.254   5.338   3.572
 8247SOL    HW225641   3.113   5.263   3.603
 8248SOL     OW25642   6.930   4.927   3.663
 8248SOL    HW125643   6.877   4.878   3.594
 8248SOL    HW225644   6.876   5.004   3.698
 8249SOL     OW25645   3.530   0.997   6.790
 8249SOL    HW125646   3.558   0.957   6.703
 8249SOL    HW225647   3.605   0.989   6.856
 8250SOL     OW25648   1.289   2.054   6.770
 8250SOL    HW125649   1.214   2.110   6.804
 8250SOL    HW225650   1.311   2.081   6.676
 8251SOL     OW25651   0.900   2.306   5.615
 8251SOL    HW125652   0.896   2.212   5.582
 8251SOL    HW225653   0.906   2.368   5.537
 8252SOL     OW25654   0.797   2.167   6.395
 8252SOL    HW125655   0.825   2.076   6.425
 8252SOL    HW225656   0.864   2.205   6.332
 8253SOL     OW25657   5.587   4.918   6.313
 8253SOL    HW125658   5.508   4.868   6.348
 8253SOL    HW225659   5.630   4.865   6.240
 8254SOL     OW25660   6.590   5.639   0.264
 8254SOL    HW125661   6.673   5.588   0.289
 8254SOL    HW225662   6.562   5.615   0.171
 8255SOL     OW25663   1.361   0.533   5.826
 8255SOL    HW125664   1.430   0.586   5.776
 8255SOL    HW225665   1.333   0.454   5.770
 8256SOL     OW25666   1.613   6.099   4.613
 8256SOL    HW125667   1.692   6.047   4.643
 8256SOL    HW225668   1.625   6.128   4.518
 8257SOL     OW25669   4.894   3.939   3.564
 8257SOL    HW125670   4.933   4.031   3.563
 8257SOL    HW225671   4.876   3.911   3.658
 8258SOL     OW25672   0.432   2.798   3.900
 8258SOL    HW125673   0.342   2.840   3.892
 8258SOL    HW225674   0.423   2.705   3.934
 8259SOL     OW25675   5.856   2.107   4.221
 8259SOL    HW125676   5.814   2.091   4.310
 8259SOL    HW225677   5.787   2.135   4.156
 8260SOL     OW25678   4.965   2.809   0.554
 8260SOL    HW125679   4.959   2.908   0.568
 8260SOL    HW225680   4.911   2.784   0.474
 8261SOL     OW25681   6.005   1.622   2.656
 8261SOL    HW125682   5.956   1.630   2.569
 8261SOL    HW225683   5.987   1.533   2.697
 8262SOL     OW25684   5.164   3.946   2.165
 8262SOL    HW125685   5.177   3.999   2.082
 8262SOL    HW225686   5.199   3.854   2.152
 8263SOL     OW25687   6.687   1.869   6.114
 8263SOL    HW125688   6.761   1.895   6.053
 8263SOL    HW225689   6.609   1.837   6.061
 8264SOL     OW25690   2.771   0.954   2.199
 8264SOL    HW125691   2.676   0.986   2.193
 8264SOL    HW225692   2.827   1.007   2.135
 8265SOL     OW25693   4.567   5.351   0.718
 8265SOL    HW125694   4.564   5.268   0.661
 8265SOL    HW225695   4.624   5.335   0.798
 8266SOL     OW25696   3.669   1.019   3.384
 8266SOL    HW125697   3.608   0.950   3.422
 8266SOL    HW225698   3.642   1.110   3.416
 8267SOL     OW25699   1.925   2.589   3.909
 8267SOL    HW125700   1.850   2.523   3.906
 8267SOL    HW225701   1.989   2.570   3.835
 8268SOL     OW25702   3.326   4.951   0.386
 8268SOL    HW125703   3.347   4.875   0.447
 8268SOL    HW225704   3.229   4.974   0.394
 8269SOL     OW25705   6.425   2.068   5.169
 8269SOL    HW125706   6.369   2.056   5.086
 8269SOL    HW225707   6.521   2.078   5.143
 8270SOL     OW25708   4.302   5.159   0.441
 8270SOL    HW125709   4.250   5.219   0.502
 8270SOL    HW225710   4.255   5.071   0.434
 8271SOL     OW25711   3.085   6.523   6.090
 8271SOL    HW125712   3.054   6.562   6.176
 8271SOL    HW225713   3.159   6.580   6.052
 8272SOL     OW25714   0.747   0.549   1.783
 8272SOL    HW125715   0.845   0.542   1.768
 8272SOL    HW225716   0.722   0.503   1.868
 8273SOL     OW25717   3.735   6.852   6.487
 8273SOL    HW125718   3.731   6.830   6.584
 8273SOL    HW225719   3.825   6.826   6.451
 8274SOL     OW25720   5.560   6.420   5.526
 8274SOL    HW125721   5.462   6.438   5.531
 8274SOL    HW225722   5.608   6.503   5.499
 8275SOL     OW25723   5.049   1.067   5.449
 8275SOL    HW125724   4.959   1.110   5.452
 8275SOL    HW225725   5.111   1.123   5.393
 8276SOL     OW25726   5.757   2.506   0.040
 8276SOL    HW125727   5.662   2.500   0.009
 8276SOL    HW225728   5.817   2.518   6.984
 8277SOL     OW25729   1.212   6.405   1.166
 8277SOL    HW125730   1.178   6.493   1.196
 8277SOL    HW225731   1.188   6.391   1.070
 8278SOL     OW25732   1.786   0.318   0.823
 8278SOL    HW125733   1.886   0.317   0.830
 8278SOL    HW225734   1.757   0.401   0.774
 8279SOL     OW25735   4.601   5.763   5.697
 8279SOL    HW125736   4.588   5.795   5.603
 8279SOL    HW225737   4.647   5.835   5.750
 8280SOL     OW25738   5.177   4.210   6.780
 8280SOL    HW125739   5.122   4.237   6.859
 8280SOL    HW225740   5.116   4.183   6.705
 8281SOL     OW25741   2.659   5.902   6.289
 8281SOL    HW125742   2.623   5.993   6.274
 8281SOL    HW225743   2.684   5.860   6.202
 8282SOL     OW25744   3.487   2.732   1.578
 8282SOL    HW125745   3.459   2.815   1.532
 8282SOL    HW225746   3.520   2.666   1.510
 8283SOL     OW25747   0.520   0.201   3.361
 8283SOL    HW125748   0.569   0.161   3.438
 8283SOL    HW225749   0.563   0.171   3.276
 8284SOL     OW25750   4.802   2.060   1.925
 8284SOL    HW125751   4.727   2.059   1.991
 8284SOL    HW225752   4.820   1.967   1.892
 8285SOL     OW25753   0.782   4.599   0.520
 8285SOL    HW125754   0.867   4.582   0.469
 8285SOL    HW225755   0.721   4.521   0.511
 8286SOL     OW25756   6.525   2.054   6.475
 8286SOL    HW125757   6.450   2.118   6.460
 8286SOL    HW225758   6.611   2.105   6.482
 8287SOL     OW25759   1.256   1.323   3.260
 8287SOL    HW125760   1.350   1.325   3.226
 8287SOL    HW225761   1.227   1.228   3.271
 8288SOL     OW25762   1.840   0.322   2.510
 8288SOL    HW125763   1.862   0.266   2.430
 8288SOL    HW225764   1.859   0.271   2.593
 8289SOL     OW25765   5.466   0.394   0.029
 8289SOL    HW125766   5.468   0.297   0.005
 8289SOL    HW225767   5.371   0.426   0.031
 8290SOL     OW25768   4.832   2.758   2.011
 8290SOL    HW125769   4.831   2.857   2.026
 8290SOL    HW225770   4.742   2.728   1.982
 8291SOL     OW25771   4.919   6.029   6.473
 8291SOL    HW125772   4.976   6.070   6.402
 8291SOL    HW225773   4.977   5.986   6.542
 8292SOL     OW25774   0.298   2.813   5.790
 8292SOL    HW125775   0.328   2.815   5.695
 8292SOL    HW225776   0.358   2.752   5.843
 8293SOL     OW25777   2.866   5.245   4.014
 8293SOL    HW125778   2.776   5.282   4.038
 8293SOL    HW225779   2.912   5.214   4.097
 8294SOL     OW25780   5.864   3.814   5.348
 8294SOL    HW125781   5.899   3.832   5.256
 8294SOL    HW225782   5.939   3.821   5.414
 8295SOL     OW25783   4.515   4.979   2.876
 8295SOL    HW125784   4.481   4.954   2.966
 8295SOL    HW225785   4.585   5.050   2.885
 8296SOL     OW25786   4.126   0.721   2.422
 8296SOL    HW125787   4.212   0.730   2.473
 8296SOL    HW225788   4.134   0.770   2.335
 8297SOL     OW25789   5.506   4.424   1.888
 8297SOL    HW125790   5.587   4.444   1.943
 8297SOL    HW225791   5.526   4.350   1.825
 8298SOL     OW25792   6.254   6.794   0.573
 8298SOL    HW125793   6.246   6.780   0.474
 8298SOL    HW225794   6.330   6.740   0.608
 8299SOL     OW25795   1.479   3.204   6.835
 8299SOL    HW125796   1.406   3.171   6.776
 8299SOL    HW225797   1.491   3.141   6.912
 8300SOL     OW25798   6.017   4.916   4.381
 8300SOL    HW125799   5.967   4.999   4.359
 8300SOL    HW225800   5.966   4.836   4.350
 8301SOL     OW25801   6.430   5.884   0.212
 8301SOL    HW125802   6.349   5.827   0.197
 8301SOL    HW225803   6.467   5.866   0.303
 8302SOL     OW25804   4.160   6.438   4.914
 8302SOL    HW125805   4.178   6.470   4.821
 8302SOL    HW225806   4.234   6.377   4.943
 8303SOL     OW25807   1.044   4.731   3.877
 8303SOL    HW125808   0.957   4.710   3.832
 8303SOL    HW225809   1.034   4.813   3.933
 8304SOL     OW25810   6.383   2.594   3.557
 8304SOL    HW125811   6.304   2.535   3.575
 8304SOL    HW225812   6.354   2.674   3.504
 8305SOL     OW25813   4.697   0.029   5.840
 8305SOL    HW125814   4.602   0.025   5.870
 8305SOL    HW225815   4.706   7.008   5.751
 8306SOL     OW25816   6.348   0.535   3.607
 8306SOL    HW125817   6.417   0.563   3.541
 8306SOL    HW225818   6.391   0.483   3.681
 8307SOL     OW25819   1.127   3.828   3.416
 8307SOL    HW125820   1.217   3.845   3.455
 8307SOL    HW225821   1.123   3.734   3.381
 8308SOL     OW25822   1.090   5.260   0.368
 8308SOL    HW125823   1.049   5.215   0.447
 8308SOL    HW225824   1.187   5.233   0.362
 8309SOL     OW25825   6.339   5.476   3.684
 8309SOL    HW125826   6.307   5.557   3.634
 8309SOL    HW225827   6.262   5.414   3.700
 8310SOL     OW25828   2.702   6.817   3.310
 8310SOL    HW125829   2.624   6.868   3.275
 8310SOL    HW225830   2.763   6.794   3.235
 8311SOL     OW25831   4.630   6.050   2.467
 8311SOL    HW125832   4.664   6.140   2.495
 8311SOL    HW225833   4.706   5.995   2.433
 8312SOL     OW25834   6.186   1.879   1.052
 8312SOL    HW125835   6.153   1.823   0.976
 8312SOL    HW225836   6.267   1.930   1.023
 8313SOL     OW25837   5.474   2.397   6.258
 8313SOL    HW125838   5.519   2.321   6.210
 8313SOL    HW225839   5.379   2.370   6.279
 8314SOL     OW25840   4.471   5.852   3.991
 8314SOL    HW125841   4.408   5.860   3.914
 8314SOL    HW225842   4.565   5.868   3.959
 8315SOL     OW25843   3.221   2.995   5.982
 8315SOL    HW125844   3.221   2.895   5.971
 8315SOL    HW225845   3.128   3.029   5.972
 8316SOL     OW25846   1.954   2.193   5.372
 8316SOL    HW125847   1.910   2.103   5.373
 8316SOL    HW225848   1.984   2.216   5.465
 8317SOL     OW25849   1.282   2.110   4.029
 8317SOL    HW125850   1.208   2.127   4.095
 8317SOL    HW225851   1.257   2.035   3.969
 8318SOL     OW25852   4.499   6.836   5.913
 8318SOL    HW125853   4.544   6.750   5.937
 8318SOL    HW225854   4.419   6.817   5.857
 8319SOL     OW25855   2.201   5.673   6.580
 8319SOL    HW125856   2.108   5.682   6.544
 8319SOL    HW225857   2.196   5.645   6.676
 8320SOL     OW25858   3.863   3.855   5.516
 8320SOL    HW125859   3.847   3.804   5.601
 8320SOL    HW225860   3.857   3.953   5.534
 8321SOL     OW25861   0.445   0.184   0.932
 8321SOL    HW125862   0.524   0.188   0.993
 8321SOL    HW225863   0.418   0.089   0.918
 8322SOL     OW25864   0.932   0.366   0.363
 8322SOL    HW125865   0.907   0.454   0.403
 8322SOL    HW225866   0.980   0.311   0.431
 8323SOL     OW25867   5.254   4.383   6.545
 8323SOL    HW125868   5.253   4.284   6.530
 8323SOL    HW225869   5.336   4.408   6.597
 8324SOL     OW25870   5.812   6.325   6.669
 8324SOL    HW125871   5.823   6.423   6.655
 8324SOL    HW225872   5.795   6.280   6.581
 8325SOL     OW25873   1.727   6.572   4.919
 8325SOL    HW125874   1.748   6.640   4.990
 8325SOL    HW225875   1.639   6.528   4.940
 8326SOL     OW25876   2.060   2.683   6.653
 8326SOL    HW125877   2.034   2.646   6.564
 8326SOL    HW225878   1.985   2.670   6.718
 8327SOL     OW25879   0.377   6.358   5.132
 8327SOL    HW125880   0.356   6.414   5.051
 8327SOL    HW225881   0.453   6.296   5.110
 8328SOL     OW25882   1.322   6.228   0.650
 8328SOL    HW125883   1.316   6.167   0.572
 8328SOL    HW225884   1.410   6.275   0.649
 8329SOL     OW25885   1.918   2.449   5.297
 8329SOL    HW125886   1.873   2.364   5.324
 8329SOL    HW225887   1.885   2.477   5.207
 8330SOL     OW25888   2.452   6.579   0.385
 8330SOL    HW125889   2.522   6.515   0.354
 8330SOL    HW225890   2.414   6.547   0.472
 8331SOL     OW25891   2.669   2.450   6.036
 8331SOL    HW125892   2.597   2.414   5.977
 8331SOL    HW225893   2.629   2.480   6.123
 8332SOL     OW25894   5.930   4.125   1.516
 8332SOL    HW125895   5.935   4.190   1.440
 8332SOL    HW225896   6.001   4.055   1.505
 8333SOL     OW25897   2.394   4.206   6.675
 8333SOL    HW125898   2.375   4.128   6.736
 8333SOL    HW225899   2.347   4.192   6.588
 8334SOL     OW25900   3.404   2.211   5.333
 8334SOL    HW125901   3.351   2.263   5.267
 8334SOL    HW225902   3.430   2.123   5.294
 8335SOL     OW25903   5.356   4.641   5.475
 8335SOL    HW125904   5.340   4.586   5.392
 8335SOL    HW225905   5.396   4.583   5.546
 8336SOL     OW25906   1.189   3.098   3.705
 8336SOL    HW125907   1.169   3.195   3.695
 8336SOL    HW225908   1.241   3.083   3.789
 8337SOL     OW25909   6.598   0.881   4.258
 8337SOL    HW125910   6.516   0.847   4.212
 8337SOL    HW225911   6.571   0.930   4.341
 8338SOL     OW25912   2.566   6.188   0.987
 8338SOL    HW125913   2.601   6.207   1.079
 8338SOL    HW225914   2.532   6.095   0.982
 8339SOL     OW25915   6.143   0.357   1.841
 8339SOL    HW125916   6.153   0.388   1.936
 8339SOL    HW225917   6.233   0.339   1.802
 8340SOL     OW25918   5.705   2.189   6.485
 8340SOL    HW125919   5.740   2.258   6.422
 8340SOL    HW225920   5.779   2.129   6.514
 8341SOL     OW25921   4.062   1.190   1.017
 8341SOL    HW125922   4.069   1.145   1.105
 8341SOL    HW225923   4.021   1.128   0.950
 8342SOL     OW25924   3.859   0.477   0.377
 8342SOL    HW125925   3.812   0.503   0.462
 8342SOL    HW225926   3.910   0.393   0.392
 8343SOL     OW25927   5.813   4.905   2.936
 8343SOL    HW125928   5.749   4.839   2.976
 8343SOL    HW225929   5.761   4.976   2.887
 8344SOL     OW25930   2.112   5.188   5.626
 8344SOL    HW125931   2.170   5.108   5.634
 8344SOL    HW225932   2.024   5.171   5.672
 8345SOL     OW25933   5.982   0.709   3.890
 8345SOL    HW125934   5.939   0.799   3.897
 8345SOL    HW225935   6.041   0.706   3.809
 8346SOL     OW25936   5.355   3.900   4.214
 8346SOL    HW125937   5.394   3.809   4.230
 8346SOL    HW225938   5.375   3.960   4.291
 8347SOL     OW25939   1.554   1.656   5.806
 8347SOL    HW125940   1.649   1.635   5.828
 8347SOL    HW225941   1.546   1.671   5.707
 8348SOL     OW25942   2.756   5.744   2.286
 8348SOL    HW125943   2.699   5.781   2.359
 8348SOL    HW225944   2.845   5.789   2.288
 8349SOL     OW25945   5.203   5.950   1.339
 8349SOL    HW125946   5.188   5.940   1.437
 8349SOL    HW225947   5.128   6.003   1.299
 8350SOL     OW25948   1.047   0.098   0.164
 8350SOL    HW125949   1.041   0.196   0.146
 8350SOL    HW225950   1.140   0.066   0.146
 8351SOL     OW25951   0.402   2.473   3.157
 8351SOL    HW125952   0.469   2.457   3.230
 8351SOL    HW225953   0.324   2.411   3.169
 8352SOL     OW25954   2.490   6.402   7.017
 8352SOL    HW125955   2.559   6.427   0.061
 8352SOL    HW225956   2.400   6.399   0.038
 8353SOL     OW25957   0.543   6.508   2.437
 8353SOL    HW125958   0.454   6.496   2.393
 8353SOL    HW225959   0.601   6.566   2.381
 8354SOL     OW25960   3.833   1.826   3.389
 8354SOL    HW125961   3.813   1.853   3.483
 8354SOL    HW225962   3.851   1.728   3.385
 8355SOL     OW25963   3.329   5.042   6.175
 8355SOL    HW125964   3.332   5.107   6.098
 8355SOL    HW225965   3.323   4.949   6.139
 8356SOL     OW25966   2.705   4.625   1.250
 8356SOL    HW125967   2.714   4.711   1.299
 8356SOL    HW225968   2.700   4.643   1.152
 8357SOL     OW25969   4.326   6.983   4.891
 8357SOL    HW125970   4.243   6.940   4.856
 8357SOL    HW225971   4.406   6.930   4.861
 8358SOL     OW25972   0.753   0.475   5.338
 8358SOL    HW125973   0.665   0.438   5.366
 8358SOL    HW225974   0.789   0.535   5.410
 8359SOL     OW25975   4.327   1.791   5.947
 8359SOL    HW125976   4.293   1.882   5.924
 8359SOL    HW225977   4.426   1.794   5.958
 8360SOL     OW25978   4.325   6.720   1.092
 8360SOL    HW125979   4.275   6.654   1.148
 8360SOL    HW225980   4.261   6.765   1.029
 8361SOL     OW25981   4.534   1.324   6.861
 8361SOL    HW125982   4.475   1.367   6.793
 8361SOL    HW225983   4.489   1.327   6.950
 8362SOL     OW25984   6.491   3.906   1.341
 8362SOL    HW125985   6.432   3.884   1.418
 8362SOL    HW225986   6.457   3.861   1.259
 8363SOL     OW25987   1.899   2.386   1.204
 8363SOL    HW125988   1.995   2.411   1.213
 8363SOL    HW225989   1.841   2.461   1.236
 8364SOL     OW25990   0.531   2.080   4.145
 8364SOL    HW125991   0.501   2.131   4.064
 8364SOL    HW225992   0.466   2.093   4.219
 8365SOL     OW25993   1.645   1.682   1.226
 8365SOL    HW125994   1.629   1.752   1.156
 8365SOL    HW225995   1.705   1.720   1.297
 8366SOL     OW25996   5.457   5.495   1.933
 8366SOL    HW125997   5.389   5.479   2.005
 8366SOL    HW225998   5.546   5.462   1.964
 8367SOL     OW25999   1.937   4.475   3.235
 8367SOL    HW126000   2.011   4.528   3.276
 8367SOL    HW226001   1.916   4.397   3.295
 8368SOL     OW26002   6.126   5.363   5.553
 8368SOL    HW126003   6.085   5.411   5.631
 8368SOL    HW226004   6.054   5.327   5.494
 8369SOL     OW26005   1.497   6.902   0.344
 8369SOL    HW126006   1.555   6.823   0.361
 8369SOL    HW226007   1.522   6.943   0.256
 8370SOL     OW26008   2.682   3.492   0.693
 8370SOL    HW126009   2.778   3.485   0.718
 8370SOL    HW226010   2.626   3.448   0.763
 8371SOL     OW26011   2.670   3.645   6.325
 8371SOL    HW126012   2.665   3.738   6.289
 8371SOL    HW226013   2.607   3.635   6.402
 8372SOL     OW26014   1.340   6.178   1.362
 8372SOL    HW126015   1.382   6.268   1.373
 8372SOL    HW226016   1.303   6.170   1.269
 8373SOL     OW26017   6.718   1.091   4.064
 8373SOL    HW126018   6.715   1.188   4.042
 8373SOL    HW226019   6.686   1.078   4.158
 8374SOL     OW26020   0.510   0.885   3.911
 8374SOL    HW126021   0.482   0.960   3.971
 8374SOL    HW226022   0.608   0.892   3.893
 8375SOL     OW26023   1.375   1.913   4.865
 8375SOL    HW126024   1.394   1.970   4.785
 8375SOL    HW226025   1.308   1.842   4.841
 8376SOL     OW26026   1.048   2.057   3.747
 8376SOL    HW126027   1.103   1.988   3.794
 8376SOL    HW226028   0.977   2.090   3.809
 8377SOL     OW26029   4.350   5.444   0.005
 8377SOL    HW126030   4.326   5.354   6.993
 8377SOL    HW226031   4.267   5.496   0.024
 8378SOL     OW26032   4.786   6.024   4.562
 8378SOL    HW126033   4.697   6.063   4.586
 8378SOL    HW226034   4.798   6.028   4.463
 8379SOL     OW26035   6.172   2.181   1.733
 8379SOL    HW126036   6.203   2.253   1.671
 8379SOL    HW226037   6.244   2.112   1.743
 8380SOL     OW26038   0.724   6.104   1.550
 8380SOL    HW126039   0.669   6.071   1.472
 8380SOL    HW226040   0.803   6.154   1.516
 8381SOL     OW26041   0.620   1.782   2.627
 8381SOL    HW126042   0.699   1.729   2.596
 8381SOL    HW226043   0.643   1.829   2.712
 8382SOL     OW26044   0.949   0.252   1.761
 8382SOL    HW126045   0.949   0.352   1.767
 8382SOL    HW226046   0.969   0.225   1.667
 8383SOL     OW26047   2.720   6.729   5.979
 8383SOL    HW126048   2.739   6.634   6.004
 8383SOL    HW226049   2.773   6.754   5.898
 8384SOL     OW26050   0.613   3.705   2.922
 8384SOL    HW126051   0.676   3.710   2.845
 8384SOL    HW226052   0.566   3.792   2.933
 8385SOL     OW26053   4.182   2.275   2.093
 8385SOL    HW126054   4.216   2.359   2.050
 8385SOL    HW226055   4.108   2.237   2.038
 8386SOL     OW26056   2.613   5.851   2.045
 8386SOL    HW126057   2.641   5.778   1.983
 8386SOL    HW226058   2.645   5.831   2.138
 8387SOL     OW26059   0.651   1.092   3.698
 8387SOL    HW126060   0.706   1.140   3.767
 8387SOL    HW226061   0.708   1.026   3.650
 8388SOL     OW26062   3.811   5.247   1.307
 8388SOL    HW126063   3.747   5.252   1.383
 8388SOL    HW226064   3.824   5.338   1.267
 8389SOL     OW26065   0.560   2.636   4.209
 8389SOL    HW126066   0.602   2.554   4.171
 8389SOL    HW226067   0.604   2.717   4.171
 8390SOL     OW26068   2.713   0.378   6.125
 8390SOL    HW126069   2.755   0.288   6.113
 8390SOL    HW226070   2.650   0.395   6.049
 8391SOL     OW26071   5.581   6.040   0.958
 8391SOL    HW126072   5.540   5.953   0.986
 8391SOL    HW226073   5.530   6.076   0.880
 8392SOL     OW26074   4.945   6.091   6.976
 8392SOL    HW126075   4.934   5.992   6.976
 8392SOL    HW226076   5.036   6.115   7.008
 8393SOL     OW26077   0.430   4.743   2.904
 8393SOL    HW126078   0.378   4.689   2.970
 8393SOL    HW226079   0.437   4.692   2.818
 8394SOL     OW26080   1.276   1.625   2.957
 8394SOL    HW126081   1.284   1.656   2.862
 8394SOL    HW226082   1.260   1.703   3.016
 8395SOL     OW26083   0.609   6.331   5.684
 8395SOL    HW126084   0.541   6.346   5.612
 8395SOL    HW226085   0.640   6.236   5.682
 8396SOL     OW26086   4.276   2.563   1.661
 8396SOL    HW126087   4.234   2.654   1.660
 8396SOL    HW226088   4.353   2.561   1.596
 8397SOL     OW26089   2.249   5.187   3.659
 8397SOL    HW126090   2.241   5.088   3.651
 8397SOL    HW226091   2.157   5.227   3.667
 8398SOL     OW26092   5.909   1.397   0.074
 8398SOL    HW126093   5.908   1.406   6.998
 8398SOL    HW226094   5.817   1.374   0.106
 8399SOL     OW26095   5.676   5.949   6.697
 8399SOL    HW126096   5.722   5.955   6.609
 8399SOL    HW226097   5.583   5.916   6.684
 8400SOL     OW26098   6.367   6.810   3.792
 8400SOL    HW126099   6.314   6.854   3.720
 8400SOL    HW226100   6.334   6.840   3.882
 8401SOL     OW26101   2.864   4.352   5.735
 8401SOL    HW126102   2.780   4.348   5.681
 8401SOL    HW226103   2.941   4.374   5.675
 8402SOL     OW26104   4.663   0.583   5.701
 8402SOL    HW126105   4.755   0.612   5.675
 8402SOL    HW226106   4.670   0.507   5.766
 8403SOL     OW26107   0.938   2.509   4.833
 8403SOL    HW126108   0.853   2.468   4.867
 8403SOL    HW226109   0.918   2.594   4.786
 8404SOL     OW26110   4.515   4.996   5.115
 8404SOL    HW126111   4.444   4.946   5.064
 8404SOL    HW226112   4.515   5.091   5.085
 8405SOL     OW26113   1.409   2.723   4.723
 8405SOL    HW126114   1.398   2.699   4.626
 8405SOL    HW226115   1.322   2.710   4.770
 8406SOL     OW26116   5.670   3.759   1.081
 8406SOL    HW126117   5.613   3.812   1.143
 8406SOL    HW226118   5.613   3.711   1.015
 8407SOL     OW26119   5.017   3.698   3.035
 8407SOL    HW126120   5.105   3.675   2.992
 8407SOL    HW226121   4.986   3.787   3.000
 8408SOL     OW26122   4.586   4.541   4.443
 8408SOL    HW126123   4.523   4.521   4.368
 8408SOL    HW226124   4.666   4.483   4.436
 8409SOL     OW26125   0.663   1.799   3.737
 8409SOL    HW126126   0.573   1.837   3.714
 8409SOL    HW226127   0.727   1.874   3.757
 8410SOL     OW26128   2.523   6.305   2.705
 8410SOL    HW126129   2.606   6.323   2.758
 8410SOL    HW226130   2.548   6.271   2.615
 8411SOL     OW26131   1.696   3.131   3.471
 8411SOL    HW126132   1.640   3.202   3.515
 8411SOL    HW226133   1.647   3.094   3.392
 8412SOL     OW26134   5.878   3.070   2.429
 8412SOL    HW126135   5.810   3.141   2.447
 8412SOL    HW226136   5.950   3.074   2.498
 8413SOL     OW26137   2.779   4.968   1.085
 8413SOL    HW126138   2.752   4.980   1.181
 8413SOL    HW226139   2.773   4.871   1.061
 8414SOL     OW26140   5.899   6.861   3.110
 8414SOL    HW126141   5.830   6.824   3.172
 8414SOL    HW226142   5.853   6.900   3.029
 8415SOL     OW26143   6.231   3.923   2.194
 8415SOL    HW126144   6.244   4.017   2.162
 8415SOL    HW226145   6.320   3.880   2.206
 8416SOL     OW26146   4.733   4.445   2.346
 8416SOL    HW126147   4.718   4.472   2.441
 8416SOL    HW226148   4.656   4.476   2.290
 8417SOL     OW26149   2.432   5.784   6.683
 8417SOL    HW126150   2.339   5.762   6.655
 8417SOL    HW226151   2.496   5.758   6.611
 8418SOL     OW26152   6.010   5.457   2.639
 8418SOL    HW126153   5.979   5.404   2.561
 8418SOL    HW226154   6.040   5.395   2.712
 8419SOL     OW26155   5.079   0.200   3.829
 8419SOL    HW126156   5.168   0.212   3.785
 8419SOL    HW226157   5.008   0.193   3.759
 8420SOL     OW26158   3.736   1.865   5.688
 8420SOL    HW126159   3.750   1.904   5.597
 8420SOL    HW226160   3.718   1.939   5.753
 8421SOL     OW26161   0.656   6.958   1.231
 8421SOL    HW126162   0.570   7.006   1.248
 8421SOL    HW226163   0.717   6.971   1.308
 8422SOL     OW26164   4.335   0.268   1.546
 8422SOL    HW126165   4.323   0.357   1.590
 8422SOL    HW226166   4.362   0.282   1.450
 8423SOL     OW26167   1.978   3.558   1.693
 8423SOL    HW126168   1.959   3.463   1.718
 8423SOL    HW226169   2.071   3.565   1.656
 8424SOL     OW26170   2.604   2.442   2.155
 8424SOL    HW126171   2.572   2.473   2.066
 8424SOL    HW226172   2.699   2.469   2.168
 8425SOL     OW26173   6.571   4.750   6.189
 8425SOL    HW126174   6.637   4.679   6.213
 8425SOL    HW226175   6.496   4.750   6.255
 8426SOL     OW26176   3.829   3.772   2.914
 8426SOL    HW126177   3.919   3.787   2.954
 8426SOL    HW226178   3.793   3.859   2.880
 8427SOL     OW26179   1.906   2.602   6.429
 8427SOL    HW126180   1.899   2.623   6.332
 8427SOL    HW226181   1.940   2.508   6.439
 8428SOL     OW26182   6.361   4.371   1.786
 8428SOL    HW126183   6.359   4.453   1.727
 8428SOL    HW226184   6.273   4.325   1.783
 8429SOL     OW26185   2.304   6.852   3.035
 8429SOL    HW126186   2.277   6.932   3.088
 8429SOL    HW226187   2.255   6.771   3.068
 8430SOL     OW26188   5.107   4.158   2.878
 8430SOL    HW126189   5.162   4.199   2.806
 8430SOL    HW226190   5.055   4.081   2.841
 8431SOL     OW26191   2.867   3.630   1.734
 8431SOL    HW126192   2.922   3.587   1.663
 8431SOL    HW226193   2.784   3.670   1.693
 8432SOL     OW26194   4.787   6.631   6.789
 8432SOL    HW126195   4.832   6.617   6.877
 8432SOL    HW226196   4.855   6.629   6.716
 8433SOL     OW26197   0.874   1.719   4.131
 8433SOL    HW126198   0.899   1.684   4.040
 8433SOL    HW226199   0.898   1.651   4.200
 8434SOL     OW26200   5.595   6.020   6.337
 8434SOL    HW126201   5.681   5.999   6.382
 8434SOL    HW226202   5.557   6.105   6.373
 8435SOL     OW26203   5.047   2.598   1.822
 8435SOL    HW126204   5.102   2.678   1.844
 8435SOL    HW226205   4.955   2.626   1.796
 8436SOL     OW26206   2.971   4.256   1.700
 8436SOL    HW126207   3.032   4.191   1.746
 8436SOL    HW226208   2.957   4.336   1.758
 8437SOL     OW26209   0.041   1.662   0.986
 8437SOL    HW126210   6.998   1.589   1.002
 8437SOL    HW226211   0.043   1.723   1.065
 8438SOL     OW26212   1.813   6.344   0.923
 8438SOL    HW126213   1.803   6.372   0.828
 8438SOL    HW226214   1.722   6.332   0.964
 8439SOL     OW26215   6.436   0.538   2.158
 8439SOL    HW126216   6.464   0.541   2.062
 8439SOL    HW226217   6.501   0.590   2.213
 8440SOL     OW26218   6.949   2.266   4.360
 8440SOL    HW126219   6.980   2.361   4.361
 8440SOL    HW226220   6.852   2.262   4.334
 8441SOL     OW26221   4.186   5.542   2.249
 8441SOL    HW126222   4.229   5.500   2.329
 8441SOL    HW226223   4.244   5.617   2.216
 8442SOL     OW26224   2.081   3.116   0.208
 8442SOL    HW126225   2.125   3.092   0.122
 8442SOL    HW226226   2.082   3.037   0.269
 8443SOL     OW26227   1.105   1.942   2.115
 8443SOL    HW126228   1.071   2.036   2.117
 8443SOL    HW226229   1.205   1.943   2.119
 8444SOL     OW26230   5.092   1.431   2.766
 8444SOL    HW126231   5.160   1.410   2.835
 8444SOL    HW226232   5.004   1.450   2.810
 8445SOL     OW26233   4.537   5.417   1.778
 8445SOL    HW126234   4.491   5.485   1.835
 8445SOL    HW226235   4.556   5.456   1.688
 8446SOL     OW26236   6.684   3.859   2.736
 8446SOL    HW126237   6.764   3.898   2.782
 8446SOL    HW226238   6.655   3.777   2.786
 8447SOL     OW26239   4.652   3.064   1.430
 8447SOL    HW126240   4.728   3.114   1.389
 8447SOL    HW226241   4.638   3.094   1.524
 8448SOL     OW26242   1.721   3.317   5.885
 8448SOL    HW126243   1.764   3.240   5.839
 8448SOL    HW226244   1.630   3.290   5.917
 8449SOL     OW26245   1.270   1.581   4.279
 8449SOL    HW126246   1.291   1.501   4.223
 8449SOL    HW226247   1.354   1.618   4.318
 8450SOL     OW26248   2.354   5.220   1.677
 8450SOL    HW126249   2.331   5.210   1.581
 8450SOL    HW226250   2.393   5.311   1.693
 8451SOL     OW26251   3.930   2.630   0.452
 8451SOL    HW126252   3.932   2.547   0.507
 8451SOL    HW226253   4.021   2.672   0.451
 8452SOL     OW26254   0.239   5.586   1.747
 8452SOL    HW126255   0.287   5.674   1.758
 8452SOL    HW226256   0.171   5.595   1.674
 8453SOL     OW26257   6.787   5.278   5.398
 8453SOL    HW126258   6.774   5.361   5.453
 8453SOL    HW226259   6.759   5.296   5.304
 8454SOL     OW26260   2.067   6.466   4.951
 8454SOL    HW126261   2.133   6.525   4.904
 8454SOL    HW226262   1.977   6.511   4.953
 8455SOL     OW26263   6.066   2.657   0.421
 8455SOL    HW126264   5.997   2.648   0.349
 8455SOL    HW226265   6.130   2.581   0.416
 8456SOL     OW26266   5.605   5.534   3.392
 8456SOL    HW126267   5.611   5.492   3.483
 8456SOL    HW226268   5.679   5.500   3.335
 8457SOL     OW26269   6.589   6.094   6.488
 8457SOL    HW126270   6.602   6.107   6.390
 8457SOL    HW226271   6.534   6.170   6.524
 8458SOL     OW26272   1.481   2.193   1.007
 8458SOL    HW126273   1.405   2.184   1.070
 8458SOL    HW226274   1.564   2.158   1.051
 8459SOL     OW26275   2.735   5.740   2.822
 8459SOL    HW126276   2.679   5.681   2.879
 8459SOL    HW226277   2.757   5.693   2.737
 8460SOL     OW26278   3.845   1.324   0.706
 8460SOL    HW126279   3.860   1.225   0.705
 8460SOL    HW226280   3.765   1.345   0.762
 8461SOL     OW26281   4.792   4.250   3.153
 8461SOL    HW126282   4.791   4.163   3.203
 8461SOL    HW226283   4.886   4.285   3.148
 8462SOL     OW26284   2.471   4.457   0.428
 8462SOL    HW126285   2.401   4.416   0.486
 8462SOL    HW226286   2.516   4.531   0.478
 8463SOL     OW26287   6.623   0.491   0.278
 8463SOL    HW126288   6.670   0.411   0.315
 8463SOL    HW226289   6.675   0.573   0.300
 8464SOL     OW26290   6.427   3.879   6.869
 8464SOL    HW126291   6.437   3.857   6.966
 8464SOL    HW226292   6.436   3.978   6.856
 8465SOL     OW26293   4.652   3.397   0.750
 8465SOL    HW126294   4.633   3.318   0.691
 8465SOL    HW226295   4.702   3.367   0.831
 8466SOL     OW26296   0.698   1.285   5.391
 8466SOL    HW126297   0.622   1.312   5.450
 8466SOL    HW226298   0.784   1.322   5.427
 8467SOL     OW26299   3.339   1.533   0.201
 8467SOL    HW126300   3.412   1.546   0.268
 8467SOL    HW226301   3.378   1.523   0.110
 8468SOL     OW26302   5.752   3.596   6.550
 8468SOL    HW126303   5.818   3.652   6.499
 8468SOL    HW226304   5.767   3.500   6.528
 8469SOL     OW26305   3.839   3.455   5.185
 8469SOL    HW126306   3.867   3.420   5.274
 8469SOL    HW226307   3.773   3.393   5.144
 8470SOL     OW26308   1.685   5.064   1.728
 8470SOL    HW126309   1.605   5.066   1.789
 8470SOL    HW226310   1.754   5.002   1.766
 8471SOL     OW26311   4.090   1.386   4.111
 8471SOL    HW126312   4.172   1.395   4.055
 8471SOL    HW226313   4.089   1.296   4.155
 8472SOL     OW26314   6.081   1.887   6.377
 8472SOL    HW126315   6.153   1.847   6.433
 8472SOL    HW226316   6.068   1.833   6.294
 8473SOL     OW26317   5.088   4.531   6.729
 8473SOL    HW126318   5.140   4.466   6.674
 8473SOL    HW226319   4.996   4.542   6.690
 8474SOL     OW26320   3.171   4.073   4.523
 8474SOL    HW126321   3.149   4.023   4.439
 8474SOL    HW226322   3.110   4.042   4.597
 8475SOL     OW26323   6.434   2.337   2.985
 8475SOL    HW126324   6.419   2.248   3.030
 8475SOL    HW226325   6.522   2.374   3.014
 8476SOL     OW26326   5.863   1.084   1.566
 8476SOL    HW126327   5.928   1.054   1.636
 8476SOL    HW226328   5.903   1.073   1.476
 8477SOL     OW26329   5.793   0.262   1.806
 8477SOL    HW126330   5.816   0.352   1.770
 8477SOL    HW226331   5.870   0.227   1.859
 8478SOL     OW26332   0.126   0.171   4.963
 8478SOL    HW126333   0.128   0.196   5.060
 8478SOL    HW226334   0.155   0.076   4.951
 8479SOL     OW26335   0.599   3.205   0.640
 8479SOL    HW126336   0.606   3.146   0.560
 8479SOL    HW226337   0.562   3.294   0.614
 8480SOL     OW26338   4.003   3.891   0.493
 8480SOL    HW126339   4.069   3.881   0.567
 8480SOL    HW226340   3.929   3.824   0.504
 8481SOL     OW26341   4.197   2.238   3.376
 8481SOL    HW126342   4.252   2.219   3.295
 8481SOL    HW226343   4.100   2.235   3.351
 8482SOL     OW26344   4.337   1.065   6.803
 8482SOL    HW126345   4.287   0.978   6.808
 8482SOL    HW226346   4.434   1.046   6.790
 8483SOL     OW26347   3.799   5.017   3.254
 8483SOL    HW126348   3.734   5.016   3.178
 8483SOL    HW226349   3.757   4.974   3.334
 8484SOL     OW26350   5.916   5.943   5.189
 8484SOL    HW126351   5.882   5.850   5.176
 8484SOL    HW226352   5.852   5.994   5.245
 8485SOL     OW26353   3.752   1.512   0.012
 8485SOL    HW126354   3.699   1.429   0.026
 8485SOL    HW226355   3.829   1.514   0.077
 8486SOL     OW26356   6.236   2.351   3.988
 8486SOL    HW126357   6.193   2.326   4.075
 8486SOL    HW226358   6.292   2.275   3.955
 8487SOL     OW26359   6.786   2.182   6.473
 8487SOL    HW126360   6.826   2.272   6.455
 8487SOL    HW226361   6.856   2.121   6.510
 8488SOL     OW26362   4.503   5.182   2.162
 8488SOL    HW126363   4.576   5.228   2.112
 8488SOL    HW226364   4.513   5.083   2.152
 8489SOL     OW26365   6.253   2.270   2.155
 8489SOL    HW126366   6.269   2.174   2.133
 8489SOL    HW226367   6.202   2.313   2.080
 8490SOL     OW26368   3.164   0.133   6.952
 8490SOL    HW126369   3.084   0.114   6.895
 8490SOL    HW226370   3.175   0.232   6.960
 8491SOL     OW26371   2.823   6.220   1.882
 8491SOL    HW126372   2.818   6.276   1.800
 8491SOL    HW226373   2.901   6.157   1.875
 8492SOL     OW26374   6.244   6.141   4.581
 8492SOL    HW126375   6.274   6.067   4.521
 8492SOL    HW226376   6.313   6.213   4.582
 8493SOL     OW26377   5.093   1.175   5.893
 8493SOL    HW126378   5.123   1.202   5.802
 8493SOL    HW226379   5.003   1.216   5.912
 8494SOL     OW26380   6.706   3.373   2.173
 8494SOL    HW126381   6.682   3.289   2.124
 8494SOL    HW226382   6.788   3.357   2.228
 8495SOL     OW26383   5.893   4.922   6.172
 8495SOL    HW126384   5.862   5.010   6.207
 8495SOL    HW226385   5.987   4.906   6.203
 8496SOL     OW26386   5.337   2.491   3.014
 8496SOL    HW126387   5.240   2.498   2.991
 8496SOL    HW226388   5.365   2.570   3.069
 8497SOL     OW26389   6.449   0.384   2.900
 8497SOL    HW126390   6.391   0.459   2.867
 8497SOL    HW226391   6.464   0.318   2.825
 8498SOL     OW26392   4.633   0.071   3.893
 8498SOL    HW126393   4.544   0.059   3.850
 8498SOL    HW226394   4.702   0.019   3.842
 8499SOL     OW26395   5.801   6.961   5.360
 8499SOL    HW126396   5.886   6.972   5.309
 8499SOL    HW226397   5.724   6.988   5.302
 8500SOL     OW26398   1.070   0.609   6.546
 8500SOL    HW126399   1.144   0.543   6.533
 8500SOL    HW226400   1.044   0.647   6.457
 8501SOL     OW26401   2.037   1.445   6.371
 8501SOL    HW126402   2.046   1.396   6.458
 8501SOL    HW226403   2.009   1.382   6.299
 8502SOL     OW26404   0.049   4.095   6.962
 8502SOL    HW126405   0.001   4.151   0.005
 8502SOL    HW226406   7.008   4.030   6.922
 8503SOL     OW26407   4.934   1.968   5.705
 8503SOL    HW126408   4.947   2.040   5.773
 8503SOL    HW226409   4.989   1.888   5.730
 8504SOL     OW26410   1.340   0.368   2.648
 8504SOL    HW126411   1.381   0.285   2.685
 8504SOL    HW226412   1.254   0.346   2.602
 8505SOL     OW26413   5.262   2.841   2.256
 8505SOL    HW126414   5.187   2.828   2.321
 8505SOL    HW226415   5.281   2.755   2.209
 8506SOL     OW26416   1.248   0.177   6.430
 8506SOL    HW126417   1.303   0.191   6.347
 8506SOL    HW226418   1.186   0.100   6.416
 8507SOL     OW26419   2.779   5.927   5.492
 8507SOL    HW126420   2.786   5.869   5.573
 8507SOL    HW226421   2.695   5.906   5.443
 8508SOL     OW26422   2.669   1.360   6.836
 8508SOL    HW126423   2.674   1.355   6.935
 8508SOL    HW226424   2.578   1.328   6.806
 8509SOL     OW26425   5.756   1.884   2.386
 8509SOL    HW126426   5.705   1.952   2.334
 8509SOL    HW226427   5.709   1.795   2.381
 8510SOL     OW26428   0.417   1.068   4.738
 8510SOL    HW126429   0.434   1.077   4.836
 8510SOL    HW226430   0.505   1.064   4.690
 8511SOL     OW26431   6.102   1.870   3.116
 8511SOL    HW126432   6.018   1.865   3.170
 8511SOL    HW226433   6.088   1.823   3.029
 8512SOL     OW26434   2.353   6.459   5.492
 8512SOL    HW126435   2.406   6.543   5.495
 8512SOL    HW226436   2.413   6.380   5.509
 8513SOL     OW26437   5.283   5.941   6.812
 8513SOL    HW126438   5.315   6.032   6.787
 8513SOL    HW226439   5.293   5.928   6.911
 8514SOL     OW26440   3.752   5.866   3.637
 8514SOL    HW126441   3.706   5.876   3.726
 8514SOL    HW226442   3.717   5.935   3.574
 8515SOL     OW26443   5.861   2.325   1.095
 8515SOL    HW126444   5.879   2.327   1.193
 8515SOL    HW226445   5.889   2.236   1.058
 8516SOL     OW26446   7.005   1.949   2.097
 8516SOL    HW126447   7.000   1.922   2.001
 8516SOL    HW226448   0.015   2.043   2.103
 8517SOL     OW26449   1.060   4.069   0.055
 8517SOL    HW126450   1.081   3.972   0.066
 8517SOL    HW226451   1.145   4.122   0.053
 8518SOL     OW26452   3.122   5.789   0.743
 8518SOL    HW126453   3.053   5.800   0.671
 8518SOL    HW226454   3.141   5.691   0.755
 8519SOL     OW26455   2.490   5.826   3.504
 8519SOL    HW126456   2.404   5.776   3.514
 8519SOL    HW226457   2.478   5.920   3.537
 8520SOL     OW26458   3.331   6.953   6.935
 8520SOL    HW126459   3.282   0.015   6.948
 8520SOL    HW226460   3.277   6.877   6.972
 8521SOL     OW26461   1.687   0.564   1.440
 8521SOL    HW126462   1.683   0.469   1.410
 8521SOL    HW226463   1.779   0.600   1.428
 8522SOL     OW26464   2.305   6.374   4.344
 8522SOL    HW126465   2.384   6.399   4.287
 8522SOL    HW226466   2.333   6.373   4.440
 8523SOL     OW26467   1.210   6.463   6.806
 8523SOL    HW126468   1.243   6.379   6.764
 8523SOL    HW226469   1.115   6.450   6.836
 8524SOL     OW26470   1.145   1.640   6.627
 8524SOL    HW126471   1.194   1.559   6.595
 8524SOL    HW226472   1.069   1.612   6.686
 8525SOL     OW26473   5.446   4.077   3.996
 8525SOL    HW126474   5.422   4.027   4.079
 8525SOL    HW226475   5.541   4.106   4.000
 8526SOL     OW26476   2.119   3.422   2.226
 8526SOL    HW126477   2.172   3.460   2.150
 8526SOL    HW226478   2.136   3.324   2.233
 8527SOL     OW26479   4.311   0.741   3.693
 8527SOL    HW126480   4.363   0.826   3.698
 8527SOL    HW226481   4.337   0.680   3.768
 8528SOL     OW26482   5.914   2.179   6.913
 8528SOL    HW126483   5.880   2.110   6.978
 8528SOL    HW226484   6.003   2.151   6.878
 8529SOL     OW26485   6.800   5.394   6.063
 8529SOL    HW126486   6.759   5.372   6.152
 8529SOL    HW226487   6.900   5.386   6.070
 8530SOL     OW26488   2.053   4.632   6.456
 8530SOL    HW126489   2.123   4.702   6.462
 8530SOL    HW226490   2.070   4.562   6.526
 8531SOL     OW26491   3.853   4.852   1.889
 8531SOL    HW126492   3.761   4.814   1.897
 8531SOL    HW226493   3.914   4.807   1.955
 8532SOL     OW26494   1.394   3.949   0.535
 8532SOL    HW126495   1.461   3.946   0.461
 8532SOL    HW226496   1.345   4.036   0.533
 8533SOL     OW26497   4.542   6.586   5.678
 8533SOL    HW126498   4.464   6.594   5.739
 8533SOL    HW226499   4.522   6.632   5.591
 8534SOL     OW26500   1.996   2.768   2.087
 8534SOL    HW126501   1.912   2.724   2.121
 8534SOL    HW226502   2.025   2.723   2.003
 8535SOL     OW26503   6.907   3.538   5.127
 8535SOL    HW126504   6.809   3.554   5.125
 8535SOL    HW226505   6.925   3.440   5.118
 8536SOL     OW26506   6.103   1.788   5.594
 8536SOL    HW126507   6.170   1.714   5.581
 8536SOL    HW226508   6.148   1.876   5.578
 8537SOL     OW26509   5.171   6.298   2.902
 8537SOL    HW126510   5.154   6.331   2.994
 8537SOL    HW226511   5.219   6.368   2.849
 8538SOL     OW26512   5.109   0.836   5.574
 8538SOL    HW126513   5.068   0.916   5.531
 8538SOL    HW226514   5.143   0.860   5.665
 8539SOL     OW26515   0.384   3.234   3.082
 8539SOL    HW126516   0.308   3.217   3.019
 8539SOL    HW226517   0.448   3.299   3.041
 8540SOL     OW26518   3.867   6.739   6.794
 8540SOL    HW126519   3.910   6.827   6.778
 8540SOL    HW226520   3.773   6.753   6.826
 8541SOL     OW26521   3.284   6.166   5.214
 8541SOL    HW126522   3.193   6.154   5.254
 8541SOL    HW226523   3.331   6.241   5.261
 8542SOL     OW26524   0.938   5.334   5.777
 8542SOL    HW126525   0.949   5.341   5.876
 8542SOL    HW226526   0.977   5.247   5.745
 8543SOL     OW26527   2.938   2.695   5.427
 8543SOL    HW126528   3.016   2.654   5.380
 8543SOL    HW226529   2.964   2.717   5.521
 8544SOL     OW26530   5.414   4.497   5.241
 8544SOL    HW126531   5.444   4.572   5.183
 8544SOL    HW226532   5.458   4.412   5.213
 8545SOL     OW26533   1.925   6.794   6.294
 8545SOL    HW126534   2.006   6.853   6.285
 8545SOL    HW226535   1.860   6.817   6.222
 8546SOL     OW26536   4.555   1.356   3.592
 8546SOL    HW126537   4.596   1.362   3.502
 8546SOL    HW226538   4.518   1.445   3.618
 8547SOL     OW26539   5.486   6.322   5.978
 8547SOL    HW126540   5.416   6.389   5.956
 8547SOL    HW226541   5.544   6.307   5.898
 8548SOL     OW26542   1.071   4.548   4.979
 8548SOL    HW126543   0.979   4.582   5.000
 8548SOL    HW226544   1.071   4.506   4.888
 8549SOL     OW26545   1.603   0.194   4.027
 8549SOL    HW126546   1.638   0.112   3.981
 8549SOL    HW226547   1.584   0.173   4.123
 8550SOL     OW26548   6.830   4.936   5.762
 8550SOL    HW126549   6.768   4.922   5.839
 8550SOL    HW226550   6.922   4.954   5.796
 8551SOL     OW26551   3.934   0.344   5.067
 8551SOL    HW126552   3.858   0.390   5.113
 8551SOL    HW226553   3.982   0.285   5.132
 8552SOL     OW26554   3.173   1.459   1.815
 8552SOL    HW126555   3.195   1.505   1.728
 8552SOL    HW226556   3.242   1.484   1.883
 8553SOL     OW26557   4.618   3.918   0.832
 8553SOL    HW126558   4.588   3.825   0.812
 8553SOL    HW226559   4.682   3.916   0.909
 8554SOL     OW26560   1.589   0.663   6.747
 8554SOL    HW126561   1.544   0.582   6.785
 8554SOL    HW226562   1.520   0.727   6.714
 8555SOL     OW26563   4.065   1.950   3.877
 8555SOL    HW126564   4.015   1.948   3.790
 8555SOL    HW226565   4.052   1.864   3.925
 8556SOL     OW26566   0.469   5.611   5.781
 8556SOL    HW126567   0.501   5.647   5.693
 8556SOL    HW226568   0.539   5.549   5.818
 8557SOL     OW26569   6.785   0.620   6.271
 8557SOL    HW126570   6.734   0.565   6.205
 8557SOL    HW226571   6.760   0.593   6.364
 8558SOL     OW26572   2.895   5.774   4.176
 8558SOL    HW126573   2.841   5.701   4.220
 8558SOL    HW226574   2.919   5.745   4.083
 8559SOL     OW26575   1.685   3.756   2.374
 8559SOL    HW126576   1.670   3.672   2.425
 8559SOL    HW226577   1.771   3.798   2.404
 8560SOL     OW26578   3.430   4.241   1.245
 8560SOL    HW126579   3.356   4.305   1.269
 8560SOL    HW226580   3.400   4.148   1.262
 8561SOL     OW26581   3.840   0.355   2.723
 8561SOL    HW126582   3.799   0.360   2.632
 8561SOL    HW226583   3.824   0.441   2.771
 8562SOL     OW26584   5.640   2.600   6.810
 8562SOL    HW126585   5.679   2.524   6.758
 8562SOL    HW226586   5.566   2.566   6.868
 8563SOL     OW26587   2.539   5.099   2.991
 8563SOL    HW126588   2.497   5.011   2.971
 8563SOL    HW226589   2.469   5.171   2.987
 8564SOL     OW26590   4.035   6.668   0.875
 8564SOL    HW126591   3.944   6.634   0.896
 8564SOL    HW226592   4.038   6.700   0.780
 8565SOL     OW26593   1.319   4.697   1.398
 8565SOL    HW126594   1.300   4.727   1.304
 8565SOL    HW226595   1.235   4.659   1.438
 8566SOL     OW26596   3.225   0.391   2.768
 8566SOL    HW126597   3.293   0.379   2.840
 8566SOL    HW226598   3.144   0.434   2.806
 8567SOL     OW26599   1.704   2.469   2.329
 8567SOL    HW126600   1.786   2.484   2.384
 8567SOL    HW226601   1.697   2.372   2.305
 8568SOL     OW26602   6.175   0.932   5.987
 8568SOL    HW126603   6.161   0.833   5.976
 8568SOL    HW226604   6.151   0.979   5.902
 8569SOL     OW26605   4.960   2.243   0.588
 8569SOL    HW126606   4.943   2.145   0.599
 8569SOL    HW226607   4.941   2.290   0.675
 8570SOL     OW26608   2.315   1.993   2.583
 8570SOL    HW126609   2.354   1.933   2.653
 8570SOL    HW226610   2.366   1.982   2.497
 8571SOL     OW26611   1.730   0.588   3.076
 8571SOL    HW126612   1.808   0.651   3.081
 8571SOL    HW226613   1.677   0.597   3.160
 8572SOL     OW26614   2.647   4.048   5.991
 8572SOL    HW126615   2.568   4.041   6.053
 8572SOL    HW226616   2.621   4.100   5.910
 8573SOL     OW26617   2.586   6.153   6.340
 8573SOL    HW126618   2.519   6.220   6.309
 8573SOL    HW226619   2.678   6.193   6.335
 8574SOL     OW26620   4.812   0.804   5.579
 8574SOL    HW126621   4.897   0.763   5.545
 8574SOL    HW226622   4.770   0.859   5.507
 8575SOL     OW26623   3.396   6.136   4.078
 8575SOL    HW126624   3.347   6.053   4.105
 8575SOL    HW226625   3.477   6.148   4.135
 8576SOL     OW26626   1.884   4.655   3.686
 8576SOL    HW126627   1.885   4.753   3.666
 8576SOL    HW226628   1.978   4.622   3.693
 8577SOL     OW26629   1.318   0.870   0.487
 8577SOL    HW126630   1.392   0.815   0.449
 8577SOL    HW226631   1.274   0.921   0.413
 8578SOL     OW26632   1.364   6.878   6.423
 8578SOL    HW126633   1.368   6.920   6.513
 8578SOL    HW226634   1.452   6.836   6.402
 8579SOL     OW26635   3.255   6.751   2.490
 8579SOL    HW126636   3.223   6.791   2.404
 8579SOL    HW226637   3.348   6.716   2.477
 8580SOL     OW26638   1.504   0.542   1.954
 8580SOL    HW126639   1.514   0.570   1.859
 8580SOL    HW226640   1.536   0.616   2.014
 8581SOL     OW26641   3.651   4.289   1.430
 8581SOL    HW126642   3.590   4.303   1.352
 8581SOL    HW226643   3.620   4.345   1.507
 8582SOL     OW26644   4.350   5.175   5.761
 8582SOL    HW126645   4.384   5.083   5.741
 8582SOL    HW226646   4.384   5.204   5.850
 8583SOL     OW26647   3.425   6.603   2.833
 8583SOL    HW126648   3.495   6.531   2.821
 8583SOL    HW226649   3.453   6.684   2.781
 8584SOL     OW26650   6.292   1.451   4.509
 8584SOL    HW126651   6.257   1.527   4.453
 8584SOL    HW226652   6.257   1.365   4.473
 8585SOL     OW26653   5.121   2.696   2.673
 8585SOL    HW126654   5.209   2.691   2.627
 8585SOL    HW226655   5.096   2.793   2.686
 8586SOL     OW26656   6.161   5.884   6.043
 8586SOL    HW126657   6.165   5.801   5.987
 8586SOL    HW226658   6.089   5.944   6.008
 8587SOL     OW26659   6.951   1.221   6.822
 8587SOL    HW126660   6.955   1.320   6.830
 8587SOL    HW226661   0.002   1.179   6.873
 8588SOL     OW26662   1.973   0.986   5.246
 8588SOL    HW126663   1.916   1.066   5.266
 8588SOL    HW226664   1.915   0.914   5.209
 8589SOL     OW26665   5.447   2.880   6.894
 8589SOL    HW126666   5.481   2.804   6.838
 8589SOL    HW226667   5.524   2.939   6.920
 8590SOL     OW26668   0.650   1.341   3.983
 8590SOL    HW126669   0.726   1.398   3.952
 8590SOL    HW226670   0.564   1.391   3.971
 8591SOL     OW26671   0.064   4.346   5.419
 8591SOL    HW126672   0.113   4.261   5.440
 8591SOL    HW226673   7.009   4.325   5.361
 8592SOL     OW26674   0.120   1.906   3.939
 8592SOL    HW126675   0.127   1.967   4.018
 8592SOL    HW226676   0.204   1.911   3.885
 8593SOL     OW26677   5.748   1.093   6.818
 8593SOL    HW126678   5.701   1.094   6.730
 8593SOL    HW226679   5.842   1.126   6.806
 8594SOL     OW26680   5.867   3.927   6.064
 8594SOL    HW126681   5.868   3.871   5.982
 8594SOL    HW226682   5.961   3.951   6.089
 8595SOL     OW26683   5.591   6.257   3.243
 8595SOL    HW126684   5.628   6.227   3.331
 8595SOL    HW226685   5.584   6.178   3.182
 8596SOL     OW26686   0.797   1.758   4.648
 8596SOL    HW126687   0.742   1.675   4.639
 8596SOL    HW226688   0.777   1.802   4.735
 8597SOL     OW26689   6.070   3.018   6.309
 8597SOL    HW126690   6.103   3.111   6.324
 8597SOL    HW226691   5.977   3.022   6.271
 8598SOL     OW26692   6.598   0.475   4.915
 8598SOL    HW126693   6.679   0.526   4.943
 8598SOL    HW226694   6.614   0.377   4.929
 8599SOL     OW26695   6.494   3.543   4.723
 8599SOL    HW126696   6.451   3.463   4.765
 8599SOL    HW226697   6.547   3.592   4.792
 8600SOL     OW26698   4.487   2.598   1.419
 8600SOL    HW126699   4.476   2.562   1.326
 8600SOL    HW226700   4.523   2.691   1.416
 8601SOL     OW26701   6.635   5.916   3.588
 8601SOL    HW126702   6.596   6.007   3.606
 8601SOL    HW226703   6.730   5.926   3.559
 8602SOL     OW26704   2.000   6.683   5.356
 8602SOL    HW126705   2.043   6.596   5.330
 8602SOL    HW226706   2.056   6.729   5.425
 8603SOL     OW26707   0.259   0.476   6.657
 8603SOL    HW126708   0.347   0.432   6.674
 8603SOL    HW226709   0.211   0.427   6.584
 8604SOL     OW26710   2.048   5.127   6.114
 8604SOL    HW126711   2.037   5.141   6.212
 8604SOL    HW226712   2.107   5.049   6.097
 8605SOL     OW26713   0.299   5.385   4.184
 8605SOL    HW126714   0.200   5.377   4.178
 8605SOL    HW226715   0.341   5.345   4.103
 8606SOL     OW26716   1.551   1.408   0.074
 8606SOL    HW126717   1.486   1.438   0.005
 8606SOL    HW226718   1.509   1.337   0.130
 8607SOL     OW26719   2.234   3.643   1.144
 8607SOL    HW126720   2.215   3.546   1.157
 8607SOL    HW226721   2.318   3.654   1.091
 8608SOL     OW26722   1.817   5.825   2.701
 8608SOL    HW126723   1.852   5.906   2.749
 8608SOL    HW226724   1.837   5.833   2.603
 8609SOL     OW26725   4.835   1.993   4.460
 8609SOL    HW126726   4.766   2.054   4.499
 8609SOL    HW226727   4.890   2.042   4.394
 8610SOL     OW26728   0.415   5.920   3.312
 8610SOL    HW126729   0.482   5.957   3.247
 8610SOL    HW226730   0.323   5.949   3.286
 8611SOL     OW26731   2.095   1.633   4.959
 8611SOL    HW126732   2.166   1.609   5.025
 8611SOL    HW226733   2.132   1.698   4.893
 8612SOL     OW26734   3.167   3.006   4.315
 8612SOL    HW126735   3.183   2.972   4.223
 8612SOL    HW226736   3.230   2.962   4.379
 8613SOL     OW26737   3.866   2.990   2.952
 8613SOL    HW126738   3.817   2.958   2.871
 8613SOL    HW226739   3.808   3.053   3.003
 8614SOL     OW26740   0.664   2.457   3.309
 8614SOL    HW126741   0.722   2.446   3.228
 8614SOL    HW226742   0.702   2.528   3.368
 8615SOL     OW26743   3.416   2.243   5.617
 8615SOL    HW126744   3.344   2.176   5.601
 8615SOL    HW226745   3.450   2.277   5.529
 8616SOL     OW26746   5.703   3.978   4.433
 8616SOL    HW126747   5.629   4.015   4.376
 8616SOL    HW226748   5.780   4.042   4.434
 8617SOL     OW26749   2.014   0.087   3.158
 8617SOL    HW126750   2.106   0.051   3.141
 8617SOL    HW226751   2.001   0.172   3.107
 8618SOL     OW26752   5.528   4.022   1.124
 8618SOL    HW126753   5.448   3.974   1.088
 8618SOL    HW226754   5.590   4.043   1.049
 8619SOL     OW26755   5.519   5.837   0.537
 8619SOL    HW126756   5.521   5.905   0.463
 8619SOL    HW226757   5.589   5.768   0.521
 8620SOL     OW26758   2.072   6.973   4.477
 8620SOL    HW126759   1.997   7.015   4.528
 8620SOL    HW226760   2.148   6.954   4.540
 8621SOL     OW26761   5.703   3.395   1.405
 8621SOL    HW126762   5.727   3.492   1.399
 8621SOL    HW226763   5.610   3.387   1.441
 8622SOL     OW26764   0.504   5.369   2.517
 8622SOL    HW126765   0.469   5.373   2.610
 8622SOL    HW226766   0.494   5.459   2.473
 8623SOL     OW26767   2.063   2.632   4.155
 8623SOL    HW126768   2.023   2.599   4.070
 8623SOL    HW226769   2.151   2.676   4.137
 8624SOL     OW26770   3.352   3.794   4.661
 8624SOL    HW126771   3.348   3.849   4.744
 8624SOL    HW226772   3.262   3.754   4.643
 8625SOL     OW26773   3.849   3.087   5.745
 8625SOL    HW126774   3.846   3.020   5.818
 8625SOL    HW226775   3.939   3.085   5.700
 8626SOL     OW26776   4.237   2.261   1.641
 8626SOL    HW126777   4.267   2.196   1.711
 8626SOL    HW226778   4.262   2.354   1.669
 8627SOL     OW26779   1.961   1.279   2.359
 8627SOL    HW126780   2.004   1.321   2.439
 8627SOL    HW226781   2.018   1.204   2.327
 8628SOL     OW26782   0.862   6.730   1.023
 8628SOL    HW126783   0.776   6.773   0.996
 8628SOL    HW226784   0.939   6.780   0.982
 8629SOL     OW26785   0.488   6.763   4.758
 8629SOL    HW126786   0.562   6.719   4.810
 8629SOL    HW226787   0.405   6.707   4.765
 8630SOL     OW26788   4.962   2.470   2.535
 8630SOL    HW126789   4.892   2.399   2.535
 8630SOL    HW226790   4.919   2.560   2.534
 8631SOL     OW26791   2.342   6.072   6.149
 8631SOL    HW126792   2.324   5.976   6.171
 8631SOL    HW226793   2.347   6.124   6.234
 8632SOL     OW26794   5.680   5.965   4.158
 8632SOL    HW126795   5.774   5.982   4.188
 8632SOL    HW226796   5.639   5.896   4.218
 8633SOL     OW26797   5.931   3.408   4.973
 8633SOL    HW126798   6.005   3.457   5.016
 8633SOL    HW226799   5.905   3.454   4.888
 8634SOL     OW26800   5.008   4.170   7.005
 8634SOL    HW126801   5.001   4.258   0.029
 8634SOL    HW226802   4.918   4.126   7.003
 8635SOL     OW26803   5.266   2.392   6.604
 8635SOL    HW126804   5.348   2.349   6.566
 8635SOL    HW226805   5.234   2.463   6.543
 8636SOL     OW26806   4.504   6.499   1.377
 8636SOL    HW126807   4.444   6.559   1.429
 8636SOL    HW226808   4.450   6.429   1.330
 8637SOL     OW26809   2.003   1.992   6.108
 8637SOL    HW126810   1.984   2.005   6.010
 8637SOL    HW226811   2.065   2.064   6.140
 8638SOL     OW26812   4.784   2.951   3.824
 8638SOL    HW126813   4.869   2.897   3.831
 8638SOL    HW226814   4.806   3.043   3.791
 8639SOL     OW26815   3.353   3.766   6.847
 8639SOL    HW126816   3.414   3.705   6.897
 8639SOL    HW226817   3.340   3.851   6.898
 8640SOL     OW26818   3.473   2.614   0.623
 8640SOL    HW126819   3.385   2.594   0.665
 8640SOL    HW226820   3.458   2.665   0.538
 8641SOL     OW26821   3.938   4.844   2.460
 8641SOL    HW126822   3.949   4.745   2.454
 8641SOL    HW226823   4.004   4.881   2.526
 8642SOL     OW26824   1.328   5.758   2.882
 8642SOL    HW126825   1.341   5.796   2.790
 8642SOL    HW226826   1.292   5.829   2.942
 8643SOL     OW26827   4.029   6.974   1.223
 8643SOL    HW126828   4.119   6.996   1.186
 8643SOL    HW226829   3.970   0.031   1.218
 8644SOL     OW26830   6.408   2.391   6.207
 8644SOL    HW126831   6.506   2.404   6.221
 8644SOL    HW226832   6.365   2.479   6.190
 8645SOL     OW26833   6.276   5.842   3.089
 8645SOL    HW126834   6.346   5.891   3.037
 8645SOL    HW226835   6.206   5.808   3.027
 8646SOL     OW26836   6.831   2.287   5.133
 8646SOL    HW126837   6.910   2.346   5.148
 8646SOL    HW226838   6.845   2.199   5.179
 8647SOL     OW26839   2.129   5.425   1.774
 8647SOL    HW126840   2.129   5.404   1.676
 8647SOL    HW226841   2.060   5.495   1.793
 8648SOL     OW26842   5.170   5.378   0.173
 8648SOL    HW126843   5.219   5.293   0.189
 8648SOL    HW226844   5.198   5.417   0.085
 8649SOL     OW26845   5.452   1.265   0.912
 8649SOL    HW126846   5.438   1.359   0.942
 8649SOL    HW226847   5.394   1.204   0.965
 8650SOL     OW26848   2.007   0.189   5.585
 8650SOL    HW126849   2.092   0.138   5.599
 8650SOL    HW226850   1.969   0.166   5.495
 8651SOL     OW26851   3.845   2.526   1.514
 8651SOL    HW126852   3.805   2.511   1.605
 8651SOL    HW226853   3.932   2.573   1.523
 8652SOL     OW26854   0.689   2.688   3.452
 8652SOL    HW126855   0.770   2.741   3.426
 8652SOL    HW226856   0.607   2.743   3.437
 8653SOL     OW26857   5.974   1.637   6.220
 8653SOL    HW126858   5.962   1.538   6.215
 8653SOL    HW226859   5.933   1.671   6.305
 8654SOL     OW26860   0.556   4.230   2.790
 8654SOL    HW126861   0.535   4.267   2.881
 8654SOL    HW226862   0.562   4.130   2.796
 8655SOL     OW26863   0.891   0.339   4.801
 8655SOL    HW126864   0.818   0.337   4.869
 8655SOL    HW226865   0.854   0.364   4.712
 8656SOL     OW26866   5.461   6.816   1.313
 8656SOL    HW126867   5.419   6.839   1.226
 8656SOL    HW226868   5.514   6.732   1.304
 8657SOL     OW26869   3.109   1.982   3.529
 8657SOL    HW126870   3.209   1.979   3.529
 8657SOL    HW226871   3.077   2.040   3.604
 8658SOL     OW26872   5.967   4.782   1.809
 8658SOL    HW126873   5.895   4.720   1.776
 8658SOL    HW226874   5.980   4.856   1.743
 8659SOL     OW26875   3.495   0.899   2.412
 8659SOL    HW126876   3.517   0.859   2.501
 8659SOL    HW226877   3.484   0.998   2.421
 8660SOL     OW26878   0.492   4.904   1.805
 8660SOL    HW126879   0.589   4.883   1.817
 8660SOL    HW226880   0.482   5.001   1.786
 8661SOL     OW26881   0.030   3.811   2.461
 8661SOL    HW126882   0.067   3.804   2.554
 8661SOL    HW226883   7.023   3.721   2.431
 8662SOL     OW26884   1.597   2.714   3.026
 8662SOL    HW126885   1.572   2.686   2.934
 8662SOL    HW226886   1.543   2.662   3.093
 8663SOL     OW26887   3.685   4.864   2.589
 8663SOL    HW126888   3.611   4.801   2.569
 8663SOL    HW226889   3.763   4.846   2.529
 8664SOL     OW26890   4.054   6.154   3.397
 8664SOL    HW126891   4.087   6.245   3.422
 8664SOL    HW226892   4.037   6.101   3.480
 8665SOL     OW26893   4.719   3.875   6.659
 8665SOL    HW126894   4.684   3.951   6.603
 8665SOL    HW226895   4.819   3.878   6.659
 8666SOL     OW26896   4.504   0.089   2.912
 8666SOL    HW126897   4.506   0.006   2.968
 8666SOL    HW226898   4.582   0.089   2.849
 8667SOL     OW26899   5.253   2.178   2.592
 8667SOL    HW126900   5.239   2.193   2.690
 8667SOL    HW226901   5.219   2.257   2.541
 8668SOL     OW26902   4.966   2.505   4.835
 8668SOL    HW126903   5.028   2.447   4.888
 8668SOL    HW226904   4.891   2.449   4.799
 8669SOL     OW26905   6.323   6.465   5.967
 8669SOL    HW126906   6.387   6.393   5.942
 8669SOL    HW226907   6.229   6.435   5.950
 8670SOL     OW26908   6.544   4.839   5.455
 8670SOL    HW126909   6.578   4.749   5.483
 8670SOL    HW226910   6.607   4.909   5.488
 8671SOL     OW26911   6.862   3.327   3.020
 8671SOL    HW126912   6.764   3.312   3.037
 8671SOL    HW226913   6.890   3.274   2.940
 8672SOL     OW26914   0.124   1.573   2.401
 8672SOL    HW126915   0.052   1.504   2.392
 8672SOL    HW226916   0.090   1.661   2.366
 8673SOL     OW26917   1.170   1.731   0.906
 8673SOL    HW126918   1.089   1.744   0.962
 8673SOL    HW226919   1.194   1.816   0.860
 8674SOL     OW26920   6.931   3.914   2.883
 8674SOL    HW126921   6.924   4.004   2.840
 8674SOL    HW226922   0.003   3.890   2.896
 8675SOL     OW26923   4.275   2.291   4.874
 8675SOL    HW126924   4.302   2.205   4.916
 8675SOL    HW226925   4.239   2.353   4.945
 8676SOL     OW26926   5.200   2.006   1.110
 8676SOL    HW126927   5.175   2.075   1.042
 8676SOL    HW226928   5.119   1.981   1.163
 8677SOL     OW26929   2.140   0.305   6.397
 8677SOL    HW126930   2.181   0.300   6.306
 8677SOL    HW226931   2.213   0.322   6.465
 8678SOL     OW26932   2.451   2.587   0.252
 8678SOL    HW126933   2.355   2.601   0.275
 8678SOL    HW226934   2.506   2.661   0.290
 8679SOL     OW26935   1.251   1.416   6.552
 8679SOL    HW126936   1.273   1.444   6.459
 8679SOL    HW226937   1.320   1.351   6.584
 8680SOL     OW26938   6.997   0.424   0.417
 8680SOL    HW126939   6.977   0.512   0.459
 8680SOL    HW226940   0.070   0.401   0.434
 8681SOL     OW26941   4.708   5.166   1.195
 8681SOL    HW126942   4.785   5.171   1.258
 8681SOL    HW226943   4.649   5.088   1.219
 8682SOL     OW26944   2.100   0.746   2.457
 8682SOL    HW126945   2.199   0.762   2.450
 8682SOL    HW226946   2.071   0.685   2.383
 8683SOL     OW26947   2.421   4.438   4.360
 8683SOL    HW126948   2.367   4.354   4.367
 8683SOL    HW226949   2.401   4.484   4.274
 8684SOL     OW26950   2.497   4.486   3.518
 8684SOL    HW126951   2.451   4.399   3.538
 8684SOL    HW226952   2.492   4.505   3.420
 8685SOL     OW26953   4.888   2.902   4.532
 8685SOL    HW126954   4.837   2.939   4.454
 8685SOL    HW226955   4.842   2.926   4.617
 8686SOL     OW26956   1.303   5.476   3.507
 8686SOL    HW126957   1.309   5.496   3.605
 8686SOL    HW226958   1.317   5.378   3.493
 8687SOL     OW26959   5.781   4.957   4.963
 8687SOL    HW126960   5.764   4.891   4.890
 8687SOL    HW226961   5.736   5.044   4.941
 8688SOL     OW26962   1.355   3.884   5.366
 8688SOL    HW126963   1.344   3.785   5.372
 8688SOL    HW226964   1.434   3.913   5.420
 8689SOL     OW26965   4.043   3.196   0.648
 8689SOL    HW126966   4.076   3.288   0.625
 8689SOL    HW226967   4.103   3.128   0.604
 8690SOL     OW26968   1.660   1.757   2.343
 8690SOL    HW126969   1.714   1.676   2.321
 8690SOL    HW226970   1.688   1.833   2.284
 8691SOL     OW26971   3.479   2.598   5.903
 8691SOL    HW126972   3.548   2.588   5.832
 8691SOL    HW226973   3.401   2.650   5.868
 8692SOL     OW26974   4.680   2.788   4.290
 8692SOL    HW126975   4.705   2.715   4.227
 8692SOL    HW226976   4.718   2.875   4.258
 8693SOL     OW26977   6.256   6.812   5.488
 8693SOL    HW126978   6.209   6.768   5.411
 8693SOL    HW226979   6.280   6.906   5.462
 8694SOL     OW26980   5.092   2.833   5.492
 8694SOL    HW126981   5.174   2.879   5.526
 8694SOL    HW226982   5.101   2.817   5.394
 8695SOL     OW26983   3.367   5.269   1.272
 8695SOL    HW126984   3.420   5.211   1.209
 8695SOL    HW226985   3.396   5.251   1.366
 8696SOL     OW26986   2.652   5.608   5.899
 8696SOL    HW126987   2.670   5.626   5.996
 8696SOL    HW226988   2.594   5.527   5.891
 8697SOL     OW26989   1.062   4.000   5.382
 8697SOL    HW126990   1.137   3.935   5.382
 8697SOL    HW226991   1.094   4.089   5.348
 8698SOL     OW26992   4.465   5.109   6.617
 8698SOL    HW126993   4.397   5.038   6.637
 8698SOL    HW226994   4.443   5.151   6.529
 8699SOL     OW26995   1.937   2.348   0.193
 8699SOL    HW126996   1.925   2.403   0.276
 8699SOL    HW226997   1.850   2.307   0.166
 8700SOL     OW26998   0.845   1.401   4.497
 8700SOL    HW126999   0.779   1.361   4.433
 8700SOL    HW227000   0.896   1.327   4.542
 8701SOL     OW27001   1.089   2.870   6.723
 8701SOL    HW127002   1.068   2.814   6.643
 8701SOL    HW227003   1.057   2.964   6.708
 8702SOL     OW27004   5.725   4.428   1.188
 8702SOL    HW127005   5.769   4.430   1.098
 8702SOL    HW227006   5.643   4.370   1.184
 8703SOL     OW27007   3.031   6.132   1.245
 8703SOL    HW127008   3.026   6.144   1.145
 8703SOL    HW227009   3.022   6.221   1.289
 8704SOL     OW27010   0.312   1.387   4.946
 8704SOL    HW127011   0.315   1.487   4.943
 8704SOL    HW227012   0.217   1.356   4.936
 8705SOL     OW27013   3.906   2.332   6.827
 8705SOL    HW127014   3.819   2.376   6.849
 8705SOL    HW227015   3.977   2.366   6.889
 8706SOL     OW27016   4.721   2.379   6.654
 8706SOL    HW127017   4.805   2.383   6.709
 8706SOL    HW227018   4.742   2.340   6.564
 8707SOL     OW27019   2.057   0.802   4.233
 8707SOL    HW127020   2.075   0.762   4.323
 8707SOL    HW227021   1.959   0.799   4.215
 8708SOL     OW27022   6.173   2.249   0.722
 8708SOL    HW127023   6.086   2.203   0.700
 8708SOL    HW227024   6.191   2.241   0.820
 8709SOL     OW27025   6.152   6.655   4.494
 8709SOL    HW127026   6.063   6.631   4.532
 8709SOL    HW227027   6.213   6.685   4.568
 8710SOL     OW27028   1.943   1.747   3.426
 8710SOL    HW127029   1.998   1.829   3.445
 8710SOL    HW227030   1.955   1.681   3.500
 8711SOL     OW27031   1.609   1.255   1.685
 8711SOL    HW127032   1.515   1.270   1.715
 8711SOL    HW227033   1.620   1.159   1.657
 8712SOL     OW27034   1.319   4.438   4.448
 8712SOL    HW127035   1.378   4.427   4.368
 8712SOL    HW227036   1.359   4.505   4.510
 8713SOL     OW27037   0.353   3.098   1.678
 8713SOL    HW127038   0.329   3.117   1.583
 8713SOL    HW227039   0.441   3.051   1.681
 8714SOL     OW27040   6.276   4.086   6.489
 8714SOL    HW127041   6.252   4.138   6.407
 8714SOL    HW227042   6.313   4.148   6.559
 8715SOL     OW27043   1.868   4.529   1.702
 8715SOL    HW127044   1.898   4.459   1.638
 8715SOL    HW227045   1.945   4.558   1.759
 8716SOL     OW27046   6.927   0.481   2.381
 8716SOL    HW127047   6.940   0.575   2.413
 8716SOL    HW227048   6.933   0.418   2.458
 8717SOL     OW27049   2.944   2.920   0.203
 8717SOL    HW127050   3.038   2.887   0.215
 8717SOL    HW227051   2.887   2.847   0.166
 8718SOL     OW27052   2.830   5.285   6.415
 8718SOL    HW127053   2.781   5.331   6.340
 8718SOL    HW227054   2.767   5.224   6.462
 8719SOL     OW27055   3.602   1.507   4.797
 8719SOL    HW127056   3.687   1.485   4.846
 8719SOL    HW227057   3.526   1.506   4.861
 8720SOL     OW27058   1.190   5.643   4.832
 8720SOL    HW127059   1.213   5.546   4.838
 8720SOL    HW227060   1.091   5.654   4.838
 8721SOL     OW27061   0.531   6.910   0.527
 8721SOL    HW127062   0.490   6.980   0.470
 8721SOL    HW227063   0.562   6.950   0.613
 8722SOL     OW27064   3.080   0.956   0.944
 8722SOL    HW127065   2.988   0.941   0.980
 8722SOL    HW227066   3.122   1.034   0.990
 8723SOL     OW27067   4.515   7.018   1.865
 8723SOL    HW127068   4.530   0.008   1.767
 8723SOL    HW227069   4.481   6.925   1.881
 8724SOL     OW27070   3.752   1.630   5.134
 8724SOL    HW127071   3.809   1.554   5.105
 8724SOL    HW227072   3.716   1.612   5.226
 8725SOL     OW27073   6.835   0.205   2.983
 8725SOL    HW127074   6.747   0.237   3.020
 8725SOL    HW227075   6.842   0.106   2.995
 8726SOL     OW27076   6.244   0.918   1.099
 8726SOL    HW127077   6.292   0.990   1.049
 8726SOL    HW227078   6.310   0.851   1.134
 8727SOL     OW27079   5.428   5.970   0.030
 8727SOL    HW127080   5.436   5.872   0.046
 8727SOL    HW227081   5.516   6.006   7.022
 8728SOL     OW27082   6.334   0.143   4.902
 8728SOL    HW127083   6.323   0.119   4.998
 8728SOL    HW227084   6.283   0.078   4.846
 8729SOL     OW27085   5.619   5.619   6.342
 8729SOL    HW127086   5.665   5.638   6.428
 8729SOL    HW227087   5.520   5.616   6.356
 8730SOL     OW27088   4.311   4.891   1.661
 8730SOL    HW127089   4.332   4.881   1.564
 8730SOL    HW227090   4.212   4.898   1.673
 8731SOL     OW27091   6.864   1.594   3.891
 8731SOL    HW127092   6.859   1.638   3.981
 8731SOL    HW227093   6.930   1.519   3.894
 8732SOL     OW27094   4.891   6.486   5.905
 8732SOL    HW127095   4.892   6.463   6.002
 8732SOL    HW227096   4.844   6.415   5.853
 8733SOL     OW27097   6.311   4.906   2.275
 8733SOL    HW127098   6.221   4.922   2.317
 8733SOL    HW227099   6.319   4.809   2.251
 8734SOL     OW27100   0.962   4.457   0.912
 8734SOL    HW127101   1.050   4.419   0.883
 8734SOL    HW227102   0.959   4.460   1.012
 8735SOL     OW27103   1.300   3.058   5.449
 8735SOL    HW127104   1.379   3.094   5.399
 8735SOL    HW227105   1.227   3.038   5.385
 8736SOL     OW27106   1.365   5.975   3.286
 8736SOL    HW127107   1.355   5.883   3.324
 8736SOL    HW227108   1.458   6.008   3.304
 8737SOL     OW27109   0.621   5.734   0.125
 8737SOL    HW127110   0.650   5.822   0.163
 8737SOL    HW227111   0.679   5.661   0.162
 8738SOL     OW27112   1.629   2.820   2.482
 8738SOL    HW127113   1.626   2.817   2.382
 8738SOL    HW227114   1.718   2.853   2.512
 8739SOL     OW27115   5.941   5.045   4.015
 8739SOL    HW127116   5.926   5.070   3.920
 8739SOL    HW227117   5.964   5.127   4.068
 8740SOL     OW27118   3.347   1.586   3.985
 8740SOL    HW127119   3.374   1.647   4.060
 8740SOL    HW227120   3.418   1.587   3.915
 8741SOL     OW27121   1.282   1.702   2.690
 8741SOL    HW127122   1.353   1.681   2.623
 8741SOL    HW227123   1.255   1.798   2.682
 8742SOL     OW27124   2.668   2.620   1.722
 8742SOL    HW127125   2.730   2.565   1.778
 8742SOL    HW227126   2.710   2.639   1.634
 8743SOL     OW27127   0.698   3.107   1.049
 8743SOL    HW127128   0.747   3.103   1.136
 8743SOL    HW227129   0.731   3.185   0.996
 8744SOL     OW27130   3.609   4.171   5.810
 8744SOL    HW127131   3.632   4.207   5.901
 8744SOL    HW227132   3.584   4.075   5.817
 8745SOL     OW27133   5.964   1.351   6.204
 8745SOL    HW127134   5.922   1.276   6.256
 8745SOL    HW227135   6.062   1.332   6.191
 8746SOL     OW27136   4.186   4.888   5.237
 8746SOL    HW127137   4.131   4.812   5.273
 8746SOL    HW227138   4.262   4.907   5.299
 8747SOL     OW27139   1.367   0.597   2.984
 8747SOL    HW127140   1.350   0.621   3.079
 8747SOL    HW227141   1.388   0.680   2.932
 8748SOL     OW27142   5.612   1.800   4.519
 8748SOL    HW127143   5.593   1.729   4.451
 8748SOL    HW227144   5.526   1.841   4.549
 8749SOL     OW27145   2.767   1.196   4.284
 8749SOL    HW127146   2.803   1.283   4.318
 8749SOL    HW227147   2.803   1.179   4.193
 8750SOL     OW27148   3.893   3.741   1.087
 8750SOL    HW127149   3.980   3.710   1.049
 8750SOL    HW227150   3.845   3.664   1.127
 8751SOL     OW27151   2.806   0.035   0.248
 8751SOL    HW127152   2.904   0.025   0.232
 8751SOL    HW227153   2.778   6.995   0.320
 8752SOL     OW27154   6.866   2.830   5.637
 8752SOL    HW127155   6.786   2.864   5.687
 8752SOL    HW227156   6.928   2.785   5.700
 8753SOL     OW27157   2.140   1.981   0.528
 8753SOL    HW127158   2.069   2.036   0.485
 8753SOL    HW227159   2.103   1.891   0.550
 8754SOL     OW27160   0.875   5.899   6.525
 8754SOL    HW127161   0.948   5.901   6.592
 8754SOL    HW227162   0.907   5.855   6.441
 8755SOL     OW27163   0.625   2.751   1.491
 8755SOL    HW127164   0.604   2.745   1.589
 8755SOL    HW227165   0.722   2.773   1.480
 8756SOL     OW27166   1.455   1.577   2.168
 8756SOL    HW127167   1.501   1.595   2.255
 8756SOL    HW227168   1.384   1.508   2.181
 8757SOL     OW27169   5.549   6.704   5.630
 8757SOL    HW127170   5.586   6.797   5.635
 8757SOL    HW227171   5.451   6.706   5.649
 8758SOL     OW27172   3.808   5.545   5.703
 8758SOL    HW127173   3.802   5.505   5.612
 8758SOL    HW227174   3.864   5.628   5.699
 8759SOL     OW27175   6.109   1.320   1.877
 8759SOL    HW127176   6.169   1.378   1.821
 8759SOL    HW227177   6.015   1.327   1.843
 8760SOL     OW27178   2.583   2.300   4.116
 8760SOL    HW127179   2.576   2.353   4.201
 8760SOL    HW227180   2.621   2.210   4.135
 8761SOL     OW27181   4.770   1.927   3.069
 8761SOL    HW127182   4.773   1.997   3.140
 8761SOL    HW227183   4.675   1.906   3.047
 8762SOL     OW27184   4.068   5.709   3.106
 8762SOL    HW127185   4.035   5.790   3.155
 8762SOL    HW227186   4.109   5.645   3.172
 8763SOL     OW27187   0.206   0.996   6.192
 8763SOL    HW127188   0.194   1.062   6.266
 8763SOL    HW227189   0.298   0.958   6.197
 8764SOL     OW27190   3.596   4.982   5.955
 8764SOL    HW127191   3.583   4.900   6.011
 8764SOL    HW227192   3.538   4.977   5.874
 8765SOL     OW27193   4.164   6.808   3.585
 8765SOL    HW127194   4.235   6.759   3.533
 8765SOL    HW227195   4.164   6.904   3.559
 8766SOL     OW27196   5.482   6.699   5.007
 8766SOL    HW127197   5.519   6.639   4.936
 8766SOL    HW227198   5.456   6.645   5.087
 8767SOL     OW27199   1.701   1.640   3.672
 8767SOL    HW127200   1.678   1.614   3.578
 8767SOL    HW227201   1.795   1.611   3.693
 8768SOL     OW27202   0.261   1.829   0.247
 8768SOL    HW127203   0.182   1.782   0.285
 8768SOL    HW227204   0.344   1.775   0.267
 8769SOL     OW27205   6.203   6.965   6.265
 8769SOL    HW127206   6.263   6.997   6.338
 8769SOL    HW227207   6.108   6.964   6.298
 8770SOL     OW27208   5.030   2.038   0.270
 8770SOL    HW127209   5.039   2.108   0.198
 8770SOL    HW227210   5.118   2.028   0.316
 8771SOL     OW27211   0.798   3.018   6.304
 8771SOL    HW127212   0.769   3.088   6.370
 8771SOL    HW227213   0.768   2.928   6.335
 8772SOL     OW27214   0.187   0.198   3.998
 8772SOL    HW127215   0.286   0.192   3.985
 8772SOL    HW227216   0.151   0.275   3.945
 8773SOL     OW27217   0.384   1.459   3.729
 8773SOL    HW127218   0.385   1.492   3.824
 8773SOL    HW227219   0.383   1.538   3.667
 8774SOL     OW27220   1.307   1.828   0.116
 8774SOL    HW127221   1.399   1.793   0.132
 8774SOL    HW227222   1.283   1.816   0.019
 8775SOL     OW27223   5.233   2.468   3.389
 8775SOL    HW127224   5.153   2.510   3.347
 8775SOL    HW227225   5.315   2.494   3.338
 8776SOL     OW27226   4.561   2.767   1.130
 8776SOL    HW127227   4.513   2.689   1.170
 8776SOL    HW227228   4.643   2.786   1.183
 8777SOL     OW27229   6.628   1.927   3.859
 8777SOL    HW127230   6.580   1.970   3.782
 8777SOL    HW227231   6.713   1.885   3.825
 8778SOL     OW27232   3.087   3.890   6.568
 8778SOL    HW127233   3.179   3.851   6.559
 8778SOL    HW227234   3.063   3.939   6.484
 8779SOL     OW27235   3.815   4.851   2.858
 8779SOL    HW127236   3.748   4.819   2.791
 8779SOL    HW227237   3.878   4.915   2.814
 8780SOL     OW27238   0.819   3.714   3.768
 8780SOL    HW127239   0.754   3.682   3.837
 8780SOL    HW227240   0.890   3.768   3.812
 8781SOL     OW27241   2.272   0.820   0.853
 8781SOL    HW127242   2.227   0.901   0.892
 8781SOL    HW227243   2.347   0.850   0.794
 8782SOL     OW27244   5.902   2.592   1.027
 8782SOL    HW127245   5.990   2.595   0.980
 8782SOL    HW227246   5.886   2.500   1.064
 8783SOL     OW27247   4.758   4.054   4.801
 8783SOL    HW127248   4.782   3.993   4.725
 8783SOL    HW227249   4.755   4.149   4.768
 8784SOL     OW27250   4.357   0.667   6.940
 8784SOL    HW127251   4.391   0.596   6.878
 8784SOL    HW227252   4.297   0.729   6.889
 8785SOL     OW27253   7.022   5.153   5.435
 8785SOL    HW127254   6.938   5.191   5.396
 8785SOL    HW227255   0.010   5.187   5.528
 8786SOL     OW27256   5.659   1.757   3.079
 8786SOL    HW127257   5.670   1.661   3.107
 8786SOL    HW227258   5.570   1.769   3.036
 8787SOL     OW27259   3.352   6.098   1.503
 8787SOL    HW127260   3.311   6.007   1.493
 8787SOL    HW227261   3.363   6.140   1.413
 8788SOL     OW27262   0.339   6.533   4.317
 8788SOL    HW127263   0.251   6.582   4.317
 8788SOL    HW227264   0.333   6.452   4.259
 8789SOL     OW27265   1.396   2.142   5.807
 8789SOL    HW127266   1.401   2.066   5.742
 8789SOL    HW227267   1.309   2.190   5.796
 8790SOL     OW27268   4.273   3.019   5.364
 8790SOL    HW127269   4.273   2.957   5.443
 8790SOL    HW227270   4.183   3.019   5.322
 8791SOL     OW27271   3.961   6.531   4.342
 8791SOL    HW127272   3.978   6.474   4.262
 8791SOL    HW227273   3.865   6.559   4.343
 8792SOL     OW27274   5.238   5.407   2.068
 8792SOL    HW127275   5.205   5.318   2.100
 8792SOL    HW227276   5.266   5.463   2.146
 8793SOL     OW27277   6.795   6.125   5.317
 8793SOL    HW127278   6.762   6.160   5.405
 8793SOL    HW227279   6.789   6.197   5.248
 8794SOL     OW27280   0.246   1.515   2.649
 8794SOL    HW127281   0.188   1.533   2.570
 8794SOL    HW227282   0.244   1.418   2.672
 8795SOL     OW27283   1.023   6.418   0.099
 8795SOL    HW127284   0.935   6.379   0.128
 8795SOL    HW227285   1.012   6.462   0.010
 8796SOL     OW27286   5.909   3.511   4.707
 8796SOL    HW127287   5.833   3.446   4.715
 8796SOL    HW227288   5.908   3.551   4.615
 8797SOL     OW27289   4.647   6.711   4.096
 8797SOL    HW127290   4.712   6.659   4.042
 8797SOL    HW227291   4.625   6.660   4.180
 8798SOL     OW27292   2.781   6.211   5.439
 8798SOL    HW127293   2.829   6.255   5.363
 8798SOL    HW227294   2.798   6.112   5.437
 8799SOL     OW27295   1.441   5.937   1.731
 8799SOL    HW127296   1.417   5.841   1.746
 8799SOL    HW227297   1.504   5.967   1.802
 8800SOL     OW27298   6.328   5.952   4.404
 8800SOL    HW127299   6.320   5.854   4.425
 8800SOL    HW227300   6.416   5.971   4.361
 8801SOL     OW27301   5.690   3.514   5.622
 8801SOL    HW127302   5.593   3.493   5.611
 8801SOL    HW227303   5.734   3.518   5.533
 8802SOL     OW27304   1.621   5.803   6.417
 8802SOL    HW127305   1.551   5.748   6.370
 8802SOL    HW227306   1.711   5.779   6.382
 8803SOL     OW27307   5.683   6.270   5.771
 8803SOL    HW127308   5.620   6.260   5.694
 8803SOL    HW227309   5.744   6.190   5.775
 8804SOL     OW27310   1.309   6.415   2.402
 8804SOL    HW127311   1.260   6.405   2.315
 8804SOL    HW227312   1.386   6.351   2.405
 8805SOL     OW27313   5.095   4.850   3.386
 8805SOL    HW127314   5.062   4.935   3.427
 8805SOL    HW227315   5.029   4.817   3.319
 8806SOL     OW27316   0.998   0.516   1.712
 8806SOL    HW127317   1.031   0.550   1.800
 8806SOL    HW227318   1.070   0.463   1.667
 8807SOL     OW27319   5.326   3.026   0.920
 8807SOL    HW127320   5.349   2.985   0.832
 8807SOL    HW227321   5.287   3.117   0.906
 8808SOL     OW27322   1.974   2.334   6.474
 8808SOL    HW127323   2.056   2.309   6.526
 8808SOL    HW227324   1.942   2.254   6.423
 8809SOL     OW27325   6.803   3.567   3.368
 8809SOL    HW127326   6.876   3.529   3.310
 8809SOL    HW227327   6.828   3.660   3.396
 8810SOL     OW27328   0.428   1.848   5.137
 8810SOL    HW127329   0.449   1.843   5.039
 8810SOL    HW227330   0.358   1.780   5.159
 8811SOL     OW27331   4.305   4.647   2.651
 8811SOL    HW127332   4.374   4.693   2.707
 8811SOL    HW227333   4.349   4.605   2.572
 8812SOL     OW27334   4.949   1.322   6.908
 8812SOL    HW127335   4.970   1.326   7.006
 8812SOL    HW227336   4.977   1.407   6.864
 8813SOL     OW27337   2.139   3.395   2.874
 8813SOL    HW127338   2.174   3.385   2.967
 8813SOL    HW227339   2.056   3.340   2.863
 8814SOL     OW27340   4.999   6.950   5.337
 8814SOL    HW127341   5.075   6.915   5.282
 8814SOL    HW227342   5.024   6.945   5.434
 8815SOL     OW27343   5.362   0.974   1.044
 8815SOL    HW127344   5.307   0.892   1.062
 8815SOL    HW227345   5.455   0.960   1.078
 8816SOL     OW27346   0.947   6.764   3.997
 8816SOL    HW127347   1.029   6.791   4.047
 8816SOL    HW227348   0.870   6.759   4.059
 8817SOL     OW27349   1.074   2.606   3.006
 8817SOL    HW127350   1.010   2.650   3.069
 8817SOL    HW227351   1.048   2.511   2.993
 8818SOL     OW27352   0.624   6.772   5.834
 8818SOL    HW127353   0.667   6.682   5.826
 8818SOL    HW227354   0.593   6.801   5.743
 8819SOL     OW27355   4.557   5.726   6.404
 8819SOL    HW127356   4.547   5.630   6.377
 8819SOL    HW227357   4.530   5.736   6.500
 8820SOL     OW27358   4.499   0.226   5.415
 8820SOL    HW127359   4.483   0.291   5.489
 8820SOL    HW227360   4.467   0.265   5.329
 8821SOL     OW27361   0.518   4.435   6.071
 8821SOL    HW127362   0.450   4.379   6.025
 8821SOL    HW227363   0.560   4.498   6.005
 8822SOL     OW27364   5.997   0.177   4.936
 8822SOL    HW127365   6.059   0.251   4.911
 8822SOL    HW227366   5.939   0.206   5.013
 8823SOL     OW27367   3.899   1.843   2.775
 8823SOL    HW127368   3.883   1.932   2.732
 8823SOL    HW227369   3.841   1.835   2.856
 8824SOL     OW27370   1.722   6.652   3.263
 8824SOL    HW127371   1.709   6.750   3.274
 8824SOL    HW227372   1.785   6.635   3.187
 8825SOL     OW27373   0.223   0.117   0.352
 8825SOL    HW127374   0.304   0.090   0.300
 8825SOL    HW227375   0.235   0.209   0.388
 8826SOL     OW27376   6.991   4.572   0.900
 8826SOL    HW127377   0.003   4.650   0.850
 8826SOL    HW227378   0.042   4.526   0.948
 8827SOL     OW27379   4.361   6.713   3.413
 8827SOL    HW127380   4.433   6.777   3.387
 8827SOL    HW227381   4.398   6.643   3.474
 8828SOL     OW27382   4.688   2.239   6.393
 8828SOL    HW127383   4.595   2.273   6.382
 8828SOL    HW227384   4.707   2.171   6.322
 8829SOL     OW27385   0.089   0.944   2.950
 8829SOL    HW127386   0.011   1.007   2.952
 8829SOL    HW227387   0.093   0.898   2.862
 8830SOL     OW27388   3.070   0.230   3.682
 8830SOL    HW127389   3.135   0.289   3.730
 8830SOL    HW227390   2.994   0.285   3.648
 8831SOL     OW27391   0.136   3.104   2.669
 8831SOL    HW127392   0.174   3.017   2.637
 8831SOL    HW227393   0.175   3.125   2.759
 8832SOL     OW27394   5.610   0.722   6.084
 8832SOL    HW127395   5.569   0.642   6.127
 8832SOL    HW227396   5.538   0.777   6.040
 8833SOL     OW27397   5.219   2.308   1.174
 8833SOL    HW127398   5.280   2.387   1.183
 8833SOL    HW227399   5.167   2.297   1.258
 8834SOL     OW27400   5.546   3.826   6.187
 8834SOL    HW127401   5.624   3.885   6.206
 8834SOL    HW227402   5.532   3.764   6.265
 8835SOL     OW27403   0.037   1.102   5.123
 8835SOL    HW127404   0.125   1.077   5.164
 8835SOL    HW227405   6.988   1.046   5.162
 8836SOL     OW27406   4.213   1.688   1.179
 8836SOL    HW127407   4.197   1.590   1.177
 8836SOL    HW227408   4.186   1.725   1.268
 8837SOL     OW27409   4.724   6.088   0.441
 8837SOL    HW127410   4.669   6.123   0.365
 8837SOL    HW227411   4.665   6.039   0.505
 8838SOL     OW27412   1.783   3.380   3.583
 8838SOL    HW127413   1.790   3.310   3.654
 8838SOL    HW227414   1.725   3.455   3.616
 8839SOL     OW27415   5.059   5.602   1.505
 8839SOL    HW127416   5.135   5.540   1.490
 8839SOL    HW227417   4.988   5.557   1.560
 8840SOL     OW27418   6.401   1.061   0.938
 8840SOL    HW127419   6.342   1.042   0.859
 8840SOL    HW227420   6.486   1.009   0.930
 8841SOL     OW27421   3.101   1.500   0.588
 8841SOL    HW127422   3.166   1.521   0.660
 8841SOL    HW227423   3.024   1.449   0.626
 8842SOL     OW27424   3.198   3.365   4.206
 8842SOL    HW127425   3.270   3.330   4.146
 8842SOL    HW227426   3.147   3.289   4.246
 8843SOL     OW27427   2.693   5.450   5.269
 8843SOL    HW127428   2.756   5.526   5.253
 8843SOL    HW227429   2.692   5.427   5.366
 8844SOL     OW27430   3.586   2.345   6.170
 8844SOL    HW127431   3.518   2.409   6.206
 8844SOL    HW227432   3.554   2.307   6.083
 8845SOL     OW27433   0.932   3.397   1.881
 8845SOL    HW127434   0.990   3.403   1.800
 8845SOL    HW227435   0.980   3.345   1.952
 8846SOL     OW27436   5.740   4.671   4.544
 8846SOL    HW127437   5.771   4.649   4.452
 8846SOL    HW227438   5.641   4.689   4.542
 8847SOL     OW27439   0.901   2.322   3.884
 8847SOL    HW127440   0.821   2.265   3.866
 8847SOL    HW227441   0.906   2.344   3.981
 8848SOL     OW27442   5.930   1.667   0.712
 8848SOL    HW127443   5.845   1.635   0.671
 8848SOL    HW227444   5.940   1.765   0.696
 8849SOL     OW27445   3.502   5.129   4.691
 8849SOL    HW127446   3.439   5.092   4.623
 8849SOL    HW227447   3.566   5.057   4.719
 8850SOL     OW27448   2.527   1.567   1.391
 8850SOL    HW127449   2.619   1.535   1.415
 8850SOL    HW227450   2.525   1.667   1.394
 8851SOL     OW27451   6.956   5.205   2.652
 8851SOL    HW127452   6.926   5.287   2.701
 8851SOL    HW227453   6.920   5.208   2.559
 8852SOL     OW27454   4.952   2.188   4.249
 8852SOL    HW127455   5.038   2.144   4.276
 8852SOL    HW227456   4.954   2.284   4.277
 8853SOL     OW27457   4.719   1.846   5.613
 8853SOL    HW127458   4.797   1.908   5.629
 8853SOL    HW227459   4.747   1.752   5.633
 8854SOL     OW27460   1.688   1.031   6.487
 8854SOL    HW127461   1.740   1.105   6.445
 8854SOL    HW227462   1.652   1.063   6.575
 8855SOL     OW27463   6.494   5.023   6.410
 8855SOL    HW127464   6.405   4.981   6.429
 8855SOL    HW227465   6.541   5.043   6.496
 8856SOL     OW27466   5.162   0.807   5.299
 8856SOL    HW127467   5.239   0.744   5.311
 8856SOL    HW227468   5.132   0.840   5.389
 8857SOL     OW27469   0.567   3.241   4.897
 8857SOL    HW127470   0.580   3.275   4.990
 8857SOL    HW227471   0.520   3.153   4.899
 8858SOL     OW27472   6.773   3.751   5.602
 8858SOL    HW127473   6.762   3.842   5.643
 8858SOL    HW227474   6.854   3.707   5.641
 8859SOL     OW27475   2.998   5.918   5.254
 8859SOL    HW127476   3.060   5.937   5.329
 8859SOL    HW227477   2.915   5.973   5.265
 8860SOL     OW27478   1.488   1.901   1.046
 8860SOL    HW127479   1.423   1.926   1.117
 8860SOL    HW227480   1.470   1.955   0.964
 8861SOL     OW27481   2.394   2.945   1.301
 8861SOL    HW127482   2.380   2.868   1.363
 8861SOL    HW227483   2.420   2.911   1.211
 8862SOL     OW27484   6.643   2.091   5.013
 8862SOL    HW127485   6.689   2.160   5.069
 8862SOL    HW227486   6.710   2.050   4.951
 8863SOL     OW27487   1.145   5.640   5.216
 8863SOL    HW127488   1.158   5.737   5.196
 8863SOL    HW227489   1.219   5.587   5.174
 8864SOL     OW27490   1.355   3.881   6.201
 8864SOL    HW127491   1.377   3.956   6.263
 8864SOL    HW227492   1.369   3.794   6.247
 8865SOL     OW27493   2.388   2.145   5.667
 8865SOL    HW127494   2.400   2.152   5.568
 8865SOL    HW227495   2.478   2.146   5.711
 8866SOL     OW27496   4.957   6.958   5.914
 8866SOL    HW127497   4.868   7.001   5.908
 8866SOL    HW227498   4.974   6.903   5.833
 8867SOL     OW27499   6.667   1.335   3.864
 8867SOL    HW127500   6.567   1.331   3.869
 8867SOL    HW227501   6.698   1.428   3.885
 8868SOL     OW27502   4.805   3.384   1.138
 8868SOL    HW127503   4.726   3.442   1.157
 8868SOL    HW227504   4.818   3.319   1.213
 8869SOL     OW27505   4.658   2.687   3.888
 8869SOL    HW127506   4.643   2.784   3.871
 8869SOL    HW227507   4.708   2.648   3.810
 8870SOL     OW27508   4.552   1.202   1.958
 8870SOL    HW127509   4.458   1.233   1.947
 8870SOL    HW227510   4.558   1.104   1.940
 8871SOL     OW27511   1.033   2.691   4.544
 8871SOL    HW127512   1.011   2.594   4.539
 8871SOL    HW227513   1.054   2.725   4.452
 8872SOL     OW27514   2.234   3.070   2.931
 8872SOL    HW127515   2.326   3.070   2.892
 8872SOL    HW227516   2.230   3.005   3.007
 8873SOL     OW27517   6.813   6.164   4.774
 8873SOL    HW127518   6.857   6.227   4.710
 8873SOL    HW227519   6.857   6.172   4.863
 8874SOL     OW27520   0.877   1.547   6.886
 8874SOL    HW127521   0.800   1.603   6.856
 8874SOL    HW227522   0.843   1.462   6.927
 8875SOL     OW27523   1.981   1.216   3.919
 8875SOL    HW127524   2.036   1.161   3.982
 8875SOL    HW227525   1.956   1.302   3.964
 8876SOL     OW27526   2.507   0.777   4.765
 8876SOL    HW127527   2.541   0.742   4.852
 8876SOL    HW227528   2.492   0.875   4.771
 8877SOL     OW27529   3.220   6.318   4.722
 8877SOL    HW127530   3.190   6.378   4.648
 8877SOL    HW227531   3.194   6.223   4.701
 8878SOL     OW27532   5.483   4.422   5.607
 8878SOL    HW127533   5.581   4.432   5.592
 8878SOL    HW227534   5.456   4.328   5.590
 8879SOL     OW27535   4.589   5.747   4.647
 8879SOL    HW127536   4.513   5.784   4.593
 8879SOL    HW227537   4.584   5.648   4.649
 8880SOL     OW27538   6.817   6.009   5.594
 8880SOL    HW127539   6.820   5.910   5.583
 8880SOL    HW227540   6.904   6.041   5.633
 8881SOL     OW27541   7.018   0.346   1.708
 8881SOL    HW127542   0.033   0.325   1.798
 8881SOL    HW227543   6.939   0.287   1.692
 8882SOL     OW27544   5.449   2.196   6.578
 8882SOL    HW127545   5.416   2.102   6.590
 8882SOL    HW227546   5.533   2.195   6.523
 8883SOL     OW27547   0.225   1.440   5.413
 8883SOL    HW127548   0.302   1.375   5.409
 8883SOL    HW227549   0.139   1.390   5.403
 8884SOL     OW27550   6.641   0.998   5.214
 8884SOL    HW127551   6.583   1.073   5.183
 8884SOL    HW227552   6.639   0.993   5.314
 8885SOL     OW27553   5.231   3.487   1.386
 8885SOL    HW127554   5.148   3.538   1.409
 8885SOL    HW227555   5.292   3.486   1.465
 8886SOL     OW27556   2.930   5.906   6.341
 8886SOL    HW127557   2.974   5.816   6.341
 8886SOL    HW227558   2.830   5.894   6.341
 8887SOL     OW27559   1.882   0.040   0.858
 8887SOL    HW127560   1.796   0.090   0.849
 8887SOL    HW227561   1.953   0.102   0.894
 8888SOL     OW27562   3.552   2.124   3.482
 8888SOL    HW127563   3.575   2.205   3.429
 8888SOL    HW227564   3.484   2.149   3.551
 8889SOL     OW27565   3.380   7.023   5.022
 8889SOL    HW127566   3.363   0.074   4.958
 8889SOL    HW227567   3.306   6.956   5.015
 8890SOL     OW27568   1.003   4.171   3.861
 8890SOL    HW127569   0.963   4.085   3.892
 8890SOL    HW227570   0.989   4.181   3.762
 8891SOL     OW27571   2.653   1.895   6.347
 8891SOL    HW127572   2.605   1.971   6.391
 8891SOL    HW227573   2.734   1.871   6.400
 8892SOL     OW27574   1.261   6.928   2.633
 8892SOL    HW127575   1.257   6.829   2.648
 8892SOL    HW227576   1.357   6.958   2.635
 8893SOL     OW27577   0.198   1.011   1.138
 8893SOL    HW127578   0.275   1.038   1.195
 8893SOL    HW227579   0.191   0.911   1.136
 8894SOL     OW27580   4.207   2.842   6.426
 8894SOL    HW127581   4.166   2.902   6.494
 8894SOL    HW227582   4.290   2.884   6.390
 8895SOL     OW27583   1.816   1.044   2.013
 8895SOL    HW127584   1.725   1.084   2.006
 8895SOL    HW227585   1.841   1.034   2.109
 8896SOL     OW27586   2.220   3.957   4.625
 8896SOL    HW127587   2.318   3.946   4.644
 8896SOL    HW227588   2.201   4.053   4.604
 8897SOL     OW27589   1.309   2.073   1.208
 8897SOL    HW127590   1.345   2.097   1.298
 8897SOL    HW227591   1.210   2.091   1.206
 8898SOL     OW27592   6.734   3.061   4.704
 8898SOL    HW127593   6.795   3.040   4.628
 8898SOL    HW227594   6.750   3.154   4.736
 8899SOL     OW27595   3.132   4.558   0.661
 8899SOL    HW127596   3.128   4.462   0.688
 8899SOL    HW227597   3.080   4.572   0.577
 8900SOL     OW27598   6.705   1.615   3.356
 8900SOL    HW127599   6.740   1.524   3.331
 8900SOL    HW227600   6.764   1.685   3.315
 8901SOL     OW27601   1.987   7.008   1.734
 8901SOL    HW127602   1.984   0.032   1.646
 8901SOL    HW227603   1.924   6.930   1.732
 8902SOL     OW27604   3.206   5.703   5.362
 8902SOL    HW127605   3.177   5.736   5.272
 8902SOL    HW227606   3.133   5.648   5.402
 8903SOL     OW27607   0.891   1.156   3.831
 8903SOL    HW127608   0.931   1.230   3.777
 8903SOL    HW227609   0.896   1.179   3.928
 8904SOL     OW27610   1.363   5.701   3.391
 8904SOL    HW127611   1.330   5.612   3.424
 8904SOL    HW227612   1.461   5.694   3.371
 8905SOL     OW27613   2.130   4.182   5.093
 8905SOL    HW127614   2.045   4.142   5.057
 8905SOL    HW227615   2.199   4.110   5.101
 8906SOL     OW27616   1.645   5.026   4.807
 8906SOL    HW127617   1.672   4.961   4.879
 8906SOL    HW227618   1.717   5.029   4.738
 8907SOL     OW27619   3.911   2.609   5.560
 8907SOL    HW127620   3.979   2.611   5.633
 8907SOL    HW227621   3.844   2.682   5.575
 8908SOL     OW27622   0.223   2.633   2.055
 8908SOL    HW127623   0.125   2.638   2.074
 8908SOL    HW227624   0.245   2.688   1.974
 8909SOL     OW27625   2.310   6.945   5.276
 8909SOL    HW127626   2.323   6.921   5.372
 8909SOL    HW227627   2.300   6.862   5.222
 8910SOL     OW27628   4.068   3.030   6.543
 8910SOL    HW127629   4.023   3.073   6.465
 8910SOL    HW227630   4.003   3.022   6.619
 8911SOL     OW27631   4.836   2.513   3.780
 8911SOL    HW127632   4.869   2.511   3.686
 8911SOL    HW227633   4.819   2.420   3.812
 8912SOL     OW27634   5.490   1.769   6.391
 8912SOL    HW127635   5.460   1.694   6.332
 8912SOL    HW227636   5.471   1.856   6.344
 8913SOL     OW27637   4.814   4.176   0.942
 8913SOL    HW127638   4.730   4.143   0.984
 8913SOL    HW227639   4.794   4.220   0.855
 8914SOL     OW27640   4.585   1.740   3.383
 8914SOL    HW127641   4.668   1.795   3.377
 8914SOL    HW227642   4.506   1.797   3.362
 8915SOL     OW27643   1.135   5.318   1.690
 8915SOL    HW127644   1.181   5.235   1.721
 8915SOL    HW227645   1.037   5.309   1.703
 8916SOL     OW27646   6.151   3.676   1.964
 8916SOL    HW127647   6.236   3.718   1.932
 8916SOL    HW227648   6.172   3.592   2.014
 8917SOL     OW27649   5.574   5.576   6.053
 8917SOL    HW127650   5.602   5.480   6.057
 8917SOL    HW227651   5.636   5.632   6.109
 8918SOL     OW27652   4.993   4.409   6.053
 8918SOL    HW127653   4.969   4.410   6.150
 8918SOL    HW227654   4.969   4.320   6.013
 8919SOL     OW27655   2.382   3.830   1.327
 8919SOL    HW127656   2.300   3.822   1.270
 8919SOL    HW227657   2.463   3.838   1.270
 8920SOL     OW27658   6.293   5.145   5.663
 8920SOL    HW127659   6.238   5.221   5.626
 8920SOL    HW227660   6.304   5.075   5.593
 8921SOL     OW27661   1.042   5.606   3.423
 8921SOL    HW127662   1.119   5.544   3.437
 8921SOL    HW227663   1.072   5.700   3.439
 8922SOL     OW27664   6.356   4.337   0.133
 8922SOL    HW127665   6.275   4.285   0.106
 8922SOL    HW227666   6.365   4.336   0.232
 8923SOL     OW27667   1.948   4.170   4.449
 8923SOL    HW127668   1.893   4.173   4.533
 8923SOL    HW227669   1.956   4.076   4.418
 8924SOL     OW27670   2.908   5.607   4.939
 8924SOL    HW127671   2.854   5.565   4.865
 8924SOL    HW227672   2.884   5.704   4.946
 8925SOL     OW27673   5.317   6.315   1.417
 8925SOL    HW127674   5.388   6.255   1.380
 8925SOL    HW227675   5.275   6.367   1.343
 8926SOL     OW27676   4.878   1.131   0.185
 8926SOL    HW127677   4.842   1.100   0.097
 8926SOL    HW227678   4.958   1.189   0.169
 8927SOL     OW27679   2.247   1.585   4.431
 8927SOL    HW127680   2.210   1.677   4.418
 8927SOL    HW227681   2.334   1.577   4.383
 8928SOL     OW27682   0.886   0.121   4.180
 8928SOL    HW127683   0.869   0.219   4.168
 8928SOL    HW227684   0.888   0.076   4.090
 8929SOL     OW27685   5.187   4.454   4.468
 8929SOL    HW127686   5.264   4.504   4.429
 8929SOL    HW227687   5.184   4.362   4.429
 8930SOL     OW27688   1.429   5.165   5.125
 8930SOL    HW127689   1.352   5.227   5.138
 8930SOL    HW227690   1.480   5.191   5.044
 8931SOL     OW27691   5.464   1.228   1.833
 8931SOL    HW127692   5.447   1.326   1.832
 8931SOL    HW227693   5.497   1.200   1.924
 8932SOL     OW27694   6.721   0.605   0.013
 8932SOL    HW127695   6.811   0.595   0.056
 8932SOL    HW227696   6.652   0.562   0.071
 8933SOL     OW27697   1.481   0.661   5.490
 8933SOL    HW127698   1.569   0.661   5.442
 8933SOL    HW227699   1.453   0.756   5.506
 8934SOL     OW27700   4.607   6.871   3.376
 8934SOL    HW127701   4.605   6.887   3.278
 8934SOL    HW227702   4.684   6.809   3.398
 8935SOL     OW27703   6.040   2.129   2.384
 8935SOL    HW127704   6.085   2.146   2.296
 8935SOL    HW227705   5.964   2.193   2.395
 8936SOL     OW27706   1.890   3.615   3.077
 8936SOL    HW127707   1.919   3.572   2.992
 8936SOL    HW227708   1.915   3.556   3.154
 8937SOL     OW27709   4.223   0.393   5.271
 8937SOL    HW127710   4.140   0.355   5.312
 8937SOL    HW227711   4.276   0.320   5.228
 8938SOL     OW27712   5.843   6.649   1.975
 8938SOL    HW127713   5.783   6.718   1.934
 8938SOL    HW227714   5.938   6.671   1.955
 8939SOL     OW27715   0.464   2.480   4.541
 8939SOL    HW127716   0.540   2.540   4.516
 8939SOL    HW227717   0.396   2.531   4.592
 8940SOL     OW27718   6.170   2.988   2.024
 8940SOL    HW127719   6.239   3.058   2.041
 8940SOL    HW227720   6.102   2.990   2.097
 8941SOL     OW27721   5.160   2.278   2.833
 8941SOL    HW127722   5.231   2.257   2.900
 8941SOL    HW227723   5.142   2.377   2.833
 8942SOL     OW27724   4.980   4.519   4.225
 8942SOL    HW127725   4.965   4.571   4.141
 8942SOL    HW227726   5.009   4.580   4.298
 8943SOL     OW27727   4.158   2.846   0.769
 8943SOL    HW127728   4.076   2.788   0.771
 8943SOL    HW227729   4.236   2.794   0.805
 8944SOL     OW27730   4.725   5.396   4.880
 8944SOL    HW127731   4.793   5.393   4.807
 8944SOL    HW227732   4.648   5.453   4.851
 8945SOL     OW27733   5.900   3.629   2.506
 8945SOL    HW127734   5.814   3.610   2.459
 8945SOL    HW227735   5.964   3.674   2.444
 8946SOL     OW27736   4.375   1.046   5.502
 8946SOL    HW127737   4.288   1.050   5.551
 8946SOL    HW227738   4.401   0.950   5.488
 8947SOL     OW27739   1.885   4.670   0.016
 8947SOL    HW127740   1.837   4.678   6.952
 8947SOL    HW227741   1.910   4.761   0.050
 8948SOL     OW27742   5.571   0.744   2.538
 8948SOL    HW127743   5.490   0.759   2.594
 8948SOL    HW227744   5.547   0.749   2.441
 8949SOL     OW27745   3.855   6.229   0.908
 8949SOL    HW127746   3.920   6.191   0.843
 8949SOL    HW227747   3.901   6.244   0.996
 8950SOL     OW27748   3.627   3.606   2.458
 8950SOL    HW127749   3.704   3.555   2.497
 8950SOL    HW227750   3.631   3.701   2.490
 8951SOL     OW27751   1.324   0.274   4.605
 8951SOL    HW127752   1.328   0.225   4.692
 8951SOL    HW227753   1.241   0.247   4.556
 8952SOL     OW27754   1.508   4.292   4.098
 8952SOL    HW127755   1.428   4.235   4.083
 8952SOL    HW227756   1.577   4.241   4.149
 8953SOL     OW27757   0.676   4.822   1.490
 8953SOL    HW127758   0.729   4.744   1.457
 8953SOL    HW227759   0.730   4.875   1.555
 8954SOL     OW27760   2.134   4.093   5.399
 8954SOL    HW127761   2.100   4.163   5.336
 8954SOL    HW227762   2.127   4.126   5.493
 8955SOL     OW27763   5.598   3.006   5.306
 8955SOL    HW127764   5.663   2.980   5.378
 8955SOL    HW227765   5.616   2.951   5.224
 8956SOL     OW27766   0.630   5.851   0.946
 8956SOL    HW127767   0.675   5.787   1.008
 8956SOL    HW227768   0.696   5.887   0.880
 8957SOL     OW27769   1.418   6.309   2.748
 8957SOL    HW127770   1.453   6.230   2.698
 8957SOL    HW227771   1.488   6.345   2.809
 8958SOL     OW27772   0.823   4.453   4.762
 8958SOL    HW127773   0.815   4.552   4.767
 8958SOL    HW227774   0.816   4.414   4.854
 8959SOL     OW27775   5.386   1.972   3.983
 8959SOL    HW127776   5.462   1.909   4.000
 8959SOL    HW227777   5.332   1.939   3.905
 8960SOL     OW27778   4.967   5.230   3.229
 8960SOL    HW127779   5.015   5.179   3.158
 8960SOL    HW227780   4.979   5.328   3.213
 8961SOL     OW27781   2.747   1.761   4.642
 8961SOL    HW127782   2.678   1.688   4.645
 8961SOL    HW227783   2.821   1.738   4.706
 8962SOL     OW27784   6.382   5.661   2.246
 8962SOL    HW127785   6.329   5.594   2.298
 8962SOL    HW227786   6.321   5.711   2.184
 8963SOL     OW27787   2.850   6.560   6.339
 8963SOL    HW127788   2.780   6.558   6.411
 8963SOL    HW227789   2.916   6.632   6.358
 8964SOL     OW27790   2.080   3.387   3.914
 8964SOL    HW127791   2.113   3.307   3.863
 8964SOL    HW227792   2.126   3.391   4.003
 8965SOL     OW27793   3.827   5.379   0.247
 8965SOL    HW127794   3.920   5.343   0.262
 8965SOL    HW227795   3.793   5.347   0.159
 8966SOL     OW27796   5.217   6.940   5.154
 8966SOL    HW127797   5.251   6.935   5.060
 8966SOL    HW227798   5.290   6.914   5.217
 8967SOL     OW27799   3.203   0.319   3.427
 8967SOL    HW127800   3.122   0.303   3.484
 8967SOL    HW227801   3.274   0.254   3.452
 8968SOL     OW27802   3.648   5.056   2.252
 8968SOL    HW127803   3.745   5.030   2.259
 8968SOL    HW227804   3.619   5.047   2.157
 8969SOL     OW27805   0.505   0.497   2.841
 8969SOL    HW127806   0.506   0.580   2.898
 8969SOL    HW227807   0.411   0.466   2.830
 8970SOL     OW27808   1.915   1.180   3.237
 8970SOL    HW127809   1.850   1.114   3.200
 8970SOL    HW227810   1.964   1.139   3.314
 8971SOL     OW27811   2.961   4.432   1.038
 8971SOL    HW127812   2.862   4.419   1.029
 8971SOL    HW227813   3.006   4.343   1.041
 8972SOL     OW27814   4.977   4.166   6.609
 8972SOL    HW127815   4.979   4.066   6.609
 8972SOL    HW227816   5.002   4.200   6.518
 8973SOL     OW27817   2.270   2.481   3.375
 8973SOL    HW127818   2.277   2.541   3.454
 8973SOL    HW227819   2.361   2.469   3.334
 8974SOL     OW27820   1.876   4.374   3.743
 8974SOL    HW127821   1.779   4.349   3.734
 8974SOL    HW227822   1.883   4.473   3.759
 8975SOL     OW27823   6.655   4.457   5.785
 8975SOL    HW127824   6.607   4.540   5.813
 8975SOL    HW227825   6.739   4.447   5.839
 8976SOL     OW27826   6.000   0.135   1.939
 8976SOL    HW127827   6.063   0.211   1.923
 8976SOL    HW227828   5.994   0.115   2.037
 8977SOL     OW27829   6.410   4.353   6.526
 8977SOL    HW127830   6.391   4.449   6.546
 8977SOL    HW227831   6.493   4.325   6.573
 8978SOL     OW27832   6.130   5.699   6.308
 8978SOL    HW127833   6.100   5.790   6.282
 8978SOL    HW227834   6.226   5.687   6.280
 8979SOL     OW27835   1.698   5.091   3.685
 8979SOL    HW127836   1.655   5.043   3.609
 8979SOL    HW227837   1.674   5.046   3.771
 8980SOL     OW27838   3.681   0.494   0.151
 8980SOL    HW127839   3.703   0.485   0.248
 8980SOL    HW227840   3.633   0.580   0.136
 8981SOL     OW27841   4.176   2.561   6.477
 8981SOL    HW127842   4.096   2.616   6.502
 8981SOL    HW227843   4.240   2.618   6.426
 8982SOL     OW27844   0.120   1.497   1.438
 8982SOL    HW127845   0.153   1.534   1.351
 8982SOL    HW227846   0.117   1.397   1.432
 8983SOL     OW27847   1.469   6.950   2.033
 8983SOL    HW127848   1.557   6.914   2.066
 8983SOL    HW227849   1.477   6.976   1.937
 8984SOL     OW27850   0.040   1.561   4.848
 8984SOL    HW127851   7.017   1.565   4.760
 8984SOL    HW227852   0.048   1.465   4.876
 8985SOL     OW27853   5.072   1.308   2.479
 8985SOL    HW127854   5.076   1.339   2.574
 8985SOL    HW227855   5.138   1.359   2.424
 8986SOL     OW27856   6.780   5.213   0.574
 8986SOL    HW127857   6.851   5.148   0.549
 8986SOL    HW227858   6.761   5.206   0.672
 8987SOL     OW27859   2.006   0.113   1.484
 8987SOL    HW127860   2.022   0.210   1.466
 8987SOL    HW227861   2.072   0.057   1.433
 8988SOL     OW27862   2.818   0.000   1.272
 8988SOL    HW127863   2.902   6.969   1.273
 8988SOL    HW227864   2.812   0.051   1.186
 8989SOL     OW27865   5.871   1.542   2.417
 8989SOL    HW127866   5.949   1.566   2.359
 8989SOL    HW227867   5.787   1.578   2.376
 8990SOL     OW27868   3.329   0.824   2.787
 8990SOL    HW127869   3.237   0.793   2.766
 8990SOL    HW227870   3.339   0.836   2.885
 8991SOL     OW27871   1.261   2.719   0.555
 8991SOL    HW127872   1.300   2.811   0.556
 8991SOL    HW227873   1.231   2.697   0.462
 8992SOL     OW27874   6.387   4.190   6.246
 8992SOL    HW127875   6.328   4.265   6.277
 8992SOL    HW227876   6.457   4.227   6.185
 8993SOL     OW27877   5.620   4.399   4.901
 8993SOL    HW127878   5.584   4.337   4.970
 8993SOL    HW227879   5.544   4.444   4.853
 8994SOL     OW27880   1.594   6.120   2.621
 8994SOL    HW127881   1.602   6.081   2.713
 8994SOL    HW227882   1.575   6.047   2.555
 8995SOL     OW27883   1.871   3.869   4.590
 8995SOL    HW127884   1.889   3.866   4.688
 8995SOL    HW227885   1.817   3.789   4.563
 8996SOL     OW27886   1.907   3.680   1.307
 8996SOL    HW127887   1.983   3.658   1.369
 8996SOL    HW227888   1.940   3.744   1.237
 8997SOL     OW27889   4.294   0.964   5.813
 8997SOL    HW127890   4.337   0.878   5.783
 8997SOL    HW227891   4.350   1.006   5.884
 8998SOL     OW27892   0.586   1.626   6.529
 8998SOL    HW127893   0.523   1.648   6.455
 8998SOL    HW227894   0.641   1.546   6.503
 8999SOL     OW27895   4.877   2.122   5.317
 8999SOL    HW127896   4.846   2.047   5.258
 8999SOL    HW227897   4.975   2.113   5.334
 9000SOL     OW27898   2.930   4.973   0.718
 9000SOL    HW127899   2.985   4.903   0.762
 9000SOL    HW227900   2.959   5.063   0.751
 9001SOL     OW27901   2.259   4.280   3.406
 9001SOL    HW127902   2.244   4.182   3.424
 9001SOL    HW227903   2.261   4.295   3.307
 9002SOL     OW27904   5.417   4.102   5.423
 9002SOL    HW127905   5.323   4.101   5.456
 9002SOL    HW227906   5.456   4.010   5.427
 9003SOL     OW27907   6.529   2.971   6.466
 9003SOL    HW127908   6.511   3.024   6.548
 9003SOL    HW227909   6.469   2.891   6.464
 9004SOL     OW27910   5.040   5.211   0.999
 9004SOL    HW127911   5.125   5.220   0.946
 9004SOL    HW227912   4.971   5.164   0.943
 9005SOL     OW27913   4.797   2.762   3.584
 9005SOL    HW127914   4.819   2.808   3.670
 9005SOL    HW227915   4.855   2.800   3.511
 9006SOL     OW27916   2.166   6.951   0.876
 9006SOL    HW127917   2.100   6.971   0.949
 9006SOL    HW227918   2.228   6.879   0.906
 9007SOL     OW27919   2.464   6.308   4.837
 9007SOL    HW127920   2.392   6.343   4.777
 9007SOL    HW227921   2.450   6.210   4.851
 9008SOL     OW27922   0.308   4.082   2.492
 9008SOL    HW127923   0.393   4.036   2.518
 9008SOL    HW227924   0.316   4.180   2.511
 9009SOL     OW27925   4.445   6.395   0.307
 9009SOL    HW127926   4.509   6.327   0.271
 9009SOL    HW227927   4.405   6.361   0.392
 9010SOL     OW27928   0.342   5.410   5.031
 9010SOL    HW127929   0.441   5.393   5.032
 9010SOL    HW227930   0.314   5.438   4.939
 9011SOL     OW27931   4.584   1.911   2.754
 9011SOL    HW127932   4.684   1.913   2.746
 9011SOL    HW227933   4.558   1.921   2.850
 9012SOL     OW27934   5.297   5.630   2.240
 9012SOL    HW127935   5.310   5.567   2.317
 9012SOL    HW227936   5.384   5.676   2.221
 9013SOL     OW27937   4.533   6.573   2.629
 9013SOL    HW127938   4.523   6.474   2.620
 9013SOL    HW227939   4.562   6.611   2.541
 9014SOL     OW27940   2.414   0.549   0.996
 9014SOL    HW127941   2.342   0.586   0.938
 9014SOL    HW227942   2.490   0.518   0.939
 9015SOL     OW27943   6.056   1.660   4.841
 9015SOL    HW127944   6.033   1.676   4.937
 9015SOL    HW227945   6.096   1.569   4.831
 9016SOL     OW27946   6.988   5.629   6.240
 9016SOL    HW127947   0.053   5.651   6.200
 9016SOL    HW227948   6.967   5.694   6.313
 9017SOL     OW27949   0.132   3.824   3.012
 9017SOL    HW127950   0.177   3.739   2.986
 9017SOL    HW227951   0.138   3.836   3.111
 9018SOL     OW27952   3.833   1.942   6.234
 9018SOL    HW127953   3.916   1.988   6.264
 9018SOL    HW227954   3.854   1.884   6.155
 9019SOL     OW27955   1.338   5.460   0.010
 9019SOL    HW127956   1.247   5.442   0.047
 9019SOL    HW227957   1.337   5.447   6.935
 9020SOL     OW27958   0.841   5.028   3.306
 9020SOL    HW127959   0.938   5.052   3.306
 9020SOL    HW227960   0.793   5.084   3.373
 9021SOL     OW27961   6.206   5.661   5.574
 9021SOL    HW127962   6.237   5.669   5.669
 9021SOL    HW227963   6.249   5.580   5.533
 9022SOL     OW27964   2.897   6.977   6.584
 9022SOL    HW127965   2.866   6.883   6.566
 9022SOL    HW227966   2.995   6.976   6.604
 9023SOL     OW27967   3.503   2.948   3.490
 9023SOL    HW127968   3.602   2.950   3.507
 9023SOL    HW227969   3.458   2.895   3.561
 9024SOL     OW27970   0.540   0.382   6.624
 9024SOL    HW127971   0.524   0.343   6.714
 9024SOL    HW227972   0.622   0.342   6.583
 9025SOL     OW27973   0.045   3.714   0.493
 9025SOL    HW127974   7.007   3.780   0.536
 9025SOL    HW227975   0.137   3.753   0.490
 9026SOL     OW27976   3.001   3.449   5.589
 9026SOL    HW127977   2.950   3.524   5.546
 9026SOL    HW227978   2.950   3.364   5.581
 9027SOL     OW27979   2.491   2.605   2.813
 9027SOL    HW127980   2.508   2.556   2.899
 9027SOL    HW227981   2.518   2.547   2.736
 9028SOL     OW27982   2.919   4.786   4.463
 9028SOL    HW127983   2.938   4.688   4.458
 9028SOL    HW227984   2.856   4.812   4.390
 9029SOL     OW27985   5.818   5.364   3.031
 9029SOL    HW127986   5.731   5.322   3.056
 9029SOL    HW227987   5.857   5.412   3.110
 9030SOL     OW27988   3.800   1.925   2.035
 9030SOL    HW127989   3.756   1.837   2.053
 9030SOL    HW227990   3.733   1.998   2.044
 9031SOL     OW27991   1.432   1.389   1.022
 9031SOL    HW127992   1.347   1.389   1.075
 9031SOL    HW227993   1.430   1.465   0.957
 9032SOL     OW27994   1.196   2.704   2.455
 9032SOL    HW127995   1.129   2.640   2.493
 9032SOL    HW227996   1.198   2.788   2.511
 9033SOL     OW27997   1.445   3.893   1.782
 9033SOL    HW127998   1.356   3.859   1.813
 9033SOL    HW227999   1.485   3.952   1.852
 9034SOL     OW28000   1.552   6.675   6.961
 9034SOL    HW128001   1.562   6.721   6.873
 9034SOL    HW228002   1.462   6.696   6.999
 9035SOL     OW28003   0.240   0.567   4.189
 9035SOL    HW128004   0.199   0.589   4.277
 9035SOL    HW228005   0.322   0.622   4.176
 9036SOL     OW28006   1.347   1.285   4.202
 9036SOL    HW128007   1.310   1.331   4.121
 9036SOL    HW228008   1.284   1.213   4.232
 9037SOL     OW28009   2.424   4.033   6.173
 9037SOL    HW128010   2.370   3.983   6.241
 9037SOL    HW228011   2.363   4.084   6.113
 9038SOL     OW28012   4.938   6.523   5.327
 9038SOL    HW128013   5.005   6.449   5.328
 9038SOL    HW228014   4.846   6.486   5.330
 9039SOL     OW28015   2.668   4.558   6.715
 9039SOL    HW128016   2.745   4.572   6.654
 9039SOL    HW228017   2.685   4.603   6.803
 9040SOL     OW28018   2.763   1.995   2.218
 9040SOL    HW128019   2.797   2.034   2.132
 9040SOL    HW228020   2.718   1.907   2.199
 9041SOL     OW28021   1.670   3.330   6.349
 9041SOL    HW128022   1.663   3.290   6.440
 9041SOL    HW228023   1.589   3.307   6.296
 9042SOL     OW28024   2.508   5.337   3.737
 9042SOL    HW128025   2.509   5.368   3.832
 9042SOL    HW228026   2.416   5.308   3.712
 9043SOL     OW28027   6.503   2.738   1.050
 9043SOL    HW128028   6.543   2.815   1.000
 9043SOL    HW228029   6.428   2.772   1.107
 9044SOL     OW28030   6.735   4.552   0.721
 9044SOL    HW128031   6.655   4.516   0.767
 9044SOL    HW228032   6.791   4.477   0.686
 9045SOL     OW28033   2.639   5.652   3.803
 9045SOL    HW128034   2.645   5.743   3.844
 9045SOL    HW228035   2.663   5.583   3.871
 9046SOL     OW28036   3.877   4.490   5.573
 9046SOL    HW128037   3.890   4.475   5.475
 9046SOL    HW228038   3.786   4.457   5.599
 9047SOL     OW28039   1.182   4.842   4.900
 9047SOL    HW128040   1.144   4.750   4.902
 9047SOL    HW228041   1.241   4.852   4.819
 9048SOL     OW28042   2.078   2.199   4.781
 9048SOL    HW128043   2.084   2.282   4.726
 9048SOL    HW228044   2.018   2.134   4.737
 9049SOL     OW28045   5.001   6.399   6.541
 9049SOL    HW128046   4.978   6.495   6.553
 9049SOL    HW228047   5.031   6.360   6.628
 9050SOL     OW28048   0.391   5.291   5.490
 9050SOL    HW128049   0.440   5.204   5.491
 9050SOL    HW228050   0.339   5.301   5.575
 9051SOL     OW28051   5.408   6.717   6.071
 9051SOL    HW128052   5.505   6.724   6.049
 9051SOL    HW228053   5.359   6.795   6.032
 9052SOL     OW28054   2.699   4.963   5.193
 9052SOL    HW128055   2.688   5.040   5.130
 9052SOL    HW228056   2.651   4.883   5.156
 9053SOL     OW28057   2.894   1.760   3.225
 9053SOL    HW128058   2.868   1.732   3.132
 9053SOL    HW228059   2.933   1.852   3.223
 9054SOL     OW28060   2.528   6.978   0.957
 9054SOL    HW128061   2.476   6.924   1.022
 9054SOL    HW228062   2.602   0.001   1.004
 9055SOL     OW28063   0.724   2.259   4.858
 9055SOL    HW128064   0.755   2.262   4.763
 9055SOL    HW228065   0.788   2.207   4.913
 9056SOL     OW28066   4.540   2.574   2.764
 9056SOL    HW128067   4.563   2.541   2.672
 9056SOL    HW228068   4.566   2.670   2.773
 9057SOL     OW28069   4.280   6.178   0.121
 9057SOL    HW128070   4.363   6.129   0.096
 9057SOL    HW228071   4.301   6.248   0.188
 9058SOL     OW28072   2.142   2.633   4.410
 9058SOL    HW128073   2.104   2.713   4.456
 9058SOL    HW228074   2.097   2.621   4.322
 9059SOL     OW28075   0.393   1.112   2.389
 9059SOL    HW128076   0.456   1.173   2.437
 9059SOL    HW228077   0.369   1.153   2.300
 9060SOL     OW28078   0.865   5.361   1.679
 9060SOL    HW128079   0.789   5.387   1.738
 9060SOL    HW228080   0.862   5.416   1.596
 9061SOL     OW28081   4.987   4.012   2.411
 9061SOL    HW128082   4.903   4.066   2.398
 9061SOL    HW228083   5.026   3.989   2.322
 9062SOL     OW28084   1.039   5.424   2.826
 9062SOL    HW128085   1.059   5.470   2.912
 9062SOL    HW228086   1.110   5.444   2.759
 9063SOL     OW28087   4.650   1.587   1.821
 9063SOL    HW128088   4.605   1.635   1.896
 9063SOL    HW228089   4.724   1.643   1.784
 9064SOL     OW28090   0.845   5.423   3.072
 9064SOL    HW128091   0.836   5.494   3.001
 9064SOL    HW228092   0.914   5.357   3.044
 9065SOL     OW28093   3.095   4.184   6.181
 9065SOL    HW128094   3.176   4.196   6.123
 9065SOL    HW228095   3.016   4.165   6.123
 9066SOL     OW28096   4.728   5.093   4.209
 9066SOL    HW128097   4.635   5.092   4.246
 9066SOL    HW228098   4.732   5.158   4.133
 9067SOL     OW28099   1.591   6.353   4.689
 9067SOL    HW128100   1.585   6.346   4.788
 9067SOL    HW228101   1.574   6.262   4.649
 9068SOL     OW28102   3.936   0.540   6.195
 9068SOL    HW128103   3.983   0.621   6.159
 9068SOL    HW228104   3.837   0.552   6.183
 9069SOL     OW28105   5.028   2.821   1.600
 9069SOL    HW128106   5.075   2.804   1.514
 9069SOL    HW228107   5.020   2.920   1.614
 9070SOL     OW28108   1.873   1.514   5.416
 9070SOL    HW128109   1.883   1.560   5.505
 9070SOL    HW228110   1.851   1.418   5.430
 9071SOL     OW28111   5.751   2.822   6.682
 9071SOL    HW128112   5.794   2.789   6.598
 9071SOL    HW228113   5.704   2.747   6.728
 9072SOL     OW28114   5.452   0.244   2.402
 9072SOL    HW128115   5.495   0.313   2.345
 9072SOL    HW228116   5.392   0.186   2.346
 9073SOL     OW28117   4.627   3.008   5.346
 9073SOL    HW128118   4.615   2.918   5.305
 9073SOL    HW228119   4.541   3.039   5.386
 9074SOL     OW28120   2.045   0.925   2.907
 9074SOL    HW128121   1.994   0.882   2.832
 9074SOL    HW228122   2.110   0.860   2.945
 9075SOL     OW28123   6.087   5.831   0.735
 9075SOL    HW128124   6.016   5.850   0.803
 9075SOL    HW228125   6.151   5.764   0.771
 9076SOL     OW28126   0.508   6.899   2.359
 9076SOL    HW128127   0.604   6.882   2.380
 9076SOL    HW228128   0.493   6.997   2.345
 9077SOL     OW28129   6.443   1.617   6.750
 9077SOL    HW128130   6.530   1.625   6.702
 9077SOL    HW228131   6.438   1.687   6.822
 9078SOL     OW28132   5.222   0.524   0.000
 9078SOL    HW128133   5.295   0.592   7.011
 9078SOL    HW228134   5.135   0.563   6.997
 9079SOL     OW28135   0.992   1.169   6.258
 9079SOL    HW128136   0.933   1.182   6.179
 9079SOL    HW228137   1.036   1.079   6.253
 9080SOL     OW28138   6.111   3.811   2.433
 9080SOL    HW128139   6.197   3.835   2.477
 9080SOL    HW228140   6.117   3.830   2.335
 9081SOL     OW28141   4.831   1.700   0.271
 9081SOL    HW128142   4.800   1.623   0.215
 9081SOL    HW228143   4.753   1.756   0.298
 9082SOL     OW28144   3.518   5.695   6.377
 9082SOL    HW128145   3.572   5.730   6.301
 9082SOL    HW228146   3.578   5.650   6.443
 9083SOL     OW28147   4.027   6.437   0.314
 9083SOL    HW128148   4.095   6.508   0.295
 9083SOL    HW228149   3.969   6.467   0.390
 9084SOL     OW28150   0.141   3.419   4.958
 9084SOL    HW128151   0.105   3.418   4.865
 9084SOL    HW228152   0.238   3.394   4.956
 9085SOL     OW28153   2.227   5.051   0.640
 9085SOL    HW128154   2.291   4.988   0.684
 9085SOL    HW228155   2.235   5.042   0.540
 9086SOL     OW28156   0.369   3.611   0.799
 9086SOL    HW128157   0.353   3.706   0.772
 9086SOL    HW228158   0.282   3.567   0.818
 9087SOL     OW28159   5.269   1.110   1.363
 9087SOL    HW128160   5.216   1.156   1.434
 9087SOL    HW228161   5.290   1.017   1.393
 9088SOL     OW28162   6.056   5.671   0.366
 9088SOL    HW128163   6.040   5.767   0.388
 9088SOL    HW228164   6.147   5.659   0.328
 9089SOL     OW28165   5.200   5.319   3.760
 9089SOL    HW128166   5.161   5.411   3.763
 9089SOL    HW228167   5.297   5.324   3.737
 9090SOL     OW28168   5.101   6.053   5.621
 9090SOL    HW128169   5.103   6.127   5.688
 9090SOL    HW228170   5.144   5.971   5.660
 9091SOL     OW28171   2.665   1.923   1.734
 9091SOL    HW128172   2.625   1.939   1.824
 9091SOL    HW228173   2.610   1.968   1.664
 9092SOL     OW28174   2.179   1.284   5.044
 9092SOL    HW128175   2.269   1.239   5.041
 9092SOL    HW228176   2.181   1.358   5.110
 9093SOL     OW28177   2.093   3.874   1.134
 9093SOL    HW128178   2.028   3.854   1.060
 9093SOL    HW228179   2.136   3.789   1.164
 9094SOL     OW28180   6.307   4.294   0.901
 9094SOL    HW128181   6.346   4.342   0.980
 9094SOL    HW228182   6.338   4.199   0.901
 9095SOL     OW28183   2.558   3.284   6.770
 9095SOL    HW128184   2.640   3.227   6.764
 9095SOL    HW228185   2.574   3.359   6.835
 9096SOL     OW28186   6.133   3.274   3.274
 9096SOL    HW128187   6.040   3.304   3.252
 9096SOL    HW228188   6.156   3.302   3.368
 9097SOL     OW28189   6.764   5.298   5.804
 9097SOL    HW128190   6.852   5.260   5.773
 9097SOL    HW228191   6.774   5.332   5.898
 9098SOL     OW28192   3.250   3.756   4.127
 9098SOL    HW128193   3.348   3.775   4.131
 9098SOL    HW228194   3.223   3.736   4.033
 9099SOL     OW28195   2.275   2.495   0.456
 9099SOL    HW128196   2.185   2.533   0.474
 9099SOL    HW228197   2.281   2.403   0.495
 9100SOL     OW28198   1.338   3.333   0.117
 9100SOL    HW128199   1.421   3.379   0.083
 9100SOL    HW228200   1.358   3.290   0.205
 9101SOL     OW28201   2.187   2.318   6.824
 9101SOL    HW128202   2.189   2.406   6.870
 9101SOL    HW228203   2.098   2.275   6.836
 9102SOL     OW28204   4.769   6.392   2.226
 9102SOL    HW128205   4.723   6.478   2.247
 9102SOL    HW228206   4.718   6.344   2.155
 9103SOL     OW28207   0.070   4.242   6.610
 9103SOL    HW128208   0.137   4.281   6.547
 9103SOL    HW228209   0.060   4.144   6.593
 9104SOL     OW28210   4.829   0.213   2.050
 9104SOL    HW128211   4.866   0.268   2.124
 9104SOL    HW228212   4.882   0.129   2.041
 9105SOL     OW28213   2.371   1.823   5.647
 9105SOL    HW128214   2.351   1.880   5.726
 9105SOL    HW228215   2.345   1.729   5.666
 9106SOL     OW28216   6.442   5.213   1.323
 9106SOL    HW128217   6.458   5.246   1.417
 9106SOL    HW228218   6.527   5.178   1.285
 9107SOL     OW28219   4.691   0.194   1.275
 9107SOL    HW128220   4.748   0.266   1.316
 9107SOL    HW228221   4.724   0.174   1.183
 9108SOL     OW28222   4.250   6.278   6.807
 9108SOL    HW128223   4.318   6.331   6.756
 9108SOL    HW228224   4.284   6.259   6.899
 9109SOL     OW28225   2.767   1.727   4.256
 9109SOL    HW128226   2.803   1.791   4.188
 9109SOL    HW228227   2.839   1.707   4.323
 9110SOL     OW28228   1.990   3.143   2.998
 9110SOL    HW128229   2.078   3.107   2.967
 9110SOL    HW228230   1.942   3.187   2.922
 9111SOL     OW28231   4.200   4.061   1.674
 9111SOL    HW128232   4.207   3.962   1.668
 9111SOL    HW228233   4.285   4.098   1.713
 9112SOL     OW28234   0.459   5.064   2.523
 9112SOL    HW128235   0.546   5.054   2.571
 9112SOL    HW228236   0.425   5.157   2.536
 9113SOL     OW28237   3.557   6.140   7.003
 9113SOL    HW128238   3.622   6.208   6.970
 9113SOL    HW228239   3.594   6.048   6.990
 9114SOL     OW28240   2.343   4.546   1.951
 9114SOL    HW128241   2.413   4.554   2.022
 9114SOL    HW228242   2.320   4.449   1.938
 9115SOL     OW28243   1.951   4.221   3.976
 9115SOL    HW128244   2.004   4.282   4.035
 9115SOL    HW228245   1.952   4.256   3.882
 9116SOL     OW28246   1.595   1.143   5.948
 9116SOL    HW128247   1.600   1.190   6.036
 9116SOL    HW228248   1.559   1.051   5.961
 9117SOL     OW28249   6.553   2.783   6.719
 9117SOL    HW128250   6.541   2.783   6.818
 9117SOL    HW228251   6.650   2.783   6.697
 9118SOL     OW28252   6.837   5.691   1.492
 9118SOL    HW128253   6.806   5.696   1.587
 9118SOL    HW228254   6.933   5.664   1.490
 9119SOL     OW28255   6.746   6.865   1.222
 9119SOL    HW128256   6.682   6.940   1.210
 9119SOL    HW228257   6.823   6.877   1.160
 9120SOL     OW28258   5.489   1.346   6.505
 9120SOL    HW128259   5.466   1.358   6.409
 9120SOL    HW228260   5.411   1.373   6.562
 9121SOL     OW28261   1.385   1.078   6.974
 9121SOL    HW128262   1.429   1.028   0.025
 9121SOL    HW228263   1.440   1.158   6.951
 9122SOL     OW28264   0.263   2.527   1.456
 9122SOL    HW128265   0.212   2.491   1.379
 9122SOL    HW228266   0.320   2.603   1.426
 9123SOL     OW28267   2.861   6.062   0.443
 9123SOL    HW128268   2.839   6.084   0.538
 9123SOL    HW228269   2.783   6.080   0.384
 9124SOL     OW28270   5.830   5.064   5.352
 9124SOL    HW128271   5.771   4.985   5.337
 9124SOL    HW228272   5.835   5.084   5.449
 9125SOL     OW28273   5.075   5.948   3.348
 9125SOL    HW128274   5.026   6.033   3.326
 9125SOL    HW228275   5.088   5.942   3.447
 9126SOL     OW28276   6.041   0.690   1.715
 9126SOL    HW128277   6.091   0.658   1.796
 9126SOL    HW228278   6.037   0.790   1.716
 9127SOL     OW28279   4.993   0.626   6.926
 9127SOL    HW128280   5.000   0.649   6.829
 9127SOL    HW228281   4.900   0.596   6.946
 9128SOL     OW28282   4.669   2.484   5.173
 9128SOL    HW128283   4.706   2.395   5.148
 9128SOL    HW228284   4.644   2.534   5.090
 9129SOL     OW28285   2.066   2.304   5.891
 9129SOL    HW128286   1.971   2.331   5.905
 9129SOL    HW228287   2.120   2.384   5.863
 9130SOL     OW28288   6.071   4.924   0.675
 9130SOL    HW128289   6.144   4.970   0.624
 9130SOL    HW228290   5.999   4.991   0.695
 9131SOL     OW28291   0.749   4.128   4.678
 9131SOL    HW128292   0.819   4.056   4.689
 9131SOL    HW228293   0.792   4.210   4.640
 9132SOL     OW28294   0.233   3.090   4.851
 9132SOL    HW128295   0.250   3.140   4.936
 9132SOL    HW228296   0.136   3.067   4.844
 9133SOL     OW28297   1.622   4.390   1.241
 9133SOL    HW128298   1.697   4.342   1.196
 9133SOL    HW228299   1.541   4.331   1.241
 9134SOL     OW28300   3.066   5.661   6.307
 9134SOL    HW128301   3.139   5.696   6.366
 9134SOL    HW228302   3.048   5.565   6.330
 9135SOL     OW28303   6.343   6.249   4.276
 9135SOL    HW128304   6.270   6.244   4.208
 9135SOL    HW228305   6.313   6.304   4.354
 9136SOL     OW28306   4.652   4.661   5.540
 9136SOL    HW128307   4.744   4.621   5.535
 9136SOL    HW228308   4.659   4.759   5.519
 9137SOL     OW28309   4.008   1.225   2.235
 9137SOL    HW128310   4.067   1.296   2.195
 9137SOL    HW228311   4.003   1.148   2.172
 9138SOL     OW28312   3.851   5.086   0.457
 9138SOL    HW128313   3.817   5.006   0.407
 9138SOL    HW228314   3.778   5.154   0.464
 9139SOL     OW28315   2.599   1.443   5.463
 9139SOL    HW128316   2.573   1.537   5.441
 9139SOL    HW228317   2.695   1.441   5.490
 9140SOL     OW28318   6.892   1.944   3.511
 9140SOL    HW128319   6.929   1.862   3.468
 9140SOL    HW228320   6.865   1.924   3.604
 9141SOL     OW28321   5.799   0.436   5.838
 9141SOL    HW128322   5.818   0.371   5.765
 9141SOL    HW228323   5.790   0.528   5.800
 9142SOL     OW28324   6.921   3.131   5.807
 9142SOL    HW128325   6.978   3.091   5.878
 9142SOL    HW228326   6.875   3.058   5.756
 9143SOL     OW28327   4.839   3.561   0.605
 9143SOL    HW128328   4.834   3.657   0.633
 9143SOL    HW228329   4.779   3.507   0.664
 9144SOL     OW28330   1.992   4.479   4.769
 9144SOL    HW128331   2.087   4.448   4.771
 9144SOL    HW228332   1.933   4.409   4.808
 9145SOL     OW28333   0.161   4.763   6.285
 9145SOL    HW128334   0.071   4.736   6.251
 9145SOL    HW228335   0.225   4.687   6.274
 9146SOL     OW28336   6.344   2.286   2.402
 9146SOL    HW128337   6.314   2.299   2.307
 9146SOL    HW228338   6.366   2.189   2.417
 9147SOL     OW28339   4.435   5.566   5.790
 9147SOL    HW128340   4.404   5.502   5.720
 9147SOL    HW228341   4.478   5.646   5.746
 9148SOL     OW28342   4.359   5.645   3.488
 9148SOL    HW128343   4.288   5.580   3.518
 9148SOL    HW228344   4.316   5.729   3.457
 9149SOL     OW28345   5.647   3.574   4.044
 9149SOL    HW128346   5.549   3.590   4.045
 9149SOL    HW228347   5.684   3.587   4.136
 9150SOL     OW28348   5.076   0.789   3.091
 9150SOL    HW128349   5.043   0.717   3.151
 9150SOL    HW228350   5.012   0.867   3.094
 9151SOL     OW28351   1.585   4.082   1.917
 9151SOL    HW128352   1.529   4.066   1.999
 9151SOL    HW228353   1.660   4.016   1.914
 9152SOL     OW28354   2.166   5.609   3.195
 9152SOL    HW128355   2.137   5.671   3.122
 9152SOL    HW228356   2.153   5.654   3.284
 9153SOL     OW28357   1.624   3.121   6.185
 9153SOL    HW128358   1.643   3.028   6.155
 9153SOL    HW228359   1.695   3.151   6.249
 9154SOL     OW28360   2.383   5.952   0.185
 9154SOL    HW128361   2.338   5.863   0.193
 9154SOL    HW228362   2.363   5.992   0.096
 9155SOL     OW28363   1.144   4.109   0.728
 9155SOL    HW128364   1.109   4.019   0.753
 9155SOL    HW228365   1.151   4.115   0.628
 9156SOL     OW28366   5.108   2.356   1.424
 9156SOL    HW128367   5.015   2.375   1.454
 9156SOL    HW228368   5.170   2.358   1.503
 9157SOL     OW28369   5.252   3.900   5.642
 9157SOL    HW128370   5.196   3.953   5.578
 9157SOL    HW228371   5.239   3.802   5.623
 9158SOL     OW28372   0.650   4.062   4.217
 9158SOL    HW128373   0.552   4.072   4.237
 9158SOL    HW228374   0.663   4.046   4.119
 9159SOL     OW28375   7.016   4.568   3.885
 9159SOL    HW128376   6.953   4.491   3.877
 9159SOL    HW228377   0.063   4.546   3.952
 9160SOL     OW28378   6.567   6.941   6.931
 9160SOL    HW128379   6.558   7.014   6.998
 9160SOL    HW228380   6.483   6.887   6.928
 9161SOL     OW28381   4.845   4.148   4.379
 9161SOL    HW128382   4.851   4.049   4.393
 9161SOL    HW228383   4.795   4.167   4.295
 9162SOL     OW28384   4.718   2.372   2.826
 9162SOL    HW128385   4.731   2.348   2.923
 9162SOL    HW228386   4.661   2.453   2.819
 9163SOL     OW28387   3.137   1.893   3.826
 9163SOL    HW128388   3.143   1.845   3.738
 9163SOL    HW228389   3.229   1.918   3.857
 9164SOL     OW28390   3.269   0.390   0.237
 9164SOL    HW128391   3.217   0.334   0.301
 9164SOL    HW228392   3.301   0.473   0.283
 9165SOL     OW28393   5.924   6.981   6.775
 9165SOL    HW128394   5.900   6.939   6.862
 9165SOL    HW228395   5.893   6.922   6.700
 9166SOL     OW28396   3.145   5.891   1.262
 9166SOL    HW128397   3.165   5.876   1.165
 9166SOL    HW228398   3.110   5.984   1.275
 9167SOL     OW28399   1.708   4.384   5.530
 9167SOL    HW128400   1.770   4.389   5.452
 9167SOL    HW228401   1.745   4.437   5.606
 9168SOL     OW28402   2.096   1.277   6.612
 9168SOL    HW128403   2.104   1.182   6.642
 9168SOL    HW228404   2.132   1.337   6.684
 9169SOL     OW28405   0.745   0.464   3.623
 9169SOL    HW128406   0.749   0.373   3.665
 9169SOL    HW228407   0.836   0.489   3.589
 9170SOL     OW28408   6.846   5.982   6.631
 9170SOL    HW128409   6.790   6.035   6.568
 9170SOL    HW228410   6.939   5.975   6.595
 9171SOL     OW28411   2.877   5.845   6.839
 9171SOL    HW128412   2.837   5.759   6.809
 9171SOL    HW228413   2.959   5.864   6.785
 9172SOL     OW28414   2.963   1.337   3.900
 9172SOL    HW128415   3.019   1.324   3.982
 9172SOL    HW228416   3.010   1.399   3.837
 9173SOL     OW28417   0.767   5.930   3.894
 9173SOL    HW128418   0.788   6.026   3.912
 9173SOL    HW228419   0.843   5.873   3.925
 9174SOL     OW28420   0.436   5.159   0.418
 9174SOL    HW128421   0.382   5.095   0.363
 9174SOL    HW228422   0.517   5.113   0.453
 9175SOL     OW28423   1.949   6.080   6.004
 9175SOL    HW128424   1.856   6.115   6.008
 9175SOL    HW228425   2.014   6.157   6.008
 9176SOL     OW28426   2.232   0.681   5.901
 9176SOL    HW128427   2.206   0.588   5.927
 9176SOL    HW228428   2.296   0.678   5.825
 9177SOL     OW28429   0.937   4.448   3.607
 9177SOL    HW128430   0.995   4.473   3.529
 9177SOL    HW228431   0.994   4.437   3.689
 9178SOL     OW28432   2.258   5.117   6.970
 9178SOL    HW128433   2.238   5.195   0.005
 9178SOL    HW228434   2.302   5.045   7.023
 9179SOL     OW28435   3.705   5.099   4.462
 9179SOL    HW128436   3.605   5.109   4.467
 9179SOL    HW228437   3.739   5.063   4.548
 9180SOL     OW28438   5.277   1.775   3.368
 9180SOL    HW128439   5.321   1.704   3.313
 9180SOL    HW228440   5.225   1.836   3.309
 9181SOL     OW28441   4.399   1.683   2.448
 9181SOL    HW128442   4.339   1.750   2.404
 9181SOL    HW228443   4.349   1.597   2.462
 9182SOL     OW28444   1.151   6.609   1.336
 9182SOL    HW128445   1.085   6.683   1.349
 9182SOL    HW228446   1.175   6.570   1.425
 9183SOL     OW28447   5.133   6.272   0.304
 9183SOL    HW128448   5.060   6.274   0.372
 9183SOL    HW228449   5.221   6.258   0.350
 9184SOL     OW28450   4.805   6.997   0.273
 9184SOL    HW128451   4.901   7.021   0.283
 9184SOL    HW228452   4.786   6.913   0.326
 9185SOL     OW28453   3.445   0.790   5.150
 9185SOL    HW128454   3.414   0.828   5.063
 9185SOL    HW228455   3.375   0.807   5.220
 9186SOL     OW28456   6.196   1.112   5.498
 9186SOL    HW128457   6.106   1.137   5.461
 9186SOL    HW228458   6.228   1.029   5.452
 9187SOL     OW28459   2.303   6.269   2.079
 9187SOL    HW128460   2.303   6.367   2.057
 9187SOL    HW228461   2.393   6.242   2.112
 9188SOL     OW28462   2.334   6.510   1.150
 9188SOL    HW128463   2.318   6.491   1.247
 9188SOL    HW228464   2.282   6.445   1.094
 9189SOL     OW28465   5.010   5.624   2.245
 9189SOL    HW128466   5.107   5.599   2.245
 9189SOL    HW228467   4.955   5.542   2.258
 9190SOL     OW28468   1.762   5.187   0.648
 9190SOL    HW128469   1.790   5.216   0.557
 9190SOL    HW228470   1.759   5.266   0.709
 9191SOL     OW28471   0.014   0.206   5.579
 9191SOL    HW128472   7.006   0.169   5.491
 9191SOL    HW228473   0.034   0.131   5.642
 9192SOL     OW28474   6.848   4.336   4.402
 9192SOL    HW128475   6.767   4.328   4.344
 9192SOL    HW228476   6.877   4.246   4.433
 9193SOL     OW28477   2.795   3.333   0.023
 9193SOL    HW128478   2.854   3.262   7.009
 9193SOL    HW228479   2.826   3.423   7.017
 9194SOL     OW28480   3.466   0.603   3.912
 9194SOL    HW128481   3.472   0.611   3.813
 9194SOL    HW228482   3.496   0.512   3.940
 9195SOL     OW28483   1.484   1.538   4.061
 9195SOL    HW128484   1.573   1.527   4.106
 9195SOL    HW228485   1.453   1.633   4.071
 9196SOL     OW28486   4.780   2.263   5.074
 9196SOL    HW128487   4.813   2.211   5.152
 9196SOL    HW228488   4.776   2.204   4.993
 9197SOL     OW28489   2.330   3.708   1.669
 9197SOL    HW128490   2.349   3.791   1.723
 9197SOL    HW228491   2.314   3.632   1.731
 9198SOL     OW28492   6.554   5.312   4.559
 9198SOL    HW128493   6.528   5.406   4.536
 9198SOL    HW228494   6.478   5.268   4.606
 9199SOL     OW28495   6.254   4.393   4.725
 9199SOL    HW128496   6.283   4.354   4.637
 9199SOL    HW228497   6.265   4.325   4.797
 9200SOL     OW28498   3.304   0.210   0.767
 9200SOL    HW128499   3.219   0.252   0.734
 9200SOL    HW228500   3.330   0.252   0.854
 9201SOL     OW28501   1.665   4.251   0.358
 9201SOL    HW128502   1.573   4.286   0.338
 9201SOL    HW228503   1.673   4.234   0.456
 9202SOL     OW28504   2.515   0.011   3.386
 9202SOL    HW128505   2.613   0.026   3.400
 9202SOL    HW228506   2.464   0.092   3.416
 9203SOL     OW28507   6.865   5.902   0.808
 9203SOL    HW128508   6.776   5.871   0.839
 9203SOL    HW228509   6.869   5.897   0.708
 9204SOL     OW28510   4.925   0.924   6.051
 9204SOL    HW128511   4.909   0.976   5.967
 9204SOL    HW228512   4.943   0.988   6.126
 9205SOL     OW28513   0.049   4.194   2.285
 9205SOL    HW128514   0.117   4.266   2.294
 9205SOL    HW228515   0.093   4.105   2.292
 9206SOL     OW28516   3.230   5.871   0.421
 9206SOL    HW128517   3.138   5.832   0.423
 9206SOL    HW228518   3.224   5.971   0.425
 9207SOL     OW28519   4.961   5.477   0.307
 9207SOL    HW128520   5.053   5.450   0.279
 9207SOL    HW228521   4.894   5.419   0.259
 9208SOL     OW28522   0.724   3.776   3.532
 9208SOL    HW128523   0.717   3.688   3.484
 9208SOL    HW228524   0.758   3.761   3.624
 9209SOL     OW28525   2.984   0.760   6.237
 9209SOL    HW128526   3.041   0.762   6.155
 9209SOL    HW228527   3.041   0.773   6.318
 9210SOL     OW28528   6.728   0.831   3.462
 9210SOL    HW128529   6.672   0.754   3.432
 9210SOL    HW228530   6.689   0.917   3.429
 9211SOL     OW28531   0.987   1.574   3.291
 9211SOL    HW128532   0.961   1.513   3.366
 9211SOL    HW228533   1.028   1.520   3.217
 9212SOL     OW28534   3.206   4.953   4.793
 9212SOL    HW128535   3.201   4.970   4.695
 9212SOL    HW228536   3.120   4.910   4.823
 9213SOL     OW28537   6.223   3.709   6.241
 9213SOL    HW128538   6.138   3.685   6.194
 9213SOL    HW228539   6.214   3.799   6.283
 9214SOL     OW28540   0.288   5.004   0.989
 9214SOL    HW128541   0.194   5.010   1.022
 9214SOL    HW228542   0.320   4.910   1.000
 9215SOL     OW28543   0.951   1.131   0.683
 9215SOL    HW128544   0.969   1.150   0.587
 9215SOL    HW228545   1.031   1.156   0.738
 9216SOL     OW28546   2.171   6.411   3.096
 9216SOL    HW128547   2.166   6.509   3.117
 9216SOL    HW228548   2.263   6.388   3.065
 9217SOL     OW28549   0.966   2.750   6.966
 9217SOL    HW128550   0.878   2.793   6.948
 9217SOL    HW228551   1.031   2.774   6.893
 9218SOL     OW28552   3.121   0.653   0.359
 9218SOL    HW128553   3.068   0.652   0.274
 9218SOL    HW228554   3.063   0.624   0.435
 9219SOL     OW28555   0.038   2.671   0.691
 9219SOL    HW128556   0.091   2.681   0.775
 9219SOL    HW228557   0.091   2.621   0.623
 9220SOL     OW28558   3.650   6.652   1.985
 9220SOL    HW128559   3.719   6.691   2.046
 9220SOL    HW228560   3.567   6.632   2.037
 9221SOL     OW28561   2.753   5.572   4.286
 9221SOL    HW128562   2.761   5.476   4.313
 9221SOL    HW228563   2.659   5.603   4.299
 9222SOL     OW28564   2.445   2.352   5.931
 9222SOL    HW128565   2.363   2.390   5.889
 9222SOL    HW228566   2.419   2.283   5.998
 9223SOL     OW28567   2.673   3.103   5.326
 9223SOL    HW128568   2.628   3.181   5.368
 9223SOL    HW228569   2.614   3.066   5.254
 9224SOL     OW28570   2.197   4.700   5.162
 9224SOL    HW128571   2.200   4.685   5.261
 9224SOL    HW228572   2.223   4.795   5.142
 9225SOL     OW28573   2.433   6.052   6.681
 9225SOL    HW128574   2.374   6.091   6.610
 9225SOL    HW228575   2.436   5.953   6.671
 9226SOL     OW28576   4.783   6.841   1.119
 9226SOL    HW128577   4.779   6.760   1.176
 9226SOL    HW228578   4.694   6.887   1.119
 9227SOL     OW28579   1.924   5.702   2.465
 9227SOL    HW128580   1.930   5.774   2.395
 9227SOL    HW228581   2.008   5.647   2.463
 9228SOL     OW28582   0.919   0.264   6.876
 9228SOL    HW128583   0.916   0.343   6.815
 9228SOL    HW228584   0.883   0.290   6.966
 9229SOL     OW28585   0.765   5.191   5.231
 9229SOL    HW128586   0.701   5.242   5.289
 9229SOL    HW228587   0.724   5.179   5.140
 9230SOL     OW28588   5.433   0.542   4.348
 9230SOL    HW128589   5.496   0.471   4.380
 9230SOL    HW228590   5.485   0.620   4.314
 9231SOL     OW28591   1.348   3.116   3.490
 9231SOL    HW128592   1.285   3.095   3.566
 9231SOL    HW228593   1.405   3.194   3.515
 9232SOL     OW28594   3.803   4.698   1.192
 9232SOL    HW128595   3.771   4.782   1.236
 9232SOL    HW228596   3.826   4.630   1.261
 9233SOL     OW28597   5.331   5.227   0.878
 9233SOL    HW128598   5.407   5.173   0.843
 9233SOL    HW228599   5.322   5.311   0.824
 9234SOL     OW28600   2.041   5.995   4.173
 9234SOL    HW128601   1.970   6.038   4.229
 9234SOL    HW228602   2.110   6.064   4.149
 9235SOL     OW28603   0.602   2.212   3.348
 9235SOL    HW128604   0.624   2.307   3.326
 9235SOL    HW228605   0.639   2.152   3.277
 9236SOL     OW28606   2.875   3.200   5.528
 9236SOL    HW128607   2.776   3.208   5.533
 9236SOL    HW228608   2.900   3.108   5.496
 9237SOL     OW28609   1.641   3.609   3.676
 9237SOL    HW128610   1.695   3.677   3.627
 9237SOL    HW228611   1.618   3.643   3.767
 9238SOL     OW28612   4.525   3.011   6.129
 9238SOL    HW128613   4.442   3.050   6.090
 9238SOL    HW228614   4.565   2.946   6.064
 9239SOL     OW28615   1.975   4.293   0.702
 9239SOL    HW128616   1.977   4.256   0.795
 9239SOL    HW228617   1.917   4.235   0.645
 9240SOL     OW28618   4.677   1.327   2.307
 9240SOL    HW128619   4.713   1.373   2.226
 9240SOL    HW228620   4.752   1.303   2.368
 9241SOL     OW28621   0.318   5.891   6.787
 9241SOL    HW128622   0.410   5.865   6.817
 9241SOL    HW228623   0.252   5.863   6.857
 9242SOL     OW28624   6.827   6.125   1.907
 9242SOL    HW128625   6.829   6.077   1.819
 9242SOL    HW228626   6.770   6.207   1.898
 9243SOL     OW28627   5.785   5.715   5.038
 9243SOL    HW128628   5.746   5.755   4.955
 9243SOL    HW228629   5.734   5.632   5.062
 9244SOL     OW28630   3.697   5.114   6.601
 9244SOL    HW128631   3.646   5.056   6.537
 9244SOL    HW228632   3.717   5.201   6.558
 9245SOL     OW28633   0.392   5.455   1.411
 9245SOL    HW128634   0.353   5.425   1.497
 9245SOL    HW228635   0.445   5.380   1.370
 9246SOL     OW28636   0.255   5.009   3.877
 9246SOL    HW128637   0.180   4.949   3.906
 9246SOL    HW228638   0.341   4.959   3.882
 9247SOL     OW28639   1.949   6.337   2.189
 9247SOL    HW128640   1.944   6.436   2.197
 9247SOL    HW228641   2.037   6.304   2.223
 9248SOL     OW28642   2.829   1.394   6.289
 9248SOL    HW128643   2.903   1.329   6.272
 9248SOL    HW228644   2.792   1.380   6.381
 9249SOL     OW28645   4.808   0.351   3.676
 9249SOL    HW128646   4.822   0.254   3.655
 9249SOL    HW228647   4.749   0.359   3.756
 9250SOL     OW28648   5.170   3.424   4.086
 9250SOL    HW128649   5.125   3.392   4.170
 9250SOL    HW228650   5.225   3.350   4.047
 9251SOL     OW28651   3.275   2.010   2.484
 9251SOL    HW128652   3.248   1.934   2.543
 9251SOL    HW228653   3.205   2.025   2.414
 9252SOL     OW28654   1.052   0.098   4.809
 9252SOL    HW128655   1.045   0.027   4.740
 9252SOL    HW228656   0.981   0.167   4.793
 9253SOL     OW28657   1.062   6.839   6.048
 9253SOL    HW128658   1.077   6.938   6.040
 9253SOL    HW228659   1.047   6.800   5.957
 9254SOL     OW28660   5.767   3.684   1.435
 9254SOL    HW128661   5.680   3.732   1.428
 9254SOL    HW228662   5.842   3.748   1.423
 9255SOL     OW28663   5.825   4.488   0.913
 9255SOL    HW128664   5.915   4.453   0.937
 9255SOL    HW228665   5.834   4.572   0.861
 9256SOL     OW28666   4.121   4.708   1.877
 9256SOL    HW128667   4.089   4.752   1.793
 9256SOL    HW228668   4.219   4.690   1.868
 9257SOL     OW28669   1.204   4.465   1.100
 9257SOL    HW128670   1.233   4.459   1.004
 9257SOL    HW228671   1.211   4.559   1.132
 9258SOL     OW28672   4.117   3.496   3.373
 9258SOL    HW128673   4.019   3.492   3.391
 9258SOL    HW228674   4.161   3.556   3.441
 9259SOL     OW28675   0.933   3.086   0.420
 9259SOL    HW128676   0.939   3.185   0.407
 9259SOL    HW228677   0.844   3.064   0.461
 9260SOL     OW28678   5.165   3.384   5.841
 9260SOL    HW128679   5.066   3.372   5.839
 9260SOL    HW228680   5.186   3.475   5.877
 9261SOL     OW28681   4.423   6.946   6.549
 9261SOL    HW128682   4.512   6.913   6.581
 9261SOL    HW228683   4.427   6.960   6.450
 9262SOL     OW28684   4.626   1.459   5.664
 9262SOL    HW128685   4.613   1.367   5.628
 9262SOL    HW228686   4.603   1.461   5.761
 9263SOL     OW28687   5.287   3.866   1.687
 9263SOL    HW128688   5.228   3.922   1.628
 9263SOL    HW228689   5.379   3.861   1.648
 9264SOL     OW28690   6.286   3.815   0.539
 9264SOL    HW128691   6.265   3.771   0.452
 9264SOL    HW228692   6.255   3.756   0.614
 9265SOL     OW28693   1.615   1.025   6.748
 9265SOL    HW128694   1.556   0.952   6.782
 9265SOL    HW228695   1.573   1.113   6.768
 9266SOL     OW28696   1.809   5.936   3.135
 9266SOL    HW128697   1.798   5.913   3.231
 9266SOL    HW228698   1.874   5.872   3.093
 9267SOL     OW28699   1.769   4.633   4.760
 9267SOL    HW128700   1.858   4.586   4.760
 9267SOL    HW228701   1.741   4.650   4.666
 9268SOL     OW28702   0.828   0.291   3.031
 9268SOL    HW128703   0.734   0.265   3.049
 9268SOL    HW228704   0.831   0.384   2.995
 9269SOL     OW28705   3.339   1.297   6.130
 9269SOL    HW128706   3.272   1.353   6.081
 9269SOL    HW228707   3.293   1.218   6.170
 9270SOL     OW28708   6.722   6.812   5.635
 9270SOL    HW128709   6.795   6.799   5.567
 9270SOL    HW228710   6.654   6.875   5.598
 9271SOL     OW28711   1.354   5.170   0.387
 9271SOL    HW128712   1.308   5.115   0.317
 9271SOL    HW228713   1.362   5.117   0.471
 9272SOL     OW28714   2.512   4.784   6.191
 9272SOL    HW128715   2.597   4.835   6.207
 9272SOL    HW228716   2.516   4.696   6.238
 9273SOL     OW28717   4.250   5.960   4.994
 9273SOL    HW128718   4.344   5.989   5.015
 9273SOL    HW228719   4.187   6.034   5.016
 9274SOL     OW28720   6.152   2.162   0.096
 9274SOL    HW128721   6.237   2.172   0.147
 9274SOL    HW228722   6.077   2.141   0.159
 9275SOL     OW28723   0.865   0.466   6.665
 9275SOL    HW128724   0.828   0.396   6.604
 9275SOL    HW228725   0.921   0.529   6.612
 9276SOL     OW28726   4.525   5.976   5.063
 9276SOL    HW128727   4.598   5.912   5.084
 9276SOL    HW228728   4.557   6.044   4.997
 9277SOL     OW28729   3.629   2.963   0.037
 9277SOL    HW128730   3.634   3.062   0.023
 9277SOL    HW228731   3.687   2.917   6.993
 9278SOL     OW28732   1.016   2.188   2.093
 9278SOL    HW128733   1.002   2.172   1.996
 9278SOL    HW228734   0.945   2.250   2.127
 9279SOL     OW28735   3.671   0.101   2.099
 9279SOL    HW128736   3.616   0.105   2.183
 9279SOL    HW228737   3.768   0.105   2.122
 9280SOL     OW28738   2.258   6.771   4.119
 9280SOL    HW128739   2.226   6.753   4.026
 9280SOL    HW228740   2.206   6.716   4.184
 9281SOL     OW28741   2.029   2.191   0.383
 9281SOL    HW128742   2.116   2.183   0.334
 9281SOL    HW228743   1.957   2.220   0.319
 9282SOL     OW28744   4.549   2.031   5.744
 9282SOL    HW128745   4.589   1.956   5.691
 9282SOL    HW228746   4.526   2.106   5.682
 9283SOL     OW28747   5.956   2.425   2.225
 9283SOL    HW128748   5.861   2.400   2.240
 9283SOL    HW228749   5.987   2.387   2.138
 9284SOL     OW28750   2.782   3.434   1.391
 9284SOL    HW128751   2.694   3.469   1.360
 9284SOL    HW228752   2.770   3.385   1.477
 9285SOL     OW28753   6.444   3.101   6.702
 9285SOL    HW128754   6.487   3.039   6.767
 9285SOL    HW228755   6.383   3.164   6.750
 9286SOL     OW28756   5.661   6.631   5.305
 9286SOL    HW128757   5.757   6.652   5.291
 9286SOL    HW228758   5.636   6.552   5.249
 9287SOL     OW28759   3.498   6.850   1.756
 9287SOL    HW128760   3.512   6.855   1.855
 9287SOL    HW228761   3.401   6.837   1.736
 9288SOL     OW28762   5.113   2.336   5.738
 9288SOL    HW128763   5.124   2.433   5.762
 9288SOL    HW228764   5.113   2.326   5.639
 9289SOL     OW28765   4.872   3.090   2.823
 9289SOL    HW128766   4.916   3.084   2.913
 9289SOL    HW228767   4.823   3.177   2.815
 9290SOL     OW28768   5.044   1.601   4.673
 9290SOL    HW128769   4.971   1.663   4.644
 9290SOL    HW228770   5.050   1.601   4.772
 9291SOL     OW28771   0.485   1.635   4.378
 9291SOL    HW128772   0.530   1.685   4.304
 9291SOL    HW228773   0.430   1.561   4.340
 9292SOL     OW28774   0.401   3.180   6.706
 9292SOL    HW128775   0.346   3.238   6.645
 9292SOL    HW228776   0.434   3.234   6.783
 9293SOL     OW28777   5.460   4.020   0.062
 9293SOL    HW128778   5.461   4.099   0.000
 9293SOL    HW228779   5.486   3.938   0.011
 9294SOL     OW28780   6.242   6.109   6.857
 9294SOL    HW128781   6.235   6.009   6.856
 9294SOL    HW228782   6.157   6.148   6.821
 9295SOL     OW28783   4.542   1.570   3.176
 9295SOL    HW128784   4.454   1.538   3.210
 9295SOL    HW228785   4.587   1.625   3.246
 9296SOL     OW28786   6.002   0.267   5.613
 9296SOL    HW128787   5.919   0.264   5.557
 9296SOL    HW228788   6.011   0.181   5.664
 9297SOL     OW28789   0.600   1.081   0.873
 9297SOL    HW128790   0.619   1.020   0.950
 9297SOL    HW228791   0.506   1.116   0.881
 9298SOL     OW28792   1.325   5.868   4.872
 9298SOL    HW128793   1.359   5.885   4.965
 9298SOL    HW228794   1.287   5.776   4.867
 9299SOL     OW28795   1.900   3.172   4.343
 9299SOL    HW128796   1.991   3.159   4.303
 9299SOL    HW228797   1.857   3.253   4.304
 9300SOL     OW28798   5.647   4.368   4.452
 9300SOL    HW128799   5.555   4.404   4.470
 9300SOL    HW228800   5.704   4.380   4.533
 9301SOL     OW28801   5.395   4.207   2.554
 9301SOL    HW128802   5.483   4.165   2.578
 9301SOL    HW228803   5.411   4.288   2.498
 9302SOL     OW28804   2.107   2.064   2.442
 9302SOL    HW128805   2.175   2.043   2.512
 9302SOL    HW228806   2.017   2.075   2.485
 9303SOL     OW28807   3.649   5.700   0.129
 9303SOL    HW128808   3.657   5.627   0.197
 9303SOL    HW228809   3.604   5.779   0.171
 9304SOL     OW28810   3.571   3.375   1.015
 9304SOL    HW128811   3.508   3.301   1.038
 9304SOL    HW228812   3.553   3.454   1.074
 9305SOL     OW28813   5.275   3.052   2.072
 9305SOL    HW128814   5.370   3.082   2.076
 9305SOL    HW228815   5.256   2.990   2.148
 9306SOL     OW28816   6.774   3.859   4.251
 9306SOL    HW128817   6.750   3.788   4.317
 9306SOL    HW228818   6.692   3.886   4.201
 9307SOL     OW28819   1.941   1.954   6.864
 9307SOL    HW128820   1.864   1.891   6.876
 9307SOL    HW228821   2.013   1.932   6.928
 9308SOL     OW28822   0.044   2.943   0.889
 9308SOL    HW128823   6.999   3.003   0.931
 9308SOL    HW228824   0.070   2.980   0.799
 9309SOL     OW28825   5.058   3.199   6.113
 9309SOL    HW128826   5.084   3.181   6.207
 9309SOL    HW228827   5.025   3.114   6.071
 9310SOL     OW28828   4.126   5.740   6.568
 9310SOL    HW128829   4.214   5.695   6.578
 9310SOL    HW228830   4.071   5.692   6.500
 9311SOL     OW28831   6.275   3.235   1.132
 9311SOL    HW128832   6.227   3.175   1.196
 9311SOL    HW228833   6.220   3.246   1.049
 9312SOL     OW28834   1.623   4.268   6.415
 9312SOL    HW128835   1.680   4.337   6.461
 9312SOL    HW228836   1.565   4.312   6.347
 9313SOL     OW28837   6.575   6.970   2.920
 9313SOL    HW128838   6.478   6.965   2.941
 9313SOL    HW228839   6.622   6.893   2.964
 9314SOL     OW28840   4.977   4.387   0.130
 9314SOL    HW128841   4.973   4.353   0.224
 9314SOL    HW228842   4.896   4.442   0.110
 9315SOL     OW28843   0.208   6.458   6.245
 9315SOL    HW128844   0.283   6.394   6.256
 9315SOL    HW228845   0.149   6.455   6.326
 9316SOL     OW28846   4.153   5.882   3.824
 9316SOL    HW128847   4.064   5.870   3.869
 9316SOL    HW228848   4.193   5.793   3.804
 9317SOL     OW28849   6.320   4.518   3.701
 9317SOL    HW128850   6.251   4.519   3.774
 9317SOL    HW228851   6.325   4.427   3.660
 9318SOL     OW28852   6.824   0.247   6.135
 9318SOL    HW128853   6.810   0.264   6.038
 9318SOL    HW228854   6.920   0.227   6.153
 9319SOL     OW28855   0.235   3.429   5.435
 9319SOL    HW128856   0.200   3.478   5.514
 9319SOL    HW228857   0.265   3.338   5.462
 9320SOL     OW28858   4.701   2.636   6.226
 9320SOL    HW128859   4.628   2.631   6.294
 9320SOL    HW228860   4.709   2.548   6.179
 9321SOL     OW28861   6.683   5.867   2.786
 9321SOL    HW128862   6.759   5.902   2.731
 9321SOL    HW228863   6.716   5.847   2.878
 9322SOL     OW28864   1.262   6.272   6.609
 9322SOL    HW128865   1.339   6.227   6.655
 9322SOL    HW228866   1.292   6.306   6.520
 9323SOL     OW28867   0.278   0.624   6.291
 9323SOL    HW128868   0.329   0.653   6.210
 9323SOL    HW228869   0.201   0.566   6.262
 9324SOL     OW28870   1.235   5.716   0.116
 9324SOL    HW128871   1.314   5.775   0.134
 9324SOL    HW228872   1.267   5.632   0.071
 9325SOL     OW28873   6.173   2.242   1.007
 9325SOL    HW128874   6.116   2.172   1.050
 9325SOL    HW228875   6.194   2.313   1.074
 9326SOL     OW28876   1.911   6.451   1.290
 9326SOL    HW128877   1.821   6.453   1.246
 9326SOL    HW228878   1.961   6.534   1.266
 9327SOL     OW28879   4.245   1.462   3.103
 9327SOL    HW128880   4.296   1.399   3.044
 9327SOL    HW228881   4.198   1.530   3.046
 9328SOL     OW28882   3.355   1.226   1.632
 9328SOL    HW128883   3.278   1.163   1.628
 9328SOL    HW228884   3.414   1.212   1.552
 9329SOL     OW28885   1.510   3.473   1.438
 9329SOL    HW128886   1.594   3.463   1.386
 9329SOL    HW228887   1.508   3.563   1.482
 9330SOL     OW28888   5.957   0.956   6.992
 9330SOL    HW128889   5.997   0.893   6.926
 9330SOL    HW228890   5.983   1.049   6.969
 9331SOL     OW28891   0.756   1.333   0.016
 9331SOL    HW128892   0.656   1.342   0.022
 9331SOL    HW228893   0.793   1.322   0.108
 9332SOL     OW28894   3.468   3.146   4.115
 9332SOL    HW128895   3.452   3.170   4.211
 9332SOL    HW228896   3.537   3.074   4.110
 9333SOL     OW28897   5.769   4.875   1.012
 9333SOL    HW128898   5.744   4.956   0.959
 9333SOL    HW228899   5.686   4.824   1.036
 9334SOL     OW28900   2.756   6.948   5.085
 9334SOL    HW128901   2.696   6.967   5.007
 9334SOL    HW228902   2.717   6.986   5.168
 9335SOL     OW28903   0.328   0.822   0.458
 9335SOL    HW128904   0.422   0.848   0.481
 9335SOL    HW228905   0.328   0.732   0.415
 9336SOL     OW28906   2.904   6.836   5.685
 9336SOL    HW128907   2.991   6.884   5.697
 9336SOL    HW228908   2.851   6.880   5.614
 9337SOL     OW28909   5.281   0.527   2.609
 9337SOL    HW128910   5.310   0.523   2.513
 9337SOL    HW228911   5.225   0.447   2.630
 9338SOL     OW28912   3.703   0.241   1.662
 9338SOL    HW128913   3.701   0.161   1.722
 9338SOL    HW228914   3.764   0.223   1.584
 9339SOL     OW28915   4.676   6.476   0.678
 9339SOL    HW128916   4.773   6.485   0.656
 9339SOL    HW228917   4.659   6.386   0.719
 9340SOL     OW28918   6.292   3.310   6.828
 9340SOL    HW128919   6.254   3.402   6.828
 9340SOL    HW228920   6.219   3.244   6.847
 9341SOL     OW28921   6.924   5.425   6.418
 9341SOL    HW128922   7.004   5.384   6.462
 9341SOL    HW228923   6.952   5.505   6.365
 9342SOL     OW28924   1.364   6.355   6.106
 9342SOL    HW128925   1.328   6.306   6.027
 9342SOL    HW228926   1.326   6.447   6.108
 9343SOL     OW28927   6.065   5.388   5.098
 9343SOL    HW128928   6.079   5.483   5.072
 9343SOL    HW228929   6.030   5.383   5.192
 9344SOL     OW28930   5.241   6.984   1.672
 9344SOL    HW128931   5.212   7.009   1.580
 9344SOL    HW228932   5.317   0.018   1.701
 9345SOL     OW28933   6.866   3.033   1.058
 9345SOL    HW128934   6.828   3.116   1.098
 9345SOL    HW228935   6.868   2.961   1.128
 9346SOL     OW28936   5.724   0.012   0.574
 9346SOL    HW128937   5.745   6.972   0.648
 9346SOL    HW228938   5.626   0.032   0.574
 9347SOL     OW28939   1.631   6.660   1.786
 9347SOL    HW128940   1.672   6.579   1.830
 9347SOL    HW228941   1.701   6.706   1.732
 9348SOL     OW28942   3.206   4.830   6.646
 9348SOL    HW128943   3.239   4.801   6.736
 9348SOL    HW228944   3.255   4.913   6.617
 9349SOL     OW28945   2.078   6.626   2.830
 9349SOL    HW128946   2.092   6.724   2.817
 9349SOL    HW228947   2.158   6.576   2.798
 9350SOL     OW28948   0.784   2.904   6.045
 9350SOL    HW128949   0.789   2.947   6.136
 9350SOL    HW228950   0.820   2.811   6.050
 9351SOL     OW28951   2.877   1.930   6.741
 9351SOL    HW128952   2.792   1.883   6.763
 9351SOL    HW228953   2.952   1.890   6.794
 9352SOL     OW28954   2.412   4.584   5.506
 9352SOL    HW128955   2.438   4.509   5.446
 9352SOL    HW228956   2.495   4.632   5.537
 9353SOL     OW28957   6.686   0.407   1.115
 9353SOL    HW128958   6.710   0.338   1.047
 9353SOL    HW228959   6.678   0.364   1.205
 9354SOL     OW28960   0.363   2.329   6.530
 9354SOL    HW128961   0.278   2.340   6.478
 9354SOL    HW228962   0.344   2.278   6.614
 9355SOL     OW28963   0.385   1.637   5.552
 9355SOL    HW128964   0.466   1.621   5.496
 9355SOL    HW228965   0.313   1.572   5.527
 9356SOL     OW28966   5.499   6.955   2.759
 9356SOL    HW128967   5.432   6.967   2.833
 9356SOL    HW228968   5.540   6.864   2.767
 9357SOL     OW28969   1.080   2.164   6.898
 9357SOL    HW128970   1.095   2.114   6.984
 9357SOL    HW228971   0.985   2.153   6.869
 9358SOL     OW28972   0.946   3.456   1.003
 9358SOL    HW128973   0.925   3.474   1.099
 9358SOL    HW228974   0.885   3.385   0.969
 9359SOL     OW28975   1.855   0.517   5.781
 9359SOL    HW128976   1.882   0.591   5.843
 9359SOL    HW228977   1.825   0.556   5.694
 9360SOL     OW28978   1.110   6.844   6.318
 9360SOL    HW128979   1.098   6.833   6.220
 9360SOL    HW228980   1.205   6.869   6.338
 9361SOL     OW28981   1.746   6.012   4.096
 9361SOL    HW128982   1.846   6.019   4.097
 9361SOL    HW228983   1.716   5.955   4.172
 9362SOL     OW28984   2.106   6.859   2.411
 9362SOL    HW128985   2.134   6.849   2.316
 9362SOL    HW228986   2.015   6.818   2.423
 9363SOL     OW28987   1.815   4.710   2.182
 9363SOL    HW128988   1.797   4.749   2.272
 9363SOL    HW228989   1.861   4.622   2.193
 9364SOL     OW28990   1.149   2.550   1.044
 9364SOL    HW128991   1.076   2.561   1.111
 9364SOL    HW228992   1.235   2.584   1.082
 9365SOL     OW28993   3.087   1.735   4.297
 9365SOL    HW128994   3.103   1.706   4.202
 9365SOL    HW228995   3.062   1.832   4.297
 9366SOL     OW28996   3.839   5.816   1.915
 9366SOL    HW128997   3.823   5.828   2.013
 9366SOL    HW228998   3.789   5.736   1.883
 9367SOL     OW28999   6.961   0.783   1.337
 9367SOL    HW129000   0.036   0.788   1.356
 9367SOL    HW229001   6.936   0.688   1.317
 9368SOL     OW29002   3.195   6.904   3.230
 9368SOL    HW129003   3.253   6.835   3.187
 9368SOL    HW229004   3.244   6.946   3.306
 9369SOL     OW29005   3.007   5.188   0.361
 9369SOL    HW129006   3.019   5.090   0.376
 9369SOL    HW229007   2.979   5.204   0.266
 9370SOL     OW29008   4.565   1.775   4.232
 9370SOL    HW129009   4.623   1.856   4.241
 9370SOL    HW229010   4.588   1.710   4.304
 9371SOL     OW29011   4.427   5.627   1.287
 9371SOL    HW129012   4.475   5.705   1.246
 9371SOL    HW229013   4.481   5.544   1.274
 9372SOL     OW29014   4.669   6.345   1.562
 9372SOL    HW129015   4.619   6.413   1.509
 9372SOL    HW229016   4.768   6.359   1.551
 9373SOL     OW29017   0.029   2.703   1.014
 9373SOL    HW129018   0.021   2.788   0.961
 9373SOL    HW229019   6.981   2.640   0.986
 9374SOL     OW29020   0.046   5.494   5.491
 9374SOL    HW129021   0.016   5.402   5.513
 9374SOL    HW229022   0.109   5.491   5.412
 9375SOL     OW29023   0.653   1.154   0.406
 9375SOL    HW129024   0.605   1.080   0.359
 9375SOL    HW229025   0.674   1.125   0.500
 9376SOL     OW29026   2.343   4.098   1.443
 9376SOL    HW129027   2.395   4.125   1.524
 9376SOL    HW229028   2.357   4.001   1.425
 9377SOL     OW29029   1.603   0.926   3.375
 9377SOL    HW129030   1.659   0.937   3.458
 9377SOL    HW229031   1.629   0.841   3.328
 9378SOL     OW29032   3.383   0.814   4.886
 9378SOL    HW129033   3.372   0.744   4.816
 9378SOL    HW229034   3.427   0.895   4.846
 9379SOL     OW29035   4.593   6.590   4.345
 9379SOL    HW129036   4.607   6.506   4.398
 9379SOL    HW229037   4.665   6.655   4.367
 9380SOL     OW29038   5.158   5.788   0.064
 9380SOL    HW129039   5.203   5.842   0.135
 9380SOL    HW229040   5.211   5.706   0.046
 9381SOL     OW29041   5.685   1.557   4.969
 9381SOL    HW129042   5.765   1.501   4.992
 9381SOL    HW229043   5.715   1.649   4.945
 9382SOL     OW29044   3.059   5.836   5.625
 9382SOL    HW129045   3.133   5.801   5.684
 9382SOL    HW229046   3.016   5.759   5.577
 9383SOL     OW29047   5.913   4.030   2.430
 9383SOL    HW129048   5.976   3.952   2.438
 9383SOL    HW229049   5.937   4.099   2.498
 9384SOL     OW29050   2.439   0.710   2.001
 9384SOL    HW129051   2.372   0.646   2.040
 9384SOL    HW229052   2.528   0.694   2.043
 9385SOL     OW29053   4.766   1.601   3.917
 9385SOL    HW129054   4.801   1.517   3.877
 9385SOL    HW229055   4.679   1.582   3.963
 9386SOL     OW29056   4.965   5.938   0.394
 9386SOL    HW129057   4.894   6.008   0.406
 9386SOL    HW229058   4.925   5.856   0.354
 9387SOL     OW29059   2.968   2.472   0.388
 9387SOL    HW129060   3.023   2.501   0.466
 9387SOL    HW229061   3.013   2.498   0.303
 9388SOL     OW29062   2.038   0.026   5.311
 9388SOL    HW129063   2.137   0.015   5.317
 9388SOL    HW229064   2.009   0.016   5.215
 9389SOL     OW29065   1.967   4.926   2.084
 9389SOL    HW129066   2.001   4.942   1.992
 9389SOL    HW229067   1.905   4.847   2.084
 9390SOL     OW29068   5.208   5.149   4.565
 9390SOL    HW129069   5.118   5.127   4.529
 9390SOL    HW229070   5.218   5.111   4.657
 9391SOL     OW29071   1.402   3.989   4.225
 9391SOL    HW129072   1.441   3.943   4.305
 9391SOL    HW229073   1.319   3.942   4.196
 9392SOL     OW29074   5.063   4.547   2.987
 9392SOL    HW129075   4.972   4.565   2.950
 9392SOL    HW229076   5.060   4.464   3.044
 9393SOL     OW29077   2.100   6.328   6.016
 9393SOL    HW129078   2.017   6.384   6.024
 9393SOL    HW229079   2.170   6.363   6.078
 9394SOL     OW29080   3.847   0.768   0.481
 9394SOL    HW129081   3.876   0.857   0.514
 9394SOL    HW229082   3.921   0.726   0.428
 9395SOL     OW29083   1.828   1.554   0.784
 9395SOL    HW129084   1.795   1.471   0.740
 9395SOL    HW229085   1.837   1.538   0.883
 9396SOL     OW29086   0.889   6.769   6.522
 9396SOL    HW129087   0.831   6.704   6.473
 9396SOL    HW229088   0.978   6.776   6.477
 9397SOL     OW29089   3.431   0.540   5.024
 9397SOL    HW129090   3.472   0.625   5.058
 9397SOL    HW229091   3.367   0.562   4.951
 9398SOL     OW29092   0.852   2.214   0.069
 9398SOL    HW129093   0.930   2.212   0.131
 9398SOL    HW229094   0.768   2.197   0.120
 9399SOL     OW29095   0.882   2.905   4.419
 9399SOL    HW129096   0.908   2.835   4.485
 9399SOL    HW229097   0.928   2.991   4.442
 9400SOL     OW29098   5.738   1.471   1.013
 9400SOL    HW129099   5.814   1.534   1.001
 9400SOL    HW229100   5.656   1.521   1.039
 9401SOL     OW29101   0.274   2.398   3.694
 9401SOL    HW129102   0.307   2.427   3.784
 9401SOL    HW229103   0.199   2.332   3.705
 9402SOL     OW29104   2.444   6.729   4.666
 9402SOL    HW129105   2.377   6.803   4.669
 9402SOL    HW229106   2.521   6.756   4.609
 9403SOL     OW29107   5.713   2.206   1.838
 9403SOL    HW129108   5.726   2.126   1.896
 9403SOL    HW229109   5.770   2.198   1.756
 9404SOL     OW29110   2.240   2.354   0.783
 9404SOL    HW129111   2.261   2.318   0.874
 9404SOL    HW229112   2.301   2.313   0.716
 9405SOL     OW29113   6.778   5.717   5.415
 9405SOL    HW129114   6.864   5.747   5.456
 9405SOL    HW229115   6.765   5.619   5.433
 9406SOL     OW29116   0.938   2.512   0.295
 9406SOL    HW129117   0.921   2.439   0.361
 9406SOL    HW229118   0.926   2.476   0.202
 9407SOL     OW29119   2.090   4.904   5.373
 9407SOL    HW129120   2.020   4.874   5.308
 9407SOL    HW229121   2.119   4.997   5.349
 9408SOL     OW29122   6.745   3.656   4.408
 9408SOL    HW129123   6.800   3.650   4.491
 9408SOL    HW229124   6.666   3.595   4.416
 9409SOL     OW29125   6.287   5.441   2.402
 9409SOL    HW129126   6.320   5.449   2.497
 9409SOL    HW229127   6.350   5.383   2.351
 9410SOL     OW29128   3.782   0.864   0.963
 9410SOL    HW129129   3.711   0.796   0.946
 9410SOL    HW229130   3.857   0.852   0.898
 9411SOL     OW29131   3.146   3.533   2.728
 9411SOL    HW129132   3.214   3.529   2.655
 9411SOL    HW229133   3.059   3.494   2.696
 9412SOL     OW29134   5.364   6.332   1.715
 9412SOL    HW129135   5.360   6.244   1.762
 9412SOL    HW229136   5.363   6.318   1.616
 9413SOL     OW29137   4.726   4.161   2.890
 9413SOL    HW129138   4.752   4.211   2.972
 9413SOL    HW229139   4.766   4.069   2.894
 9414SOL     OW29140   2.037   2.332   3.609
 9414SOL    HW129141   2.118   2.315   3.553
 9414SOL    HW229142   1.968   2.379   3.553
 9415SOL     OW29143   5.166   1.050   2.113
 9415SOL    HW129144   5.073   1.025   2.087
 9415SOL    HW229145   5.232   1.003   2.055
 9416SOL     OW29146   5.388   5.130   5.434
 9416SOL    HW129147   5.401   5.052   5.372
 9416SOL    HW229148   5.330   5.102   5.510
 9417SOL     OW29149   3.252   5.601   2.728
 9417SOL    HW129150   3.290   5.666   2.662
 9417SOL    HW229151   3.242   5.647   2.816
 9418SOL     OW29152   3.205   1.524   5.297
 9418SOL    HW129153   3.117   1.557   5.331
 9418SOL    HW229154   3.190   1.449   5.232
 9419SOL     OW29155   1.523   2.979   6.562
 9419SOL    HW129156   1.593   2.915   6.529
 9419SOL    HW229157   1.473   2.937   6.638
 9420SOL     OW29158   5.831   4.291   6.364
 9420SOL    HW129159   5.884   4.276   6.281
 9420SOL    HW229160   5.744   4.335   6.341
 9421SOL     OW29161   3.791   6.275   6.905
 9421SOL    HW129162   3.804   6.349   6.839
 9421SOL    HW229163   3.869   6.270   6.966
 9422SOL     OW29164   2.192   6.232   5.789
 9422SOL    HW129165   2.292   6.241   5.790
 9422SOL    HW229166   2.157   6.238   5.883
 9423SOL     OW29167   4.393   4.608   2.356
 9423SOL    HW129168   4.450   4.544   2.306
 9423SOL    HW229169   4.308   4.624   2.307
 9424SOL     OW29170   6.356   0.151   4.025
 9424SOL    HW129171   6.366   0.249   4.013
 9424SOL    HW229172   6.262   0.124   4.003
 9425SOL     OW29173   6.585   4.161   1.263
 9425SOL    HW129174   6.568   4.154   1.165
 9425SOL    HW229175   6.537   4.087   1.310
 9426SOL     OW29176   6.153   3.136   5.935
 9426SOL    HW129177   6.162   3.226   5.977
 9426SOL    HW229178   6.063   3.128   5.892
 9427SOL     OW29179   4.666   4.561   2.591
 9427SOL    HW129180   4.641   4.655   2.613
 9427SOL    HW229181   4.630   4.500   2.661
 9428SOL     OW29182   1.275   5.993   5.669
 9428SOL    HW129183   1.350   5.960   5.612
 9428SOL    HW229184   1.188   5.976   5.623
 9429SOL     OW29185   2.415   2.674   4.306
 9429SOL    HW129186   2.501   2.703   4.349
 9429SOL    HW229187   2.362   2.620   4.371
 9430SOL     OW29188   1.513   1.768   4.282
 9430SOL    HW129189   1.612   1.750   4.282
 9430SOL    HW229190   1.477   1.751   4.374
 9431SOL     OW29191   0.670   4.352   5.600
 9431SOL    HW129192   0.571   4.364   5.606
 9431SOL    HW229193   0.696   4.338   5.505
 9432SOL     OW29194   0.007   0.949   3.969
 9432SOL    HW129195   0.050   0.860   3.983
 9432SOL    HW229196   6.958   0.962   4.037
 9433SOL     OW29197   4.577   5.591   1.587
 9433SOL    HW129198   4.642   5.667   1.583
 9433SOL    HW229199   4.511   5.599   1.512
 9434SOL     OW29200   4.290   5.641   3.802
 9434SOL    HW129201   4.363   5.573   3.791
 9434SOL    HW229202   4.201   5.597   3.791
 9435SOL     OW29203   6.449   3.808   0.868
 9435SOL    HW129204   6.453   3.769   0.960
 9435SOL    HW229205   6.367   3.774   0.821
 9436SOL     OW29206   2.638   0.699   3.077
 9436SOL    HW129207   2.597   0.681   2.987
 9436SOL    HW229208   2.589   0.774   3.121
 9437SOL     OW29209   5.403   0.742   4.980
 9437SOL    HW129210   5.383   0.715   5.074
 9437SOL    HW229211   5.487   0.696   4.949
 9438SOL     OW29212   4.598   0.157   2.579
 9438SOL    HW129213   4.584   0.228   2.648
 9438SOL    HW229214   4.513   0.107   2.565
 9439SOL     OW29215   1.764   4.030   1.133
 9439SOL    HW129216   1.836   4.037   1.202
 9439SOL    HW229217   1.675   4.034   1.177
 9440SOL     OW29218   2.071   4.836   3.446
 9440SOL    HW129219   2.082   4.869   3.540
 9440SOL    HW229220   1.987   4.874   3.407
 9441SOL     OW29221   0.067   6.612   4.315
 9441SOL    HW129222   0.008   6.538   4.283
 9441SOL    HW229223   0.014   6.696   4.323
 9442SOL     OW29224   6.229   3.160   0.865
 9442SOL    HW129225   6.317   3.134   0.824
 9442SOL    HW229226   6.171   3.202   0.795
 9443SOL     OW29227   1.966   4.473   2.119
 9443SOL    HW129228   1.895   4.416   2.078
 9443SOL    HW229229   2.010   4.423   2.194
 9444SOL     OW29230   1.961   5.152   6.379
 9444SOL    HW129231   1.905   5.073   6.352
 9444SOL    HW229232   1.914   5.203   6.451
 9445SOL     OW29233   0.214   1.761   4.270
 9445SOL    HW129234   0.294   1.751   4.329
 9445SOL    HW229235   0.242   1.761   4.174
 9446SOL     OW29236   6.349   3.930   4.416
 9446SOL    HW129237   6.320   4.002   4.478
 9446SOL    HW229238   6.358   3.844   4.466
 9447SOL     OW29239   4.905   4.006   1.880
 9447SOL    HW129240   4.864   3.967   1.963
 9447SOL    HW229241   4.998   4.036   1.900
 9448SOL     OW29242   6.370   1.597   6.296
 9448SOL    HW129243   6.453   1.619   6.246
 9448SOL    HW229244   6.342   1.675   6.352
 9449SOL     OW29245   5.564   6.920   2.441
 9449SOL    HW129246   5.488   6.984   2.433
 9449SOL    HW229247   5.540   6.849   2.507
 9450SOL     OW29248   1.263   6.240   3.340
 9450SOL    HW129249   1.263   6.149   3.298
 9450SOL    HW229250   1.212   6.303   3.282
 9451SOL     OW29251   4.002   5.138   6.916
 9451SOL    HW129252   3.915   5.182   6.935
 9451SOL    HW229253   4.025   5.076   6.991
 9452SOL     OW29254   6.209   4.368   6.344
 9452SOL    HW129255   6.143   4.441   6.364
 9452SOL    HW229256   6.273   4.359   6.420
 9453SOL     OW29257   5.490   4.598   1.689
 9453SOL    HW129258   5.481   4.540   1.608
 9453SOL    HW229259   5.473   4.544   1.771
 9454SOL     OW29260   5.772   4.764   0.346
 9454SOL    HW129261   5.864   4.801   0.353
 9454SOL    HW229262   5.706   4.838   0.333
 9455SOL     OW29263   4.206   0.923   1.776
 9455SOL    HW129264   4.258   0.855   1.724
 9455SOL    HW229265   4.268   0.972   1.837
 9456SOL     OW29266   6.692   2.160   3.515
 9456SOL    HW129267   6.696   2.230   3.444
 9456SOL    HW229268   6.758   2.089   3.495
 9457SOL     OW29269   6.195   6.084   4.852
 9457SOL    HW129270   6.218   6.165   4.907
 9457SOL    HW229271   6.214   6.104   4.756
 9458SOL     OW29272   5.882   3.817   0.106
 9458SOL    HW129273   5.957   3.856   0.052
 9458SOL    HW229274   5.802   3.876   0.099
 9459SOL     OW29275   4.625   4.274   4.989
 9459SOL    HW129276   4.617   4.358   4.935
 9459SOL    HW229277   4.582   4.198   4.941
 9460SOL     OW29278   1.093   3.264   2.079
 9460SOL    HW129279   1.048   3.214   2.153
 9460SOL    HW229280   1.185   3.226   2.064
 9461SOL     OW29281   1.657   1.410   1.276
 9461SOL    HW129282   1.677   1.430   1.371
 9461SOL    HW229283   1.613   1.489   1.233
 9462SOL     OW29284   7.017   1.284   4.504
 9462SOL    HW129285   6.938   1.239   4.462
 9462SOL    HW229286   0.076   1.236   4.476
 9463SOL     OW29287   6.064   4.374   1.039
 9463SOL    HW129288   6.021   4.284   1.037
 9463SOL    HW229289   6.155   4.368   0.999
 9464SOL     OW29290   1.255   0.365   1.782
 9464SOL    HW129291   1.267   0.387   1.879
 9464SOL    HW229292   1.335   0.314   1.749
 9465SOL     OW29293   6.659   5.181   0.837
 9465SOL    HW129294   6.635   5.251   0.903
 9465SOL    HW229295   6.575   5.137   0.803
 9466SOL     OW29296   4.519   3.705   5.617
 9466SOL    HW129297   4.559   3.741   5.532
 9466SOL    HW229298   4.496   3.609   5.604
 9467SOL     OW29299   1.493   2.887   0.886
 9467SOL    HW129300   1.500   2.805   0.829
 9467SOL    HW229301   1.401   2.927   0.875
 9468SOL     OW29302   5.972   1.266   0.768
 9468SOL    HW129303   5.903   1.330   0.735
 9468SOL    HW229304   5.949   1.174   0.736
 9469SOL     OW29305   0.068   6.616   1.281
 9469SOL    HW129306   7.017   6.663   1.328
 9469SOL    HW229307   0.063   6.634   1.183
 9470SOL     OW29308   3.390   2.934   0.202
 9470SOL    HW129309   3.457   2.939   0.128
 9470SOL    HW229310   3.399   3.015   0.260
 9471SOL     OW29311   6.494   2.649   4.789
 9471SOL    HW129312   6.415   2.708   4.771
 9471SOL    HW229313   6.571   2.704   4.821
 9472SOL     OW29314   1.629   3.779   5.935
 9472SOL    HW129315   1.661   3.701   5.880
 9472SOL    HW229316   1.708   3.828   5.972
 9473SOL     OW29317   2.785   4.007   1.169
 9473SOL    HW129318   2.686   3.998   1.176
 9473SOL    HW229319   2.825   4.007   1.260
 9474SOL     OW29320   5.178   4.039   0.747
 9474SOL    HW129321   5.240   4.112   0.717
 9474SOL    HW229322   5.232   3.960   0.777
 9475SOL     OW29323   4.937   4.172   5.973
 9475SOL    HW129324   4.864   4.145   6.036
 9475SOL    HW229325   4.897   4.195   5.884
 9476SOL     OW29326   4.272   3.944   1.163
 9476SOL    HW129327   4.239   3.879   1.094
 9476SOL    HW229328   4.266   3.902   1.253
 9477SOL     OW29329   2.976   4.623   0.423
 9477SOL    HW129330   3.048   4.635   0.355
 9477SOL    HW229331   2.914   4.550   0.394
 9478SOL     OW29332   5.680   3.675   5.971
 9478SOL    HW129333   5.665   3.689   5.873
 9478SOL    HW229334   5.632   3.745   6.023
 9479SOL     OW29335   4.761   0.668   1.724
 9479SOL    HW129336   4.746   0.610   1.803
 9479SOL    HW229337   4.847   0.718   1.735
 9480SOL     OW29338   5.934   0.574   1.267
 9480SOL    HW129339   5.976   0.564   1.177
 9480SOL    HW229340   5.870   0.652   1.266
 9481SOL     OW29341   4.575   0.489   3.250
 9481SOL    HW129342   4.634   0.480   3.331
 9481SOL    HW229343   4.572   0.402   3.201
 9482SOL     OW29344   6.197   5.705   6.606
 9482SOL    HW129345   6.155   5.669   6.523
 9482SOL    HW229346   6.253   5.785   6.583
 9483SOL     OW29347   6.974   6.731   0.087
 9483SOL    HW129348   6.877   6.713   0.106
 9483SOL    HW229349   0.003   6.726   0.172
 9484SOL     OW29350   3.193   6.040   4.709
 9484SOL    HW129351   3.282   6.034   4.665
 9484SOL    HW229352   3.198   6.003   4.801
 9485SOL     OW29353   6.996   1.131   6.011
 9485SOL    HW129354   0.069   1.111   6.022
 9485SOL    HW229355   6.972   1.130   5.914
 9486SOL     OW29356   6.525   5.188   6.839
 9486SOL    HW129357   6.469   5.260   6.798
 9486SOL    HW229358   6.572   5.137   6.767
 9487SOL     OW29359   3.342   3.668   3.088
 9487SOL    HW129360   3.346   3.741   3.156
 9487SOL    HW229361   3.247   3.654   3.060
 9488SOL     OW29362   1.449   0.756   1.191
 9488SOL    HW129363   1.508   0.800   1.258
 9488SOL    HW229364   1.503   0.729   1.111
 9489SOL     OW29365   5.419   3.196   0.454
 9489SOL    HW129366   5.461   3.107   0.443
 9489SOL    HW229367   5.330   3.197   0.408
 9490SOL     OW29368   5.350   3.455   4.990
 9490SOL    HW129369   5.279   3.481   4.925
 9490SOL    HW229370   5.406   3.535   5.012
 9491SOL     OW29371   5.332   0.226   2.671
 9491SOL    HW129372   5.365   0.217   2.578
 9491SOL    HW229373   5.267   0.153   2.692
 9492SOL     OW29374   5.121   2.721   3.540
 9492SOL    HW129375   5.052   2.700   3.470
 9492SOL    HW229376   5.188   2.647   3.545
 9493SOL     OW29377   3.854   6.146   1.225
 9493SOL    HW129378   3.897   6.198   1.299
 9493SOL    HW229379   3.776   6.197   1.190
 9494SOL     OW29380   5.979   1.776   1.923
 9494SOL    HW129381   6.071   1.736   1.924
 9494SOL    HW229382   5.976   1.855   1.984
 9495SOL     OW29383   6.250   2.464   1.203
 9495SOL    HW129384   6.199   2.497   1.283
 9495SOL    HW229385   6.340   2.431   1.232
 9496SOL     OW29386   5.724   2.011   1.463
 9496SOL    HW129387   5.807   2.006   1.518
 9496SOL    HW229388   5.650   2.051   1.518
 9497SOL     OW29389   4.544   4.515   4.850
 9497SOL    HW129390   4.604   4.594   4.869
 9497SOL    HW229391   4.465   4.519   4.910
 9498SOL     OW29392   0.997   5.804   4.444
 9498SOL    HW129393   1.071   5.822   4.508
 9498SOL    HW229394   1.023   5.728   4.384
 9499SOL     OW29395   5.517   5.816   4.416
 9499SOL    HW129396   5.438   5.865   4.452
 9499SOL    HW229397   5.567   5.773   4.492
 9500SOL     OW29398   3.024   1.930   0.631
 9500SOL    HW129399   2.997   1.997   0.562
 9500SOL    HW229400   2.950   1.917   0.697
 9501SOL     OW29401   2.123   3.982   4.877
 9501SOL    HW129402   2.160   3.989   4.785
 9501SOL    HW229403   2.198   3.971   4.942
 9502SOL     OW29404   5.520   4.865   3.897
 9502SOL    HW129405   5.604   4.836   3.850
 9502SOL    HW229406   5.457   4.788   3.903
 9503SOL     OW29407   6.193   1.338   0.077
 9503SOL    HW129408   6.244   1.422   0.057
 9503SOL    HW229409   6.095   1.357   0.074
 9504SOL     OW29410   6.254   5.532   1.851
 9504SOL    HW129411   6.219   5.622   1.875
 9504SOL    HW229412   6.319   5.501   1.920
 9505SOL     OW29413   4.620   4.404   5.976
 9505SOL    HW129414   4.594   4.311   5.952
 9505SOL    HW229415   4.687   4.438   5.910
 9506SOL     OW29416   2.823   0.674   1.146
 9506SOL    HW129417   2.841   0.586   1.102
 9506SOL    HW229418   2.737   0.669   1.197
 9507SOL     OW29419   5.628   0.161   2.655
 9507SOL    HW129420   5.573   0.185   2.575
 9507SOL    HW229421   5.590   0.079   2.698
 9508SOL     OW29422   4.619   1.395   2.691
 9508SOL    HW129423   4.586   1.447   2.770
 9508SOL    HW229424   4.550   1.397   2.619
 9509SOL     OW29425   5.359   1.153   3.280
 9509SOL    HW129426   5.348   1.067   3.231
 9509SOL    HW229427   5.294   1.156   3.356
 9510SOL     OW29428   1.854   2.896   3.568
 9510SOL    HW129429   1.809   2.820   3.615
 9510SOL    HW229430   1.787   2.967   3.546
 9511SOL     OW29431   0.218   1.608   0.793
 9511SOL    HW129432   0.146   1.632   0.858
 9511SOL    HW229433   0.239   1.688   0.735
 9512SOL     OW29434   6.896   1.891   1.477
 9512SOL    HW129435   6.916   1.802   1.519
 9512SOL    HW229436   6.896   1.962   1.548
 9513SOL     OW29437   4.613   4.127   5.421
 9513SOL    HW129438   4.603   4.145   5.519
 9513SOL    HW229439   4.523   4.110   5.381
 9514SOL     OW29440   3.756   2.794   6.869
 9514SOL    HW129441   3.835   2.781   6.808
 9514SOL    HW229442   3.675   2.755   6.826
 9515SOL     OW29443   0.660   5.521   3.870
 9515SOL    HW129444   0.610   5.606   3.884
 9515SOL    HW229445   0.698   5.519   3.777
 9516SOL     OW29446   6.742   4.073   6.647
 9516SOL    HW129447   6.677   4.023   6.590
 9516SOL    HW229448   6.832   4.030   6.642
 9517SOL     OW29449   0.466   6.357   1.635
 9517SOL    HW129450   0.450   6.268   1.590
 9517SOL    HW229451   0.394   6.372   1.703
 9518SOL     OW29452   1.257   0.478   1.047
 9518SOL    HW129453   1.198   0.501   1.125
 9518SOL    HW229454   1.352   0.472   1.079
 9519SOL     OW29455   1.079   3.008   5.304
 9519SOL    HW129456   1.089   2.917   5.343
 9519SOL    HW229457   1.005   3.008   5.237
 9520SOL     OW29458   4.552   0.131   1.603
 9520SOL    HW129459   4.467   0.185   1.606
 9520SOL    HW229460   4.593   0.139   1.512
 9521SOL     OW29461   5.417   5.535   3.199
 9521SOL    HW129462   5.401   5.436   3.201
 9521SOL    HW229463   5.486   5.559   3.267
 9522SOL     OW29464   3.208   6.135   0.411
 9522SOL    HW129465   3.272   6.190   0.357
 9522SOL    HW229466   3.114   6.161   0.389
 9523SOL     OW29467   2.468   6.213   5.781
 9523SOL    HW129468   2.510   6.207   5.690
 9523SOL    HW229469   2.524   6.163   5.847
 9524SOL     OW29470   4.476   2.509   1.163
 9524SOL    HW129471   4.394   2.504   1.107
 9524SOL    HW229472   4.540   2.438   1.134
 9525SOL     OW29473   3.868   0.227   4.843
 9525SOL    HW129474   3.901   0.266   4.929
 9525SOL    HW229475   3.918   0.267   4.767
 9526SOL     OW29476   4.618   6.245   2.021
 9526SOL    HW129477   4.558   6.214   2.096
 9526SOL    HW229478   4.562   6.277   1.945
 9527SOL     OW29479   6.823   2.027   1.255
 9527SOL    HW129480   6.813   1.937   1.212
 9527SOL    HW229481   6.839   2.016   1.353
 9528SOL     OW29482   0.142   1.130   1.736
 9528SOL    HW129483   0.111   1.085   1.652
 9528SOL    HW229484   0.181   1.062   1.798
 9529SOL     OW29485   0.937   3.737   4.890
 9529SOL    HW129486   1.025   3.767   4.926
 9529SOL    HW229487   0.863   3.772   4.948
 9530SOL     OW29488   1.234   2.502   4.287
 9530SOL    HW129489   1.276   2.483   4.198
 9530SOL    HW229490   1.201   2.417   4.327
 9531SOL     OW29491   3.024   6.337   3.639
 9531SOL    HW129492   3.043   6.240   3.623
 9531SOL    HW229493   2.944   6.346   3.697
 9532SOL     OW29494   2.554   1.381   1.747
 9532SOL    HW129495   2.642   1.348   1.782
 9532SOL    HW229496   2.545   1.479   1.765
 9533SOL     OW29497   1.538   1.027   4.522
 9533SOL    HW129498   1.611   1.058   4.461
 9533SOL    HW229499   1.507   0.936   4.493
 9534SOL     OW29500   5.187   2.048   4.356
 9534SOL    HW129501   5.234   2.119   4.303
 9534SOL    HW229502   5.235   1.961   4.345
 9535SOL     OW29503   3.181   2.149   4.545
 9535SOL    HW129504   3.180   2.068   4.604
 9535SOL    HW229505   3.122   2.220   4.583
 9536SOL     OW29506   2.863   6.569   6.788
 9536SOL    HW129507   2.849   6.472   6.806
 9536SOL    HW229508   2.783   6.620   6.819
 9537SOL     OW29509   2.294   6.490   0.619
 9537SOL    HW129510   2.346   6.411   0.650
 9537SOL    HW229511   2.227   6.515   0.689
 9538SOL     OW29512   5.997   3.683   3.509
 9538SOL    HW129513   6.093   3.656   3.502
 9538SOL    HW229514   5.969   3.682   3.605
 9539SOL     OW29515   0.296   3.857   0.440
 9539SOL    HW129516   0.362   3.805   0.386
 9539SOL    HW229517   0.301   3.954   0.415
 9540SOL     OW29518   5.527   3.132   5.749
 9540SOL    HW129519   5.449   3.181   5.711
 9540SOL    HW229520   5.610   3.157   5.698
 9541SOL     OW29521   0.233   1.645   3.198
 9541SOL    HW129522   0.324   1.603   3.205
 9541SOL    HW229523   0.241   1.743   3.215
 9542SOL     OW29524   4.731   4.303   4.725
 9542SOL    HW129525   4.765   4.331   4.635
 9542SOL    HW229526   4.650   4.358   4.748
 9543SOL     OW29527   5.450   2.204   1.627
 9543SOL    HW129528   5.411   2.138   1.690
 9543SOL    HW229529   5.401   2.199   1.539
 9544SOL     OW29530   3.928   1.625   1.811
 9544SOL    HW129531   3.991   1.620   1.733
 9544SOL    HW229532   3.852   1.561   1.797
 9545SOL     OW29533   1.182   0.008   4.377
 9545SOL    HW129534   1.282   0.014   4.378
 9545SOL    HW229535   1.144   0.092   4.416
 9546SOL     OW29536   2.083   4.898   1.815
 9546SOL    HW129537   2.082   4.799   1.828
 9546SOL    HW229538   2.175   4.928   1.793
 9547SOL     OW29539   6.088   5.331   3.711
 9547SOL    HW129540   6.025   5.305   3.783
 9547SOL    HW229541   6.044   5.320   3.622
 9548SOL     OW29542   4.815   0.101   2.742
 9548SOL    HW129543   4.757   0.116   2.661
 9548SOL    HW229544   4.911   0.108   2.716
 9549SOL     OW29545   2.331   5.495   0.371
 9549SOL    HW129546   2.268   5.461   0.442
 9549SOL    HW229547   2.420   5.514   0.412
 9550SOL     OW29548   1.220   0.825   6.962
 9550SOL    HW129549   1.241   0.923   6.955
 9550SOL    HW229550   1.169   0.796   6.881
 9551SOL     OW29551   1.252   6.197   5.881
 9551SOL    HW129552   1.167   6.199   5.933
 9551SOL    HW229553   1.241   6.136   5.802
 9552SOL     OW29554   0.557   4.968   3.391
 9552SOL    HW129555   0.640   4.915   3.374
 9552SOL    HW229556   0.477   4.912   3.370
 9553SOL     OW29557   5.477   4.457   6.157
 9553SOL    HW129558   5.456   4.408   6.073
 9553SOL    HW229559   5.555   4.517   6.142
 9554SOL     OW29560   1.785   1.832   1.395
 9554SOL    HW129561   1.786   1.900   1.468
 9554SOL    HW229562   1.865   1.845   1.336
 9555SOL     OW29563   0.249   2.812   6.506
 9555SOL    HW129564   0.288   2.725   6.476
 9555SOL    HW229565   0.321   2.870   6.544
 9556SOL     OW29566   6.482   1.525   0.552
 9556SOL    HW129567   6.549   1.452   0.570
 9556SOL    HW229568   6.481   1.589   0.629
 9557SOL     OW29569   5.252   2.049   2.058
 9557SOL    HW129570   5.276   2.124   2.119
 9557SOL    HW229571   5.166   2.007   2.088
 9558SOL     OW29572   5.840   4.487   1.923
 9558SOL    HW129573   5.930   4.528   1.912
 9558SOL    HW229574   5.806   4.504   2.016
 9559SOL     OW29575   6.626   3.783   2.446
 9559SOL    HW129576   6.659   3.815   2.535
 9559SOL    HW229577   6.701   3.736   2.398
 9560SOL     OW29578   4.013   2.230   5.195
 9560SOL    HW129579   4.049   2.286   5.121
 9560SOL    HW229580   4.077   2.156   5.216
 9561SOL     OW29581   2.769   6.461   6.082
 9561SOL    HW129582   2.814   6.480   6.169
 9561SOL    HW229583   2.774   6.363   6.062
 9562SOL     OW29584   5.786   4.665   4.262
 9562SOL    HW129585   5.846   4.705   4.193
 9562SOL    HW229586   5.695   4.650   4.223
 9563SOL     OW29587   0.474   6.257   6.669
 9563SOL    HW129588   0.556   6.208   6.702
 9563SOL    HW229589   0.501   6.345   6.632
 9564SOL     OW29590   1.617   0.418   6.393
 9564SOL    HW129591   1.671   0.484   6.444
 9564SOL    HW229592   1.581   0.348   6.455
 9565SOL     OW29593   3.945   5.824   3.960
 9565SOL    HW129594   3.849   5.795   3.951
 9565SOL    HW229595   3.966   5.842   4.056
 9566SOL     OW29596   3.567   4.764   6.157
 9566SOL    HW129597   3.626   4.700   6.107
 9566SOL    HW229598   3.608   4.786   6.245
 9567SOL     OW29599   6.036   5.654   4.995
 9567SOL    HW129600   6.049   5.647   4.896
 9567SOL    HW229601   5.938   5.663   5.015
 9568SOL     OW29602   5.308   3.956   6.225
 9568SOL    HW129603   5.391   3.903   6.209
 9568SOL    HW229604   5.245   3.944   6.149
 9569SOL     OW29605   5.307   0.009   2.316
 9569SOL    HW129606   5.337   0.042   2.226
 9569SOL    HW229607   5.301   6.933   2.314
 9570SOL     OW29608   0.654   1.678   6.781
 9570SOL    HW129609   0.621   1.669   6.687
 9570SOL    HW229610   0.593   1.739   6.832
 9571SOL     OW29611   2.140   2.716   0.186
 9571SOL    HW129612   2.090   2.753   0.265
 9571SOL    HW229613   2.097   2.632   0.155
 9572SOL     OW29614   0.538   3.732   1.388
 9572SOL    HW129615   0.587   3.818   1.401
 9572SOL    HW229616   0.479   3.739   1.307
 9573SOL     OW29617   5.360   1.235   2.242
 9573SOL    HW129618   5.369   1.190   2.331
 9573SOL    HW229619   5.307   1.177   2.181
 9574SOL     OW29620   2.856   1.988   3.770
 9574SOL    HW129621   2.952   1.972   3.796
 9574SOL    HW229622   2.851   2.065   3.706
 9575SOL     OW29623   4.764   1.168   2.811
 9575SOL    HW129624   4.827   1.196   2.883
 9575SOL    HW229625   4.722   1.250   2.770
 9576SOL     OW29626   3.987   3.124   5.246
 9576SOL    HW129627   3.915   3.054   5.255
 9576SOL    HW229628   3.991   3.155   5.152
 9577SOL     OW29629   0.705   5.942   3.612
 9577SOL    HW129630   0.607   5.932   3.598
 9577SOL    HW229631   0.730   5.911   3.704
 9578SOL     OW29632   6.449   4.433   2.054
 9578SOL    HW129633   6.473   4.376   1.975
 9578SOL    HW229634   6.352   4.457   2.049
 9579SOL     OW29635   1.754   5.421   3.009
 9579SOL    HW129636   1.774   5.332   3.049
 9579SOL    HW229637   1.660   5.421   2.976
 9580SOL     OW29638   4.070   3.360   5.763
 9580SOL    HW129639   4.100   3.269   5.736
 9580SOL    HW229640   4.028   3.357   5.853
 9581SOL     OW29641   1.015   5.900   5.573
 9581SOL    HW129642   0.970   5.847   5.645
 9581SOL    HW229643   0.948   5.959   5.528
 9582SOL     OW29644   4.315   4.989   3.211
 9582SOL    HW129645   4.340   5.078   3.173
 9582SOL    HW229646   4.227   4.960   3.174
 9583SOL     OW29647   1.790   5.382   1.850
 9583SOL    HW129648   1.761   5.316   1.920
 9583SOL    HW229649   1.877   5.353   1.811
 9584SOL     OW29650   5.021   4.864   0.078
 9584SOL    HW129651   4.983   4.920   0.005
 9584SOL    HW229652   5.090   4.803   0.041
 9585SOL     OW29653   0.545   0.588   3.202
 9585SOL    HW129654   0.531   0.498   3.244
 9585SOL    HW229655   0.552   0.658   3.273
 9586SOL     OW29656   5.076   3.515   2.309
 9586SOL    HW129657   5.088   3.420   2.281
 9586SOL    HW229658   5.165   3.559   2.320
 9587SOL     OW29659   5.067   6.333   1.233
 9587SOL    HW129660   5.077   6.234   1.223
 9587SOL    HW229661   5.011   6.353   1.313
 9588SOL     OW29662   6.610   1.051   2.689
 9588SOL    HW129663   6.525   1.002   2.673
 9588SOL    HW229664   6.684   1.009   2.637
 9589SOL     OW29665   2.979   1.959   4.911
 9589SOL    HW129666   3.039   1.987   4.985
 9589SOL    HW229667   2.971   2.033   4.844
 9590SOL     OW29668   0.715   5.237   4.633
 9590SOL    HW129669   0.787   5.223   4.565
 9590SOL    HW229670   0.736   5.318   4.687
 9591SOL     OW29671   1.409   4.480   2.420
 9591SOL    HW129672   1.492   4.434   2.452
 9591SOL    HW229673   1.329   4.441   2.467
 9592SOL     OW29674   5.244   6.102   0.916
 9592SOL    HW129675   5.291   6.077   0.831
 9592SOL    HW229676   5.201   6.020   0.955
 9593SOL     OW29677   2.647   2.379   3.493
 9593SOL    HW129678   2.617   2.461   3.542
 9593SOL    HW229679   2.576   2.309   3.499
 9594SOL     OW29680   6.024   0.001   0.841
 9594SOL    HW129681   5.954   0.071   0.856
 9594SOL    HW229682   6.042   7.016   0.743
 9595SOL     OW29683   0.993   4.861   4.507
 9595SOL    HW129684   0.912   4.839   4.453
 9595SOL    HW229685   1.057   4.785   4.506
 9596SOL     OW29686   4.961   5.815   2.028
 9596SOL    HW129687   4.986   5.753   2.103
 9596SOL    HW229688   4.866   5.845   2.040
 9597SOL     OW29689   2.010   4.534   0.562
 9597SOL    HW129690   1.982   4.612   0.617
 9597SOL    HW229691   1.978   4.450   0.606
 9598SOL     OW29692   0.860   5.926   5.838
 9598SOL    HW129693   0.920   5.994   5.881
 9598SOL    HW229694   0.889   5.834   5.866
 9599SOL     OW29695   4.134   1.242   5.069
 9599SOL    HW129696   4.198   1.224   5.144
 9599SOL    HW229697   4.127   1.341   5.055
 9600SOL     OW29698   1.525   6.148   6.637
 9600SOL    HW129699   1.492   6.096   6.716
 9600SOL    HW229700   1.612   6.110   6.606
 9601SOL     OW29701   0.541   6.849   5.574
 9601SOL    HW129702   0.600   6.868   5.495
 9601SOL    HW229703   0.446   6.867   5.549
 9602SOL     OW29704   0.217   5.417   6.346
 9602SOL    HW129705   0.178   5.369   6.425
 9602SOL    HW229706   0.308   5.452   6.369
 9603SOL     OW29707   1.265   5.253   2.633
 9603SOL    HW129708   1.272   5.353   2.628
 9603SOL    HW229709   1.308   5.213   2.552
 9604SOL     OW29710   6.804   6.922   6.789
 9604SOL    HW129711   6.721   6.915   6.844
 9604SOL    HW229712   6.783   6.906   6.693
 9605SOL     OW29713   3.001   4.898   0.430
 9605SOL    HW129714   2.963   4.913   0.521
 9605SOL    HW229715   3.005   4.800   0.411
 9606SOL     OW29716   6.750   7.000   5.084
 9606SOL    HW129717   6.744   6.982   5.183
 9606SOL    HW229718   6.732   6.915   5.034
 9607SOL     OW29719   0.075   2.213   2.090
 9607SOL    HW129720   0.074   2.283   2.019
 9607SOL    HW229721   0.036   2.250   2.174
 9608SOL     OW29722   6.477   0.347   2.470
 9608SOL    HW129723   6.555   0.410   2.462
 9608SOL    HW229724   6.393   0.395   2.447
 9609SOL     OW29725   1.859   2.184   3.770
 9609SOL    HW129726   1.926   2.235   3.716
 9609SOL    HW229727   1.811   2.119   3.712
 9610SOL     OW29728   3.711   0.466   5.847
 9610SOL    HW129729   3.741   0.552   5.805
 9610SOL    HW229730   3.767   0.391   5.812
 9611SOL     OW29731   5.647   6.198   1.166
 9611SOL    HW129732   5.626   6.128   1.098
 9611SOL    HW229733   5.739   6.233   1.149
 9612SOL     OW29734   5.256   3.693   3.747
 9612SOL    HW129735   5.271   3.710   3.649
 9612SOL    HW229736   5.247   3.780   3.794
 9613SOL     OW29737   5.858   0.595   5.290
 9613SOL    HW129738   5.922   0.527   5.254
 9613SOL    HW229739   5.886   0.686   5.261
 9614SOL     OW29740   3.110   2.807   1.295
 9614SOL    HW129741   3.136   2.710   1.297
 9614SOL    HW229742   3.044   2.825   1.369
 9615SOL     OW29743   0.686   6.219   3.815
 9615SOL    HW129744   0.597   6.255   3.784
 9615SOL    HW229745   0.759   6.280   3.783
 9616SOL     OW29746   1.299   2.950   1.231
 9616SOL    HW129747   1.378   2.989   1.279
 9616SOL    HW229748   1.220   3.008   1.246
 9617SOL     OW29749   0.149   2.992   2.378
 9617SOL    HW129750   0.060   3.034   2.399
 9617SOL    HW229751   0.140   2.892   2.381
 9618SOL     OW29752   4.372   3.943   0.583
 9618SOL    HW129753   4.312   4.004   0.532
 9618SOL    HW229754   4.459   3.988   0.601
 9619SOL     OW29755   0.825   6.986   1.441
 9619SOL    HW129756   0.924   6.995   1.425
 9619SOL    HW229757   0.790   0.046   1.482
 9620SOL     OW29758   2.754   1.618   6.938
 9620SOL    HW129759   2.842   1.570   6.931
 9620SOL    HW229760   2.680   1.553   6.921
 9621SOL     OW29761   0.512   0.878   1.496
 9621SOL    HW129762   0.603   0.920   1.490
 9621SOL    HW229763   0.516   0.799   1.557
 9622SOL     OW29764   6.196   5.648   5.859
 9622SOL    HW129765   6.144   5.588   5.919
 9622SOL    HW229766   6.285   5.607   5.840
 9623SOL     OW29767   3.535   6.317   5.609
 9623SOL    HW129768   3.448   6.270   5.624
 9623SOL    HW229769   3.607   6.250   5.593
 9624SOL     OW29770   4.597   5.387   5.454
 9624SOL    HW129771   4.653   5.315   5.494
 9624SOL    HW229772   4.645   5.428   5.377
 9625SOL     OW29773   4.480   3.818   6.390
 9625SOL    HW129774   4.388   3.855   6.403
 9625SOL    HW229775   4.492   3.738   6.449
 9626SOL     OW29776   2.573   2.271   6.717
 9626SOL    HW129777   2.660   2.241   6.678
 9626SOL    HW229778   2.538   2.200   6.778
 9627SOL     OW29779   0.045   5.444   0.943
 9627SOL    HW129780   0.134   5.486   0.962
 9627SOL    HW229781   6.996   5.509   0.964
 9628SOL     OW29782   6.952   1.541   6.130
 9628SOL    HW129783   6.877   1.549   6.196
 9628SOL    HW229784   6.985   1.632   6.105
 9629SOL     OW29785   0.292   5.702   3.466
 9629SOL    HW129786   0.353   5.760   3.413
 9629SOL    HW229787   0.346   5.646   3.529
 9630SOL     OW29788   5.478   1.598   6.167
 9630SOL    HW129789   5.537   1.517   6.160
 9630SOL    HW229790   5.455   1.631   6.076
 9631SOL     OW29791   4.560   6.629   0.479
 9631SOL    HW129792   4.517   6.579   0.403
 9631SOL    HW229793   4.580   6.566   0.554
 9632SOL     OW29794   2.395   4.594   2.964
 9632SOL    HW129795   2.435   4.570   2.875
 9632SOL    HW229796   2.361   4.688   2.962
 9633SOL     OW29797   3.836   2.953   4.515
 9633SOL    HW129798   3.871   2.986   4.427
 9633SOL    HW229799   3.906   2.968   4.585
 9634SOL     OW29800   5.293   4.735   2.976
 9634SOL    HW129801   5.330   4.717   3.067
 9634SOL    HW229802   5.208   4.684   2.965
 9635SOL     OW29803   0.736   4.880   4.096
 9635SOL    HW129804   0.721   4.956   4.033
 9635SOL    HW229805   0.649   4.835   4.114
 9636SOL     OW29806   5.853   4.054   3.861
 9636SOL    HW129807   5.927   4.013   3.808
 9636SOL    HW229808   5.789   3.982   3.891
 9637SOL     OW29809   1.596   3.943   0.352
 9637SOL    HW129810   1.588   3.935   0.252
 9637SOL    HW229811   1.691   3.962   0.376
 9638SOL     OW29812   6.123   5.433   6.013
 9638SOL    HW129813   6.068   5.351   6.002
 9638SOL    HW229814   6.213   5.409   6.047
 9639SOL     OW29815   4.660   2.024   1.614
 9639SOL    HW129816   4.621   2.026   1.522
 9639SOL    HW229817   4.719   2.104   1.627
 9640SOL     OW29818   4.020   0.178   3.330
 9640SOL    HW129819   3.949   0.156   3.262
 9640SOL    HW229820   4.040   0.276   3.328
 9641SOL     OW29821   6.675   2.847   4.878
 9641SOL    HW129822   6.685   2.924   4.815
 9641SOL    HW229823   6.698   2.878   4.971
 9642SOL     OW29824   0.750   1.956   4.484
 9642SOL    HW129825   0.802   1.893   4.541
 9642SOL    HW229826   0.716   1.908   4.403
 9643SOL     OW29827   5.597   5.206   4.205
 9643SOL    HW129828   5.559   5.180   4.116
 9643SOL    HW229829   5.586   5.305   4.218
 9644SOL     OW29830   1.232   4.954   3.284
 9644SOL    HW129831   1.257   4.916   3.195
 9644SOL    HW229832   1.224   4.880   3.351
 9645SOL     OW29833   1.199   5.215   6.263
 9645SOL    HW129834   1.145   5.139   6.296
 9645SOL    HW229835   1.200   5.215   6.163
 9646SOL     OW29836   3.340   5.665   0.249
 9646SOL    HW129837   3.279   5.723   0.303
 9646SOL    HW229838   3.311   5.569   0.258
 9647SOL     OW29839   6.109   6.368   3.046
 9647SOL    HW129840   6.099   6.296   3.116
 9647SOL    HW229841   6.203   6.367   3.011
 9648SOL     OW29842   2.857   1.711   1.001
 9648SOL    HW129843   2.953   1.700   1.024
 9648SOL    HW229844   2.804   1.636   1.041
 9649SOL     OW29845   0.156   5.660   1.288
 9649SOL    HW129846   0.109   5.671   1.200
 9649SOL    HW229847   0.244   5.616   1.273
 9650SOL     OW29848   1.131   5.111   4.543
 9650SOL    HW129849   1.098   5.023   4.509
 9650SOL    HW229850   1.113   5.118   4.641
 9651SOL     OW29851   3.623   1.737   6.980
 9651SOL    HW129852   3.662   1.649   7.006
 9651SOL    HW229853   3.667   1.809   0.010
 9652SOL     OW29854   7.017   4.257   0.183
 9652SOL    HW129855   0.019   4.220   0.273
 9652SOL    HW229856   6.924   4.228   0.161
 9653SOL     OW29857   5.134   4.681   5.661
 9653SOL    HW129858   5.146   4.621   5.740
 9653SOL    HW229859   5.198   4.656   5.589
 9654SOL     OW29860   3.872   3.483   3.178
 9654SOL    HW129861   3.871   3.418   3.255
 9654SOL    HW229862   3.967   3.507   3.157
 9655SOL     OW29863   4.343   1.828   0.945
 9655SOL    HW129864   4.267   1.789   0.997
 9655SOL    HW229865   4.348   1.926   0.962
 9656SOL     OW29866   4.765   4.311   6.425
 9656SOL    HW129867   4.741   4.374   6.499
 9656SOL    HW229868   4.858   4.331   6.395
 9657SOL     OW29869   5.306   4.664   3.807
 9657SOL    HW129870   5.261   4.700   3.725
 9657SOL    HW229871   5.349   4.576   3.785
 9658SOL     OW29872   5.827   1.380   2.053
 9658SOL    HW129873   5.806   1.473   2.084
 9658SOL    HW229874   5.824   1.317   2.131
 9659SOL     OW29875   3.094   3.064   6.587
 9659SOL    HW129876   3.167   3.009   6.546
 9659SOL    HW229877   3.007   3.042   6.543
 9660SOL     OW29878   1.439   6.672   1.305
 9660SOL    HW129879   1.495   6.611   1.248
 9660SOL    HW229880   1.343   6.659   1.282
 9661SOL     OW29881   3.901   3.812   1.445
 9661SOL    HW129882   3.908   3.908   1.473
 9661SOL    HW229883   3.811   3.777   1.470
 9662SOL     OW29884   4.887   6.702   5.758
 9662SOL    HW129885   4.939   6.671   5.679
 9662SOL    HW229886   4.878   6.627   5.824
 9663SOL     OW29887   1.278   5.154   2.891
 9663SOL    HW129888   1.179   5.166   2.879
 9663SOL    HW229889   1.326   5.182   2.809
 9664SOL     OW29890   3.400   4.924   2.409
 9664SOL    HW129891   3.489   4.955   2.376
 9664SOL    HW229892   3.328   4.958   2.348
 9665SOL     OW29893   6.063   3.996   5.749
 9665SOL    HW129894   5.992   3.928   5.763
 9665SOL    HW229895   6.021   4.086   5.737
 9666SOL     OW29896   5.109   3.616   0.423
 9666SOL    HW129897   5.051   3.538   0.398
 9666SOL    HW229898   5.053   3.688   0.462
 9667SOL     OW29899   5.683   6.010   6.950
 9667SOL    HW129900   5.738   6.082   6.993
 9667SOL    HW229901   5.689   6.020   6.851
 9668SOL     OW29902   1.612   1.315   6.192
 9668SOL    HW129903   1.630   1.399   6.243
 9668SOL    HW229904   1.513   1.300   6.186
 9669SOL     OW29905   2.884   0.495   0.085
 9669SOL    HW129906   2.842   0.405   0.079
 9669SOL    HW229907   2.983   0.485   0.092
 9670SOL     OW29908   1.056   0.770   0.635
 9670SOL    HW129909   1.141   0.817   0.612
 9670SOL    HW229910   1.070   0.713   0.715
 9671SOL     OW29911   1.114   5.151   6.838
 9671SOL    HW129912   1.084   5.084   6.906
 9671SOL    HW229913   1.035   5.183   6.786
 9672SOL     OW29914   0.836   3.958   4.390
 9672SOL    HW129915   0.833   3.972   4.489
 9672SOL    HW229916   0.759   4.005   4.347
 9673SOL     OW29917   2.141   3.326   6.883
 9673SOL    HW129918   2.197   3.329   6.800
 9673SOL    HW229919   2.201   3.322   6.963
 9674SOL     OW29920   2.004   6.684   3.996
 9674SOL    HW129921   2.006   6.625   4.076
 9674SOL    HW229922   1.920   6.738   3.997
 9675SOL     OW29923   6.182   4.038   5.465
 9675SOL    HW129924   6.218   3.972   5.399
 9675SOL    HW229925   6.169   3.993   5.554
 9676SOL     OW29926   0.967   3.235   5.919
 9676SOL    HW129927   0.956   3.173   5.842
 9676SOL    HW229928   0.886   3.231   5.978
 9677SOL     OW29929   6.591   5.036   2.587
 9677SOL    HW129930   6.516   5.004   2.644
 9677SOL    HW229931   6.594   5.136   2.589
 9678SOL     OW29932   3.592   3.562   5.325
 9678SOL    HW129933   3.644   3.562   5.411
 9678SOL    HW229934   3.656   3.563   5.248
 9679SOL     OW29935   1.931   0.719   3.941
 9679SOL    HW129936   2.030   0.722   3.955
 9679SOL    HW229937   1.894   0.812   3.943
 9680SOL     OW29938   4.432   0.729   1.935
 9680SOL    HW129939   4.422   0.630   1.944
 9680SOL    HW229940   4.348   0.774   1.966
 9681SOL     OW29941   1.433   2.511   1.361
 9681SOL    HW129942   1.345   2.479   1.394
 9681SOL    HW229943   1.419   2.576   1.286
 9682SOL     OW29944   5.285   0.163   6.239
 9682SOL    HW129945   5.381   0.138   6.226
 9682SOL    HW229946   5.278   0.231   6.312
 9683SOL     OW29947   3.877   6.549   3.961
 9683SOL    HW129948   3.967   6.568   3.923
 9683SOL    HW229949   3.814   6.622   3.934
 9684SOL     OW29950   6.955   3.143   5.436
 9684SOL    HW129951   7.010   3.191   5.368
 9684SOL    HW229952   7.014   3.082   5.489
 9685SOL     OW29953   3.283   4.632   1.671
 9685SOL    HW129954   3.369   4.595   1.704
 9685SOL    HW229955   3.223   4.557   1.642
 9686SOL     OW29956   0.100   1.226   5.746
 9686SOL    HW129957   0.165   1.190   5.814
 9686SOL    HW229958   0.090   1.324   5.760
 9687SOL     OW29959   5.591   1.328   3.260
 9687SOL    HW129960   5.663   1.315   3.193
 9687SOL    HW229961   5.517   1.263   3.244
 9688SOL     OW29962   0.339   4.742   1.541
 9688SOL    HW129963   0.358   4.654   1.584
 9688SOL    HW229964   0.425   4.794   1.533
 9689SOL     OW29965   1.917   5.684   1.431
 9689SOL    HW129966   1.966   5.604   1.396
 9689SOL    HW229967   1.968   5.767   1.409
 9690SOL     OW29968   0.493   4.592   4.956
 9690SOL    HW129969   0.451   4.581   4.866
 9690SOL    HW229970   0.578   4.643   4.947
 9691SOL     OW29971   3.478   3.754   1.498
 9691SOL    HW129972   3.475   3.765   1.598
 9691SOL    HW229973   3.553   3.693   1.473
 9692SOL     OW29974   4.963   4.515   0.785
 9692SOL    HW129975   4.942   4.517   0.883
 9692SOL    HW229976   5.062   4.506   0.773
 9693SOL     OW29977   4.835   2.952   5.570
 9693SOL    HW129978   4.769   2.970   5.498
 9693SOL    HW229979   4.917   2.910   5.531
 9694SOL     OW29980   2.964   6.513   1.598
 9694SOL    HW129981   2.962   6.611   1.577
 9694SOL    HW229982   3.027   6.497   1.674
 9695SOL     OW29983   0.689   3.319   4.148
 9695SOL    HW129984   0.616   3.332   4.081
 9695SOL    HW229985   0.761   3.261   4.109
 9696SOL     OW29986   5.178   2.961   3.190
 9696SOL    HW129987   5.216   2.932   3.102
 9696SOL    HW229988   5.230   3.040   3.224
 9697SOL     OW29989   0.490   6.688   1.784
 9697SOL    HW129990   0.568   6.626   1.785
 9697SOL    HW229991   0.479   6.726   1.692
 9698SOL     OW29992   0.333   3.884   1.860
 9698SOL    HW129993   0.245   3.908   1.900
 9698SOL    HW229994   0.320   3.847   1.769
 9699SOL     OW29995   1.270   5.608   1.336
 9699SOL    HW129996   1.211   5.586   1.414
 9699SOL    HW229997   1.362   5.628   1.368
 9700SOL     OW29998   5.303   0.767   6.309
 9700SOL    HW129999   5.221   0.797   6.358
 9700SOL    HW230000   5.334   0.841   6.249
 9701SOL     OW30001   5.113   3.919   6.866
 9701SOL    HW130002   5.067   3.875   6.943
 9701SOL    HW230003   5.110   4.018   6.877
 9702SOL     OW30004   3.673   4.104   2.176
 9702SOL    HW130005   3.681   4.198   2.209
 9702SOL    HW230006   3.665   4.104   2.076
 9703SOL     OW30007   6.037   4.761   3.414
 9703SOL    HW130008   5.999   4.758   3.506
 9703SOL    HW230009   5.970   4.799   3.351
 9704SOL     OW30010   1.356   4.009   2.097
 9704SOL    HW130011   1.273   3.954   2.101
 9704SOL    HW230012   1.408   3.997   2.181
 9705SOL     OW30013   0.045   2.985   5.958
 9705SOL    HW130014   0.105   2.991   6.038
 9705SOL    HW230015   0.066   2.902   5.906
 9706SOL     OW30016   1.091   1.233   2.542
 9706SOL    HW130017   1.013   1.173   2.525
 9706SOL    HW230018   1.073   1.323   2.503
 9707SOL     OW30019   1.070   4.908   2.763
 9707SOL    HW130020   1.041   4.992   2.810
 9707SOL    HW230021   1.074   4.925   2.665
 9708SOL     OW30022   2.401   0.780   1.690
 9708SOL    HW130023   2.359   0.823   1.770
 9708SOL    HW230024   2.351   0.806   1.607
 9709SOL     OW30025   5.417   1.689   1.573
 9709SOL    HW130026   5.383   1.681   1.480
 9709SOL    HW230027   5.414   1.785   1.601
 9710SOL     OW30028   5.411   5.468   4.743
 9710SOL    HW130029   5.504   5.484   4.775
 9710SOL    HW230030   5.366   5.402   4.803
 9711SOL     OW30031   2.886   0.744   6.541
 9711SOL    HW130032   2.881   0.818   6.474
 9711SOL    HW230033   2.977   0.743   6.583
 9712SOL     OW30034   5.638   0.578   6.671
 9712SOL    HW130035   5.645   0.579   6.571
 9712SOL    HW230036   5.656   0.670   6.706
 9713SOL     OW30037   2.452   6.790   2.779
 9713SOL    HW130038   2.407   6.717   2.727
 9713SOL    HW230039   2.402   6.806   2.864
 9714SOL     OW30040   2.107   3.963   3.780
 9714SOL    HW130041   2.149   4.024   3.848
 9714SOL    HW230042   2.107   3.870   3.815
 9715SOL     OW30043   6.954   3.431   6.481
 9715SOL    HW130044   6.920   3.473   6.397
 9715SOL    HW230045   6.929   3.334   6.482
 9716SOL     OW30046   2.273   6.319   0.407
 9716SOL    HW130047   2.279   6.338   0.309
 9716SOL    HW230048   2.276   6.406   0.457
 9717SOL     OW30049   3.859   2.415   5.831
 9717SOL    HW130050   3.817   2.376   5.913
 9717SOL    HW230051   3.958   2.409   5.838
 9718SOL     OW30052   4.223   2.218   6.071
 9718SOL    HW130053   4.309   2.216   6.122
 9718SOL    HW230054   4.154   2.267   6.125
 9719SOL     OW30055   4.843   0.156   6.289
 9719SOL    HW130056   4.910   0.157   6.215
 9719SOL    HW230057   4.887   0.125   6.373
 9720SOL     OW30058   2.058   2.768   2.635
 9720SOL    HW130059   2.112   2.754   2.552
 9720SOL    HW230060   2.110   2.738   2.714
 9721SOL     OW30061   0.691   1.786   1.095
 9721SOL    HW130062   0.644   1.723   1.157
 9721SOL    HW230063   0.625   1.822   1.029
 9722SOL     OW30064   3.968   2.380   5.455
 9722SOL    HW130065   3.882   2.335   5.430
 9722SOL    HW230066   3.949   2.455   5.518
 9723SOL     OW30067   6.194   0.373   4.836
 9723SOL    HW130068   6.249   0.291   4.851
 9723SOL    HW230069   6.213   0.410   4.745
 9724SOL     OW30070   1.224   4.377   0.805
 9724SOL    HW130071   1.187   4.294   0.765
 9724SOL    HW230072   1.323   4.366   0.818
 9725SOL     OW30073   4.576   5.406   4.283
 9725SOL    HW130074   4.529   5.480   4.235
 9725SOL    HW230075   4.674   5.412   4.265
 9726SOL     OW30076   6.605   0.216   3.113
 9726SOL    HW130077   6.616   0.118   3.132
 9726SOL    HW230078   6.538   0.229   3.040
 9727SOL     OW30079   6.058   2.599   1.847
 9727SOL    HW130080   6.030   2.694   1.828
 9727SOL    HW230081   6.155   2.596   1.869
 9728SOL     OW30082   5.288   2.355   4.417
 9728SOL    HW130083   5.296   2.344   4.318
 9728SOL    HW230084   5.192   2.361   4.443
 9729SOL     OW30085   0.225   3.877   3.263
 9729SOL    HW130086   0.205   3.970   3.294
 9729SOL    HW230087   0.323   3.868   3.244
 9730SOL     OW30088   1.004   5.149   2.868
 9730SOL    HW130089   1.005   5.237   2.821
 9730SOL    HW230090   0.924   5.143   2.927
 9731SOL     OW30091   5.628   2.913   1.550
 9731SOL    HW130092   5.610   2.817   1.573
 9731SOL    HW230093   5.547   2.968   1.567
 9732SOL     OW30094   1.201   3.680   2.703
 9732SOL    HW130095   1.236   3.758   2.651
 9732SOL    HW230096   1.277   3.624   2.736
 9733SOL     OW30097   6.392   4.761   1.873
 9733SOL    HW130098   6.318   4.707   1.834
 9733SOL    HW230099   6.389   4.853   1.835
 9734SOL     OW30100   4.530   5.368   6.701
 9734SOL    HW130101   4.574   5.391   6.788
 9734SOL    HW230102   4.515   5.269   6.696
 9735SOL     OW30103   6.960   2.114   0.413
 9735SOL    HW130104   6.982   2.150   0.322
 9735SOL    HW230105   6.861   2.116   0.427
 9736SOL     OW30106   5.117   2.211   4.938
 9736SOL    HW130107   5.081   2.134   4.992
 9736SOL    HW230108   5.133   2.181   4.844
 9737SOL     OW30109   5.700   2.697   3.976
 9737SOL    HW130110   5.713   2.724   3.880
 9737SOL    HW230111   5.782   2.650   4.008
 9738SOL     OW30112   2.303   6.778   1.543
 9738SOL    HW130113   2.304   6.684   1.508
 9738SOL    HW230114   2.324   6.778   1.641
 9739SOL     OW30115   6.092   6.330   0.683
 9739SOL    HW130116   6.190   6.315   0.696
 9739SOL    HW230117   6.056   6.384   0.759
 9740SOL     OW30118   6.132   0.394   2.114
 9740SOL    HW130119   6.057   0.417   2.175
 9740SOL    HW230120   6.160   0.299   2.129
 9741SOL     OW30121   2.188   2.072   3.742
 9741SOL    HW130122   2.274   2.035   3.778
 9741SOL    HW230123   2.122   2.081   3.817
 9742SOL     OW30124   3.197   1.658   6.428
 9742SOL    HW130125   3.236   1.750   6.431
 9742SOL    HW230126   3.134   1.646   6.505
 9743SOL     OW30127   6.123   3.287   3.824
 9743SOL    HW130128   6.221   3.303   3.812
 9743SOL    HW230129   6.108   3.227   3.903
 9744SOL     OW30130   1.802   1.496   2.306
 9744SOL    HW130131   1.856   1.448   2.376
 9744SOL    HW230132   1.771   1.430   2.238
 9745SOL     OW30133   0.097   6.924   5.654
 9745SOL    HW130134   0.067   6.832   5.631
 9745SOL    HW230135   0.165   6.921   5.728
 9746SOL     OW30136   3.403   6.314   6.217
 9746SOL    HW130137   3.413   6.396   6.159
 9746SOL    HW230138   3.317   6.269   6.195
 9747SOL     OW30139   3.436   1.739   3.250
 9747SOL    HW130140   3.492   1.803   3.198
 9747SOL    HW230141   3.407   1.782   3.336
 9748SOL     OW30142   1.798   1.266   2.623
 9748SOL    HW130143   1.843   1.310   2.545
 9748SOL    HW230144   1.699   1.273   2.612
 9749SOL     OW30145   6.903   0.639   1.953
 9749SOL    HW130146   6.871   0.573   2.021
 9749SOL    HW230147   6.835   0.646   1.880
 9750SOL     OW30148   5.773   2.897   5.470
 9750SOL    HW130149   5.817   2.820   5.425
 9750SOL    HW230150   5.689   2.865   5.516
 9751SOL     OW30151   3.339   0.043   1.407
 9751SOL    HW130152   3.438   0.057   1.406
 9751SOL    HW230153   3.318   6.977   1.446
 9752SOL     OW30154   3.060   3.038   0.575
 9752SOL    HW130155   3.051   2.944   0.542
 9752SOL    HW230156   3.107   3.038   0.663
 9753SOL     OW30157   6.178   5.684   4.754
 9753SOL    HW130158   6.199   5.587   4.745
 9753SOL    HW230159   6.263   5.737   4.752
 9754SOL     OW30160   3.140   1.487   2.399
 9754SOL    HW130161   3.233   1.499   2.434
 9754SOL    HW230162   3.141   1.418   2.327
 9755SOL     OW30163   3.627   4.077   0.190
 9755SOL    HW130164   3.720   4.072   0.153
 9755SOL    HW230165   3.606   3.991   0.238
 9756SOL     OW30166   5.539   0.408   6.293
 9756SOL    HW130167   5.511   0.317   6.261
 9756SOL    HW230168   5.464   0.450   6.343
 9757SOL     OW30169   5.127   3.225   4.299
 9757SOL    HW130170   5.042   3.261   4.339
 9757SOL    HW230171   5.119   3.126   4.287
 9758SOL     OW30172   2.377   0.746   2.467
 9758SOL    HW130173   2.420   0.658   2.449
 9758SOL    HW230174   2.433   0.820   2.428
 9759SOL     OW30175   6.618   1.866   1.886
 9759SOL    HW130176   6.649   1.954   1.922
 9759SOL    HW230177   6.612   1.871   1.786
 9760SOL     OW30178   4.529   0.526   6.754
 9760SOL    HW130179   4.445   0.497   6.708
 9760SOL    HW230180   4.596   0.556   6.686
 9761SOL     OW30181   0.980   2.606   1.295
 9761SOL    HW130182   0.930   2.674   1.241
 9761SOL    HW230183   1.032   2.652   1.367
 9762SOL     OW30184   2.896   1.190   5.312
 9762SOL    HW130185   2.961   1.227   5.246
 9762SOL    HW230186   2.922   1.097   5.337
 9763SOL     OW30187   6.525   2.452   1.309
 9763SOL    HW130188   6.572   2.531   1.269
 9763SOL    HW230189   6.564   2.368   1.271
 9764SOL     OW30190   0.768   2.387   2.709
 9764SOL    HW130191   0.706   2.433   2.773
 9764SOL    HW230192   0.716   2.321   2.655
 9765SOL     OW30193   7.002   0.587   1.596
 9765SOL    HW130194   6.964   0.568   1.506
 9765SOL    HW230195   7.007   0.502   1.649
 9766SOL     OW30196   0.881   2.698   2.714
 9766SOL    HW130197   0.833   2.612   2.733
 9766SOL    HW230198   0.889   2.751   2.799
 9767SOL     OW30199   2.525   1.785   4.917
 9767SOL    HW130200   2.618   1.765   4.945
 9767SOL    HW230201   2.490   1.711   4.859
 9768SOL     OW30202   5.494   2.940   0.419
 9768SOL    HW130203   5.416   2.901   0.467
 9768SOL    HW230204   5.491   2.913   0.323
 9769SOL     OW30205   3.036   1.867   5.582
 9769SOL    HW130206   3.052   1.800   5.509
 9769SOL    HW230207   3.047   1.823   5.671
 9770SOL     OW30208   1.938   3.079   5.587
 9770SOL    HW130209   1.931   3.045   5.493
 9770SOL    HW230210   2.005   3.152   5.591
 9771SOL     OW30211   2.711   0.928   1.297
 9771SOL    HW130212   2.650   0.883   1.232
 9771SOL    HW230213   2.699   0.887   1.388
 9772SOL     OW30214   0.751   0.566   1.067
 9772SOL    HW130215   0.812   0.614   1.130
 9772SOL    HW230216   0.705   0.633   1.008
 9773SOL     OW30217   5.982   6.042   2.204
 9773SOL    HW130218   6.044   6.120   2.188
 9773SOL    HW230219   5.893   6.076   2.233
 9774SOL     OW30220   1.846   4.770   4.088
 9774SOL    HW130221   1.874   4.682   4.126
 9774SOL    HW230222   1.748   4.770   4.070
 9775SOL     OW30223   2.209   1.545   2.958
 9775SOL    HW130224   2.225   1.605   3.036
 9775SOL    HW230225   2.168   1.459   2.990
 9776SOL     OW30226   2.558   5.522   1.420
 9776SOL    HW130227   2.533   5.528   1.323
 9776SOL    HW230228   2.641   5.468   1.429
 9777SOL     OW30229   4.477   1.591   5.475
 9777SOL    HW130230   4.532   1.520   5.518
 9777SOL    HW230231   4.422   1.638   5.544
 9778SOL     OW30232   0.872   3.999   3.375
 9778SOL    HW130233   0.798   3.965   3.433
 9778SOL    HW230234   0.937   3.925   3.358
 9779SOL     OW30235   3.175   0.818   3.660
 9779SOL    HW130236   3.179   0.778   3.569
 9779SOL    HW230237   3.150   0.747   3.727
 9780SOL     OW30238   0.464   2.241   1.102
 9780SOL    HW130239   0.409   2.239   1.018
 9780SOL    HW230240   0.553   2.281   1.082
 9781SOL     OW30241   1.551   1.118   1.955
 9781SOL    HW130242   1.553   1.049   1.883
 9781SOL    HW230243   1.470   1.104   2.012
 9782SOL     OW30244   0.202   2.276   0.372
 9782SOL    HW130245   0.114   2.244   0.407
 9782SOL    HW230246   0.264   2.294   0.448
 9783SOL     OW30247   4.351   1.683   2.852
 9783SOL    HW130248   4.412   1.603   2.854
 9783SOL    HW230249   4.278   1.667   2.785
 9784SOL     OW30250   1.995   1.494   5.974
 9784SOL    HW130251   2.034   1.419   6.026
 9784SOL    HW230252   2.063   1.567   5.963
 9785SOL     OW30253   0.638   4.069   4.911
 9785SOL    HW130254   0.549   4.113   4.919
 9785SOL    HW230255   0.679   4.093   4.822
 9786SOL     OW30256   2.641   4.307   6.621
 9786SOL    HW130257   2.556   4.259   6.641
 9786SOL    HW230258   2.629   4.405   6.637
 9787SOL     OW30259   3.027   3.420   2.097
 9787SOL    HW130260   3.043   3.379   2.186
 9787SOL    HW230261   2.988   3.352   2.035
 9788SOL     OW30262   4.115   6.907   2.157
 9788SOL    HW130263   4.191   6.853   2.191
 9788SOL    HW230264   4.038   6.902   2.221
 9789SOL     OW30265   3.013   1.343   0.087
 9789SOL    HW130266   3.053   1.261   0.045
 9789SOL    HW230267   3.062   1.364   0.171
 9790SOL     OW30268   5.058   6.183   4.700
 9790SOL    HW130269   5.023   6.221   4.615
 9790SOL    HW230270   5.076   6.085   4.688
 9791SOL     OW30271   0.662   0.051   1.717
 9791SOL    HW130272   0.617   0.093   1.796
 9791SOL    HW230273   0.731   7.011   1.748
 9792SOL     OW30274   3.546   4.849   1.019
 9792SOL    HW130275   3.448   4.859   0.998
 9792SOL    HW230276   3.559   4.767   1.075
 9793SOL     OW30277   6.490   0.970   2.963
 9793SOL    HW130278   6.542   0.976   2.878
 9793SOL    HW230279   6.392   0.976   2.943
 9794SOL     OW30280   4.382   4.611   4.624
 9794SOL    HW130281   4.451   4.584   4.557
 9794SOL    HW230282   4.383   4.546   4.701
 9795SOL     OW30283   0.812   3.234   2.959
 9795SOL    HW130284   0.878   3.303   2.988
 9795SOL    HW230285   0.722   3.276   2.948
 9796SOL     OW30286   3.056   3.873   3.812
 9796SOL    HW130287   2.960   3.884   3.838
 9796SOL    HW230288   3.086   3.779   3.830
 9797SOL     OW30289   2.920   5.370   0.090
 9797SOL    HW130290   2.950   5.284   0.050
 9797SOL    HW230291   2.918   5.441   0.020
 9798SOL     OW30292   0.147   4.291   6.245
 9798SOL    HW130293   0.052   4.322   6.249
 9798SOL    HW230294   0.196   4.324   6.326
 9799SOL     OW30295   3.140   0.203   0.407
 9799SOL    HW130296   3.057   0.226   0.458
 9799SOL    HW230297   3.114   0.165   0.318
 9800SOL     OW30298   6.570   3.126   3.992
 9800SOL    HW130299   6.569   3.046   4.052
 9800SOL    HW230300   6.501   3.192   4.023
 9801SOL     OW30301   5.327   6.243   0.533
 9801SOL    HW130302   5.330   6.298   0.617
 9801SOL    HW230303   5.303   6.149   0.556
 9802SOL     OW30304   4.244   3.722   6.930
 9802SOL    HW130305   4.236   3.636   6.879
 9802SOL    HW230306   4.241   3.703   0.004
 9803SOL     OW30307   1.040   3.332   6.308
 9803SOL    HW130308   1.039   3.261   6.378
 9803SOL    HW230309   0.948   3.371   6.298
 9804SOL     OW30310   0.353   4.364   2.645
 9804SOL    HW130311   0.413   4.331   2.718
 9804SOL    HW230312   0.369   4.462   2.631
 9805SOL     OW30313   1.055   5.361   3.835
 9805SOL    HW130314   0.992   5.297   3.792
 9805SOL    HW230315   1.148   5.325   3.829
 9806SOL     OW30316   3.934   1.868   0.300
 9806SOL    HW130317   3.899   1.914   0.382
 9806SOL    HW230318   4.033   1.877   0.296
 9807SOL     OW30319   4.058   3.099   3.135
 9807SOL    HW130320   4.145   3.119   3.091
 9807SOL    HW230321   4.003   3.040   3.076
 9808SOL     OW30322   3.976   5.562   2.085
 9808SOL    HW130323   3.963   5.471   2.045
 9808SOL    HW230324   4.053   5.559   2.148
 9809SOL     OW30325   6.763   3.015   0.598
 9809SOL    HW130326   6.695   3.088   0.583
 9809SOL    HW230327   6.733   2.932   0.553
 9810SOL     OW30328   2.366   1.870   0.678
 9810SOL    HW130329   2.281   1.874   0.626
 9810SOL    HW230330   2.350   1.905   0.770
 9811SOL     OW30331   5.813   3.757   4.544
 9811SOL    HW130332   5.797   3.846   4.500
 9811SOL    HW230333   5.836   3.771   4.640
 9812SOL     OW30334   3.295   6.195   5.684
 9812SOL    HW130335   3.235   6.272   5.708
 9812SOL    HW230336   3.291   6.125   5.755
 9813SOL     OW30337   5.086   0.330   2.517
 9813SOL    HW130338   4.988   0.331   2.498
 9813SOL    HW230339   5.136   0.350   2.432
 9814SOL     OW30340   0.173   1.167   6.401
 9814SOL    HW130341   0.100   1.164   6.470
 9814SOL    HW230342   0.259   1.139   6.442
 9815SOL     OW30343   4.452   2.514   3.959
 9815SOL    HW130344   4.464   2.513   4.058
 9815SOL    HW230345   4.517   2.578   3.918
 9816SOL     OW30346   2.540   1.219   1.127
 9816SOL    HW130347   2.627   1.221   1.175
 9816SOL    HW230348   2.497   1.309   1.131
 9817SOL     OW30349   6.662   0.069   2.202
 9817SOL    HW130350   6.637   6.998   2.224
 9817SOL    HW230351   6.730   0.102   2.268
 9818SOL     OW30352   5.265   2.584   5.121
 9818SOL    HW130353   5.326   2.663   5.133
 9818SOL    HW230354   5.272   2.524   5.201
 9819SOL     OW30355   4.050   1.004   2.081
 9819SOL    HW130356   4.125   0.938   2.079
 9819SOL    HW230357   3.968   0.962   2.044
 9820SOL     OW30358   4.468   2.954   6.380
 9820SOL    HW130359   4.466   3.043   6.426
 9820SOL    HW230360   4.488   2.967   6.283
 9821SOL     OW30361   6.804   5.219   0.217
 9821SOL    HW130362   6.741   5.145   0.241
 9821SOL    HW230363   6.890   5.208   0.267
 9822SOL     OW30364   1.244   6.681   3.145
 9822SOL    HW130365   1.306   6.757   3.163
 9822SOL    HW230366   1.150   6.709   3.163
 9823SOL     OW30367   3.733   0.022   1.827
 9823SOL    HW130368   3.696   0.013   1.919
 9823SOL    HW230369   3.758   6.955   1.792
 9824SOL     OW30370   1.258   3.774   5.706
 9824SOL    HW130371   1.158   3.762   5.709
 9824SOL    HW230372   1.284   3.847   5.768
 9825SOL     OW30373   4.390   4.892   5.625
 9825SOL    HW130374   4.401   4.849   5.715
 9825SOL    HW230375   4.311   4.851   5.578
 9826SOL     OW30376   5.205   0.319   6.442
 9826SOL    HW130377   5.139   0.283   6.507
 9826SOL    HW230378   5.227   0.413   6.466
 9827SOL     OW30379   0.934   3.564   4.680
 9827SOL    HW130380   0.895   3.628   4.747
 9827SOL    HW230381   1.023   3.598   4.650
 9828SOL     OW30382   3.074   2.818   6.388
 9828SOL    HW130383   3.039   2.737   6.434
 9828SOL    HW230384   3.006   2.851   6.321
 9829SOL     OW30385   3.097   4.896   1.225
 9829SOL    HW130386   3.046   4.812   1.241
 9829SOL    HW230387   3.066   4.967   1.288
 9830SOL     OW30388   5.912   0.622   0.620
 9830SOL    HW130389   5.836   0.678   0.653
 9830SOL    HW230390   5.998   0.670   0.635
 9831SOL     OW30391   6.010   6.679   0.715
 9831SOL    HW130392   6.101   6.714   0.692
 9831SOL    HW230393   5.977   6.722   0.799
 9832SOL     OW30394   4.157   4.921   1.166
 9832SOL    HW130395   4.160   4.885   1.073
 9832SOL    HW230396   4.075   4.978   1.177
 9833SOL     OW30397   3.838   4.085   5.660
 9833SOL    HW130398   3.768   4.116   5.724
 9833SOL    HW230399   3.927   4.081   5.706
 9834SOL     OW30400   1.134   3.285   5.037
 9834SOL    HW130401   1.152   3.330   5.125
 9834SOL    HW230402   1.221   3.272   4.989
 9835SOL     OW30403   4.840   1.543   4.244
 9835SOL    HW130404   4.910   1.531   4.315
 9835SOL    HW230405   4.840   1.638   4.212
 9836SOL     OW30406   4.930   5.038   2.575
 9836SOL    HW130407   4.950   4.952   2.620
 9836SOL    HW230408   4.849   5.028   2.517
 9837SOL     OW30409   1.377   6.495   4.296
 9837SOL    HW130410   1.381   6.474   4.394
 9837SOL    HW230411   1.319   6.429   4.249
 9838SOL     OW30412   6.988   5.832   5.168
 9838SOL    HW130413   6.940   5.844   5.255
 9838SOL    HW230414   6.921   5.824   5.094
 9839SOL     OW30415   6.722   1.934   2.183
 9839SOL    HW130416   6.820   1.933   2.163
 9839SOL    HW230417   6.694   1.843   2.214
 9840SOL     OW30418   6.431   0.538   1.011
 9840SOL    HW130419   6.356   0.492   1.058
 9840SOL    HW230420   6.501   0.470   0.986
 9841SOL     OW30421   1.681   3.701   4.315
 9841SOL    HW130422   1.714   3.683   4.222
 9841SOL    HW230423   1.608   3.637   4.338
 9842SOL     OW30424   3.306   2.910   2.564
 9842SOL    HW130425   3.227   2.955   2.606
 9842SOL    HW230426   3.346   2.847   2.629
 9843SOL     OW30427   5.435   3.417   2.266
 9843SOL    HW130428   5.482   3.398   2.180
 9843SOL    HW230429   5.438   3.336   2.325
 9844SOL     OW30430   4.826   0.332   2.533
 9844SOL    HW130431   4.741   0.279   2.526
 9844SOL    HW230432   4.822   0.390   2.615
 9845SOL     OW30433   0.708   2.063   3.572
 9845SOL    HW130434   0.757   1.983   3.540
 9845SOL    HW230435   0.693   2.127   3.496
 9846SOL     OW30436   3.084   3.152   2.959
 9846SOL    HW130437   3.143   3.079   2.994
 9846SOL    HW230438   3.084   3.150   2.859
 9847SOL     OW30439   2.262   4.380   4.929
 9847SOL    HW130440   2.216   4.323   4.997
 9847SOL    HW230441   2.306   4.457   4.974
 9848SOL     OW30442   4.412   3.618   0.285
 9848SOL    HW130443   4.390   3.715   0.274
 9848SOL    HW230444   4.460   3.605   0.371
 9849SOL     OW30445   0.288   6.926   5.441
 9849SOL    HW130446   0.221   6.937   5.514
 9849SOL    HW230447   0.260   6.852   5.380
 9850SOL     OW30448   4.261   6.588   2.701
 9850SOL    HW130449   4.225   6.497   2.678
 9850SOL    HW230450   4.357   6.594   2.672
 9851SOL     OW30451   5.506   2.396   4.763
 9851SOL    HW130452   5.440   2.394   4.838
 9851SOL    HW230453   5.599   2.398   4.800
 9852SOL     OW30454   4.969   2.019   3.633
 9852SOL    HW130455   5.003   2.112   3.620
 9852SOL    HW230456   5.045   1.959   3.658
 9853SOL     OW30457   6.528   4.014   2.108
 9853SOL    HW130458   6.449   4.074   2.095
 9853SOL    HW230459   6.599   4.062   2.159
 9854SOL     OW30460   4.871   6.134   3.691
 9854SOL    HW130461   4.911   6.080   3.765
 9854SOL    HW230462   4.816   6.074   3.632
 9855SOL     OW30463   1.482   3.267   1.202
 9855SOL    HW130464   1.440   3.325   1.272
 9855SOL    HW230465   1.512   3.181   1.244
 9856SOL     OW30466   4.185   2.903   1.359
 9856SOL    HW130467   4.139   2.822   1.323
 9856SOL    HW230468   4.242   2.943   1.287
 9857SOL     OW30469   5.449   4.219   3.470
 9857SOL    HW130470   5.498   4.137   3.498
 9857SOL    HW230471   5.419   4.270   3.551
 9858SOL     OW30472   4.417   1.331   1.103
 9858SOL    HW130473   4.424   1.260   1.172
 9858SOL    HW230474   4.484   1.315   1.031
 9859SOL     OW30475   6.520   0.600   1.909
 9859SOL    HW130476   6.495   0.635   1.819
 9859SOL    HW230477   6.595   0.654   1.946
 9860SOL     OW30478   0.414   1.079   2.845
 9860SOL    HW130479   0.431   1.004   2.781
 9860SOL    HW230480   0.383   1.042   2.933
 9861SOL     OW30481   3.936   6.955   4.562
 9861SOL    HW130482   4.027   6.918   4.546
 9861SOL    HW230483   3.876   6.929   4.486
 9862SOL     OW30484   0.571   2.598   0.483
 9862SOL    HW130485   0.647   2.641   0.433
 9862SOL    HW230486   0.605   2.562   0.570
 9863SOL     OW30487   2.862   6.722   0.792
 9863SOL    HW130488   2.956   6.743   0.765
 9863SOL    HW230489   2.852   6.738   0.890
 9864SOL     OW30490   4.658   5.958   2.045
 9864SOL    HW130491   4.659   6.055   2.020
 9864SOL    HW230492   4.635   5.903   1.965
 9865SOL     OW30493   0.488   1.938   4.817
 9865SOL    HW130494   0.509   1.840   4.813
 9865SOL    HW230495   0.393   1.950   4.845
 9866SOL     OW30496   4.290   4.672   3.530
 9866SOL    HW130497   4.225   4.651   3.457
 9866SOL    HW230498   4.248   4.734   3.596
 9867SOL     OW30499   3.875   0.552   6.471
 9867SOL    HW130500   3.838   0.459   6.481
 9867SOL    HW230501   3.884   0.574   6.374
 9868SOL     OW30502   6.818   4.994   6.873
 9868SOL    HW130503   6.886   4.923   6.858
 9868SOL    HW230504   6.759   4.968   6.950
 9869SOL     OW30505   1.323   3.636   3.338
 9869SOL    HW130506   1.409   3.591   3.314
 9869SOL    HW230507   1.342   3.729   3.369
 9870SOL     OW30508   4.938   4.571   2.564
 9870SOL    HW130509   4.963   4.660   2.602
 9870SOL    HW230510   4.839   4.560   2.564
 9871SOL     OW30511   1.753   1.323   5.086
 9871SOL    HW130512   1.836   1.308   5.033
 9871SOL    HW230513   1.727   1.420   5.082
 9872SOL     OW30514   1.825   4.934   3.292
 9872SOL    HW130515   1.813   5.034   3.292
 9872SOL    HW230516   1.736   4.890   3.301
 9873SOL     OW30517   0.529   2.872   1.064
 9873SOL    HW130518   0.610   2.928   1.083
 9873SOL    HW230519   0.482   2.907   0.983
 9874SOL     OW30520   0.599   2.622   3.700
 9874SOL    HW130521   0.639   2.651   3.613
 9874SOL    HW230522   0.573   2.703   3.753
 9875SOL     OW30523   1.167   0.747   3.257
 9875SOL    HW130524   1.117   0.724   3.173
 9875SOL    HW230525   1.195   0.662   3.302
 9876SOL     OW30526   0.210   6.116   2.701
 9876SOL    HW130527   0.272   6.046   2.665
 9876SOL    HW230528   0.165   6.163   2.626
 9877SOL     OW30529   3.466   0.078   2.288
 9877SOL    HW130530   3.403   0.151   2.263
 9877SOL    HW230531   3.484   0.081   2.387
 9878SOL     OW30532   0.594   6.607   5.179
 9878SOL    HW130533   0.597   6.515   5.139
 9878SOL    HW230534   0.648   6.669   5.123
 9879SOL     OW30535   4.894   6.167   5.971
 9879SOL    HW130536   4.841   6.241   6.012
 9879SOL    HW230537   4.921   6.103   6.043
 9880SOL     OW30538   1.464   1.776   5.100
 9880SOL    HW130539   1.521   1.698   5.071
 9880SOL    HW230540   1.441   1.831   5.020
 9881SOL     OW30541   0.330   2.625   6.303
 9881SOL    HW130542   0.398   2.601   6.372
 9881SOL    HW230543   0.371   2.689   6.237
 9882SOL     OW30544   1.053   1.289   3.649
 9882SOL    HW130545   1.133   1.344   3.675
 9882SOL    HW230546   1.001   1.337   3.579
 9883SOL     OW30547   2.122   0.543   1.636
 9883SOL    HW130548   2.053   0.573   1.702
 9883SOL    HW230549   2.194   0.612   1.630
 9884SOL     OW30550   3.907   0.563   4.135
 9884SOL    HW130551   3.889   0.465   4.131
 9884SOL    HW230552   3.963   0.583   4.216
 9885SOL     OW30553   6.310   5.237   4.084
 9885SOL    HW130554   6.299   5.176   4.163
 9885SOL    HW230555   6.327   5.183   4.002
 9886SOL     OW30556   1.206   3.895   2.319
 9886SOL    HW130557   1.116   3.860   2.293
 9886SOL    HW230558   1.268   3.819   2.336
 9887SOL     OW30559   4.099   0.649   6.596
 9887SOL    HW130560   4.017   0.604   6.560
 9887SOL    HW230561   4.156   0.582   6.643
 9888SOL     OW30562   6.817   4.177   0.021
 9888SOL    HW130563   6.782   4.086   0.003
 9888SOL    HW230564   6.852   4.217   6.960
 9889SOL     OW30565   0.034   4.860   0.152
 9889SOL    HW130566   0.034   4.764   0.126
 9889SOL    HW230567   7.016   4.870   0.243
 9890SOL     OW30568   1.400   2.701   1.138
 9890SOL    HW130569   1.381   2.790   1.179
 9890SOL    HW230570   1.445   2.714   1.050
 9891SOL     OW30571   5.134   1.906   1.463
 9891SOL    HW130572   5.155   1.906   1.561
 9891SOL    HW230573   5.077   1.985   1.441
 9892SOL     OW30574   7.015   5.765   6.551
 9892SOL    HW130575   0.086   5.734   6.551
 9892SOL    HW230576   6.971   5.736   6.636
 9893SOL     OW30577   1.960   1.078   0.608
 9893SOL    HW130578   1.956   1.160   0.551
 9893SOL    HW230579   1.969   1.104   0.704
 9894SOL     OW30580   1.683   2.117   0.314
 9894SOL    HW130581   1.725   2.033   0.349
 9894SOL    HW230582   1.633   2.163   0.387
 9895SOL     OW30583   5.308   3.276   5.632
 9895SOL    HW130584   5.260   3.293   5.719
 9895SOL    HW230585   5.267   3.197   5.587
 9896SOL     OW30586   5.859   0.217   7.019
 9896SOL    HW130587   5.805   0.220   6.935
 9896SOL    HW230588   5.803   0.247   0.072
 9897SOL     OW30589   5.477   5.384   3.733
 9897SOL    HW130590   5.507   5.471   3.695
 9897SOL    HW230591   5.478   5.314   3.661
 9898SOL     OW30592   3.763   6.236   5.302
 9898SOL    HW130593   3.707   6.240   5.219
 9898SOL    HW230594   3.736   6.157   5.356
 9899SOL     OW30595   0.244   5.357   0.226
 9899SOL    HW130596   0.294   5.439   0.198
 9899SOL    HW230597   0.302   5.300   0.283
 9900SOL     OW30598   1.844   3.882   3.409
 9900SOL    HW130599   1.826   3.926   3.497
 9900SOL    HW230600   1.899   3.943   3.352
 9901SOL     OW30601   2.292   2.053   5.389
 9901SOL    HW130602   2.218   2.110   5.353
 9901SOL    HW230603   2.298   1.968   5.336
 9902SOL     OW30604   2.878   4.404   7.018
 9902SOL    HW130605   2.936   4.337   6.973
 9902SOL    HW230606   2.935   4.470   0.043
 9903SOL     OW30607   5.531   1.157   2.847
 9903SOL    HW130608   5.457   1.094   2.823
 9903SOL    HW230609   5.599   1.110   2.902
 9904SOL     OW30610   6.772   3.301   6.287
 9904SOL    HW130611   6.794   3.204   6.276
 9904SOL    HW230612   6.745   3.318   6.382
 9905SOL     OW30613   4.053   1.377   0.474
 9905SOL    HW130614   4.099   1.466   0.474
 9905SOL    HW230615   3.983   1.376   0.546
 9906SOL     OW30616   3.964   3.774   4.160
 9906SOL    HW130617   3.938   3.860   4.204
 9906SOL    HW230618   3.942   3.698   4.221
 9907SOL     OW30619   0.875   6.899   1.739
 9907SOL    HW130620   0.902   6.844   1.659
 9907SOL    HW230621   0.948   6.894   1.808
 9908SOL     OW30622   4.979   3.437   2.998
 9908SOL    HW130623   4.971   3.536   3.011
 9908SOL    HW230624   5.073   3.408   3.018
 9909SOL     OW30625   1.935   0.232   5.112
 9909SOL    HW130626   1.861   0.226   5.179
 9909SOL    HW230627   1.927   0.317   5.060
 9910SOL     OW30628   1.040   4.130   2.939
 9910SOL    HW130629   1.049   4.172   3.029
 9910SOL    HW230630   0.988   4.045   2.947
 9911SOL     OW30631   2.969   6.377   2.275
 9911SOL    HW130632   3.036   6.413   2.341
 9911SOL    HW230633   3.014   6.308   2.218
 9912SOL     OW30634   4.454   1.332   0.088
 9912SOL    HW130635   4.369   1.365   0.129
 9912SOL    HW230636   4.510   1.289   0.159
 9913SOL     OW30637   5.932   3.269   6.767
 9913SOL    HW130638   5.889   3.359   6.782
 9913SOL    HW230639   6.006   3.278   6.701
 9914SOL     OW30640   0.778   2.952   5.321
 9914SOL    HW130641   0.812   2.984   5.232
 9914SOL    HW230642   0.846   2.893   5.364
 9915SOL     OW30643   5.633   0.969   3.376
 9915SOL    HW130644   5.583   1.024   3.443
 9915SOL    HW230645   5.630   0.873   3.404
 9916SOL     OW30646   2.233   2.540   2.155
 9916SOL    HW130647   2.250   2.601   2.078
 9916SOL    HW230648   2.141   2.501   2.146
 9917SOL     OW30649   6.513   4.118   5.022
 9917SOL    HW130650   6.604   4.111   4.981
 9917SOL    HW230651   6.499   4.043   5.086
 9918SOL     OW30652   4.201   2.194   2.672
 9918SOL    HW130653   4.253   2.113   2.647
 9918SOL    HW230654   4.110   2.168   2.704
 9919SOL     OW30655   6.345   6.120   0.425
 9919SOL    HW130656   6.264   6.089   0.376
 9919SOL    HW230657   6.318   6.157   0.515
 9920SOL     OW30658   4.817   1.408   2.103
 9920SOL    HW130659   4.768   1.344   2.044
 9920SOL    HW230660   4.915   1.400   2.087
 9921SOL     OW30661   3.631   5.474   5.914
 9921SOL    HW130662   3.691   5.536   5.864
 9921SOL    HW230663   3.675   5.385   5.922
 9922SOL     OW30664   0.136   5.468   0.661
 9922SOL    HW130665   0.120   5.456   0.759
 9922SOL    HW230666   0.223   5.426   0.637
 9923SOL     OW30667   4.869   4.876   0.310
 9923SOL    HW130668   4.882   4.785   0.349
 9923SOL    HW230669   4.935   4.890   0.235
 9924SOL     OW30670   0.511   3.767   4.849
 9924SOL    HW130671   0.478   3.677   4.876
 9924SOL    HW230672   0.596   3.788   4.897
 9925SOL     OW30673   5.265   2.245   4.150
 9925SOL    HW130674   5.351   2.261   4.101
 9925SOL    HW230675   5.188   2.276   4.093
 9926SOL     OW30676   1.962   4.906   0.136
 9926SOL    HW130677   1.914   4.993   0.124
 9926SOL    HW230678   1.985   4.894   0.232
 9927SOL     OW30679   6.290   6.921   3.015
 9927SOL    HW130680   6.256   6.860   3.086
 9927SOL    HW230681   6.321   6.868   2.936
 9928SOL     OW30682   4.870   4.548   1.469
 9928SOL    HW130683   4.871   4.619   1.540
 9928SOL    HW230684   4.795   4.485   1.486
 9929SOL     OW30685   2.620   4.704   3.862
 9929SOL    HW130686   2.613   4.663   3.953
 9929SOL    HW230687   2.552   4.776   3.852
 9930SOL     OW30688   6.700   0.324   3.812
 9930SOL    HW130689   6.674   0.323   3.716
 9930SOL    HW230690   6.743   0.412   3.834
 9931SOL     OW30691   1.124   4.693   5.292
 9931SOL    HW130692   1.146   4.784   5.258
 9931SOL    HW230693   1.042   4.658   5.245
 9932SOL     OW30694   0.663   6.252   5.388
 9932SOL    HW130695   0.581   6.286   5.342
 9932SOL    HW230696   0.732   6.324   5.389
 9933SOL     OW30697   0.778   5.759   2.286
 9933SOL    HW130698   0.837   5.679   2.302
 9933SOL    HW230699   0.682   5.732   2.297
 9934SOL     OW30700   6.595   1.814   6.408
 9934SOL    HW130701   6.561   1.908   6.414
 9934SOL    HW230702   6.649   1.803   6.325
 9935SOL     OW30703   2.983   1.197   6.184
 9935SOL    HW130704   2.965   1.204   6.086
 9935SOL    HW230705   2.917   1.134   6.226
 9936SOL     OW30706   1.080   4.451   4.717
 9936SOL    HW130707   1.128   4.472   4.631
 9936SOL    HW230708   0.983   4.439   4.698
 9937SOL     OW30709   6.842   2.356   6.099
 9937SOL    HW130710   6.813   2.382   6.192
 9937SOL    HW230711   6.790   2.410   6.033
 9938SOL     OW30712   6.667   6.230   3.220
 9938SOL    HW130713   6.625   6.261   3.135
 9938SOL    HW230714   6.656   6.130   3.228
 9939SOL     OW30715   3.137   3.011   2.370
 9939SOL    HW130716   3.196   2.963   2.435
 9939SOL    HW230717   3.188   3.026   2.285
 9940SOL     OW30718   6.759   1.238   0.543
 9940SOL    HW130719   6.782   1.298   0.619
 9940SOL    HW230720   6.660   1.228   0.537
 9941SOL     OW30721   3.468   4.921   5.736
 9941SOL    HW130722   3.468   5.012   5.693
 9941SOL    HW230723   3.375   4.884   5.735
 9942SOL     OW30724   2.636   5.316   3.291
 9942SOL    HW130725   2.723   5.332   3.338
 9942SOL    HW230726   2.597   5.229   3.321
 9943SOL     OW30727   0.851   6.635   5.536
 9943SOL    HW130728   0.860   6.536   5.525
 9943SOL    HW230729   0.759   6.657   5.568
 9944SOL     OW30730   0.705   4.009   0.044
 9944SOL    HW130731   0.781   4.061   0.082
 9944SOL    HW230732   0.684   4.043   6.976
 9945SOL     OW30733   6.827   5.479   0.271
 9945SOL    HW130734   6.869   5.490   0.361
 9945SOL    HW230735   6.811   5.382   0.253
 9946SOL     OW30736   4.807   0.571   5.073
 9946SOL    HW130737   4.902   0.588   5.046
 9946SOL    HW230738   4.804   0.496   5.139
 9947SOL     OW30739   6.290   4.755   4.012
 9947SOL    HW130740   6.382   4.793   4.023
 9947SOL    HW230741   6.259   4.769   3.918
 9948SOL     OW30742   4.743   4.720   4.826
 9948SOL    HW130743   4.718   4.812   4.855
 9948SOL    HW230744   4.806   4.680   4.893
 9949SOL     OW30745   5.353   5.232   3.244
 9949SOL    HW130746   5.415   5.153   3.249
 9949SOL    HW230747   5.274   5.210   3.187
 9950SOL     OW30748   4.337   6.079   5.357
 9950SOL    HW130749   4.245   6.100   5.325
 9950SOL    HW230750   4.351   5.980   5.359
 9951SOL     OW30751   5.847   1.906   3.201
 9951SOL    HW130752   5.775   1.856   3.152
 9951SOL    HW230753   5.827   2.004   3.199
 9952SOL     OW30754   6.932   4.924   0.365
 9952SOL    HW130755   6.836   4.942   0.344
 9952SOL    HW230756   6.983   5.010   0.364
 9953SOL     OW30757   6.977   1.290   4.118
 9953SOL    HW130758   6.898   1.236   4.147
 9953SOL    HW230759   0.016   1.232   4.066
 9954SOL     OW30760   4.766   0.419   5.285
 9954SOL    HW130761   4.841   0.429   5.350
 9954SOL    HW230762   4.736   0.324   5.283
 9955SOL     OW30763   0.533   4.340   5.099
 9955SOL    HW130764   0.462   4.277   5.069
 9955SOL    HW230765   0.523   4.428   5.052
 9956SOL     OW30766   1.783   6.139   1.395
 9956SOL    HW130767   1.692   6.119   1.430
 9956SOL    HW230768   1.832   6.196   1.460
 9957SOL     OW30769   6.503   3.924   3.769
 9957SOL    HW130770   6.418   3.873   3.778
 9957SOL    HW230771   6.483   4.018   3.740
 9958SOL     OW30772   2.465   4.371   1.304
 9958SOL    HW130773   2.544   4.327   1.347
 9958SOL    HW230774   2.416   4.426   1.372
 9959SOL     OW30775   3.772   3.501   0.555
 9959SOL    HW130776   3.726   3.589   0.565
 9959SOL    HW230777   3.746   3.441   0.630
 9960SOL     OW30778   0.756   1.499   2.590
 9960SOL    HW130779   0.794   1.417   2.633
 9960SOL    HW230780   0.815   1.577   2.609
 9961SOL     OW30781   2.138   4.897   4.899
 9961SOL    HW130782   2.227   4.913   4.940
 9961SOL    HW230783   2.107   4.804   4.920
 9962SOL     OW30784   5.406   6.102   5.223
 9962SOL    HW130785   5.361   6.108   5.312
 9962SOL    HW230786   5.340   6.123   5.151
 9963SOL     OW30787   3.258   1.234   0.729
 9963SOL    HW130788   3.158   1.224   0.728
 9963SOL    HW230789   3.284   1.311   0.786
 9964SOL     OW30790   4.684   5.770   5.200
 9964SOL    HW130791   4.633   5.809   5.276
 9964SOL    HW230792   4.685   5.671   5.207
 9965SOL     OW30793   4.150   0.188   0.304
 9965SOL    HW130794   4.236   0.236   0.322
 9965SOL    HW230795   4.160   0.092   0.329
 9966SOL     OW30796   1.141   0.122   2.708
 9966SOL    HW130797   1.144   0.024   2.688
 9966SOL    HW230798   1.224   0.148   2.758
 9967SOL     OW30799   1.024   5.526   0.426
 9967SOL    HW130800   1.041   5.436   0.386
 9967SOL    HW230801   0.980   5.515   0.515
 9968SOL     OW30802   3.682   2.985   2.677
 9968SOL    HW130803   3.709   3.079   2.700
 9968SOL    HW230804   3.654   2.981   2.581
 9969SOL     OW30805   0.743   3.693   1.620
 9969SOL    HW130806   0.689   3.638   1.556
 9969SOL    HW230807   0.682   3.755   1.670
 9970SOL     OW30808   5.341   4.451   1.477
 9970SOL    HW130809   5.295   4.383   1.534
 9970SOL    HW230810   5.292   4.462   1.391
 9971SOL     OW30811   2.101   5.421   0.032
 9971SOL    HW130812   2.176   5.411   0.098
 9971SOL    HW230813   2.037   5.345   0.043
 9972SOL     OW30814   6.675   4.589   1.892
 9972SOL    HW130815   6.626   4.664   1.936
 9972SOL    HW230816   6.697   4.519   1.960
 9973SOL     OW30817   5.478   6.974   4.631
 9973SOL    HW130818   5.555   7.006   4.575
 9973SOL    HW230819   5.400   6.953   4.571
 9974SOL     OW30820   1.781   0.820   4.217
 9974SOL    HW130821   1.744   0.741   4.266
 9974SOL    HW230822   1.765   0.808   4.119
 9975SOL     OW30823   0.280   3.057   0.398
 9975SOL    HW130824   0.345   3.012   0.336
 9975SOL    HW230825   0.306   3.040   0.493
 9976SOL     OW30826   1.907   0.464   4.949
 9976SOL    HW130827   1.894   0.542   5.010
 9976SOL    HW230828   1.887   0.491   4.855
 9977SOL     OW30829   6.649   4.594   4.556
 9977SOL    HW130830   6.644   4.663   4.628
 9977SOL    HW230831   6.709   4.520   4.585
 9978SOL     OW30832   6.732   1.908   4.190
 9978SOL    HW130833   6.824   1.874   4.210
 9978SOL    HW230834   6.693   1.950   4.272
 9979SOL     OW30835   0.015   3.637   5.332
 9979SOL    HW130836   7.006   3.730   5.349
 9979SOL    HW230837   7.006   3.606   5.243
 9980SOL     OW30838   3.894   0.005   5.286
 9980SOL    HW130839   3.892   6.943   5.338
 9980SOL    HW230840   3.829   0.070   5.326
 9981SOL     OW30841   3.556   2.126   4.287
 9981SOL    HW130842   3.459   2.149   4.278
 9981SOL    HW230843   3.580   2.121   4.384
 9982SOL     OW30844   6.306   6.088   3.798
 9982SOL    HW130845   6.225   6.146   3.801
 9982SOL    HW230846   6.343   6.087   3.705
 9983SOL     OW30847   0.393   1.140   1.481
 9983SOL    HW130848   0.448   1.086   1.545
 9983SOL    HW230849   0.413   1.111   1.387
 9984SOL     OW30850   2.768   1.136   0.135
 9984SOL    HW130851   2.840   1.199   0.104
 9984SOL    HW230852   2.740   1.078   0.059
 9985SOL     OW30853   1.130   0.790   1.813
 9985SOL    HW130854   1.208   0.775   1.752
 9985SOL    HW230855   1.137   0.730   1.892
 9986SOL     OW30856   5.411   4.502   4.760
 9986SOL    HW130857   5.318   4.498   4.796
 9986SOL    HW230858   5.418   4.576   4.693
 9987SOL     OW30859   6.960   4.092   6.254
 9987SOL    HW130860   6.884   4.138   6.299
 9987SOL    HW230861   6.933   3.999   6.229
 9988SOL     OW30862   6.384   6.749   4.736
 9988SOL    HW130863   6.477   6.756   4.698
 9988SOL    HW230864   6.335   6.835   4.720
 9989SOL     OW30865   0.781   3.712   5.282
 9989SOL    HW130866   0.851   3.664   5.230
 9989SOL    HW230867   0.698   3.656   5.284
 9990SOL     OW30868   1.391   5.209   2.366
 9990SOL    HW130869   1.322   5.278   2.347
 9990SOL    HW230870   1.438   5.184   2.282
 9991SOL     OW30871   3.888   2.231   3.815
 9991SOL    HW130872   3.918   2.147   3.771
 9991SOL    HW230873   3.967   2.285   3.843
 9992SOL     OW30874   6.383   5.400   6.108
 9992SOL    HW130875   6.453   5.329   6.107
 9992SOL    HW230876   6.424   5.488   6.084
 9993SOL     OW30877   0.729   1.022   1.561
 9993SOL    HW130878   0.712   1.117   1.587
 9993SOL    HW230879   0.775   0.975   1.635
 9994SOL     OW30880   6.100   4.804   2.962
 9994SOL    HW130881   6.080   4.706   2.957
 9994SOL    HW230882   6.031   4.849   3.020
 9995SOL     OW30883   4.739   1.181   5.185
 9995SOL    HW130884   4.793   1.125   5.123
 9995SOL    HW230885   4.643   1.175   5.161
 9996SOL     OW30886   2.563   3.729   6.963
 9996SOL    HW130887   2.467   3.730   6.935
 9996SOL    HW230888   2.621   3.756   6.886
 9997SOL     OW30889   2.813   0.284   5.270
 9997SOL    HW130890   2.863   0.279   5.183
 9997SOL    HW230891   2.721   0.247   5.258
 9998SOL     OW30892   5.713   6.066   5.326
 9998SOL    HW130893   5.621   6.068   5.367
 9998SOL    HW230894   5.761   6.151   5.348
 9999SOL     OW30895   0.384   2.919   4.686
 9999SOL    HW130896   0.483   2.927   4.676
 9999SOL    HW230897   0.351   2.982   4.756
10000SOL     OW30898   7.023   3.495   6.849
10000SOL    HW130899   0.001   3.551   6.932
10000SOL    HW230900   6.991   3.403   6.871
10001SOL     OW30901   4.277   0.155   2.792
10001SOL    HW130902   4.216   0.195   2.861
10001SOL    HW230903   4.364   0.130   2.835
10002SOL     OW30904   0.777   1.517   1.950
10002SOL    HW130905   0.852   1.566   1.995
10002SOL    HW230906   0.696   1.519   2.008
10003SOL     OW30907   4.485   1.791   3.781
10003SOL    HW130908   4.455   1.723   3.714
10003SOL    HW230909   4.567   1.837   3.748
10004SOL     OW30910   0.806   2.008   3.206
10004SOL    HW130911   0.813   2.031   3.109
10004SOL    HW230912   0.760   1.920   3.217
10005SOL     OW30913   5.359   6.486   4.286
10005SOL    HW130914   5.322   6.572   4.322
10005SOL    HW230915   5.382   6.426   4.363
10006SOL     OW30916   4.439   0.967   4.976
10006SOL    HW130917   4.349   0.942   4.939
10006SOL    HW230918   4.495   0.884   4.986
10007SOL     OW30919   6.548   2.983   3.750
10007SOL    HW130920   6.600   3.043   3.690
10007SOL    HW230921   6.555   3.016   3.844
10008SOL     OW30922   3.768   6.975   3.990
10008SOL    HW130923   3.733   0.024   3.931
10008SOL    HW230924   3.861   6.996   4.019
10009SOL     OW30925   0.980   4.050   1.853
10009SOL    HW130926   0.932   4.017   1.934
10009SOL    HW230927   0.960   3.990   1.776
10010SOL     OW30928   0.428   1.604   6.292
10010SOL    HW130929   0.339   1.620   6.335
10010SOL    HW230930   0.422   1.627   6.195
10011SOL     OW30931   6.845   6.582   4.769
10011SOL    HW130932   6.759   6.592   4.719
10011SOL    HW230933   6.889   6.671   4.779
10012SOL     OW30934   5.839   0.962   3.937
10012SOL    HW130935   5.870   1.005   4.022
10012SOL    HW230936   5.775   0.889   3.959
10013SOL     OW30937   1.047   0.816   2.495
10013SOL    HW130938   1.118   0.843   2.560
10013SOL    HW230939   1.031   0.718   2.502
10014SOL     OW30940   1.600   5.207   6.011
10014SOL    HW130941   1.656   5.138   5.966
10014SOL    HW230942   1.639   5.229   6.100
10015SOL     OW30943   2.278   4.861   0.092
10015SOL    HW130944   2.180   4.847   0.083
10015SOL    HW230945   2.306   4.840   0.186
10016SOL     OW30946   2.422   0.786   5.685
10016SOL    HW130947   2.436   0.688   5.667
10016SOL    HW230948   2.502   0.837   5.655
10017SOL     OW30949   1.169   1.810   4.146
10017SOL    HW130950   1.156   1.722   4.099
10017SOL    HW230951   1.220   1.795   4.230
10018SOL     OW30952   4.644   6.732   6.350
10018SOL    HW130953   4.699   6.747   6.268
10018SOL    HW230954   4.687   6.779   6.428
10019SOL     OW30955   1.612   1.366   2.042
10019SOL    HW130956   1.536   1.412   2.088
10019SOL    HW230957   1.580   1.280   2.002
10020SOL     OW30958   0.149   3.245   0.718
10020SOL    HW130959   0.084   3.307   0.672
10020SOL    HW230960   0.119   3.150   0.704
10021SOL     OW30961   6.230   3.637   0.754
10021SOL    HW130962   6.217   3.691   0.837
10021SOL    HW230963   6.145   3.589   0.732
10022SOL     OW30964   1.795   0.594   6.564
10022SOL    HW130965   1.723   0.634   6.620
10022SOL    HW230966   1.844   0.524   6.617
10023SOL     OW30967   6.920   3.665   1.246
10023SOL    HW130968   6.893   3.619   1.331
10023SOL    HW230969   7.015   3.694   1.252
10024SOL     OW30970   1.265   4.515   3.134
10024SOL    HW130971   1.291   4.420   3.148
10024SOL    HW230972   1.265   4.536   3.036
10025SOL     OW30973   0.986   1.577   0.630
10025SOL    HW130974   1.041   1.661   0.624
10025SOL    HW230975   0.987   1.531   0.541
10026SOL     OW30976   0.144   0.701   3.779
10026SOL    HW130977   0.190   0.790   3.784
10026SOL    HW230978   0.051   0.714   3.745
10027SOL     OW30979   4.674   2.337   5.832
10027SOL    HW130980   4.717   2.372   5.749
10027SOL    HW230981   4.598   2.276   5.808
10028SOL     OW30982   1.998   0.726   0.830
10028SOL    HW130983   2.085   0.759   0.867
10028SOL    HW230984   1.925   0.790   0.855
10029SOL     OW30985   5.375   2.197   3.706
10029SOL    HW130986   5.427   2.192   3.620
10029SOL    HW230987   5.347   2.291   3.722
10030SOL     OW30988   2.267   0.909   3.286
10030SOL    HW130989   2.302   0.834   3.341
10030SOL    HW230990   2.187   0.950   3.332
10031SOL     OW30991   6.530   4.607   4.314
10031SOL    HW130992   6.566   4.602   4.407
10031SOL    HW230993   6.548   4.521   4.267
10032SOL     OW30994   2.866   1.472   5.367
10032SOL    HW130995   2.862   1.514   5.458
10032SOL    HW230996   2.891   1.376   5.375
10033SOL     OW30997   5.771   2.640   4.443
10033SOL    HW130998   5.681   2.602   4.422
10033SOL    HW230999   5.823   2.574   4.497
10034SOL     OW31000   4.884   0.533   6.365
10034SOL    HW131001   4.919   0.562   6.276
10034SOL    HW231002   4.873   0.434   6.366
10035SOL     OW31003   0.548   6.532   2.967
10035SOL    HW131004   0.569   6.479   3.049
10035SOL    HW231005   0.506   6.619   2.993
10036SOL     OW31006   6.708   0.757   0.289
10036SOL    HW131007   6.807   0.764   0.276
10036SOL    HW231008   6.661   0.805   0.215
10037SOL     OW31009   0.359   6.484   1.003
10037SOL    HW131010   0.415   6.421   1.056
10037SOL    HW231011   0.266   6.447   0.994
10038SOL     OW31012   6.404   0.665   0.778
10038SOL    HW131013   6.432   0.623   0.865
10038SOL    HW231014   6.477   0.652   0.711
10039SOL     OW31015   3.589   0.455   3.158
10039SOL    HW131016   3.547   0.453   3.248
10039SOL    HW231017   3.605   0.550   3.130
10040SOL     OW31018   0.240   2.524   0.954
10040SOL    HW131019   0.261   2.483   1.044
10040SOL    HW231020   0.170   2.594   0.965
10041SOL     OW31021   1.853   5.886   0.835
10041SOL    HW131022   1.758   5.859   0.820
10041SOL    HW231023   1.896   5.824   0.900
10042SOL     OW31024   5.790   2.565   2.864
10042SOL    HW131025   5.796   2.661   2.892
10042SOL    HW231026   5.872   2.540   2.814
10043SOL     OW31027   0.699   2.494   5.230
10043SOL    HW131028   0.665   2.559   5.162
10043SOL    HW231029   0.707   2.539   5.318
10044SOL     OW31030   3.825   1.579   6.301
10044SOL    HW131031   3.870   1.533   6.224
10044SOL    HW231032   3.778   1.510   6.357
10045SOL     OW31033   2.278   0.784   0.468
10045SOL    HW131034   2.184   0.806   0.492
10045SOL    HW231035   2.323   0.740   0.546
10046SOL     OW31036   1.210   5.188   1.342
10046SOL    HW131037   1.120   5.193   1.385
10046SOL    HW231038   1.263   5.114   1.383
10047SOL     OW31039   0.770   4.174   0.826
10047SOL    HW131040   0.766   4.260   0.877
10047SOL    HW231041   0.766   4.097   0.890
10048SOL     OW31042   5.608   5.212   3.055
10048SOL    HW131043   5.515   5.241   3.076
10048SOL    HW231044   5.614   5.187   2.958
10049SOL     OW31045   6.012   1.130   4.951
10049SOL    HW131046   6.089   1.079   4.989
10049SOL    HW231047   5.943   1.066   4.917
10050SOL     OW31048   0.477   2.962   6.557
10050SOL    HW131049   0.454   2.965   6.460
10050SOL    HW231050   0.460   3.052   6.598
10051SOL     OW31051   2.527   2.135   3.869
10051SOL    HW131052   2.590   2.177   3.803
10051SOL    HW231053   2.542   2.175   3.959
10052SOL     OW31054   1.672   6.986   3.505
10052SOL    HW131055   1.679   0.004   3.415
10052SOL    HW231056   1.653   0.033   3.573
10053SOL     OW31057   5.888   5.164   3.437
10053SOL    HW131058   5.974   5.165   3.386
10053SOL    HW231059   5.865   5.257   3.465
10054SOL     OW31060   6.857   4.447   4.644
10054SOL    HW131061   6.864   4.412   4.550
10054SOL    HW231062   6.948   4.469   4.678
10055SOL     OW31063   1.656   2.760   6.832
10055SOL    HW131064   1.687   2.855   6.836
10055SOL    HW231065   1.572   2.751   6.885
10056SOL     OW31066   6.211   2.051   4.134
10056SOL    HW131067   6.295   1.997   4.143
10056SOL    HW231068   6.132   1.992   4.148
10057SOL     OW31069   5.209   4.870   5.419
10057SOL    HW131070   5.264   4.788   5.432
10057SOL    HW231071   5.138   4.853   5.351
10058SOL     OW31072   0.269   4.209   4.646
10058SOL    HW131073   0.239   4.117   4.669
10058SOL    HW231074   0.369   4.213   4.646
10059SOL     OW31075   5.505   0.205   6.855
10059SOL    HW131076   5.556   0.132   6.902
10059SOL    HW231077   5.566   0.283   6.838
10060SOL     OW31078   3.058   1.805   1.722
10060SOL    HW131079   2.980   1.797   1.785
10060SOL    HW231080   3.026   1.837   1.633
10061SOL     OW31081   3.425   6.920   2.027
10061SOL    HW131082   3.334   6.962   2.024
10061SOL    HW231083   3.482   6.971   2.091
10062SOL     OW31084   0.724   6.414   4.982
10062SOL    HW131085   0.673   6.334   5.013
10062SOL    HW231086   0.765   6.394   4.893
10063SOL     OW31087   2.749   2.367   4.842
10063SOL    HW131088   2.674   2.310   4.806
10063SOL    HW231089   2.760   2.349   4.940
10064SOL     OW31090   2.568   6.906   1.361
10064SOL    HW131091   2.656   6.952   1.345
10064SOL    HW231092   2.576   6.845   1.439
10065SOL     OW31093   0.279   1.705   1.616
10065SOL    HW131094   0.214   1.661   1.553
10065SOL    HW231095   0.239   1.790   1.650
10066SOL     OW31096   6.362   5.096   3.278
10066SOL    HW131097   6.436   5.036   3.246
10066SOL    HW231098   6.396   5.190   3.284
10067SOL     OW31099   0.216   2.852   5.212
10067SOL    HW131100   0.226   2.807   5.301
10067SOL    HW231101   0.124   2.835   5.176
10068SOL     OW31102   1.609   3.512   2.458
10068SOL    HW131103   1.528   3.459   2.485
10068SOL    HW231104   1.667   3.527   2.538
10069SOL     OW31105   3.313   4.654   1.026
10069SOL    HW131106   3.248   4.614   1.091
10069SOL    HW231107   3.279   4.742   0.994
10070SOL     OW31108   5.326   6.855   7.019
10070SOL    HW131109   5.264   6.882   6.946
10070SOL    HW231110   5.416   6.897   7.004
10071SOL     OW31111   5.757   1.025   5.278
10071SOL    HW131112   5.796   0.966   5.207
10071SOL    HW231113   5.824   1.095   5.303
10072SOL     OW31114   5.872   3.036   1.658
10072SOL    HW131115   5.892   3.107   1.591
10072SOL    HW231116   5.788   2.988   1.632
10073SOL     OW31117   5.785   5.380   4.800
10073SOL    HW131118   5.815   5.294   4.758
10073SOL    HW231119   5.770   5.449   4.730
10074SOL     OW31120   2.581   4.623   0.202
10074SOL    HW131121   2.569   4.543   0.261
10074SOL    HW231122   2.542   4.703   0.247
10075SOL     OW31123   1.204   3.382   1.746
10075SOL    HW131124   1.234   3.462   1.694
10075SOL    HW231125   1.253   3.378   1.833
10076SOL     OW31126   5.339   4.950   4.336
10076SOL    HW131127   5.256   4.904   4.367
10076SOL    HW231128   5.366   5.019   4.403
10077SOL     OW31129   4.505   3.589   6.529
10077SOL    HW131130   4.471   3.620   6.618
10077SOL    HW231131   4.604   3.597   6.527
10078SOL     OW31132   6.340   5.393   4.358
10078SOL    HW131133   6.316   5.410   4.262
10078SOL    HW231134   6.285   5.317   4.393
10079SOL     OW31135   4.820   4.515   3.841
10079SOL    HW131136   4.802   4.552   3.750
10079SOL    HW231137   4.864   4.585   3.897
10080SOL     OW31138   4.837   1.633   5.741
10080SOL    HW131139   4.763   1.598   5.798
10080SOL    HW231140   4.887   1.556   5.700
10081SOL     OW31141   1.055   5.061   1.105
10081SOL    HW131142   1.020   4.979   1.149
10081SOL    HW231143   1.126   5.102   1.162
10082SOL     OW31144   0.831   4.549   1.229
10082SOL    HW131145   0.904   4.499   1.276
10082SOL    HW231146   0.743   4.523   1.268
10083SOL     OW31147   2.984   5.898   2.729
10083SOL    HW131148   2.912   5.865   2.790
10083SOL    HW231149   2.998   5.996   2.743
10084SOL     OW31150   0.829   2.201   4.615
10084SOL    HW131151   0.914   2.154   4.639
10084SOL    HW231152   0.768   2.138   4.567
10085SOL     OW31153   5.293   0.110   1.217
10085SOL    HW131154   5.362   0.087   1.286
10085SOL    HW231155   5.212   0.054   1.231
10086SOL     OW31156   4.681   6.371   3.221
10086SOL    HW131157   4.731   6.335   3.300
10086SOL    HW231158   4.716   6.329   3.137
10087SOL     OW31159   2.313   5.935   5.800
10087SOL    HW131160   2.306   5.889   5.889
10087SOL    HW231161   2.267   6.024   5.805
10088SOL     OW31162   6.413   2.388   1.551
10088SOL    HW131163   6.316   2.410   1.549
10088SOL    HW231164   6.453   2.407   1.461
10089SOL     OW31165   3.946   0.816   1.844
10089SOL    HW131166   4.040   0.850   1.843
10089SOL    HW231167   3.946   0.718   1.863
10090SOL     OW31168   1.818   6.273   3.344
10090SOL    HW131169   1.841   6.278   3.441
10090SOL    HW231170   1.896   6.237   3.293
10091SOL     OW31171   5.590   4.979   4.547
10091SOL    HW131172   5.539   5.064   4.537
10091SOL    HW231173   5.676   4.985   4.497
10092SOL     OW31174   1.159   2.119   3.472
10092SOL    HW131175   1.190   2.028   3.446
10092SOL    HW231176   1.123   2.117   3.565
10093SOL     OW31177   4.228   3.982   6.221
10093SOL    HW131178   4.173   4.062   6.200
10093SOL    HW231179   4.197   3.941   6.307
10094SOL     OW31180   3.593   2.059   0.462
10094SOL    HW131181   3.567   1.970   0.499
10094SOL    HW231182   3.571   2.062   0.364
10095SOL     OW31183   4.257   3.765   5.300
10095SOL    HW131184   4.213   3.721   5.378
10095SOL    HW231185   4.194   3.766   5.222
10096SOL     OW31186   6.430   3.493   2.422
10096SOL    HW131187   6.413   3.438   2.503
10096SOL    HW231188   6.527   3.490   2.399
10097SOL     OW31189   0.783   1.287   1.019
10097SOL    HW131190   0.743   1.235   0.944
10097SOL    HW231191   0.841   1.360   0.982
10098SOL     OW31192   3.556   5.338   4.512
10098SOL    HW131193   3.616   5.258   4.516
10098SOL    HW231194   3.543   5.374   4.604
10099SOL     OW31195   0.131   4.581   3.611
10099SOL    HW131196   0.053   4.573   3.673
10099SOL    HW231197   0.145   4.677   3.586
10100SOL     OW31198   5.368   4.995   3.664
10100SOL    HW131199   5.282   4.952   3.691
10100SOL    HW231200   5.440   4.969   3.727
10101SOL     OW31201   6.504   3.262   0.344
10101SOL    HW131202   6.465   3.276   0.253
10101SOL    HW231203   6.432   3.270   0.413
10102SOL     OW31204   6.212   4.839   3.761
10102SOL    HW131205   6.121   4.801   3.745
10102SOL    HW231206   6.259   4.851   3.673
10103SOL     OW31207   0.700   6.724   6.702
10103SOL    HW131208   0.783   6.745   6.652
10103SOL    HW231209   0.655   6.810   6.729
10104SOL     OW31210   2.879   1.391   4.419
10104SOL    HW131211   2.829   1.409   4.504
10104SOL    HW231212   2.961   1.449   4.416
10105SOL     OW31213   3.077   1.198   3.609
10105SOL    HW131214   2.985   1.220   3.641
10105SOL    HW231215   3.091   1.237   3.517
10106SOL     OW31216   5.626   4.041   1.389
10106SOL    HW131217   5.712   4.086   1.366
10106SOL    HW231218   5.571   4.030   1.306
10107SOL     OW31219   5.643   5.522   0.069
10107SOL    HW131220   5.658   5.426   0.044
10107SOL    HW231221   5.731   5.565   0.090
10108SOL     OW31222   2.063   2.759   4.810
10108SOL    HW131223   2.042   2.847   4.852
10108SOL    HW231224   2.131   2.711   4.866
10109SOL     OW31225   1.043   2.281   0.862
10109SOL    HW131226   0.998   2.355   0.912
10109SOL    HW231227   1.120   2.247   0.915
10110SOL     OW31228   6.247   5.799   2.039
10110SOL    HW131229   6.256   5.805   1.940
10110SOL    HW231230   6.273   5.885   2.081
10111SOL     OW31231   6.666   2.116   2.004
10111SOL    HW131232   6.612   2.195   2.033
10111SOL    HW231233   6.688   2.060   2.084
10112SOL     OW31234   5.940   2.713   3.792
10112SOL    HW131235   5.976   2.802   3.819
10112SOL    HW231236   6.016   2.652   3.769
10113SOL     OW31237   6.439   6.684   5.943
10113SOL    HW131238   6.386   6.601   5.958
10113SOL    HW231239   6.463   6.725   6.031
10114SOL     OW31240   5.289   3.469   2.008
10114SOL    HW131241   5.234   3.413   2.069
10114SOL    HW231242   5.385   3.442   2.015
10115SOL     OW31243   2.823   2.986   5.912
10115SOL    HW131244   2.861   2.896   5.935
10115SOL    HW231245   2.871   3.023   5.833
10116SOL     OW31246   0.375   0.010   5.789
10116SOL    HW131247   0.353   6.937   5.794
10116SOL    HW231248   0.455   0.023   5.731
10117SOL     OW31249   6.551   4.316   2.296
10117SOL    HW131250   6.621   4.248   2.274
10117SOL    HW231251   6.530   4.370   2.214
10118SOL     OW31252   3.667   5.272   3.501
10118SOL    HW131253   3.693   5.368   3.518
10118SOL    HW231254   3.749   5.217   3.489
10119SOL     OW31255   6.159   6.087   6.564
10119SOL    HW131256   6.076   6.143   6.561
10119SOL    HW231257   6.201   6.093   6.654
10120SOL     OW31258   2.519   2.417   3.248
10120SOL    HW131259   2.584   2.396   3.321
10120SOL    HW231260   2.553   2.379   3.161
10121SOL     OW31261   6.738   4.986   1.257
10121SOL    HW131262   6.810   4.927   1.294
10121SOL    HW231263   6.699   4.944   1.175
10122SOL     OW31264   2.190   7.004   3.576
10122SOL    HW131265   2.211   6.921   3.524
10122SOL    HW231266   2.093   7.006   3.599
10123SOL     OW31267   6.401   5.666   6.289
10123SOL    HW131268   6.438   5.678   6.197
10123SOL    HW231269   6.426   5.576   6.325
10124SOL     OW31270   2.425   4.878   2.850
10124SOL    HW131271   2.508   4.884   2.795
10124SOL    HW231272   2.349   4.850   2.793
10125SOL     OW31273   1.272   0.606   5.239
10125SOL    HW131274   1.205   0.551   5.189
10125SOL    HW231275   1.230   0.641   5.323
10126SOL     OW31276   6.479   6.133   5.179
10126SOL    HW131277   6.494   6.168   5.271
10126SOL    HW231278   6.538   6.183   5.115
10127SOL     OW31279   1.782   6.823   5.628
10127SOL    HW131280   1.705   6.761   5.640
10127SOL    HW231281   1.866   6.770   5.614
10128SOL     OW31282   2.203   2.185   0.123
10128SOL    HW131283   2.287   2.238   0.130
10128SOL    HW231284   2.155   2.210   0.040
10129SOL     OW31285   6.108   2.078   4.745
10129SOL    HW131286   6.199   2.048   4.717
10129SOL    HW231287   6.046   1.999   4.748
10130SOL     OW31288   0.976   2.185   3.279
10130SOL    HW131289   0.898   2.123   3.268
10130SOL    HW231290   1.029   2.157   3.359
10131SOL     OW31291   1.768   6.716   5.199
10131SOL    HW131292   1.851   6.727   5.254
10131SOL    HW231293   1.717   6.803   5.199
10132SOL     OW31294   5.756   0.444   2.338
10132SOL    HW131295   5.785   0.399   2.423
10132SOL    HW231296   5.765   0.543   2.349
10133SOL     OW31297   5.068   6.600   1.156
10133SOL    HW131298   5.062   6.504   1.182
10133SOL    HW231299   5.059   6.658   1.237
10134SOL     OW31300   0.527   6.697   3.527
10134SOL    HW131301   0.490   6.765   3.590
10134SOL    HW231302   0.480   6.610   3.540
10135SOL     OW31303   6.470   6.617   3.095
10135SOL    HW131304   6.390   6.663   3.134
10135SOL    HW231305   6.554   6.658   3.132
10136SOL     OW31306   4.808   1.438   3.264
10136SOL    HW131307   4.842   1.378   3.336
10136SOL    HW231308   4.844   1.530   3.279
10137SOL     OW31309   0.002   6.165   4.109
10137SOL    HW131310   6.957   6.125   4.048
10137SOL    HW231311   0.079   6.101   4.117
10138SOL     OW31312   0.079   2.405   1.898
10138SOL    HW131313   0.137   2.429   1.820
10138SOL    HW231314   0.066   2.485   1.956
10139SOL     OW31315   3.685   2.782   6.517
10139SOL    HW131316   3.614   2.712   6.513
10139SOL    HW231317   3.647   2.871   6.492
10140SOL     OW31318   0.085   6.062   5.041
10140SOL    HW131319   0.032   5.987   5.080
10140SOL    HW231320   0.024   6.137   5.016
10141SOL     OW31321   1.617   2.753   4.526
10141SOL    HW131322   1.692   2.819   4.526
10141SOL    HW231323   1.594   2.728   4.620
10142SOL     OW31324   4.891   5.627   2.507
10142SOL    HW131325   4.798   5.645   2.540
10142SOL    HW231326   4.904   5.673   2.419
10143SOL     OW31327   5.688   2.742   6.037
10143SOL    HW131328   5.745   2.810   5.990
10143SOL    HW231329   5.601   2.783   6.062
10144SOL     OW31330   3.542   0.339   0.403
10144SOL    HW131331   3.462   0.354   0.345
10144SOL    HW231332   3.525   0.380   0.493
10145SOL     OW31333   6.658   6.577   5.799
10145SOL    HW131334   6.574   6.604   5.848
10145SOL    HW231335   6.693   6.656   5.749
10146SOL     OW31336   1.810   2.754   5.187
10146SOL    HW131337   1.826   2.671   5.135
10146SOL    HW231338   1.756   2.733   5.269
10147SOL     OW31339   3.934   5.837   6.768
10147SOL    HW131340   4.024   5.799   6.743
10147SOL    HW231341   3.938   5.872   6.861
10148SOL     OW31342   0.681   5.024   6.804
10148SOL    HW131343   0.717   4.948   6.858
10148SOL    HW231344   0.741   5.103   6.813
10149SOL     OW31345   3.852   3.284   1.871
10149SOL    HW131346   3.829   3.381   1.861
10149SOL    HW231347   3.949   3.271   1.852
10150SOL     OW31348   4.576   4.123   1.073
10150SOL    HW131349   4.594   4.068   1.155
10150SOL    HW231350   4.477   4.123   1.054
10151SOL     OW31351   6.933   0.776   5.874
10151SOL    HW131352   6.853   0.835   5.858
10151SOL    HW231353   6.964   0.786   5.969
10152SOL     OW31354   4.117   6.737   2.884
10152SOL    HW131355   4.132   6.715   2.980
10152SOL    HW231356   4.193   6.701   2.829
10153SOL     OW31357   4.663   3.673   1.718
10153SOL    HW131358   4.754   3.682   1.758
10153SOL    HW231359   4.614   3.759   1.729
10154SOL     OW31360   4.358   5.422   5.037
10154SOL    HW131361   4.347   5.521   5.025
10154SOL    HW231362   4.301   5.391   5.113
10155SOL     OW31363   4.704   2.025   4.171
10155SOL    HW131364   4.626   2.076   4.137
10155SOL    HW231365   4.778   2.088   4.195
10156SOL     OW31366   3.902   1.579   5.984
10156SOL    HW131367   3.890   1.484   6.014
10156SOL    HW231368   3.948   1.580   5.895
10157SOL     OW31369   0.600   4.788   0.941
10157SOL    HW131370   0.667   4.836   0.885
10157SOL    HW231371   0.615   4.689   0.934
10158SOL     OW31372   5.533   4.935   0.294
10158SOL    HW131373   5.500   4.918   0.202
10158SOL    HW231374   5.462   4.911   0.360
10159SOL     OW31375   3.546   2.970   2.429
10159SOL    HW131376   3.523   2.977   2.332
10159SOL    HW231377   3.463   2.966   2.484
10160SOL     OW31378   0.172   3.959   2.694
10160SOL    HW131379   0.220   3.985   2.609
10160SOL    HW231380   0.080   3.998   2.693
10161SOL     OW31381   5.704   3.418   5.865
10161SOL    HW131382   5.670   3.477   5.938
10161SOL    HW231383   5.697   3.467   5.778
10162SOL     OW31384   1.954   2.377   2.413
10162SOL    HW131385   1.916   2.286   2.431
10162SOL    HW231386   2.030   2.394   2.475
10163SOL     OW31387   3.396   4.903   4.979
10163SOL    HW131388   3.337   4.939   4.907
10163SOL    HW231389   3.343   4.893   5.064
10164SOL     OW31390   0.221   1.253   3.686
10164SOL    HW131391   0.282   1.329   3.709
10164SOL    HW231392   0.230   1.230   3.589
10165SOL     OW31393   1.389   3.294   4.301
10165SOL    HW131394   1.450   3.217   4.281
10165SOL    HW231395   1.315   3.263   4.362
10166SOL     OW31396   2.771   6.100   2.980
10166SOL    HW131397   2.857   6.052   2.968
10166SOL    HW231398   2.704   6.039   3.021
10167SOL     OW31399   3.122   2.256   6.529
10167SOL    HW131400   3.082   2.189   6.591
10167SOL    HW231401   3.153   2.210   6.445
10168SOL     OW31402   0.262   0.673   6.854
10168SOL    HW131403   0.237   0.602   6.788
10168SOL    HW231404   0.303   0.751   6.807
10169SOL     OW31405   4.616   5.679   3.457
10169SOL    HW131406   4.518   5.661   3.469
10169SOL    HW231407   4.640   5.671   3.361
10170SOL     OW31408   5.012   6.704   0.231
10170SOL    HW131409   5.092   6.760   0.251
10170SOL    HW231410   4.949   6.705   0.309
10171SOL     OW31411   2.244   4.224   4.387
10171SOL    HW131412   2.167   4.287   4.391
10171SOL    HW231413   2.229   4.157   4.314
10172SOL     OW31414   0.425   0.825   2.721
10172SOL    HW131415   0.387   0.735   2.702
10172SOL    HW231416   0.457   0.829   2.816
10173SOL     OW31417   3.726   3.856   4.915
10173SOL    HW131418   3.656   3.786   4.906
10173SOL    HW231419   3.785   3.835   4.993
10174SOL     OW31420   5.012   4.678   1.280
10174SOL    HW131421   4.957   4.637   1.353
10174SOL    HW231422   5.072   4.748   1.318
10175SOL     OW31423   6.605   6.816   4.372
10175SOL    HW131424   6.666   6.849   4.299
10175SOL    HW231425   6.548   6.743   4.336
10176SOL     OW31426   0.182   0.816   4.630
10176SOL    HW131427   0.172   0.888   4.698
10176SOL    HW231428   0.186   0.856   4.539
10177SOL     OW31429   2.537   1.604   3.792
10177SOL    HW131430   2.633   1.610   3.766
10177SOL    HW231431   2.522   1.523   3.849
10178SOL     OW31432   0.609   1.676   1.551
10178SOL    HW131433   0.510   1.680   1.540
10178SOL    HW231434   0.634   1.590   1.595
10179SOL     OW31435   6.977   6.118   0.888
10179SOL    HW131436   6.975   6.025   0.852
10179SOL    HW231437   0.043   6.159   0.871
10180SOL     OW31438   3.355   6.616   6.427
10180SOL    HW131439   3.270   6.563   6.426
10180SOL    HW231440   3.433   6.554   6.434
10181SOL     OW31441   0.067   3.798   3.487
10181SOL    HW131442   0.109   3.825   3.573
10181SOL    HW231443   0.133   3.812   3.413
10182SOL     OW31444   3.950   0.368   0.708
10182SOL    HW131445   4.029   0.428   0.696
10182SOL    HW231446   3.950   0.298   0.636
10183SOL     OW31447   4.572   6.110   5.636
10183SOL    HW131448   4.472   6.118   5.631
10183SOL    HW231449   4.610   6.195   5.672
10184SOL     OW31450   5.504   2.257   5.565
10184SOL    HW131451   5.410   2.245   5.533
10184SOL    HW231452   5.562   2.282   5.487
10185SOL     OW31453   2.921   4.889   2.353
10185SOL    HW131454   2.946   4.921   2.444
10185SOL    HW231455   3.004   4.871   2.300
10186SOL     OW31456   3.278   2.742   6.991
10186SOL    HW131457   3.361   2.699   0.003
10186SOL    HW231458   3.198   2.688   7.017
10187SOL     OW31459   2.146   3.832   5.440
10187SOL    HW131460   2.175   3.784   5.357
10187SOL    HW231461   2.114   3.923   5.416
10188SOL     OW31462   2.130   6.677   6.747
10188SOL    HW131463   2.208   6.714   6.797
10188SOL    HW231464   2.147   6.683   6.648
10189SOL     OW31465   2.174   1.855   4.709
10189SOL    HW131466   2.202   1.932   4.651
10189SOL    HW231467   2.089   1.879   4.757
10190SOL     OW31468   4.499   4.456   1.060
10190SOL    HW131469   4.561   4.439   1.136
10190SOL    HW231470   4.446   4.374   1.040
10191SOL     OW31471   5.501   0.427   0.444
10191SOL    HW131472   5.490   0.370   0.525
10191SOL    HW231473   5.597   0.450   0.432
10192SOL     OW31474   2.207   0.904   3.852
10192SOL    HW131475   2.237   0.811   3.875
10192SOL    HW231476   2.252   0.934   3.769
10193SOL     OW31477   3.351   4.187   3.923
10193SOL    HW131478   3.363   4.121   3.998
10193SOL    HW231479   3.346   4.279   3.961
10194SOL     OW31480   2.967   6.484   3.004
10194SOL    HW131481   3.045   6.452   2.950
10194SOL    HW231482   2.997   6.556   3.066
10195SOL     OW31483   5.313   0.252   3.015
10195SOL    HW131484   5.267   0.231   2.928
10195SOL    HW231485   5.411   0.232   3.006
10196SOL     OW31486   5.103   4.170   4.465
10196SOL    HW131487   5.138   4.077   4.462
10196SOL    HW231488   5.003   4.168   4.470
10197SOL     OW31489   5.360   1.315   3.002
10197SOL    HW131490   5.431   1.299   2.934
10197SOL    HW231491   5.341   1.413   3.008
10198SOL     OW31492   3.109   1.047   1.665
10198SOL    HW131493   3.060   0.977   1.614
10198SOL    HW231494   3.047   1.122   1.688
10199SOL     OW31495   1.270   2.093   0.383
10199SOL    HW131496   1.187   2.047   0.414
10199SOL    HW231497   1.246   2.168   0.322
10200SOL     OW31498   5.677   6.161   4.978
10200SOL    HW131499   5.750   6.131   4.916
10200SOL    HW231500   5.621   6.082   5.003
10201SOL     OW31501   1.668   4.654   2.957
10201SOL    HW131502   1.701   4.560   2.965
10201SOL    HW231503   1.577   4.654   2.915
10202SOL     OW31504   0.504   1.917   3.327
10202SOL    HW131505   0.551   1.991   3.376
10202SOL    HW231506   0.537   1.829   3.361
10203SOL     OW31507   0.433   3.117   1.348
10203SOL    HW131508   0.530   3.142   1.351
10203SOL    HW231509   0.425   3.023   1.315
10204SOL     OW31510   2.796   5.326   4.403
10204SOL    HW131511   2.709   5.281   4.424
10204SOL    HW231512   2.831   5.371   4.485
10205SOL     OW31513   4.275   0.689   1.016
10205SOL    HW131514   4.289   0.782   1.051
10205SOL    HW231515   4.293   0.623   1.089
10206SOL     OW31516   4.695   6.879   6.613
10206SOL    HW131517   4.745   6.952   6.660
10206SOL    HW231518   4.722   6.790   6.652
10207SOL     OW31519   4.116   1.625   2.728
10207SOL    HW131520   4.083   1.718   2.712
10207SOL    HW231521   4.076   1.589   2.812
10208SOL     OW31522   6.723   3.600   5.895
10208SOL    HW131523   6.750   3.510   5.929
10208SOL    HW231524   6.799   3.639   5.842
10209SOL     OW31525   4.726   6.247   6.889
10209SOL    HW131526   4.788   6.183   6.934
10209SOL    HW231527   4.778   6.318   6.842
10210SOL     OW31528   5.539   5.529   0.460
10210SOL    HW131529   5.454   5.581   0.448
10210SOL    HW231530   5.608   5.565   0.398
10211SOL     OW31531   3.669   5.630   5.265
10211SOL    HW131532   3.742   5.574   5.304
10211SOL    HW231533   3.581   5.604   5.305
10212SOL     OW31534   6.073   6.151   6.122
10212SOL    HW131535   6.094   6.210   6.044
10212SOL    HW231536   5.982   6.110   6.109
10213SOL     OW31537   4.647   0.800   4.850
10213SOL    HW131538   4.650   0.856   4.767
10213SOL    HW231539   4.619   0.707   4.828
10214SOL     OW31540   0.620   0.782   0.548
10214SOL    HW131541   0.658   0.745   0.464
10214SOL    HW231542   0.688   0.841   0.593
10215SOL     OW31543   3.774   2.349   0.186
10215SOL    HW131544   3.753   2.392   0.099
10215SOL    HW231545   3.748   2.411   0.261
10216SOL     OW31546   4.959   6.894   2.440
10216SOL    HW131547   4.931   6.930   2.351
10216SOL    HW231548   5.025   6.956   2.482
10217SOL     OW31549   3.447   2.322   5.906
10217SOL    HW131550   3.447   2.422   5.901
10217SOL    HW231551   3.447   2.284   5.813
10218SOL     OW31552   2.798   2.495   6.926
10218SOL    HW131553   2.733   2.539   6.864
10218SOL    HW231554   2.752   2.421   6.975
10219SOL     OW31555   0.619   4.681   6.692
10219SOL    HW131556   0.534   4.653   6.736
10219SOL    HW231557   0.697   4.651   6.746
10220SOL     OW31558   4.100   2.345   0.565
10220SOL    HW131559   4.195   2.378   0.569
10220SOL    HW231560   4.079   2.318   0.471
10221SOL     OW31561   3.090   0.976   4.490
10221SOL    HW131562   3.105   1.056   4.432
10221SOL    HW231563   3.106   1.002   4.586
10222SOL     OW31564   2.007   4.906   5.836
10222SOL    HW131565   2.052   4.823   5.803
10222SOL    HW231566   1.954   4.947   5.761
10223SOL     OW31567   0.005   4.219   0.502
10223SOL    HW131568   6.943   4.205   0.550
10223SOL    HW231569   0.071   4.263   0.564
10224SOL     OW31570   2.637   0.518   4.513
10224SOL    HW131571   2.666   0.441   4.570
10224SOL    HW231572   2.693   0.598   4.534
10225SOL     OW31573   4.725   5.701   4.095
10225SOL    HW131574   4.661   5.700   4.171
10225SOL    HW231575   4.719   5.615   4.044
10226SOL     OW31576   6.979   3.233   6.831
10226SOL    HW131577   6.953   3.236   6.735
10226SOL    HW231578   0.037   3.177   6.843
10227SOL     OW31579   5.110   5.103   5.524
10227SOL    HW131580   5.153   5.019   5.491
10227SOL    HW231581   5.137   5.119   5.619
10228SOL     OW31582   1.412   3.303   2.535
10228SOL    HW131583   1.326   3.349   2.514
10228SOL    HW231584   1.436   3.240   2.462
10229SOL     OW31585   1.987   1.047   1.489
10229SOL    HW131586   1.970   1.133   1.536
10229SOL    HW231587   1.992   1.063   1.390
10230SOL     OW31588   6.160   6.730   3.472
10230SOL    HW131589   6.176   6.800   3.541
10230SOL    HW231590   6.235   6.664   3.472
10231SOL     OW31591   4.928   6.874   4.271
10231SOL    HW131592   4.947   6.930   4.352
10231SOL    HW231593   4.952   6.926   4.189
10232SOL     OW31594   3.993   1.725   4.011
10232SOL    HW131595   3.929   1.649   4.002
10232SOL    HW231596   3.969   1.778   4.093
10233SOL     OW31597   4.924   0.507   5.838
10233SOL    HW131598   4.983   0.565   5.781
10233SOL    HW231599   4.915   0.417   5.796
10234SOL     OW31600   4.783   5.739   1.168
10234SOL    HW131601   4.725   5.770   1.243
10234SOL    HW231602   4.787   5.809   1.097
10235SOL     OW31603   4.588   1.156   0.251
10235SOL    HW131604   4.537   1.070   0.254
10235SOL    HW231605   4.665   1.147   0.189
10236SOL     OW31606   1.991   6.199   1.591
10236SOL    HW131607   1.921   6.150   1.641
10236SOL    HW231608   2.056   6.240   1.656
10237SOL     OW31609   5.752   2.765   3.603
10237SOL    HW131610   5.661   2.724   3.608
10237SOL    HW231611   5.802   2.742   3.686
10238SOL     OW31612   4.531   6.098   4.630
10238SOL    HW131613   4.559   6.120   4.723
10238SOL    HW231614   4.439   6.058   4.631
10239SOL     OW31615   6.519   3.523   4.447
10239SOL    HW131616   6.464   3.555   4.525
10239SOL    HW231617   6.502   3.426   4.433
10240SOL     OW31618   5.259   3.912   3.911
10240SOL    HW131619   5.205   3.919   3.995
10240SOL    HW231620   5.330   3.982   3.911
10241SOL     OW31621   1.920   1.666   2.987
10241SOL    HW131622   1.996   1.690   3.048
10241SOL    HW231623   1.955   1.611   2.912
10242SOL     OW31624   0.674   5.512   6.115
10242SOL    HW131625   0.651   5.607   6.092
10242SOL    HW231626   0.699   5.462   6.032
10243SOL     OW31627   1.055   6.218   2.682
10243SOL    HW131628   1.153   6.211   2.699
10243SOL    HW231629   1.013   6.128   2.693
10244SOL     OW31630   1.434   5.882   0.183
10244SOL    HW131631   1.440   5.976   0.216
10244SOL    HW231632   1.462   5.819   0.256
10245SOL     OW31633   2.041   2.473   7.006
10245SOL    HW131634   1.960   2.513   6.963
10245SOL    HW231635   2.012   2.407   0.052
10246SOL     OW31636   3.332   3.645   3.878
10246SOL    HW131637   3.394   3.718   3.849
10246SOL    HW231638   3.381   3.579   3.935
10247SOL     OW31639   0.573   5.922   5.225
10247SOL    HW131640   0.609   5.925   5.318
10247SOL    HW231641   0.474   5.936   5.228
10248SOL     OW31642   5.135   1.101   2.857
10248SOL    HW131643   5.115   1.145   2.945
10248SOL    HW231644   5.081   1.143   2.785
10249SOL     OW31645   4.742   1.274   6.525
10249SOL    HW131646   4.792   1.359   6.510
10249SOL    HW231647   4.754   1.244   6.619
10250SOL     OW31648   5.441   0.025   0.551
10250SOL    HW131649   5.363   6.987   0.556
10250SOL    HW231650   5.422   0.108   0.603
10251SOL     OW31651   4.188   4.582   0.728
10251SOL    HW131652   4.147   4.646   0.793
10251SOL    HW231653   4.169   4.612   0.635
10252SOL     OW31654   6.972   4.464   1.396
10252SOL    HW131655   6.880   4.452   1.433
10252SOL    HW231656   7.019   4.536   1.448
10253SOL     OW31657   3.658   4.887   0.421
10253SOL    HW131658   3.622   4.856   0.332
10253SOL    HW231659   3.647   4.814   0.488
10254SOL     OW31660   2.372   1.560   4.821
10254SOL    HW131661   2.412   1.500   4.891
10254SOL    HW231662   2.273   1.546   4.819
10255SOL     OW31663   3.079   5.335   2.568
10255SOL    HW131664   3.066   5.288   2.481
10255SOL    HW231665   3.177   5.350   2.583
10256SOL     OW31666   5.988   6.166   6.804
10256SOL    HW131667   5.926   6.222   6.748
10256SOL    HW231668   5.944   6.146   6.892
10257SOL     OW31669   1.717   6.272   5.563
10257SOL    HW131670   1.736   6.242   5.470
10257SOL    HW231671   1.738   6.198   5.627
10258SOL     OW31672   4.344   0.772   3.429
10258SOL    HW131673   4.321   0.868   3.415
10258SOL    HW231674   4.331   0.748   3.525
10259SOL     OW31675   0.758   3.576   4.202
10259SOL    HW131676   0.724   3.482   4.203
10259SOL    HW231677   0.856   3.576   4.181
10260SOL     OW31678   6.762   6.227   2.347
10260SOL    HW131679   6.852   6.213   2.306
10260SOL    HW231680   6.772   6.254   2.442
10261SOL     OW31681   1.926   0.259   1.882
10261SOL    HW131682   1.900   0.332   1.945
10261SOL    HW231683   1.976   0.188   1.931
10262SOL     OW31684   1.205   5.883   4.592
10262SOL    HW131685   1.151   5.870   4.675
10262SOL    HW231686   1.297   5.848   4.606
10263SOL     OW31687   6.656   2.602   5.532
10263SOL    HW131688   6.607   2.636   5.452
10263SOL    HW231689   6.736   2.660   5.549
10264SOL     OW31690   0.449   0.080   0.197
10264SOL    HW131691   0.535   0.109   0.155
10264SOL    HW231692   0.453   7.006   0.217
10265SOL     OW31693   4.340   2.330   2.474
10265SOL    HW131694   4.293   2.296   2.556
10265SOL    HW231695   4.395   2.410   2.499
10266SOL     OW31696   4.119   3.544   6.750
10266SOL    HW131697   4.111   3.448   6.727
10266SOL    HW231698   4.033   3.577   6.789
10267SOL     OW31699   0.185   1.396   6.219
10267SOL    HW131700   0.150   1.325   6.280
10267SOL    HW231701   0.109   1.453   6.187
10268SOL     OW31702   6.280   4.523   1.399
10268SOL    HW131703   6.208   4.533   1.468
10268SOL    HW231704   6.369   4.528   1.445
10269SOL     OW31705   3.086   1.676   6.150
10269SOL    HW131706   3.103   1.720   6.238
10269SOL    HW231707   3.112   1.739   6.077
10270SOL     OW31708   2.986   6.874   2.108
10270SOL    HW131709   2.911   6.877   2.042
10270SOL    HW231710   2.949   6.868   2.201
10271SOL     OW31711   2.812   5.801   1.041
10271SOL    HW131712   2.853   5.768   1.126
10271SOL    HW231713   2.729   5.749   1.021
10272SOL     OW31714   1.590   2.061   4.514
10272SOL    HW131715   1.681   2.021   4.502
10272SOL    HW231716   1.564   2.112   4.432
10273SOL     OW31717   3.968   7.002   4.169
10273SOL    HW131718   4.020   6.918   4.161
10273SOL    HW231719   3.879   6.983   4.210
10274SOL     OW31720   2.790   4.944   6.397
10274SOL    HW131721   2.771   5.014   6.467
10274SOL    HW231722   2.832   4.864   6.441
10275SOL     OW31723   1.001   6.592   1.958
10275SOL    HW131724   1.011   6.690   1.973
10275SOL    HW231725   1.089   6.547   1.971
10276SOL     OW31726   6.856   6.152   6.893
10276SOL    HW131727   6.856   6.231   6.831
10276SOL    HW231728   6.828   6.070   6.843
10277SOL     OW31729   0.886   5.962   2.165
10277SOL    HW131730   0.839   5.901   2.229
10277SOL    HW231731   0.818   6.019   2.118
10278SOL     OW31732   6.435   6.924   5.826
10278SOL    HW131733   6.452   6.839   5.875
10278SOL    HW231734   6.423   6.904   5.728
10279SOL     OW31735   4.018   6.222   4.532
10279SOL    HW131736   4.017   6.317   4.563
10279SOL    HW231737   4.051   6.219   4.437
10280SOL     OW31738   3.328   2.814   6.703
10280SOL    HW131739   3.358   2.909   6.704
10280SOL    HW231740   3.295   2.788   6.794
10281SOL     OW31741   4.241   0.369   4.030
10281SOL    HW131742   4.198   0.305   4.094
10281SOL    HW231743   4.279   0.319   3.953
10282SOL     OW31744   1.149   2.952   4.541
10282SOL    HW131745   1.209   2.873   4.555
10282SOL    HW231746   1.076   2.951   4.610
10283SOL     OW31747   1.759   4.158   6.106
10283SOL    HW131748   1.664   4.189   6.113
10283SOL    HW231749   1.768   4.067   6.146
10284SOL     OW31750   5.021   2.804   6.924
10284SOL    HW131751   5.068   2.887   6.956
10284SOL    HW231752   5.077   2.724   6.946
10285SOL     OW31753   5.702   0.911   0.636
10285SOL    HW131754   5.622   0.886   0.691
10285SOL    HW231755   5.697   0.866   0.547
10286SOL     OW31756   4.544   0.967   3.773
10286SOL    HW131757   4.468   1.032   3.769
10286SOL    HW231758   4.561   0.941   3.868
10287SOL     OW31759   1.270   4.512   2.069
10287SOL    HW131760   1.180   4.512   2.114
10287SOL    HW231761   1.300   4.418   2.055
10288SOL     OW31762   4.662   6.551   4.681
10288SOL    HW131763   4.617   6.630   4.640
10288SOL    HW231764   4.760   6.570   4.691
10289SOL     OW31765   2.408   1.463   1.102
10289SOL    HW131766   2.446   1.471   1.194
10289SOL    HW231767   2.308   1.460   1.107
10290SOL     OW31768   2.938   3.184   1.941
10290SOL    HW131769   2.952   3.187   1.842
10290SOL    HW231770   2.894   3.098   1.966
10291SOL     OW31771   4.189   0.265   5.583
10291SOL    HW131772   4.124   0.248   5.510
10291SOL    HW231773   4.202   0.364   5.594
10292SOL     OW31774   0.629   1.351   4.847
10292SOL    HW131775   0.726   1.369   4.864
10292SOL    HW231776   0.614   1.342   4.749
10293SOL     OW31777   3.093   5.460   3.175
10293SOL    HW131778   3.074   5.502   3.263
10293SOL    HW231779   3.007   5.449   3.124
10294SOL     OW31780   6.728   1.506   2.826
10294SOL    HW131781   6.696   1.444   2.755
10294SOL    HW231782   6.653   1.530   2.886
10295SOL     OW31783   2.005   4.393   4.181
10295SOL    HW131784   1.951   4.388   4.265
10295SOL    HW231785   2.061   4.476   4.183
10296SOL     OW31786   6.583   2.924   1.858
10296SOL    HW131787   6.489   2.903   1.831
10296SOL    HW231788   6.608   2.870   1.938
10297SOL     OW31789   2.945   5.139   4.669
10297SOL    HW131790   2.863   5.177   4.710
10297SOL    HW231791   3.025   5.163   4.725
10298SOL     OW31792   5.833   3.366   3.284
10298SOL    HW131793   5.747   3.334   3.244
10298SOL    HW231794   5.859   3.453   3.240
10299SOL     OW31795   4.893   3.721   1.852
10299SOL    HW131796   4.900   3.705   1.950
10299SOL    HW231797   4.872   3.818   1.835
10300SOL     OW31798   1.708   5.789   1.610
10300SOL    HW131799   1.773   5.755   1.542
10300SOL    HW231800   1.689   5.716   1.677
10301SOL     OW31801   4.691   1.157   1.546
10301SOL    HW131802   4.713   1.205   1.631
10301SOL    HW231803   4.591   1.157   1.533
10302SOL     OW31804   1.680   4.616   3.900
10302SOL    HW131805   1.610   4.624   3.830
10302SOL    HW231806   1.759   4.672   3.875
10303SOL     OW31807   3.756   2.918   1.362
10303SOL    HW131808   3.760   2.973   1.446
10303SOL    HW231809   3.692   2.960   1.298
10304SOL     OW31810   6.158   6.462   3.937
10304SOL    HW131811   6.198   6.522   4.006
10304SOL    HW231812   6.129   6.377   3.979
10305SOL     OW31813   1.613   5.564   0.876
10305SOL    HW131814   1.674   5.595   0.949
10305SOL    HW231815   1.544   5.502   0.913
10306SOL     OW31816   3.952   4.366   0.769
10306SOL    HW131817   3.901   4.352   0.684
10306SOL    HW231818   4.036   4.417   0.750
10307SOL     OW31819   2.119   1.437   5.278
10307SOL    HW131820   2.166   1.372   5.338
10307SOL    HW231821   2.026   1.450   5.309
10308SOL     OW31822   3.061   5.570   3.466
10308SOL    HW131823   3.102   5.480   3.481
10308SOL    HW231824   2.965   5.567   3.493
10309SOL     OW31825   0.241   6.150   3.673
10309SOL    HW131826   0.153   6.130   3.631
10309SOL    HW231827   0.251   6.096   3.757
10310SOL     OW31828   3.909   3.010   4.213
10310SOL    HW131829   3.950   3.077   4.275
10310SOL    HW231830   3.897   3.051   4.123
10311SOL     OW31831   0.660   6.592   0.768
10311SOL    HW131832   0.655   6.688   0.796
10311SOL    HW231833   0.646   6.533   0.847
10312SOL     OW31834   2.262   4.817   1.007
10312SOL    HW131835   2.169   4.845   0.985
10312SOL    HW231836   2.260   4.729   1.054
10313SOL     OW31837   6.829   5.785   3.916
10313SOL    HW131838   6.738   5.743   3.912
10313SOL    HW231839   6.863   5.780   4.010
10314SOL     OW31840   6.256   5.213   5.210
10314SOL    HW131841   6.169   5.261   5.196
10314SOL    HW231842   6.238   5.122   5.249
10315SOL     OW31843   4.730   6.858   5.604
10315SOL    HW131844   4.742   6.791   5.677
10315SOL    HW231845   4.746   6.815   5.515
10316SOL     OW31846   0.175   3.207   2.939
10316SOL    HW131847   0.127   3.293   2.960
10316SOL    HW231848   0.112   3.130   2.952
10317SOL     OW31849   4.752   4.694   0.689
10317SOL    HW131850   4.840   4.648   0.695
10317SOL    HW231851   4.744   4.761   0.763
10318SOL     OW31852   6.404   5.414   2.673
10318SOL    HW131853   6.379   5.347   2.743
10318SOL    HW231854   6.440   5.496   2.716
10319SOL     OW31855   5.631   6.429   4.890
10319SOL    HW131856   5.628   6.333   4.864
10319SOL    HW231857   5.684   6.481   4.823
10320SOL     OW31858   4.146   5.804   1.978
10320SOL    HW131859   4.189   5.752   1.904
10320SOL    HW231860   4.055   5.767   1.997
10321SOL     OW31861   3.897   0.302   4.058
10321SOL    HW131862   3.949   0.255   3.987
10321SOL    HW231863   3.861   0.235   4.123
10322SOL     OW31864   0.670   2.585   6.721
10322SOL    HW131865   0.635   2.515   6.783
10322SOL    HW231866   0.762   2.560   6.691
10323SOL     OW31867   0.569   2.454   5.770
10323SOL    HW131868   0.573   2.406   5.683
10323SOL    HW231869   0.660   2.460   5.809
10324SOL     OW31870   3.966   3.221   4.351
10324SOL    HW131871   3.879   3.263   4.376
10324SOL    HW231872   4.040   3.269   4.397
10325SOL     OW31873   0.238   4.140   2.915
10325SOL    HW131874   0.180   4.221   2.921
10325SOL    HW231875   0.198   4.075   2.850
10326SOL     OW31876   5.389   1.815   1.226
10326SOL    HW131877   5.478   1.858   1.209
10326SOL    HW231878   5.317   1.871   1.185
10327SOL     OW31879   6.594   0.735   3.047
10327SOL    HW131880   6.554   0.820   3.013
10327SOL    HW231881   6.535   0.697   3.118
10328SOL     OW31882   6.528   3.713   3.135
10328SOL    HW131883   6.526   3.703   3.234
10328SOL    HW231884   6.456   3.658   3.094
10329SOL     OW31885   3.614   6.316   2.961
10329SOL    HW131886   3.621   6.217   2.964
10329SOL    HW231887   3.571   6.345   2.875
10330SOL     OW31888   3.247   4.034   1.003
10330SOL    HW131889   3.290   3.948   1.031
10330SOL    HW231890   3.163   4.015   0.952
10331SOL     OW31891   5.016   0.950   4.817
10331SOL    HW131892   5.114   0.932   4.807
10331SOL    HW231893   4.968   0.917   4.736
10332SOL     OW31894   0.511   1.345   6.731
10332SOL    HW131895   0.492   1.404   6.810
10332SOL    HW231896   0.446   1.365   6.658
10333SOL     OW31897   5.996   4.486   5.416
10333SOL    HW131898   6.030   4.417   5.480
10333SOL    HW231899   6.062   4.498   5.342
10334SOL     OW31900   1.131   4.954   5.133
10334SOL    HW131901   1.165   5.048   5.132
10334SOL    HW231902   1.151   4.911   5.044
10335SOL     OW31903   2.961   5.324   1.887
10335SOL    HW131904   2.977   5.411   1.932
10335SOL    HW231905   2.966   5.250   1.954
10336SOL     OW31906   4.844   6.532   2.662
10336SOL    HW131907   4.751   6.549   2.693
10336SOL    HW231908   4.899   6.615   2.670
10337SOL     OW31909   0.059   4.555   5.595
10337SOL    HW131910   0.046   4.487   5.523
10337SOL    HW231911   6.996   4.602   5.612
10338SOL     OW31912   2.721   5.063   2.791
10338SOL    HW131913   2.653   5.092   2.859
10338SOL    HW231914   2.755   4.972   2.815
10339SOL     OW31915   3.140   6.067   0.812
10339SOL    HW131916   3.060   6.070   0.872
10339SOL    HW231917   3.153   5.974   0.778
10340SOL     OW31918   1.490   6.478   0.381
10340SOL    HW131919   1.398   6.496   0.346
10340SOL    HW231920   1.557   6.512   0.315
10341SOL     OW31921   0.655   2.830   2.147
10341SOL    HW131922   0.566   2.853   2.189
10341SOL    HW231923   0.647   2.743   2.099
10342SOL     OW31924   3.646   6.358   3.966
10342SOL    HW131925   3.675   6.449   3.938
10342SOL    HW231926   3.594   6.315   3.892
10343SOL     OW31927   2.341   2.715   4.045
10343SOL    HW131928   2.388   2.637   4.003
10343SOL    HW231929   2.359   2.715   4.144
10344SOL     OW31930   4.296   3.681   1.352
10344SOL    HW131931   4.213   3.634   1.322
10344SOL    HW231932   4.374   3.649   1.298
10345SOL     OW31933   2.635   2.458   5.614
10345SOL    HW131934   2.732   2.445   5.633
10345SOL    HW231935   2.584   2.455   5.700
10346SOL     OW31936   5.816   5.101   0.653
10346SOL    HW131937   5.838   5.196   0.674
10346SOL    HW231938   5.831   5.084   0.556
10347SOL     OW31939   4.733   0.348   1.676
10347SOL    HW131940   4.669   0.271   1.686
10347SOL    HW231941   4.719   0.412   1.751
10348SOL     OW31942   6.709   5.048   5.546
10348SOL    HW131943   6.741   5.133   5.504
10348SOL    HW231944   6.766   5.027   5.626
10349SOL     OW31945   6.723   2.097   0.644
10349SOL    HW131946   6.728   2.113   0.743
10349SOL    HW231947   6.722   1.998   0.627
10350SOL     OW31948   2.384   4.940   5.023
10350SOL    HW131949   2.358   5.036   5.016
10350SOL    HW231950   2.474   4.927   4.981
10351SOL     OW31951   4.166   4.894   4.834
10351SOL    HW131952   4.183   4.856   4.744
10351SOL    HW231953   4.245   4.879   4.893
10352SOL     OW31954   6.694   1.208   6.964
10352SOL    HW131955   6.779   1.241   6.923
10352SOL    HW231956   6.631   1.285   6.976
10353SOL     OW31957   6.698   2.351   3.778
10353SOL    HW131958   6.662   2.439   3.747
10353SOL    HW231959   6.757   2.312   3.706
10354SOL     OW31960   6.119   2.646   1.372
10354SOL    HW131961   6.125   2.741   1.401
10354SOL    HW231962   6.041   2.634   1.311
10355SOL     OW31963   0.781   2.149   0.661
10355SOL    HW131964   0.863   2.107   0.702
10355SOL    HW231965   0.706   2.146   0.727
10356SOL     OW31966   5.205   2.270   6.290
10356SOL    HW131967   5.203   2.186   6.344
10356SOL    HW231968   5.143   2.337   6.329
10357SOL     OW31969   1.116   0.289   6.170
10357SOL    HW131970   1.045   0.344   6.212
10357SOL    HW231971   1.188   0.349   6.134
10358SOL     OW31972   0.190   2.876   2.931
10358SOL    HW131973   0.105   2.928   2.942
10358SOL    HW231974   0.215   2.835   3.019
10359SOL     OW31975   0.573   1.834   2.223
10359SOL    HW131976   0.606   1.822   2.129
10359SOL    HW231977   0.553   1.745   2.262
10360SOL     OW31978   6.142   3.969   1.427
10360SOL    HW131979   6.191   3.907   1.488
10360SOL    HW231980   6.065   3.920   1.386
10361SOL     OW31981   6.306   1.758   2.166
10361SOL    HW131982   6.313   1.858   2.176
10361SOL    HW231983   6.300   1.735   2.070
10362SOL     OW31984   1.330   5.697   1.706
10362SOL    HW131985   1.403   5.629   1.695
10362SOL    HW231986   1.250   5.670   1.652
10363SOL     OW31987   5.486   5.061   6.697
10363SOL    HW131988   5.530   5.140   6.740
10363SOL    HW231989   5.491   4.982   6.758
10364SOL     OW31990   5.514   5.591   2.823
10364SOL    HW131991   5.526   5.642   2.909
10364SOL    HW231992   5.599   5.545   2.799
10365SOL     OW31993   6.094   5.525   0.633
10365SOL    HW131994   6.135   5.563   0.716
10365SOL    HW231995   6.075   5.599   0.568
10366SOL     OW31996   3.136   6.359   4.019
10366SOL    HW131997   3.201   6.417   3.970
10366SOL    HW231998   3.153   6.366   4.117
10367SOL     OW31999   5.547   6.705   1.569
10367SOL    HW132000   5.449   6.698   1.554
10367SOL    HW232001   5.569   6.676   1.662
10368SOL     OW32002   1.508   5.431   1.587
10368SOL    HW132003   1.540   5.481   1.506
10368SOL    HW232004   1.464   5.346   1.558
10369SOL     OW32005   2.407   0.304   6.240
10369SOL    HW132006   2.449   0.353   6.316
10369SOL    HW232007   2.429   0.350   6.154
10370SOL     OW32008   1.939   1.823   5.542
10370SOL    HW132009   2.008   1.885   5.578
10370SOL    HW232010   1.931   1.743   5.602
10371SOL     OW32011   4.314   5.726   2.936
10371SOL    HW132012   4.230   5.741   2.989
10371SOL    HW232013   4.360   5.814   2.921
10372SOL     OW32014   2.193   6.943   1.348
10372SOL    HW132015   2.226   6.900   1.432
10372SOL    HW232016   2.260   6.929   1.275
10373SOL     OW32017   6.055   0.945   6.562
10373SOL    HW132018   6.085   0.899   6.646
10373SOL    HW232019   6.135   0.977   6.512
10374SOL     OW32020   3.190   4.908   3.274
10374SOL    HW132021   3.212   5.005   3.265
10374SOL    HW232022   3.127   4.880   3.201
10375SOL     OW32023   2.229   5.656   0.857
10375SOL    HW132024   2.234   5.563   0.895
10375SOL    HW232025   2.317   5.680   0.817
10376SOL     OW32026   2.469   4.941   3.879
10376SOL    HW132027   2.532   5.019   3.872
10376SOL    HW232028   2.440   4.914   3.787
10377SOL     OW32029   1.852   0.762   2.108
10377SOL    HW132030   1.797   0.842   2.083
10377SOL    HW232031   1.949   0.786   2.107
10378SOL     OW32032   0.471   6.266   4.794
10378SOL    HW132033   0.514   6.308   4.714
10378SOL    HW232034   0.513   6.177   4.812
10379SOL     OW32035   2.379   0.214   3.548
10379SOL    HW132036   2.301   0.155   3.526
10379SOL    HW232037   2.422   0.184   3.633
10380SOL     OW32038   3.037   1.975   4.155
10380SOL    HW132039   2.985   2.061   4.157
10380SOL    HW232040   3.013   1.923   4.073
10381SOL     OW32041   4.118   6.346   2.654
10381SOL    HW132042   4.083   6.269   2.601
10381SOL    HW232043   4.052   6.370   2.725
10382SOL     OW32044   4.345   5.215   1.689
10382SOL    HW132045   4.413   5.271   1.736
10382SOL    HW232046   4.388   5.167   1.613
10383SOL     OW32047   0.805   4.750   0.080
10383SOL    HW132048   0.854   4.695   0.148
10383SOL    HW232049   0.709   4.722   0.076
10384SOL     OW32050   5.422   5.661   1.251
10384SOL    HW132051   5.338   5.654   1.304
10384SOL    HW232052   5.433   5.580   1.193
10385SOL     OW32053   4.470   4.552   0.488
10385SOL    HW132054   4.431   4.481   0.429
10385SOL    HW232055   4.486   4.513   0.579
10386SOL     OW32056   0.416   0.694   0.964
10386SOL    HW132057   0.353   0.721   0.891
10386SOL    HW232058   0.502   0.742   0.953
10387SOL     OW32059   4.829   2.936   2.278
10387SOL    HW132060   4.799   2.952   2.184
10387SOL    HW232061   4.845   3.024   2.324
10388SOL     OW32062   1.491   6.679   5.338
10388SOL    HW132063   1.423   6.711   5.272
10388SOL    HW232064   1.583   6.700   5.303
10389SOL     OW32065   0.686   4.139   6.838
10389SOL    HW132066   0.737   4.112   6.757
10389SOL    HW232067   0.633   4.221   6.819
10390SOL     OW32068   2.512   2.540   1.924
10390SOL    HW132069   2.580   2.569   1.857
10390SOL    HW232070   2.448   2.615   1.941
10391SOL     OW32071   5.912   6.532   4.219
10391SOL    HW132072   6.011   6.530   4.200
10391SOL    HW232073   5.877   6.438   4.218
10392SOL     OW32074   6.437   3.814   4.668
10392SOL    HW132075   6.445   3.721   4.704
10392SOL    HW232076   6.380   3.869   4.728
10393SOL     OW32077   1.518   3.132   3.159
10393SOL    HW132078   1.533   3.078   3.077
10393SOL    HW232079   1.420   3.147   3.172
10394SOL     OW32080   2.992   0.413   4.520
10394SOL    HW132081   3.068   0.363   4.477
10394SOL    HW232082   2.965   0.489   4.461
10395SOL     OW32083   0.741   0.064   0.951
10395SOL    HW132084   0.709   7.022   1.020
10395SOL    HW232085   0.747   0.155   0.991
10396SOL     OW32086   3.409   2.048   4.899
10396SOL    HW132087   3.324   2.040   4.951
10396SOL    HW232088   3.416   1.972   4.835
10397SOL     OW32089   4.763   1.853   3.765
10397SOL    HW132090   4.777   1.756   3.783
10397SOL    HW232091   4.852   1.898   3.751
10398SOL     OW32092   5.785   2.810   2.067
10398SOL    HW132093   5.748   2.873   2.135
10398SOL    HW232094   5.854   2.752   2.109
10399SOL     OW32095   1.142   3.867   1.437
10399SOL    HW132096   1.220   3.915   1.475
10399SOL    HW232097   1.145   3.870   1.337
10400SOL     OW32098   2.160   6.453   0.881
10400SOL    HW132099   2.192   6.363   0.852
10400SOL    HW232100   2.071   6.444   0.926
10401SOL     OW32101   0.667   1.004   5.776
10401SOL    HW132102   0.631   1.080   5.723
10401SOL    HW232103   0.592   0.956   5.822
10402SOL     OW32104   0.437   2.842   4.981
10402SOL    HW132105   0.369   2.770   4.967
10402SOL    HW232106   0.391   2.928   5.000
10403SOL     OW32107   3.263   0.641   0.738
10403SOL    HW132108   3.338   0.702   0.765
10403SOL    HW232109   3.200   0.690   0.678
10404SOL     OW32110   6.999   6.506   6.453
10404SOL    HW132111   6.976   6.596   6.416
10404SOL    HW232112   6.921   6.444   6.442
10405SOL     OW32113   0.576   2.275   6.251
10405SOL    HW132114   0.635   2.228   6.317
10405SOL    HW232115   0.499   2.317   6.299
10406SOL     OW32116   2.359   4.960   1.754
10406SOL    HW132117   2.327   5.054   1.740
10406SOL    HW232118   2.433   4.960   1.821
10407SOL     OW32119   2.229   6.502   6.182
10407SOL    HW132120   2.303   6.569   6.176
10407SOL    HW232121   2.144   6.542   6.148
10408SOL     OW32122   3.877   1.601   0.250
10408SOL    HW132123   3.957   1.554   0.213
10408SOL    HW232124   3.897   1.698   0.260
10409SOL     OW32125   5.932   5.051   1.350
10409SOL    HW132126   5.994   5.014   1.281
10409SOL    HW232127   5.900   5.141   1.321
10410SOL     OW32128   5.004   0.911   0.836
10410SOL    HW132129   5.097   0.949   0.830
10410SOL    HW232130   4.938   0.986   0.842
10411SOL     OW32131   2.812   5.363   3.703
10411SOL    HW132132   2.809   5.457   3.736
10411SOL    HW232133   2.722   5.321   3.712
10412SOL     OW32134   6.134   0.682   0.434
10412SOL    HW132135   6.076   0.625   0.492
10412SOL    HW232136   6.199   0.624   0.386
10413SOL     OW32137   0.032   2.881   2.010
10413SOL    HW132138   0.130   2.885   1.993
10413SOL    HW232139   7.007   2.923   1.934
10414SOL     OW32140   4.990   2.763   4.153
10414SOL    HW132141   4.991   2.756   4.053
10414SOL    HW232142   5.046   2.691   4.192
10415SOL     OW32143   6.993   0.111   6.494
10415SOL    HW132144   0.021   0.079   6.414
10415SOL    HW232145   6.898   0.081   6.485
10416SOL     OW32146   5.550   3.020   4.904
10416SOL    HW132147   5.632   3.004   4.958
10416SOL    HW232148   5.563   2.986   4.811
10417SOL     OW32149   2.617   4.709   3.594
10417SOL    HW132150   2.639   4.715   3.691
10417SOL    HW232151   2.565   4.625   3.577
10418SOL     OW32152   1.032   5.016   6.322
10418SOL    HW132153   1.015   4.930   6.370
10418SOL    HW232154   0.968   5.025   6.246
10419SOL     OW32155   1.007   1.476   0.954
10419SOL    HW132156   0.982   1.563   0.997
10419SOL    HW232157   1.084   1.491   0.892
10420SOL     OW32158   0.344   3.565   3.445
10420SOL    HW132159   0.308   3.493   3.505
10420SOL    HW232160   0.326   3.654   3.485
10421SOL     OW32161   0.405   1.182   3.250
10421SOL    HW132162   0.423   1.262   3.306
10421SOL    HW232163   0.488   1.126   3.243
10422SOL     OW32164   5.744   3.212   6.021
10422SOL    HW132165   5.728   3.290   5.961
10422SOL    HW232166   5.664   3.152   6.021
10423SOL     OW32167   5.217   4.472   2.741
10423SOL    HW132168   5.158   4.513   2.811
10423SOL    HW232169   5.164   4.406   2.688
10424SOL     OW32170   4.421   1.850   6.266
10424SOL    HW132171   4.328   1.843   6.302
10424SOL    HW232172   4.419   1.894   6.176
10425SOL     OW32173   1.969   6.202   1.940
10425SOL    HW132174   2.036   6.132   1.967
10425SOL    HW232175   1.935   6.249   2.021
10426SOL     OW32176   6.365   3.707   6.675
10426SOL    HW132177   6.443   3.693   6.615
10426SOL    HW232178   6.385   3.781   6.740
10427SOL     OW32179   4.581   1.520   0.628
10427SOL    HW132180   4.560   1.492   0.534
10427SOL    HW232181   4.660   1.468   0.661
10428SOL     OW32182   4.627   1.055   4.739
10428SOL    HW132183   4.637   1.137   4.682
10428SOL    HW232184   4.625   1.081   4.835
10429SOL     OW32185   6.347   6.766   2.329
10429SOL    HW132186   6.347   6.802   2.236
10429SOL    HW232187   6.291   6.683   2.333
10430SOL     OW32188   3.989   6.493   3.133
10430SOL    HW132189   4.026   6.586   3.140
10430SOL    HW232190   4.029   6.435   3.204
10431SOL     OW32191   2.299   1.580   5.151
10431SOL    HW132192   2.245   1.520   5.209
10431SOL    HW232193   2.379   1.531   5.116
10432SOL     OW32194   5.552   1.026   4.980
10432SOL    HW132195   5.502   1.004   5.064
10432SOL    HW232196   5.567   1.125   4.976
10433SOL     OW32197   2.285   6.681   0.872
10433SOL    HW132198   2.227   6.600   0.873
10433SOL    HW232199   2.371   6.661   0.917
10434SOL     OW32200   2.241   1.671   3.759
10434SOL    HW132201   2.216   1.725   3.839
10434SOL    HW232202   2.340   1.661   3.755
10435SOL     OW32203   5.175   6.119   0.093
10435SOL    HW132204   5.265   6.076   0.096
10435SOL    HW232205   5.156   6.164   0.180
10436SOL     OW32206   1.570   6.685   2.713
10436SOL    HW132207   1.658   6.640   2.717
10436SOL    HW232208   1.525   6.666   2.625
10437SOL     OW32209   6.383   4.929   5.830
10437SOL    HW132210   6.391   5.002   5.762
10437SOL    HW232211   6.303   4.873   5.809
10438SOL     OW32212   3.627   5.943   6.235
10438SOL    HW132213   3.695   5.874   6.258
10438SOL    HW232214   3.572   5.964   6.316
10439SOL     OW32215   4.190   0.145   5.822
10439SOL    HW132216   4.160   0.186   5.736
10439SOL    HW232217   4.119   0.084   5.857
10440SOL     OW32218   2.214   5.744   0.258
10440SOL    HW132219   2.133   5.719   0.205
10440SOL    HW232220   2.265   5.662   0.283
10441SOL     OW32221   3.792   0.995   6.914
10441SOL    HW132222   3.821   0.952   6.999
10441SOL    HW232223   3.815   0.935   6.837
10442SOL     OW32224   4.332   5.519   6.056
10442SOL    HW132225   4.379   5.544   5.971
10442SOL    HW232226   4.250   5.575   6.067
10443SOL     OW32227   6.196   2.797   5.134
10443SOL    HW132228   6.148   2.744   5.064
10443SOL    HW232229   6.237   2.735   5.200
10444SOL     OW32230   3.940   4.811   4.194
10444SOL    HW132231   3.942   4.889   4.256
10444SOL    HW232232   3.873   4.744   4.226
10445SOL     OW32233   6.124   5.974   4.188
10445SOL    HW132234   6.207   5.981   4.242
10445SOL    HW232235   6.044   5.983   4.247
10446SOL     OW32236   0.873   5.603   6.372
10446SOL    HW132237   0.774   5.613   6.373
10446SOL    HW232238   0.898   5.507   6.356
10447SOL     OW32239   5.933   2.289   1.400
10447SOL    HW132240   5.960   2.204   1.355
10447SOL    HW232241   5.848   2.275   1.451
10448SOL     OW32242   3.241   3.944   2.343
10448SOL    HW132243   3.162   3.980   2.293
10448SOL    HW232244   3.319   3.935   2.281
10449SOL     OW32245   1.773   4.924   4.349
10449SOL    HW132246   1.863   4.923   4.306
10449SOL    HW232247   1.751   4.832   4.382
10450SOL     OW32248   0.029   3.322   1.143
10450SOL    HW132249   0.079   3.236   1.130
10450SOL    HW232250   0.062   3.389   1.076
10451SOL     OW32251   2.189   3.994   2.591
10451SOL    HW132252   2.186   3.929   2.515
10451SOL    HW232253   2.179   4.087   2.557
10452SOL     OW32254   1.351   3.993   5.065
10452SOL    HW132255   1.329   3.975   5.161
10452SOL    HW232256   1.444   4.031   5.059
10453SOL     OW32257   5.442   0.141   1.686
10453SOL    HW132258   5.532   0.100   1.697
10453SOL    HW232259   5.441   0.231   1.729
10454SOL     OW32260   4.924   3.172   2.464
10454SOL    HW132261   4.978   3.197   2.383
10454SOL    HW232262   4.948   3.232   2.540
10455SOL     OW32263   6.760   4.305   3.070
10455SOL    HW132264   6.705   4.226   3.097
10455SOL    HW232265   6.854   4.292   3.101
10456SOL     OW32266   3.903   5.892   1.107
10456SOL    HW132267   3.875   5.967   1.167
10456SOL    HW232268   3.831   5.875   1.041
10457SOL     OW32269   3.525   3.818   4.137
10457SOL    HW132270   3.526   3.820   4.037
10457SOL    HW232271   3.579   3.740   4.169
10458SOL     OW32272   6.855   0.130   1.957
10458SOL    HW132273   6.827   0.075   2.035
10458SOL    HW232274   6.954   0.142   1.958
10459SOL     OW32275   6.929   5.253   2.389
10459SOL    HW132276   6.953   5.202   2.306
10459SOL    HW232277   6.855   5.317   2.368
10460SOL     OW32278   2.266   5.529   2.008
10460SOL    HW132279   2.243   5.471   1.930
10460SOL    HW232280   2.230   5.621   1.992
10461SOL     OW32281   2.169   1.717   5.988
10461SOL    HW132282   2.221   1.779   5.931
10461SOL    HW232283   2.124   1.768   6.061
10462SOL     OW32284   6.037   6.790   0.963
10462SOL    HW132285   6.039   6.882   0.924
10462SOL    HW232286   6.098   6.787   1.042
10463SOL     OW32287   2.915   3.904   1.526
10463SOL    HW132288   2.890   4.001   1.519
10463SOL    HW232289   3.003   3.889   1.482
10464SOL     OW32290   5.321   0.570   1.499
10464SOL    HW132291   5.271   0.491   1.464
10464SOL    HW232292   5.338   0.559   1.597
10465SOL     OW32293   6.423   5.432   5.178
10465SOL    HW132294   6.519   5.407   5.166
10465SOL    HW232295   6.367   5.349   5.188
10466SOL     OW32296   5.113   6.101   6.271
10466SOL    HW132297   5.146   6.192   6.297
10466SOL    HW232298   5.166   6.031   6.318
10467SOL     OW32299   4.315   1.141   4.197
10467SOL    HW132300   4.350   1.048   4.195
10467SOL    HW232301   4.225   1.142   4.240
10468SOL     OW32302   3.537   5.805   2.791
10468SOL    HW132303   3.469   5.785   2.861
10468SOL    HW232304   3.585   5.721   2.766
10469SOL     OW32305   1.755   4.671   0.358
10469SOL    HW132306   1.765   4.667   0.458
10469SOL    HW232307   1.738   4.765   0.330
10470SOL     OW32308   2.433   1.835   3.942
10470SOL    HW132309   2.499   1.888   3.996
10470SOL    HW232310   2.482   1.767   3.888
10471SOL     OW32311   4.416   3.680   0.581
10471SOL    HW132312   4.466   3.656   0.664
10471SOL    HW232313   4.409   3.779   0.573
10472SOL     OW32314   4.591   1.543   2.906
10472SOL    HW132315   4.663   1.608   2.882
10472SOL    HW232316   4.590   1.529   3.005
10473SOL     OW32317   5.054   5.576   0.557
10473SOL    HW132318   5.088   5.523   0.635
10473SOL    HW232319   5.016   5.515   0.488
10474SOL     OW32320   4.353   6.999   4.213
10474SOL    HW132321   4.433   7.009   4.154
10474SOL    HW232322   4.376   0.002   4.306
10475SOL     OW32323   4.566   5.904   1.789
10475SOL    HW132324   4.640   5.837   1.781
10475SOL    HW232325   4.586   5.983   1.732
10476SOL     OW32326   6.994   4.552   0.151
10476SOL    HW132327   0.015   4.584   0.235
10476SOL    HW232328   7.011   4.455   0.139
10477SOL     OW32329   4.720   4.861   5.229
10477SOL    HW132330   4.639   4.908   5.195
10477SOL    HW232331   4.704   4.762   5.228
10478SOL     OW32332   0.379   6.190   2.329
10478SOL    HW132333   0.301   6.247   2.357
10478SOL    HW232334   0.434   6.240   2.262
10479SOL     OW32335   1.464   4.580   2.785
10479SOL    HW132336   1.380   4.632   2.797
10479SOL    HW232337   1.458   4.494   2.836
10480SOL     OW32338   6.158   0.202   2.636
10480SOL    HW132339   6.112   0.175   2.720
10480SOL    HW232340   6.253   0.224   2.655
10481SOL     OW32341   2.251   0.667   4.756
10481SOL    HW132342   2.229   0.596   4.690
10481SOL    HW232343   2.348   0.691   4.748
10482SOL     OW32344   0.975   5.501   6.048
10482SOL    HW132345   0.987   5.471   6.142
10482SOL    HW232346   1.054   5.556   6.020
10483SOL     OW32347   6.964   5.195   0.848
10483SOL    HW132348   6.864   5.188   0.851
10483SOL    HW232349   6.993   5.275   0.900
10484SOL     OW32350   5.977   2.017   1.663
10484SOL    HW132351   6.005   1.922   1.651
10484SOL    HW232352   6.052   2.069   1.705
10485SOL     OW32353   3.179   3.898   3.446
10485SOL    HW132354   3.097   3.852   3.413
10485SOL    HW232355   3.165   3.928   3.541
10486SOL     OW32356   5.846   5.605   5.365
10486SOL    HW132357   5.927   5.658   5.341
10486SOL    HW232358   5.844   5.591   5.464
10487SOL     OW32359   5.067   2.524   2.919
10487SOL    HW132360   4.992   2.549   2.980
10487SOL    HW232361   5.065   2.582   2.838
10488SOL     OW32362   6.983   2.252   5.570
10488SOL    HW132363   0.044   2.291   5.536
10488SOL    HW232364   6.979   2.155   5.548
10489SOL     OW32365   6.197   3.968   4.798
10489SOL    HW132366   6.210   4.053   4.849
10489SOL    HW232367   6.122   3.980   4.732
10490SOL     OW32368   5.582   6.997   6.994
10490SOL    HW132369   5.540   0.004   0.055
10490SOL    HW232370   5.663   6.943   7.014
10491SOL     OW32371   2.014   2.790   5.613
10491SOL    HW132372   2.031   2.883   5.646
10491SOL    HW232373   2.092   2.759   5.558
10492SOL     OW32374   3.673   6.372   0.363
10492SOL    HW132375   3.741   6.371   0.436
10492SOL    HW232376   3.643   6.466   0.346
10493SOL     OW32377   3.749   5.541   1.854
10493SOL    HW132378   3.730   5.462   1.911
10493SOL    HW232379   3.805   5.513   1.775
10494SOL     OW32380   0.834   4.331   4.494
10494SOL    HW132381   0.874   4.303   4.407
10494SOL    HW232382   0.741   4.364   4.480
10495SOL     OW32383   0.115   6.399   0.839
10495SOL    HW132384   0.182   6.472   0.823
10495SOL    HW232385   0.042   6.434   0.898
10496SOL     OW32386   0.574   4.269   6.468
10496SOL    HW132387   0.649   4.241   6.528
10496SOL    HW232388   0.601   4.259   6.373
10497SOL     OW32389   2.777   0.804   1.845
10497SOL    HW132390   2.815   0.727   1.896
10497SOL    HW232391   2.699   0.841   1.896
10498SOL     OW32392   4.592   4.102   6.541
10498SOL    HW132393   4.679   4.149   6.524
10498SOL    HW232394   4.530   4.117   6.464
10499SOL     OW32395   5.980   3.747   2.764
10499SOL    HW132396   5.938   3.683   2.700
10499SOL    HW232397   5.974   3.840   2.727
10500SOL     OW32398   0.961   3.572   5.112
10500SOL    HW132399   0.962   3.629   5.030
10500SOL    HW232400   1.051   3.531   5.125
10501SOL     OW32401   3.645   4.960   3.033
10501SOL    HW132402   3.710   4.955   2.958
10501SOL    HW232403   3.554   4.981   2.997
10502SOL     OW32404   3.753   3.544   2.797
10502SOL    HW132405   3.802   3.515   2.715
10502SOL    HW232406   3.797   3.627   2.834
10503SOL     OW32407   0.388   1.455   6.015
10503SOL    HW132408   0.388   1.550   5.982
10503SOL    HW232409   0.317   1.444   6.083
10504SOL     OW32410   0.685   3.888   5.708
10504SOL    HW132411   0.761   3.875   5.645
10504SOL    HW232412   0.701   3.968   5.765
10505SOL     OW32413   5.813   0.404   0.978
10505SOL    HW132414   5.840   0.480   1.037
10505SOL    HW232415   5.718   0.416   0.949
10506SOL     OW32416   1.094   4.358   6.312
10506SOL    HW132417   1.095   4.420   6.234
10506SOL    HW232418   1.127   4.268   6.284
10507SOL     OW32419   1.170   5.651   5.943
10507SOL    HW132420   1.263   5.637   5.979
10507SOL    HW232421   1.153   5.749   5.933
10508SOL     OW32422   1.694   5.342   6.237
10508SOL    HW132423   1.638   5.383   6.309
10508SOL    HW232424   1.786   5.382   6.239
10509SOL     OW32425   4.674   2.349   3.121
10509SOL    HW132426   4.579   2.315   3.119
10509SOL    HW232427   4.673   2.449   3.123
10510SOL     OW32428   5.524   5.654   3.676
10510SOL    HW132429   5.536   5.715   3.597
10510SOL    HW232430   5.448   5.687   3.732
10511SOL     OW32431   4.012   1.579   0.783
10511SOL    HW132432   4.071   1.551   0.859
10511SOL    HW232433   3.948   1.505   0.762
10512SOL     OW32434   4.132   1.402   5.417
10512SOL    HW132435   4.182   1.395   5.504
10512SOL    HW232436   4.064   1.475   5.423
10513SOL     OW32437   3.575   2.964   0.491
10513SOL    HW132438   3.619   3.050   0.467
10513SOL    HW232439   3.625   2.919   0.565
10514SOL     OW32440   1.621   4.558   1.798
10514SOL    HW132441   1.715   4.535   1.773
10514SOL    HW232442   1.588   4.632   1.738
10515SOL     OW32443   2.157   3.033   4.828
10515SOL    HW132444   2.187   3.108   4.769
10515SOL    HW232445   2.223   3.020   4.902
10516SOL     OW32446   4.812   2.237   1.710
10516SOL    HW132447   4.823   2.166   1.780
10516SOL    HW232448   4.755   2.311   1.746
10517SOL     OW32449   1.001   2.734   2.242
10517SOL    HW132450   1.047   2.780   2.318
10517SOL    HW232451   0.910   2.704   2.272
10518SOL     OW32452   0.944   5.524   2.032
10518SOL    HW132453   0.978   5.588   2.101
10518SOL    HW232454   1.003   5.443   2.030
10519SOL     OW32455   3.845   0.171   1.419
10519SOL    HW132456   3.915   0.212   1.478
10519SOL    HW232457   3.867   0.190   1.323
10520SOL     OW32458   1.338   2.611   6.286
10520SOL    HW132459   1.436   2.595   6.285
10520SOL    HW232460   1.300   2.581   6.373
10521SOL     OW32461   6.451   2.388   3.397
10521SOL    HW132462   6.510   2.395   3.316
10521SOL    HW232463   6.460   2.471   3.452
10522SOL     OW32464   5.590   1.480   4.009
10522SOL    HW132465   5.561   1.445   4.098
10522SOL    HW232466   5.517   1.465   3.942
10523SOL     OW32467   1.176   4.413   2.547
10523SOL    HW132468   1.121   4.485   2.590
10523SOL    HW232469   1.116   4.341   2.512
10524SOL     OW32470   6.567   6.097   4.737
10524SOL    HW132471   6.513   6.178   4.713
10524SOL    HW232472   6.664   6.118   4.728
10525SOL     OW32473   5.379   1.736   3.647
10525SOL    HW132474   5.345   1.718   3.555
10525SOL    HW232475   5.475   1.761   3.643
10526SOL     OW32476   0.670   5.511   6.558
10526SOL    HW132477   0.600   5.477   6.621
10526SOL    HW232478   0.758   5.467   6.578
10527SOL     OW32479   0.291   6.565   5.520
10527SOL    HW132480   0.267   6.483   5.468
10527SOL    HW232481   0.314   6.539   5.614
10528SOL     OW32482   1.416   4.965   5.561
10528SOL    HW132483   1.466   4.878   5.559
10528SOL    HW232484   1.362   4.971   5.644
10529SOL     OW32485   6.911   5.674   1.004
10529SOL    HW132486   6.862   5.692   1.089
10529SOL    HW232487   6.879   5.738   0.933
10530SOL     OW32488   0.087   6.175   1.893
10530SOL    HW132489   7.016   6.156   1.917
10530SOL    HW232490   0.111   6.126   1.809
10531SOL     OW32491   3.171   2.979   5.363
10531SOL    HW132492   3.072   2.970   5.372
10531SOL    HW232493   3.204   2.915   5.294
10532SOL     OW32494   4.947   5.926   6.114
10532SOL    HW132495   4.889   5.885   6.184
10532SOL    HW232496   5.027   5.968   6.157
10533SOL     OW32497   3.780   0.159   2.932
10533SOL    HW132498   3.791   0.208   2.845
10533SOL    HW232499   3.703   0.096   2.926
10534SOL     OW32500   1.342   5.531   3.776
10534SOL    HW132501   1.319   5.596   3.849
10534SOL    HW232502   1.353   5.440   3.815
10535SOL     OW32503   3.448   2.051   2.693
10535SOL    HW132504   3.403   2.072   2.606
10535SOL    HW232505   3.384   2.064   2.769
10536SOL     OW32506   5.526   3.276   5.182
10536SOL    HW132507   5.554   3.189   5.222
10536SOL    HW232508   5.471   3.259   5.100
10537SOL     OW32509   4.089   0.628   4.300
10537SOL    HW132510   4.090   0.714   4.250
10537SOL    HW232511   4.095   0.647   4.398
10538SOL     OW32512   6.815   2.900   3.138
10538SOL    HW132513   6.876   2.836   3.185
10538SOL    HW232514   6.721   2.866   3.142
10539SOL     OW32515   6.997   6.944   3.056
10539SOL    HW132516   6.950   6.918   2.971
10539SOL    HW232517   0.068   6.911   3.053
10540SOL     OW32518   1.579   4.545   6.777
10540SOL    HW132519   1.609   4.459   6.818
10540SOL    HW232520   1.652   4.581   6.718
10541SOL     OW32521   2.901   2.970   5.382
10541SOL    HW132522   2.813   3.013   5.360
10541SOL    HW232523   2.889   2.871   5.384
10542SOL     OW32524   5.136   6.401   3.187
10542SOL    HW132525   5.172   6.340   3.257
10542SOL    HW232526   5.145   6.496   3.218
10543SOL     OW32527   1.578   2.993   3.735
10543SOL    HW132528   1.526   3.024   3.655
10543SOL    HW232529   1.622   2.906   3.714
10544SOL     OW32530   3.583   1.488   3.332
10544SOL    HW132531   3.532   1.575   3.329
10544SOL    HW232532   3.628   1.473   3.244
10545SOL     OW32533   2.276   2.848   2.454
10545SOL    HW132534   2.355   2.790   2.469
10545SOL    HW232535   2.262   2.860   2.355
10546SOL     OW32536   2.225   6.981   6.816
10546SOL    HW132537   2.325   6.977   6.819
10546SOL    HW232538   2.196   0.001   6.731
10547SOL     OW32539   4.300   6.117   5.607
10547SOL    HW132540   4.273   6.211   5.630
10547SOL    HW232541   4.322   6.112   5.509
10548SOL     OW32542   0.611   5.734   3.390
10548SOL    HW132543   0.539   5.797   3.360
10548SOL    HW232544   0.700   5.772   3.365
10549SOL     OW32545   6.151   0.636   1.999
10549SOL    HW132546   6.186   0.548   2.029
10549SOL    HW232547   6.228   0.696   1.977
10550SOL     OW32548   5.282   5.689   2.720
10550SOL    HW132549   5.277   5.778   2.765
10550SOL    HW232550   5.366   5.642   2.746
10551SOL     OW32551   3.353   0.209   5.592
10551SOL    HW132552   3.366   0.259   5.678
10551SOL    HW232553   3.386   0.264   5.516
10552SOL     OW32554   2.838   6.986   3.951
10552SOL    HW132555   2.767   0.027   3.978
10552SOL    HW232556   2.811   6.939   3.868
10553SOL     OW32557   6.353   5.693   1.076
10553SOL    HW132558   6.376   5.694   1.173
10553SOL    HW232559   6.420   5.748   1.026
10554SOL     OW32560   6.317   6.348   2.822
10554SOL    HW132561   6.374   6.314   2.896
10554SOL    HW232562   6.328   6.290   2.741
10555SOL     OW32563   2.914   3.512   0.827
10555SOL    HW132564   2.937   3.446   0.899
10555SOL    HW232565   2.984   3.508   0.755
10556SOL     OW32566   2.641   1.768   2.204
10556SOL    HW132567   2.731   1.726   2.216
10556SOL    HW232568   2.571   1.698   2.205
10557SOL     OW32569   1.792   4.394   3.028
10557SOL    HW132570   1.845   4.424   3.108
10557SOL    HW232571   1.851   4.340   2.968
10558SOL     OW32572   3.502   5.286   4.911
10558SOL    HW132573   3.547   5.369   4.878
10558SOL    HW232574   3.482   5.226   4.834
10559SOL     OW32575   4.198   6.548   1.297
10559SOL    HW132576   4.180   6.629   1.352
10559SOL    HW232577   4.112   6.515   1.258
10560SOL     OW32578   5.634   6.726   3.163
10560SOL    HW132579   5.617   6.699   3.258
10560SOL    HW232580   5.689   6.656   3.117
10561SOL     OW32581   0.095   5.261   6.535
10561SOL    HW132582   0.046   5.199   6.473
10561SOL    HW232583   0.139   5.208   6.607
10562SOL     OW32584   4.347   5.753   2.180
10562SOL    HW132585   4.278   5.822   2.162
10562SOL    HW232586   4.422   5.794   2.233
10563SOL     OW32587   0.483   0.133   2.260
10563SOL    HW132588   0.384   0.126   2.253
10563SOL    HW232589   0.519   0.180   2.180
10564SOL     OW32590   4.694   4.721   3.060
10564SOL    HW132591   4.733   4.653   2.998
10564SOL    HW232592   4.603   4.692   3.089
10565SOL     OW32593   0.502   0.902   6.013
10565SOL    HW132594   0.495   0.909   6.112
10565SOL    HW232595   0.428   0.845   5.978
10566SOL     OW32596   3.470   2.362   0.299
10566SOL    HW132597   3.541   2.421   0.338
10566SOL    HW232598   3.512   2.282   0.257
10567SOL     OW32599   1.727   2.371   6.229
10567SOL    HW132600   1.714   2.273   6.215
10567SOL    HW232601   1.793   2.405   6.163
10568SOL     OW32602   4.749   1.960   6.309
10568SOL    HW132603   4.688   1.884   6.334
10568SOL    HW232604   4.827   1.962   6.372
10569SOL     OW32605   5.777   0.462   0.398
10569SOL    HW132606   5.792   0.521   0.319
10569SOL    HW232607   5.848   0.479   0.466
10570SOL     OW32608   1.306   3.298   2.879
10570SOL    HW132609   1.394   3.315   2.923
10570SOL    HW232610   1.320   3.239   2.799
10571SOL     OW32611   6.577   4.347   5.267
10571SOL    HW132612   6.506   4.320   5.332
10571SOL    HW232613   6.540   4.345   5.174
10572SOL     OW32614   5.983   4.121   1.087
10572SOL    HW132615   5.936   4.079   1.010
10572SOL    HW232616   6.080   4.096   1.086
10573SOL     OW32617   6.680   2.708   2.868
10573SOL    HW132618   6.762   2.653   2.879
10573SOL    HW232619   6.623   2.669   2.796
10574SOL     OW32620   5.497   2.247   2.720
10574SOL    HW132621   5.432   2.204   2.657
10574SOL    HW232622   5.533   2.331   2.679
10575SOL     OW32623   5.760   6.991   2.895
10575SOL    HW132624   5.667   6.957   2.910
10575SOL    HW232625   5.779   6.996   2.797
10576SOL     OW32626   1.192   4.172   4.262
10576SOL    HW132627   1.242   4.094   4.300
10576SOL    HW232628   1.191   4.246   4.330
10577SOL     OW32629   4.226   4.152   0.434
10577SOL    HW132630   4.225   4.183   0.529
10577SOL    HW232631   4.144   4.183   0.387
10578SOL     OW32632   0.515   3.477   3.712
10578SOL    HW132633   0.529   3.413   3.787
10578SOL    HW232634   0.577   3.455   3.637
10579SOL     OW32635   0.736   3.792   0.197
10579SOL    HW132636   0.728   3.862   0.126
10579SOL    HW232637   0.800   3.722   0.167
10580SOL     OW32638   5.530   6.770   6.621
10580SOL    HW132639   5.522   6.868   6.639
10580SOL    HW232640   5.563   6.724   6.704
10581SOL     OW32641   4.679   0.722   3.104
10581SOL    HW132642   4.683   0.790   3.177
10581SOL    HW232643   4.645   0.635   3.141
10582SOL     OW32644   6.771   3.672   6.276
10582SOL    HW132645   6.685   3.624   6.262
10582SOL    HW232646   6.784   3.689   6.374
10583SOL     OW32647   3.402   1.716   5.429
10583SOL    HW132648   3.378   1.812   5.415
10583SOL    HW232649   3.328   1.658   5.393
10584SOL     OW32650   0.885   6.095   3.510
10584SOL    HW132651   0.823   6.029   3.553
10584SOL    HW232652   0.972   6.096   3.560
10585SOL     OW32653   1.727   1.147   5.300
10585SOL    HW132654   1.775   1.199   5.370
10585SOL    HW232655   1.709   1.207   5.221
10586SOL     OW32656   4.329   4.197   5.400
10586SOL    HW132657   4.281   4.118   5.436
10586SOL    HW232658   4.282   4.230   5.317
10587SOL     OW32659   2.404   4.797   5.354
10587SOL    HW132660   2.389   4.714   5.407
10587SOL    HW232661   2.493   4.791   5.307
10588SOL     OW32662   1.094   3.345   3.604
10588SOL    HW132663   1.011   3.393   3.634
10588SOL    HW232664   1.105   3.356   3.505
10589SOL     OW32665   6.186   6.456   3.673
10589SOL    HW132666   6.172   6.462   3.772
10589SOL    HW232667   6.278   6.422   3.654
10590SOL     OW32668   0.620   4.845   2.232
10590SOL    HW132669   0.537   4.797   2.201
10590SOL    HW232670   0.620   4.849   2.332
10591SOL     OW32671   0.226   3.927   2.295
10591SOL    HW132672   0.163   3.877   2.354
10591SOL    HW232673   0.275   3.996   2.349
10592SOL     OW32674   0.507   1.678   4.833
10592SOL    HW132675   0.437   1.668   4.904
10592SOL    HW232676   0.520   1.589   4.787
10593SOL     OW32677   3.168   4.952   3.561
10593SOL    HW132678   3.093   4.901   3.603
10593SOL    HW232679   3.173   4.929   3.464
10594SOL     OW32680   3.392   5.399   3.624
10594SOL    HW132681   3.473   5.434   3.575
10594SOL    HW232682   3.420   5.326   3.686
10595SOL     OW32683   5.152   6.915   0.527
10595SOL    HW132684   5.183   6.890   0.435
10595SOL    HW232685   5.142   6.833   0.583
10596SOL     OW32686   5.270   3.329   0.176
10596SOL    HW132687   5.263   3.250   0.116
10596SOL    HW232688   5.231   3.306   0.265
10597SOL     OW32689   2.394   6.614   4.913
10597SOL    HW132690   2.380   6.688   4.847
10597SOL    HW232691   2.465   6.552   4.879
10598SOL     OW32692   2.938   0.572   6.775
10598SOL    HW132693   3.033   0.595   6.754
10598SOL    HW232694   2.902   0.636   6.842
10599SOL     OW32695   0.905   2.427   0.609
10599SOL    HW132696   0.926   2.492   0.682
10599SOL    HW232697   0.830   2.367   0.638
10600SOL     OW32698   3.688   1.492   1.747
10600SOL    HW132699   3.632   1.424   1.794
10600SOL    HW232700   3.630   1.563   1.708
10601SOL     OW32701   2.248   1.095   4.637
10601SOL    HW132702   2.342   1.113   4.668
10601SOL    HW232703   2.215   1.174   4.585
10602SOL     OW32704   6.790   0.499   2.155
10602SOL    HW132705   6.828   0.517   2.245
10602SOL    HW232706   6.726   0.422   2.161
10603SOL     OW32707   5.519   0.381   2.797
10603SOL    HW132708   5.573   0.310   2.751
10603SOL    HW232709   5.424   0.374   2.768
10604SOL     OW32710   4.809   0.975   4.981
10604SOL    HW132711   4.891   0.983   4.923
10604SOL    HW232712   4.743   0.914   4.937
10605SOL     OW32713   3.164   2.071   0.825
10605SOL    HW132714   3.257   2.078   0.789
10605SOL    HW232715   3.105   2.026   0.757
10606SOL     OW32716   6.751   0.447   6.816
10606SOL    HW132717   6.849   0.429   6.812
10606SOL    HW232718   6.733   0.518   6.885
10607SOL     OW32719   3.105   4.549   0.081
10607SOL    HW132720   3.115   4.637   0.126
10607SOL    HW232721   3.137   4.476   0.142
10608SOL     OW32722   5.494   4.408   4.040
10608SOL    HW132723   5.533   4.413   3.947
10608SOL    HW232724   5.399   4.378   4.034
10609SOL     OW32725   6.113   0.790   6.825
10609SOL    HW132726   6.158   0.758   6.742
10609SOL    HW232727   6.063   0.715   6.867
10610SOL     OW32728   0.847   1.355   3.456
10610SOL    HW132729   0.766   1.360   3.513
10610SOL    HW232730   0.832   1.290   3.381
10611SOL     OW32731   4.014   5.320   5.088
10611SOL    HW132732   4.033   5.251   5.018
10611SOL    HW232733   3.918   5.315   5.115
10612SOL     OW32734   6.698   2.639   3.434
10612SOL    HW132735   6.651   2.728   3.427
10612SOL    HW232736   6.714   2.617   3.530
10613SOL     OW32737   4.396   6.202   4.098
10613SOL    HW132738   4.408   6.219   4.000
10613SOL    HW232739   4.299   6.210   4.122
10614SOL     OW32740   3.548   1.994   6.179
10614SOL    HW132741   3.634   2.021   6.135
10614SOL    HW232742   3.552   1.897   6.203
10615SOL     OW32743   2.180   2.330   5.294
10615SOL    HW132744   2.110   2.277   5.342
10615SOL    HW232745   2.166   2.428   5.311
10616SOL     OW32746   1.411   5.952   6.794
10616SOL    HW132747   1.467   5.954   6.877
10616SOL    HW232748   1.426   5.866   6.746
10617SOL     OW32749   1.765   2.820   1.346
10617SOL    HW132750   1.753   2.723   1.330
10617SOL    HW232751   1.758   2.870   1.260
10618SOL     OW32752   0.993   5.009   3.827
10618SOL    HW132753   0.993   5.051   3.736
10618SOL    HW232754   0.905   5.026   3.871
10619SOL     OW32755   1.351   2.643   2.206
10619SOL    HW132756   1.282   2.673   2.272
10619SOL    HW232757   1.315   2.567   2.152
10620SOL     OW32758   3.045   0.201   5.601
10620SOL    HW132759   2.962   0.251   5.576
10620SOL    HW232760   3.125   0.252   5.567
10621SOL     OW32761   0.373   3.521   3.138
10621SOL    HW132762   0.392   3.431   3.177
10621SOL    HW232763   0.336   3.581   3.209
10622SOL     OW32764   4.469   2.386   0.017
10622SOL    HW132765   4.470   2.352   6.947
10622SOL    HW232766   4.402   2.334   0.070
10623SOL     OW32767   4.861   5.999   5.518
10623SOL    HW132768   4.940   6.042   5.562
10623SOL    HW232769   4.882   5.903   5.499
10624SOL     OW32770   0.824   2.228   6.822
10624SOL    HW132771   0.811   2.247   6.919
10624SOL    HW232772   0.741   2.251   6.771
10625SOL     OW32773   6.461   5.447   0.769
10625SOL    HW132774   6.506   5.420   0.684
10625SOL    HW232775   6.530   5.463   0.839
10626SOL     OW32776   5.652   2.858   1.029
10626SOL    HW132777   5.601   2.794   0.971
10626SOL    HW232778   5.750   2.851   1.009
10627SOL     OW32779   5.772   5.286   5.046
10627SOL    HW132780   5.766   5.336   4.960
10627SOL    HW232781   5.855   5.314   5.094
10628SOL     OW32782   2.959   6.449   0.166
10628SOL    HW132783   2.987   6.514   0.096
10628SOL    HW232784   2.984   6.485   0.256
10629SOL     OW32785   4.335   5.353   4.741
10629SOL    HW132786   4.363   5.408   4.820
10629SOL    HW232787   4.416   5.320   4.693
10630SOL     OW32788   3.956   1.121   1.708
10630SOL    HW132789   4.055   1.113   1.704
10630SOL    HW232790   3.930   1.183   1.783
10631SOL     OW32791   3.610   5.984   1.628
10631SOL    HW132792   3.520   5.958   1.664
10631SOL    HW232793   3.655   5.903   1.591
10632SOL     OW32794   5.611   6.175   4.308
10632SOL    HW132795   5.622   6.099   4.243
10632SOL    HW232796   5.614   6.140   4.401
10633SOL     OW32797   2.262   3.668   0.701
10633SOL    HW132798   2.323   3.747   0.710
10633SOL    HW232799   2.315   3.587   0.679
10634SOL     OW32800   6.757   4.578   6.637
10634SOL    HW132801   6.769   4.629   6.552
10634SOL    HW232802   6.700   4.497   6.619
10635SOL     OW32803   3.056   5.901   6.633
10635SOL    HW132804   2.988   5.947   6.576
10635SOL    HW232805   3.145   5.904   6.588
10636SOL     OW32806   6.580   2.532   0.090
10636SOL    HW132807   6.496   2.568   0.132
10636SOL    HW232808   6.606   2.589   0.013
10637SOL     OW32809   2.393   1.010   7.010
10637SOL    HW132810   2.463   0.960   0.037
10637SOL    HW232811   2.303   0.970   0.004
10638SOL     OW32812   5.729   5.159   0.954
10638SOL    HW132813   5.827   5.154   0.936
10638SOL    HW232814   5.683   5.197   0.874
10639SOL     OW32815   0.462   5.164   1.643
10639SOL    HW132816   0.412   5.108   1.576
10639SOL    HW232817   0.399   5.228   1.687
10640SOL     OW32818   4.470   6.517   3.619
10640SOL    HW132819   4.536   6.463   3.567
10640SOL    HW232820   4.468   6.486   3.714
10641SOL     OW32821   1.287   1.868   3.111
10641SOL    HW132822   1.384   1.856   3.132
10641SOL    HW232823   1.269   1.966   3.095
10642SOL     OW32824   6.851   3.412   6.057
10642SOL    HW132825   6.842   3.511   6.055
10642SOL    HW232826   6.841   3.379   6.151
10643SOL     OW32827   2.437   4.976   5.810
10643SOL    HW132828   2.429   4.886   5.853
10643SOL    HW232829   2.362   4.989   5.745
10644SOL     OW32830   6.072   2.808   2.798
10644SOL    HW132831   6.139   2.770   2.861
10644SOL    HW232832   6.116   2.875   2.738
10645SOL     OW32833   1.956   2.370   3.060
10645SOL    HW132834   1.900   2.341   3.137
10645SOL    HW232835   1.903   2.429   3.000
10646SOL     OW32836   5.555   0.088   3.667
10646SOL    HW132837   5.647   0.103   3.703
10646SOL    HW232838   5.489   0.093   3.742
10647SOL     OW32839   3.618   5.372   5.494
10647SOL    HW132840   3.674   5.404   5.418
10647SOL    HW232841   3.525   5.408   5.485
10648SOL     OW32842   4.855   4.257   5.663
10648SOL    HW132843   4.855   4.354   5.688
10648SOL    HW232844   4.762   4.221   5.670
10649SOL     OW32845   5.805   3.629   3.153
10649SOL    HW132846   5.730   3.663   3.096
10649SOL    HW232847   5.839   3.702   3.212
10650SOL     OW32848   0.923   0.094   3.206
10650SOL    HW132849   0.883   0.145   3.130
10650SOL    HW232850   1.000   0.145   3.244
10651SOL     OW32851   2.980   5.654   6.050
10651SOL    HW132852   3.008   5.653   6.146
10651SOL    HW232853   3.050   5.700   5.996
10652SOL     OW32854   1.660   0.218   0.066
10652SOL    HW132855   1.637   0.256   0.156
10652SOL    HW232856   1.755   0.240   0.043
10653SOL     OW32857   4.787   6.020   4.276
10653SOL    HW132858   4.856   6.050   4.210
10653SOL    HW232859   4.696   6.038   4.239
10654SOL     OW32860   6.656   2.074   4.440
10654SOL    HW132861   6.563   2.088   4.474
10654SOL    HW232862   6.709   2.025   4.509
10655SOL     OW32863   6.947   4.073   1.390
10655SOL    HW132864   6.868   4.032   1.345
10655SOL    HW232865   6.931   4.075   1.489
10656SOL     OW32866   5.709   2.058   4.434
10656SOL    HW132867   5.701   1.959   4.439
10656SOL    HW232868   5.620   2.100   4.454
10657SOL     OW32869   4.910   6.841   4.732
10657SOL    HW132870   4.915   6.774   4.806
10657SOL    HW232871   4.971   6.918   4.751
10658SOL     OW32872   0.896   1.726   5.591
10658SOL    HW132873   0.923   1.717   5.495
10658SOL    HW232874   0.825   1.796   5.598
10659SOL     OW32875   0.610   5.467   0.681
10659SOL    HW132876   0.538   5.404   0.652
10659SOL    HW232877   0.574   5.560   0.682
10660SOL     OW32878   5.494   2.615   5.546
10660SOL    HW132879   5.470   2.710   5.565
10660SOL    HW232880   5.589   2.599   5.571
10661SOL     OW32881   3.006   5.149   5.508
10661SOL    HW132882   2.910   5.175   5.513
10661SOL    HW232883   3.043   5.172   5.418
10662SOL     OW32884   2.319   1.067   1.222
10662SOL    HW132885   2.238   1.124   1.238
10662SOL    HW232886   2.401   1.117   1.250
10663SOL     OW32887   0.794   1.552   3.779
10663SOL    HW132888   0.757   1.641   3.750
10663SOL    HW232889   0.756   1.480   3.722
10664SOL     OW32890   0.749   5.337   4.955
10664SOL    HW132891   0.848   5.329   4.965
10664SOL    HW232892   0.728   5.405   4.884
10665SOL     OW32893   3.128   3.192   0.149
10665SOL    HW132894   3.131   3.095   0.174
10665SOL    HW232895   3.038   3.214   0.111
10666SOL     OW32896   3.340   4.015   1.470
10666SOL    HW132897   3.399   4.083   1.513
10666SOL    HW232898   3.378   3.923   1.486
10667SOL     OW32899   5.396   2.863   3.366
10667SOL    HW132900   5.310   2.897   3.328
10667SOL    HW232901   5.470   2.925   3.342
10668SOL     OW32902   3.278   2.773   5.821
10668SOL    HW132903   3.189   2.760   5.779
10668SOL    HW232904   3.322   2.855   5.783
10669SOL     OW32905   5.934   1.728   1.538
10669SOL    HW132906   5.905   1.650   1.592
10669SOL    HW232907   5.876   1.736   1.457
10670SOL     OW32908   4.863   3.781   4.374
10670SOL    HW132909   4.837   3.843   4.299
10670SOL    HW232910   4.840   3.687   4.349
10671SOL     OW32911   1.373   3.641   5.442
10671SOL    HW132912   1.319   3.557   5.447
10671SOL    HW232913   1.383   3.679   5.534
10672SOL     OW32914   5.950   3.672   2.159
10672SOL    HW132915   6.020   3.713   2.100
10672SOL    HW232916   5.971   3.575   2.174
10673SOL     OW32917   2.019   1.722   0.603
10673SOL    HW132918   1.977   1.703   0.514
10673SOL    HW232919   1.947   1.732   0.672
10674SOL     OW32920   3.462   3.920   3.625
10674SOL    HW132921   3.372   3.960   3.646
10674SOL    HW232922   3.510   3.978   3.561
10675SOL     OW32923   4.129   6.832   5.092
10675SOL    HW132924   4.207   6.883   5.055
10675SOL    HW232925   4.163   6.751   5.142
10676SOL     OW32926   1.392   0.155   5.911
10676SOL    HW132927   1.390   0.203   5.823
10676SOL    HW232928   1.389   0.221   5.986
10677SOL     OW32929   0.147   1.621   0.053
10677SOL    HW132930   0.111   1.714   0.051
10677SOL    HW232931   0.126   1.578   0.141
10678SOL     OW32932   3.581   5.755   2.384
10678SOL    HW132933   3.534   5.828   2.335
10678SOL    HW232934   3.609   5.787   2.474
10679SOL     OW32935   3.919   3.769   6.641
10679SOL    HW132936   3.947   3.857   6.680
10679SOL    HW232937   3.992   3.733   6.583
10680SOL     OW32938   3.798   1.133   4.889
10680SOL    HW132939   3.753   1.050   4.922
10680SOL    HW232940   3.843   1.113   4.802
10681SOL     OW32941   1.971   3.539   5.318
10681SOL    HW132942   1.920   3.610   5.367
10681SOL    HW232943   1.988   3.569   5.224
10682SOL     OW32944   5.138   3.200   6.403
10682SOL    HW132945   5.050   3.176   6.446
10682SOL    HW232946   5.192   3.254   6.466
10683SOL     OW32947   2.828   0.383   3.561
10683SOL    HW132948   2.763   0.436   3.617
10683SOL    HW232949   2.893   0.446   3.519
10684SOL     OW32950   4.618   4.723   1.944
10684SOL    HW132951   4.707   4.743   1.984
10684SOL    HW232952   4.615   4.757   1.850
10685SOL     OW32953   0.914   6.667   1.568
10685SOL    HW132954   0.883   6.654   1.474
10685SOL    HW232955   0.855   6.615   1.630
10686SOL     OW32956   2.546   0.996   6.767
10686SOL    HW132957   2.490   1.016   6.847
10686SOL    HW232958   2.496   1.022   6.684
10687SOL     OW32959   0.678   3.981   3.932
10687SOL    HW132960   0.619   3.948   3.858
10687SOL    HW232961   0.716   3.903   3.982
10688SOL     OW32962   5.146   1.570   2.428
10688SOL    HW132963   5.181   1.573   2.522
10688SOL    HW232964   5.046   1.569   2.430
10689SOL     OW32965   0.536   0.520   2.511
10689SOL    HW132966   0.451   0.569   2.529
10689SOL    HW232967   0.571   0.482   2.596
10690SOL     OW32968   6.917   6.888   4.278
10690SOL    HW132969   6.878   6.934   4.357
10690SOL    HW232970   6.904   6.945   4.197
10691SOL     OW32971   3.603   0.351   2.434
10691SOL    HW132972   3.565   0.292   2.506
10691SOL    HW232973   3.532   0.414   2.402
10692SOL     OW32974   2.462   1.123   3.875
10692SOL    HW132975   2.454   1.053   3.804
10692SOL    HW232976   2.517   1.088   3.951
10693SOL     OW32977   1.693   5.290   0.098
10693SOL    HW132978   1.611   5.323   0.145
10693SOL    HW232979   1.710   5.348   0.018
10694SOL     OW32980   4.466   0.297   5.155
10694SOL    HW132981   4.490   0.381   5.105
10694SOL    HW232982   4.530   0.224   5.131
10695SOL     OW32983   5.755   4.359   2.366
10695SOL    HW132984   5.709   4.380   2.452
10695SOL    HW232985   5.809   4.276   2.376
10696SOL     OW32986   6.575   4.626   3.722
10696SOL    HW132987   6.521   4.565   3.780
10696SOL    HW232988   6.580   4.716   3.764
10697SOL     OW32989   2.198   5.135   5.259
10697SOL    HW132990   2.212   5.218   5.313
10697SOL    HW232991   2.286   5.090   5.245
10698SOL     OW32992   4.113   2.856   7.007
10698SOL    HW132993   4.083   2.807   6.925
10698SOL    HW232994   4.210   2.879   6.998
10699SOL     OW32995   3.350   3.045   0.677
10699SOL    HW132996   3.433   3.035   0.623
10699SOL    HW232997   3.313   2.954   0.699
10700SOL     OW32998   4.955   0.967   1.475
10700SOL    HW132999   4.942   1.065   1.458
10700SOL    HW233000   5.027   0.932   1.416
10701SOL     OW33001   2.999   0.204   6.497
10701SOL    HW133002   2.946   0.127   6.534
10701SOL    HW233003   2.942   0.287   6.498
10702SOL     OW33004   6.067   2.353   1.960
10702SOL    HW133005   6.036   2.290   1.889
10702SOL    HW233006   6.054   2.447   1.930
10703SOL     OW33007   1.051   3.089   6.138
10703SOL    HW133008   1.015   3.129   6.222
10703SOL    HW233009   1.053   3.159   6.066
10704SOL     OW33010   5.668   0.008   1.744
10704SOL    HW133011   5.747   0.065   1.767
10704SOL    HW233012   5.699   6.944   1.708
10705SOL     OW33013   5.908   3.876   1.220
10705SOL    HW133014   5.840   3.833   1.161
10705SOL    HW233015   5.958   3.946   1.168
10706SOL     OW33016   4.511   0.153   0.908
10706SOL    HW133017   4.538   0.100   0.827
10706SOL    HW233018   4.466   0.237   0.878
10707SOL     OW33019   5.996   0.319   3.887
10707SOL    HW133020   6.072   0.343   3.826
10707SOL    HW233021   6.023   0.333   3.982
10708SOL     OW33022   4.045   1.644   2.067
10708SOL    HW133023   4.067   1.741   2.063
10708SOL    HW233024   3.985   1.620   1.991
10709SOL     OW33025   5.933   4.747   3.657
10709SOL    HW133026   5.917   4.671   3.720
10709SOL    HW233027   5.851   4.803   3.651
10710SOL     OW33028   5.422   0.999   3.588
10710SOL    HW133029   5.368   0.919   3.563
10710SOL    HW233030   5.368   1.082   3.573
10711SOL     OW33031   4.121   0.185   2.069
10711SOL    HW133032   4.151   0.118   2.138
10711SOL    HW233033   4.106   0.138   1.982
10712SOL     OW33034   5.191   6.889   2.923
10712SOL    HW133035   5.120   6.842   2.975
10712SOL    HW233036   5.280   6.875   2.967
10713SOL     OW33037   1.369   4.308   1.242
10713SOL    HW133038   1.287   4.345   1.197
10713SOL    HW233039   1.363   4.325   1.341
10714SOL     OW33040   2.927   3.841   4.408
10714SOL    HW133041   2.886   3.750   4.416
10714SOL    HW233042   2.926   3.887   4.496
10715SOL     OW33043   6.342   1.016   1.617
10715SOL    HW133044   6.393   0.932   1.598
10715SOL    HW233045   6.368   1.087   1.550
10716SOL     OW33046   5.865   1.812   3.474
10716SOL    HW133047   5.850   1.902   3.432
10716SOL    HW233048   5.948   1.771   3.437
10717SOL     OW33049   1.492   2.474   0.458
10717SOL    HW133050   1.518   2.388   0.502
10717SOL    HW233051   1.392   2.478   0.450
10718SOL     OW33052   1.718   5.296   5.710
10718SOL    HW133053   1.656   5.353   5.656
10718SOL    HW233054   1.708   5.318   5.807
10719SOL     OW33055   5.955   5.831   4.649
10719SOL    HW133056   5.911   5.891   4.715
10719SOL    HW233057   6.033   5.785   4.691
10720SOL     OW33058   6.474   5.361   3.447
10720SOL    HW133059   6.474   5.329   3.542
10720SOL    HW233060   6.387   5.408   3.428
10721SOL     OW33061   5.085   3.813   5.080
10721SOL    HW133062   5.180   3.792   5.105
10721SOL    HW233063   5.075   3.912   5.069
10722SOL     OW33064   6.713   4.095   5.368
10722SOL    HW133065   6.800   4.099   5.320
10722SOL    HW233066   6.660   4.178   5.348
10723SOL     OW33067   5.858   0.057   0.336
10723SOL    HW133068   5.831   0.060   0.432
10723SOL    HW233069   5.791   0.107   0.281
10724SOL     OW33070   6.793   6.531   0.442
10724SOL    HW133071   6.877   6.523   0.389
10724SOL    HW233072   6.816   6.536   0.539
10725SOL     OW33073   2.727   5.372   5.529
10725SOL    HW133074   2.714   5.275   5.546
10725SOL    HW233075   2.769   5.415   5.609
10726SOL     OW33076   4.849   1.141   4.518
10726SOL    HW133077   4.761   1.093   4.525
10726SOL    HW233078   4.845   1.225   4.572
10727SOL     OW33079   1.722   6.076   5.747
10727SOL    HW133080   1.761   5.985   5.731
10727SOL    HW233081   1.687   6.080   5.841
10728SOL     OW33082   6.345   6.061   1.149
10728SOL    HW133083   6.366   5.989   1.214
10728SOL    HW233084   6.250   6.053   1.119
10729SOL     OW33085   6.695   2.902   1.542
10729SOL    HW133086   6.672   2.894   1.639
10729SOL    HW233087   6.746   2.821   1.513
10730SOL     OW33088   4.305   0.337   1.931
10730SOL    HW133089   4.401   0.316   1.949
10730SOL    HW233090   4.247   0.283   1.993
10731SOL     OW33091   4.305   0.960   1.079
10731SOL    HW133092   4.257   1.012   1.150
10731SOL    HW233093   4.309   1.015   0.995
10732SOL     OW33094   0.940   4.989   5.339
10732SOL    HW133095   1.004   4.980   5.263
10732SOL    HW233096   0.871   5.057   5.317
10733SOL     OW33097   5.894   2.938   6.918
10733SOL    HW133098   5.814   2.981   6.874
10733SOL    HW233099   5.919   2.856   6.866
10734SOL     OW33100   7.001   2.082   1.644
10734SOL    HW133101   7.016   2.173   1.605
10734SOL    HW233102   0.062   2.051   1.688
10735SOL     OW33103   0.185   3.667   2.706
10735SOL    HW133104   0.241   3.625   2.635
10735SOL    HW233105   0.195   3.767   2.703
10736SOL     OW33106   3.101   7.022   3.802
10736SOL    HW133107   3.014   6.995   3.841
10736SOL    HW233108   3.086   0.072   3.735
10737SOL     OW33109   0.095   2.109   1.300
10737SOL    HW133110   0.050   2.171   1.365
10737SOL    HW233111   0.180   2.076   1.340
10738SOL     OW33112   4.540   1.123   3.007
10738SOL    HW133113   4.598   1.140   2.928
10738SOL    HW233114   4.498   1.033   2.999
10739SOL     OW33115   1.944   2.221   1.820
10739SOL    HW133116   1.983   2.302   1.776
10739SOL    HW233117   1.867   2.249   1.878
10740SOL     OW33118   4.878   4.652   3.606
10740SOL    HW133119   4.961   4.689   3.646
10740SOL    HW233120   4.826   4.727   3.563
10741SOL     OW33121   3.864   0.719   2.555
10741SOL    HW133122   3.951   0.690   2.516
10741SOL    HW233123   3.809   0.766   2.485
10742SOL     OW33124   5.901   5.361   0.734
10742SOL    HW133125   5.938   5.353   0.827
10742SOL    HW233126   5.967   5.405   0.675
10743SOL     OW33127   1.926   2.081   4.253
10743SOL    HW133128   1.981   2.158   4.287
10743SOL    HW233129   1.899   2.023   4.329
10744SOL     OW33130   3.802   2.293   0.945
10744SOL    HW133131   3.779   2.236   1.024
10744SOL    HW233132   3.858   2.240   0.881
10745SOL     OW33133   0.188   5.708   5.831
10745SOL    HW133134   0.132   5.785   5.863
10745SOL    HW233135   0.280   5.715   5.870
10746SOL     OW33136   0.218   3.996   5.376
10746SOL    HW133137   0.121   3.977   5.364
10746SOL    HW233138   0.248   4.063   5.307
10747SOL     OW33139   3.296   1.153   4.703
10747SOL    HW133140   3.346   1.170   4.618
10747SOL    HW233141   3.236   1.231   4.723
10748SOL     OW33142   5.077   1.470   2.019
10748SOL    HW133143   5.151   1.457   2.085
10748SOL    HW233144   5.069   1.567   1.996
10749SOL     OW33145   1.801   6.986   5.407
10749SOL    HW133146   1.899   7.003   5.403
10749SOL    HW233147   1.780   6.921   5.480
10750SOL     OW33148   3.385   0.836   5.817
10750SOL    HW133149   3.367   0.738   5.808
10750SOL    HW233150   3.458   0.862   5.753
10751SOL     OW33151   2.106   4.627   4.174
10751SOL    HW133152   2.125   4.680   4.092
10751SOL    HW233153   2.176   4.647   4.243
10752SOL     OW33154   5.092   4.769   4.363
10752SOL    HW133155   5.137   4.760   4.274
10752SOL    HW233156   4.999   4.802   4.350
10753SOL     OW33157   0.239   3.375   4.101
10753SOL    HW133158   0.195   3.292   4.137
10753SOL    HW233159   0.177   3.420   4.037
10754SOL     OW33160   1.503   0.799   2.617
10754SOL    HW133161   1.518   0.708   2.578
10754SOL    HW233162   1.505   0.793   2.717
10755SOL     OW33163   6.607   5.783   1.970
10755SOL    HW133164   6.524   5.745   2.010
10755SOL    HW233165   6.668   5.813   2.043
10756SOL     OW33166   6.662   6.793   4.932
10756SOL    HW133167   6.627   6.743   5.011
10756SOL    HW233168   6.619   6.759   4.848
10757SOL     OW33169   2.239   2.992   0.919
10757SOL    HW133170   2.177   2.955   0.849
10757SOL    HW233171   2.261   3.087   0.897
10758SOL     OW33172   0.577   5.281   3.968
10758SOL    HW133173   0.524   5.271   3.884
10758SOL    HW233174   0.636   5.362   3.959
10759SOL     OW33175   6.905   2.860   0.250
10759SOL    HW133176   6.865   2.947   0.278
10759SOL    HW233177   6.911   2.857   0.150
10760SOL     OW33178   6.369   0.794   3.297
10760SOL    HW133179   6.316   0.770   3.216
10760SOL    HW233180   6.334   0.879   3.335
10761SOL     OW33181   2.739   5.091   5.460
10761SOL    HW133182   2.725   5.061   5.366
10761SOL    HW233183   2.722   5.016   5.523
10762SOL     OW33184   3.610   0.497   4.315
10762SOL    HW133185   3.613   0.579   4.257
10762SOL    HW233186   3.555   0.516   4.396
10763SOL     OW33187   4.136   0.060   3.537
10763SOL    HW133188   4.109   0.101   3.450
10763SOL    HW233189   4.055   0.027   3.585
10764SOL     OW33190   5.796   0.141   3.803
10764SOL    HW133191   5.768   0.076   3.873
10764SOL    HW233192   5.879   0.188   3.832
10765SOL     OW33193   5.310   3.309   0.878
10765SOL    HW133194   5.310   3.370   0.957
10765SOL    HW233195   5.254   3.348   0.805
10766SOL     OW33196   3.818   3.087   1.588
10766SOL    HW133197   3.884   3.099   1.514
10766SOL    HW233198   3.861   3.037   1.663
10767SOL     OW33199   2.460   1.138   1.810
10767SOL    HW133200   2.368   1.121   1.775
10767SOL    HW233201   2.486   1.233   1.792
10768SOL     OW33202   6.649   4.973   0.291
10768SOL    HW133203   6.615   5.000   0.200
10768SOL    HW233204   6.639   4.875   0.302
10769SOL     OW33205   1.815   3.907   6.185
10769SOL    HW133206   1.852   3.831   6.132
10769SOL    HW233207   1.778   3.873   6.271
10770SOL     OW33208   4.947   6.188   3.263
10770SOL    HW133209   4.850   6.188   3.241
10770SOL    HW233210   4.992   6.266   3.219
10771SOL     OW33211   3.107   0.775   3.374
10771SOL    HW133212   3.195   0.745   3.338
10771SOL    HW233213   3.035   0.716   3.338
10772SOL     OW33214   5.827   5.387   3.586
10772SOL    HW133215   5.788   5.320   3.650
10772SOL    HW233216   5.833   5.476   3.631
10773SOL     OW33217   5.189   4.746   4.091
10773SOL    HW133218   5.218   4.702   4.006
10773SOL    HW233219   5.248   4.825   4.109
10774SOL     OW33220   1.503   1.303   3.561
10774SOL    HW133221   1.489   1.401   3.546
10774SOL    HW233222   1.573   1.270   3.499
10775SOL     OW33223   0.803   3.989   2.058
10775SOL    HW133224   0.719   3.938   2.038
10775SOL    HW233225   0.785   4.058   2.128
10776SOL     OW33226   1.937   0.202   6.962
10776SOL    HW133227   1.920   0.134   6.891
10776SOL    HW233228   1.999   0.163   0.006
10777SOL     OW33229   3.586   6.311   1.904
10777SOL    HW133230   3.574   6.361   1.818
10777SOL    HW233231   3.542   6.361   1.979
10778SOL     OW33232   5.792   6.015   3.341
10778SOL    HW133233   5.865   6.028   3.408
10778SOL    HW233234   5.811   6.072   3.261
10779SOL     OW33235   5.537   2.173   3.441
10779SOL    HW133236   5.547   2.165   3.341
10779SOL    HW233237   5.627   2.168   3.483
10780SOL     OW33238   0.867   1.259   3.163
10780SOL    HW133239   0.945   1.317   3.139
10780SOL    HW233240   0.875   1.172   3.115
10781SOL     OW33241   3.213   0.007   4.084
10781SOL    HW133242   3.289   0.012   4.020
10781SOL    HW233243   3.247   7.006   4.175
10782SOL     OW33244   6.535   5.700   4.241
10782SOL    HW133245   6.632   5.676   4.227
10782SOL    HW233246   6.521   5.796   4.218
10783SOL     OW33247   6.846   2.191   2.900
10783SOL    HW133248   6.820   2.094   2.902
10783SOL    HW233249   6.796   2.237   2.827
10784SOL     OW33250   2.547   1.336   4.262
10784SOL    HW133251   2.470   1.278   4.291
10784SOL    HW233252   2.633   1.288   4.281
10785SOL     OW33253   0.549   4.389   6.734
10785SOL    HW133254   0.546   4.372   6.635
10785SOL    HW233255   0.479   4.456   6.759
10786SOL     OW33256   0.192   5.261   3.351
10786SOL    HW133257   0.118   5.288   3.289
10786SOL    HW233258   0.153   5.220   3.434
10787SOL     OW33259   1.664   2.599   5.691
10787SOL    HW133260   1.763   2.580   5.688
10787SOL    HW233261   1.617   2.522   5.732
10788SOL     OW33262   6.151   3.981   6.170
10788SOL    HW133263   6.196   3.893   6.154
10788SOL    HW233264   6.219   4.054   6.171
10789SOL     OW33265   6.391   1.727   0.020
10789SOL    HW133266   6.310   1.784   0.035
10789SOL    HW233267   6.455   1.738   0.097
10790SOL     OW33268   6.952   0.183   2.694
10790SOL    HW133269   6.994   0.216   2.779
10790SOL    HW233270   7.020   0.133   2.640
10791SOL     OW33271   6.841   6.279   2.674
10791SOL    HW133272   6.812   6.318   2.761
10791SOL    HW233273   6.861   6.352   2.609
10792SOL     OW33274   3.683   4.177   4.965
10792SOL    HW133275   3.610   4.125   5.007
10792SOL    HW233276   3.647   4.265   4.933
10793SOL     OW33277   5.786   3.007   5.040
10793SOL    HW133278   5.818   3.015   5.135
10793SOL    HW233279   5.853   3.049   4.979
10794SOL     OW33280   3.483   3.373   3.707
10794SOL    HW133281   3.513   3.389   3.613
10794SOL    HW233282   3.385   3.393   3.715
10795SOL     OW33283   0.872   4.314   3.215
10795SOL    HW133284   0.789   4.259   3.215
10795SOL    HW233285   0.952   4.255   3.209
10796SOL     OW33286   1.486   5.825   5.113
10796SOL    HW133287   1.565   5.803   5.056
10796SOL    HW233288   1.506   5.906   5.169
10797SOL     OW33289   3.859   2.456   0.652
10797SOL    HW133290   3.781   2.407   0.691
10797SOL    HW233291   3.936   2.394   0.642
10798SOL     OW33292   0.464   1.910   0.757
10798SOL    HW133293   0.551   1.886   0.714
10798SOL    HW233294   0.388   1.878   0.701
10799SOL     OW33295   4.176   1.417   2.154
10799SOL    HW133296   4.120   1.484   2.105
10799SOL    HW233297   4.272   1.445   2.150
10800SOL     OW33298   1.305   6.675   0.701
10800SOL    HW133299   1.319   6.590   0.752
10800SOL    HW233300   1.393   6.718   0.683
10801SOL     OW33301   1.304   0.914   0.770
10801SOL    HW133302   1.292   0.916   0.671
10801SOL    HW233303   1.279   0.823   0.805
10802SOL     OW33304   6.383   0.139   3.621
10802SOL    HW133305   6.318   0.188   3.679
10802SOL    HW233306   6.403   0.194   3.541
10803SOL     OW33307   2.368   5.093   6.360
10803SOL    HW133308   2.318   5.029   6.302
10803SOL    HW233309   2.383   5.179   6.311
10804SOL     OW33310   0.169   3.160   3.893
10804SOL    HW133311   0.149   3.159   3.991
10804SOL    HW233312   0.265   3.185   3.878
10805SOL     OW33313   6.189   0.971   5.093
10805SOL    HW133314   6.280   0.930   5.095
10805SOL    HW233315   6.155   0.983   5.186
10806SOL     OW33316   2.104   4.483   6.650
10806SOL    HW133317   2.060   4.395   6.668
10806SOL    HW233318   2.173   4.501   6.720
10807SOL     OW33319   3.104   6.717   4.551
10807SOL    HW133320   3.193   6.717   4.597
10807SOL    HW233321   3.118   6.718   4.452
10808SOL     OW33322   0.653   2.204   6.002
10808SOL    HW133323   0.696   2.279   5.951
10808SOL    HW233324   0.631   2.235   6.094
10809SOL     OW33325   2.399   5.716   4.556
10809SOL    HW133326   2.448   5.652   4.615
10809SOL    HW233327   2.301   5.713   4.577
10810SOL     OW33328   0.371   0.330   4.298
10810SOL    HW133329   0.422   0.290   4.222
10810SOL    HW233330   0.338   0.421   4.273
10811SOL     OW33331   5.001   4.868   5.252
10811SOL    HW133332   4.908   4.884   5.286
10811SOL    HW233333   4.999   4.867   5.152
10812SOL     OW33334   6.527   2.411   6.667
10812SOL    HW133335   6.558   2.504   6.688
10812SOL    HW233336   6.596   2.345   6.697
10813SOL     OW33337   0.706   4.270   6.201
10813SOL    HW133338   0.639   4.337   6.169
10813SOL    HW233339   0.774   4.254   6.129
10814SOL     OW33340   2.635   0.536   1.310
10814SOL    HW133341   2.557   0.515   1.369
10814SOL    HW233342   2.719   0.536   1.363
10815SOL     OW33343   5.190   1.165   4.672
10815SOL    HW133344   5.192   1.202   4.580
10815SOL    HW233345   5.101   1.121   4.688
10816SOL     OW33346   3.984   3.119   3.731
10816SOL    HW133347   3.923   3.102   3.809
10816SOL    HW233348   4.079   3.110   3.761
10817SOL     OW33349   2.511   6.454   3.529
10817SOL    HW133350   2.514   6.355   3.538
10817SOL    HW233351   2.416   6.485   3.534
10818SOL     OW33352   4.200   5.042   6.264
10818SOL    HW133353   4.124   5.093   6.305
10818SOL    HW233354   4.210   4.955   6.311
10819SOL     OW33355   6.721   5.861   6.017
10819SOL    HW133356   6.744   5.769   5.987
10819SOL    HW233357   6.651   5.900   5.957
10820SOL     OW33358   2.678   4.322   6.150
10820SOL    HW133359   2.649   4.381   6.225
10820SOL    HW233360   2.659   4.226   6.173
10821SOL     OW33361   4.725   5.730   3.195
10821SOL    HW133362   4.762   5.781   3.118
10821SOL    HW233363   4.797   5.671   3.233
10822SOL     OW33364   5.119   2.332   1.896
10822SOL    HW133365   5.088   2.424   1.872
10822SOL    HW233366   5.213   2.319   1.865
10823SOL     OW33367   6.512   6.558   2.698
10823SOL    HW133368   6.442   6.488   2.702
10823SOL    HW233369   6.574   6.540   2.621
10824SOL     OW33370   0.541   2.491   3.950
10824SOL    HW133371   0.578   2.525   3.863
10824SOL    HW233372   0.616   2.454   4.005
10825SOL     OW33373   0.973   2.185   0.459
10825SOL    HW133374   0.899   2.218   0.517
10825SOL    HW233375   0.952   2.091   0.429
10826SOL     OW33376   0.621   2.946   2.970
10826SOL    HW133377   0.585   2.971   3.059
10826SOL    HW233378   0.721   2.951   2.972
10827SOL     OW33379   0.069   3.384   4.689
10827SOL    HW133380   7.003   3.345   4.669
10827SOL    HW233381   0.136   3.349   4.624
10828SOL     OW33382   6.296   4.951   5.468
10828SOL    HW133383   6.390   4.918   5.459
10828SOL    HW233384   6.246   4.935   5.383
10829SOL     OW33385   4.076   3.670   5.498
10829SOL    HW133386   4.073   3.636   5.592
10829SOL    HW233387   3.998   3.731   5.483
10830SOL     OW33388   4.744   1.345   3.790
10830SOL    HW133389   4.662   1.367   3.736
10830SOL    HW233390   4.795   1.273   3.744
10831SOL     OW33391   3.819   1.039   3.146
10831SOL    HW133392   3.764   1.045   3.062
10831SOL    HW233393   3.759   1.027   3.224
10832SOL     OW33394   6.933   3.367   0.685
10832SOL    HW133395   6.869   3.324   0.749
10832SOL    HW233396   6.896   3.362   0.592
10833SOL     OW33397   0.804   1.346   0.293
10833SOL    HW133398   0.740   1.272   0.311
10833SOL    HW233399   0.767   1.432   0.327
10834SOL     OW33400   0.025   6.652   0.990
10834SOL    HW133401   0.124   6.667   0.982
10834SOL    HW233402   7.005   6.737   1.021
10835SOL     OW33403   0.022   2.604   6.060
10835SOL    HW133404   6.974   2.587   6.127
10835SOL    HW233405   0.038   2.521   6.006
10836SOL     OW33406   7.005   1.384   3.825
10836SOL    HW133407   7.000   1.369   3.924
10836SOL    HW233408   0.030   1.308   3.782
10837SOL     OW33409   0.471   3.867   3.171
10837SOL    HW133410   0.547   3.801   3.166
10837SOL    HW233411   0.458   3.908   3.081
10838SOL     OW33412   0.243   5.682   2.816
10838SOL    HW133413   0.183   5.602   2.820
10838SOL    HW233414   0.332   5.659   2.857
10839SOL     OW33415   5.139   2.918   1.136
10839SOL    HW133416   5.193   2.974   1.073
10839SOL    HW233417   5.195   2.891   1.214
10840SOL     OW33418   3.086   0.707   1.182
10840SOL    HW133419   2.988   0.700   1.167
10840SOL    HW233420   3.103   0.764   1.262
10841SOL     OW33421   1.483   5.350   5.498
10841SOL    HW133422   1.398   5.297   5.505
10841SOL    HW233423   1.462   5.447   5.509
10842SOL     OW33424   5.182   4.742   0.471
10842SOL    HW133425   5.112   4.673   0.451
10842SOL    HW233426   5.139   4.823   0.511
10843SOL     OW33427   2.641   2.295   1.654
10843SOL    HW133428   2.716   2.343   1.610
10843SOL    HW233429   2.676   2.232   1.724
10844SOL     OW33430   1.420   5.603   5.568
10844SOL    HW133431   1.343   5.575   5.625
10844SOL    HW233432   1.389   5.673   5.503
10845SOL     OW33433   4.349   6.700   4.812
10845SOL    HW133434   4.399   6.664   4.891
10845SOL    HW233435   4.254   6.717   4.838
10846SOL     OW33436   5.061   0.724   0.193
10846SOL    HW133437   5.032   0.698   0.100
10846SOL    HW233438   5.085   0.641   0.244
10847SOL     OW33439   1.922   1.003   6.889
10847SOL    HW133440   1.829   0.973   6.867
10847SOL    HW233441   1.919   1.090   6.938
10848SOL     OW33442   1.640   4.842   1.976
10848SOL    HW133443   1.698   4.766   1.947
10848SOL    HW233444   1.589   4.816   2.058
10849SOL     OW33445   2.475   6.460   4.584
10849SOL    HW133446   2.558   6.428   4.629
10849SOL    HW233447   2.437   6.538   4.636
10850SOL     OW33448   3.477   5.418   0.208
10850SOL    HW133449   3.492   5.499   0.265
10850SOL    HW233450   3.379   5.403   0.197
10851SOL     OW33451   2.173   5.384   0.873
10851SOL    HW133452   2.089   5.358   0.826
10851SOL    HW233453   2.194   5.315   0.942
10852SOL     OW33454   2.058   1.772   1.598
10852SOL    HW133455   2.083   1.866   1.575
10852SOL    HW233456   2.088   1.752   1.692
10853SOL     OW33457   2.795   2.181   5.984
10853SOL    HW133458   2.795   2.149   6.079
10853SOL    HW233459   2.789   2.281   5.982
10854SOL     OW33460   3.916   6.277   5.716
10854SOL    HW133461   3.865   6.330   5.647
10854SOL    HW233462   3.857   6.205   5.753
10855SOL     OW33463   3.426   1.472   6.990
10855SOL    HW133464   3.433   1.533   6.911
10855SOL    HW233465   3.442   1.378   6.961
10856SOL     OW33466   0.105   0.958   0.443
10856SOL    HW133467   0.186   0.909   0.478
10856SOL    HW233468   0.039   0.969   0.517
10857SOL     OW33469   6.687   2.084   2.456
10857SOL    HW133470   6.635   2.003   2.482
10857SOL    HW233471   6.649   2.122   2.372
10858SOL     OW33472   2.380   5.993   1.712
10858SOL    HW133473   2.395   5.992   1.613
10858SOL    HW233474   2.468   5.988   1.759
10859SOL     OW33475   1.583   5.609   3.659
10859SOL    HW133476   1.630   5.643   3.741
10859SOL    HW233477   1.491   5.579   3.683
10860SOL     OW33478   0.103   2.729   3.660
10860SOL    HW133479   0.068   2.651   3.713
10860SOL    HW233480   0.182   2.700   3.606
10861SOL     OW33481   3.865   3.510   4.653
10861SOL    HW133482   3.848   3.538   4.747
10861SOL    HW233483   3.827   3.418   4.638
10862SOL     OW33484   1.490   0.736   4.496
10862SOL    HW133485   1.437   0.698   4.571
10862SOL    HW233486   1.456   0.700   4.409
10863SOL     OW33487   3.333   5.624   4.542
10863SOL    HW133488   3.252   5.680   4.559
10863SOL    HW233489   3.307   5.528   4.533
10864SOL     OW33490   3.255   5.882   2.938
10864SOL    HW133491   3.305   5.818   2.997
10864SOL    HW233492   3.173   5.913   2.986
10865SOL     OW33493   5.912   2.154   6.135
10865SOL    HW133494   5.847   2.081   6.155
10865SOL    HW233495   5.881   2.239   6.176
10866SOL     OW33496   5.543   5.092   0.720
10866SOL    HW133497   5.637   5.107   0.692
10866SOL    HW233498   5.508   5.008   0.677
10867SOL     OW33499   3.540   2.092   0.186
10867SOL    HW133500   3.467   2.099   0.118
10867SOL    HW233501   3.611   2.029   0.151
10868SOL     OW33502   2.782   2.354   2.560
10868SOL    HW133503   2.797   2.337   2.463
10868SOL    HW233504   2.870   2.359   2.607
10869NA      NA33505   6.349   2.154   6.106
10870NA      NA33506   4.384   4.597   5.255
10871NA      NA33507   2.469   3.656   1.489
10872NA      NA33508   4.871   3.767   5.163
10873NA      NA33509   4.175   2.383   5.343
10874NA      NA33510   3.626   4.769   1.687
10875NA      NA33511   6.436   5.903   5.188
10876NA      NA33512   3.757   4.050   4.784
10877NA      NA33513   4.471   6.869   0.059
10878NA      NA33514   3.951   6.976   5.052
10879NA      NA33515   0.034   4.992   2.772
10880NA      NA33516   2.718   0.427   2.863
10881NA      NA33517   3.563   4.314   1.022
10882NA      NA33518   3.461   3.454   3.045
   7.02383   7.02383   7.02383
