Generated by trjconv : CNT in water t=  29.00000
33518
    1C        C    1   2.843   2.770   4.746
    1C        C    2   2.903   2.724   4.865
    1C        C    3   2.844   2.779   4.980
    1C        C    4   2.850   2.775   4.257
    1C        C    5   2.900   2.728   4.381
    1C        C    6   2.851   2.777   4.504
    1C        C    7   3.013   2.640   4.623
    1C        C    8   2.897   2.721   4.625
    1C        C    9   3.075   2.604   4.744
    1C        C   10   3.014   2.637   4.867
    1C        C   11   3.184   2.494   4.974
    1C        C   12   3.063   2.566   4.977
    1C        C   13   2.850   2.771   3.770
    1C        C   14   2.900   2.725   3.893
    1C        C   15   2.850   2.774   4.016
    1C        C   16   3.017   2.640   4.136
    1C        C   17   2.903   2.724   4.137
    1C        C   18   3.079   2.609   4.259
    1C        C   19   3.017   2.649   4.380
    1C        C   20   3.206   2.553   4.500
    1C        C   21   3.075   2.605   4.501
    1C        C   22   3.275   2.529   4.621
    1C        C   23   3.205   2.546   4.743
    1C        C   24   3.414   2.486   4.865
    1C        C   25   3.272   2.505   4.862
    1C        C   26   3.491   2.478   4.981
    1C        C   27   2.850   2.770   3.280
    1C        C   28   2.904   2.724   3.402
    1C        C   29   2.853   2.771   3.525
    1C        C   30   3.014   2.636   3.649
    1C        C   31   2.901   2.721   3.648
    1C        C   32   3.075   2.604   3.773
    1C        C   33   3.013   2.640   3.895
    1C        C   34   3.207   2.545   4.014
    1C        C   35   3.076   2.600   4.014
    1C        C   36   3.276   2.533   4.137
    1C        C   37   3.208   2.553   4.259
    1C        C   38   3.415   2.504   4.379
    1C        C   39   3.275   2.523   4.380
    1C        C   40   3.487   2.500   4.500
    1C        C   41   3.414   2.508   4.621
    1C        C   42   3.627   2.485   4.744
    1C        C   43   3.485   2.484   4.741
    1C        C   44   3.704   2.484   4.862
    1C        C   45   3.630   2.479   4.981
    1C        C   46   2.836   2.751   2.791
    1C        C   47   2.896   2.711   2.913
    1C        C   48   2.845   2.760   3.035
    1C        C   49   3.013   2.633   3.160
    1C        C   50   2.902   2.719   3.159
    1C        C   51   3.077   2.602   3.282
    1C        C   52   3.017   2.639   3.404
    1C        C   53   3.208   2.549   3.528
    1C        C   54   3.076   2.602   3.527
    1C        C   55   3.275   2.524   3.649
    1C        C   56   3.204   2.547   3.769
    1C        C   57   3.412   2.503   3.894
    1C        C   58   3.273   2.527   3.891
    1C        C   59   3.485   2.501   4.014
    1C        C   60   3.415   2.509   4.137
    1C        C   61   3.628   2.495   4.256
    1C        C   62   3.487   2.496   4.258
    1C        C   63   3.696   2.506   4.379
    1C        C   64   3.628   2.494   4.502
    1C        C   65   3.834   2.548   4.621
    1C        C   66   3.699   2.506   4.624
    1C        C   67   3.904   2.564   4.743
    1C        C   68   3.841   2.520   4.861
    1C        C   69   4.053   2.581   4.976
    1C        C   70   3.921   2.534   4.975
    1C        C   71   2.824   2.729   2.305
    1C        C   72   2.876   2.687   2.430
    1C        C   73   2.830   2.745   2.550
    1C        C   74   3.005   2.621   2.670
    1C        C   75   2.889   2.702   2.670
    1C        C   76   3.069   2.588   2.792
    1C        C   77   3.012   2.631   2.914
    1C        C   78   3.205   2.546   3.039
    1C        C   79   3.073   2.597   3.037
    1C        C   80   3.272   2.528   3.162
    1C        C   81   3.207   2.547   3.286
    1C        C   82   3.415   2.495   3.401
    1C        C   83   3.277   2.523   3.407
    1C        C   84   3.483   2.493   3.524
    1C        C   85   3.415   2.505   3.647
    1C        C   86   3.623   2.492   3.769
    1C        C   87   3.482   2.493   3.771
    1C        C   88   3.693   2.507   3.890
    1C        C   89   3.627   2.498   4.015
    1C        C   90   3.836   2.545   4.133
    1C        C   91   3.700   2.505   4.135
    1C        C   92   3.900   2.574   4.256
    1C        C   93   3.832   2.545   4.376
    1C        C   94   4.023   2.634   4.499
    1C        C   95   3.901   2.564   4.498
    1C        C   96   4.090   2.670   4.619
    1C        C   97   4.031   2.628   4.740
    1C        C   98   4.193   2.763   4.860
    1C        C   99   4.096   2.658   4.863
    1C        C  100   4.219   2.835   4.978
    1C        C  101   2.830   2.733   2.067
    1C        C  102   2.991   2.587   2.191
    1C        C  103   2.877   2.674   2.186
    1C        C  104   3.064   2.572   2.312
    1C        C  105   2.996   2.612   2.429
    1C        C  106   3.199   2.535   2.549
    1C        C  107   3.067   2.585   2.548
    1C        C  108   3.269   2.521   2.671
    1C        C  109   3.201   2.538   2.794
    1C        C  110   3.409   2.502   2.913
    1C        C  111   3.270   2.521   2.916
    1C        C  112   3.479   2.496   3.035
    1C        C  113   3.410   2.499   3.159
    1C        C  114   3.626   2.494   3.278
    1C        C  115   3.485   2.486   3.278
    1C        C  116   3.694   2.506   3.401
    1C        C  117   3.624   2.493   3.523
    1C        C  118   3.829   2.539   3.645
    1C        C  119   3.693   2.500   3.646
    1C        C  120   3.896   2.566   3.767
    1C        C  121   3.829   2.547   3.889
    1C        C  122   4.024   2.638   4.012
    1C        C  123   3.900   2.570   4.009
    1C        C  124   4.085   2.672   4.134
    1C        C  125   4.028   2.634   4.257
    1C        C  126   4.196   2.763   4.377
    1C        C  127   4.087   2.672   4.379
    1C        C  128   4.246   2.816   4.498
    1C        C  129   4.196   2.762   4.618
    1C        C  130   4.327   2.933   4.740
    1C        C  131   4.244   2.818   4.739
    1C        C  132   4.357   3.002   4.860
    1C        C  133   4.285   2.958   4.971
    1C        C  134   3.173   2.469   2.079
    1C        C  135   3.040   2.513   2.079
    1C        C  136   3.260   2.475   2.189
    1C        C  137   3.194   2.516   2.307
    1C        C  138   3.405   2.479   2.428
    1C        C  139   3.266   2.504   2.428
    1C        C  140   3.478   2.478   2.549
    1C        C  141   3.407   2.493   2.671
    1C        C  142   3.622   2.498   2.790
    1C        C  143   3.481   2.490   2.791
    1C        C  144   3.693   2.503   2.912
    1C        C  145   3.620   2.499   3.034
    1C        C  146   3.831   2.537   3.153
    1C        C  147   3.694   2.502   3.154
    1C        C  148   3.895   2.565   3.276
    1C        C  149   3.830   2.543   3.400
    1C        C  150   4.024   2.623   3.522
    1C        C  151   3.897   2.561   3.523
    1C        C  152   4.081   2.663   3.645
    1C        C  153   4.022   2.629   3.769
    1C        C  154   4.193   2.762   3.886
    1C        C  155   4.082   2.674   3.889
    1C        C  156   4.245   2.808   4.009
    1C        C  157   4.197   2.760   4.133
    1C        C  158   4.336   2.920   4.251
    1C        C  159   4.247   2.810   4.254
    1C        C  160   4.370   2.985   4.372
    1C        C  161   4.330   2.930   4.496
    1C        C  162   4.437   3.113   4.616
    1C        C  163   4.372   2.987   4.618
    1C        C  164   4.467   3.184   4.735
    1C        C  165   4.428   3.123   4.856
    1C        C  166   4.514   3.320   4.971
    1C        C  167   4.467   3.189   4.974
    1C        C  168   3.477   2.430   2.073
    1C        C  169   3.400   2.458   2.186
    1C        C  170   3.617   2.465   2.308
    1C        C  171   3.474   2.463   2.306
    1C        C  172   3.691   2.492   2.425
    1C        C  173   3.619   2.488   2.546
    1C        C  174   3.827   2.540   2.668
    1C        C  175   3.691   2.501   2.667
    1C        C  176   3.897   2.562   2.789
    1C        C  177   3.831   2.533   2.910
    1C        C  178   4.024   2.625   3.034
    1C        C  179   3.897   2.562   3.031
    1C        C  180   4.085   2.665   3.155
    1C        C  181   4.021   2.628   3.276
    1C        C  182   4.188   2.755   3.398
    1C        C  183   4.082   2.662   3.399
    1C        C  184   4.240   2.805   3.520
    1C        C  185   4.187   2.756   3.641
    1C        C  186   4.337   2.911   3.762
    1C        C  187   4.241   2.808   3.761
    1C        C  188   4.375   2.972   3.884
    1C        C  189   4.333   2.919   4.008
    1C        C  190   4.443   3.103   4.128
    1C        C  191   4.373   2.980   4.129
    1C        C  192   4.465   3.172   4.249
    1C        C  193   4.432   3.112   4.373
    1C        C  194   4.506   3.313   4.490
    1C        C  195   4.464   3.178   4.494
    1C        C  196   4.519   3.388   4.609
    1C        C  197   4.513   3.318   4.732
    1C        C  198   4.549   3.533   4.848
    1C        C  199   4.534   3.391   4.852
    1C        C  200   4.570   3.618   4.962
    1C        C  201   3.616   2.412   2.074
    1C        C  202   3.825   2.509   2.184
    1C        C  203   3.690   2.459   2.186
    1C        C  204   3.897   2.541   2.302
    1C        C  205   3.829   2.522   2.424
    1C        C  206   4.020   2.619   2.545
    1C        C  207   3.894   2.556   2.545
    1C        C  208   4.087   2.652   2.665
    1C        C  209   4.026   2.619   2.788
    1C        C  210   4.195   2.746   2.909
    1C        C  211   4.085   2.658   2.911
    1C        C  212   4.247   2.795   3.030
    1C        C  213   4.196   2.751   3.155
    1C        C  214   4.333   2.913   3.273
    1C        C  215   4.243   2.803   3.277
    1C        C  216   4.371   2.972   3.395
    1C        C  217   4.333   2.912   3.517
    1C        C  218   4.432   3.099   3.638
    1C        C  219   4.376   2.969   3.638
    1C        C  220   4.452   3.167   3.759
    1C        C  221   4.434   3.100   3.882
    1C        C  222   4.498   3.303   4.002
    1C        C  223   4.465   3.166   4.004
    1C        C  224   4.513   3.376   4.122
    1C        C  225   4.493   3.310   4.245
    1C        C  226   4.521   3.522   4.365
    1C        C  227   4.511   3.381   4.366
    1C        C  228   4.521   3.597   4.484
    1C        C  229   4.528   3.529   4.608
    1C        C  230   4.501   3.743   4.726
    1C        C  231   4.537   3.605   4.726
    1C        C  232   4.490   3.818   4.845
    1C        C  233   4.534   3.753   4.961
    1C        C  234   4.020   2.600   2.061
    1C        C  235   3.895   2.538   2.067
    1C        C  236   4.081   2.646   2.179
    1C        C  237   4.023   2.608   2.301
    1C        C  238   4.194   2.739   2.418
    1C        C  239   4.081   2.652   2.422
    1C        C  240   4.247   2.786   2.540
    1C        C  241   4.197   2.740   2.664
    1C        C  242   4.331   2.906   2.784
    1C        C  243   4.245   2.794   2.786
    1C        C  244   4.370   2.965   2.906
    1C        C  245   4.339   2.903   3.029
    1C        C  246   4.440   3.092   3.148
    1C        C  247   4.378   2.965   3.150
    1C        C  248   4.457   3.163   3.269
    1C        C  249   4.429   3.101   3.393
    1C        C  250   4.499   3.300   3.514
    1C        C  251   4.459   3.165   3.516
    1C        C  252   4.513   3.371   3.635
    1C        C  253   4.494   3.302   3.757
    1C        C  254   4.513   3.514   3.880
    1C        C  255   4.508   3.372   3.879
    1C        C  256   4.515   3.589   3.999
    1C        C  257   4.521   3.517   4.121
    1C        C  258   4.488   3.728   4.239
    1C        C  259   4.520   3.590   4.241
    1C        C  260   4.474   3.802   4.359
    1C        C  261   4.489   3.735   4.483
    1C        C  262   4.423   3.937   4.602
    1C        C  263   4.481   3.809   4.603
    1C        C  264   4.395   4.008   4.721
    1C        C  265   4.427   3.945   4.843
    1C        C  266   4.312   4.132   4.960
    1C        C  267   4.385   4.013   4.958
    1C        C  268   4.259   2.777   2.061
    1C        C  269   4.194   2.730   2.176
    1C        C  270   4.341   2.892   2.296
    1C        C  271   4.247   2.785   2.295
    1C        C  272   4.385   2.950   2.417
    1C        C  273   4.336   2.895   2.538
    1C        C  274   4.444   3.081   2.660
    1C        C  275   4.374   2.958   2.659
    1C        C  276   4.468   3.152   2.779
    1C        C  277   4.438   3.089   2.902
    1C        C  278   4.500   3.292   3.020
    1C        C  279   4.467   3.154   3.024
    1C        C  280   4.508   3.364   3.141
    1C        C  281   4.496   3.298   3.266
    1C        C  282   4.518   3.507   3.388
    1C        C  283   4.511   3.366   3.389
    1C        C  284   4.511   3.579   3.510
    1C        C  285   4.523   3.512   3.634
    1C        C  286   4.485   3.721   3.749
    1C        C  287   4.514   3.582   3.756
    1C        C  288   4.471   3.791   3.871
    1C        C  289   4.490   3.728   3.995
    1C        C  290   4.422   3.929   4.115
    1C        C  291   4.472   3.797   4.117
    1C        C  292   4.393   3.995   4.237
    1C        C  293   4.427   3.935   4.360
    1C        C  294   4.321   4.122   4.476
    1C        C  295   4.395   4.001   4.480
    1C        C  296   4.281   4.185   4.596
    1C        C  297   4.324   4.131   4.720
    1C        C  298   4.196   4.311   4.832
    1C        C  299   4.281   4.195   4.839
    1C        C  300   4.169   4.397   4.943
    1C        C  301   4.353   2.879   2.059
    1C        C  302   4.473   3.064   2.176
    1C        C  303   4.399   2.941   2.176
    1C        C  304   4.481   3.139   2.296
    1C        C  305   4.455   3.073   2.418
    1C        C  306   4.501   3.283   2.535
    1C        C  307   4.478   3.143   2.538
    1C        C  308   4.512   3.357   2.655
    1C        C  309   4.503   3.288   2.778
    1C        C  310   4.521   3.501   2.896
    1C        C  311   4.522   3.360   2.898
    1C        C  312   4.511   3.571   3.018
    1C        C  313   4.512   3.505   3.143
    1C        C  314   4.487   3.715   3.263
    1C        C  315   4.509   3.576   3.265
    1C        C  316   4.473   3.787   3.384
    1C        C  317   4.483   3.717   3.506
    1C        C  318   4.421   3.922   3.625
    1C        C  319   4.468   3.789   3.627
    1C        C  320   4.390   3.985   3.748
    1C        C  321   4.424   3.925   3.871
    1C        C  322   4.320   4.112   3.990
    1C        C  323   4.395   3.992   3.992
    1C        C  324   4.277   4.170   4.111
    1C        C  325   4.319   4.115   4.234
    1C        C  326   4.184   4.284   4.352
    1C        C  327   4.276   4.176   4.354
    1C        C  328   4.130   4.335   4.473
    1C        C  329   4.185   4.289   4.594
    1C        C  330   4.023   4.438   4.715
    1C        C  331   4.135   4.351   4.711
    1C        C  332   3.967   4.494   4.832
    1C        C  333   4.056   4.480   4.940
    1C        C  334   4.552   3.267   2.062
    1C        C  335   4.534   3.128   2.064
    1C        C  336   4.538   3.348   2.175
    1C        C  337   4.512   3.278   2.295
    1C        C  338   4.525   3.495   2.411
    1C        C  339   4.517   3.354   2.414
    1C        C  340   4.518   3.569   2.531
    1C        C  341   4.517   3.498   2.653
    1C        C  342   4.492   3.711   2.773
    1C        C  343   4.515   3.572   2.774
    1C        C  344   4.475   3.782   2.895
    1C        C  345   4.491   3.711   3.016
    1C        C  346   4.427   3.914   3.137
    1C        C  347   4.472   3.780   3.138
    1C        C  348   4.391   3.981   3.256
    1C        C  349   4.424   3.919   3.379
    1C        C  350   4.319   4.104   3.499
    1C        C  351   4.391   3.982   3.501
    1C        C  352   4.276   4.164   3.620
    1C        C  353   4.319   4.107   3.742
    1C        C  354   4.180   4.264   3.865
    1C        C  355   4.279   4.163   3.865
    1C        C  356   4.128   4.317   3.986
    1C        C  357   4.176   4.269   4.110
    1C        C  358   4.008   4.401   4.230
    1C        C  359   4.125   4.324   4.230
    1C        C  360   3.949   4.446   4.351
    1C        C  361   4.016   4.418   4.472
    1C        C  362   3.828   4.519   4.591
    1C        C  363   3.960   4.467   4.592
    1C        C  364   3.761   4.555   4.710
    1C        C  365   3.836   4.545   4.829
    1C        C  366   3.627   4.595   4.947
    1C        C  367   3.765   4.572   4.947
    1C        C  368   4.506   3.561   2.051
    1C        C  369   4.526   3.489   2.170
    1C        C  370   4.509   3.706   2.285
    1C        C  371   4.523   3.565   2.288
    1C        C  372   4.489   3.776   2.406
    1C        C  373   4.498   3.708   2.529
    1C        C  374   4.425   3.909   2.647
    1C        C  375   4.480   3.779   2.650
    1C        C  376   4.395   3.974   2.769
    1C        C  377   4.429   3.915   2.892
    1C        C  378   4.315   4.092   3.010
    1C        C  379   4.398   3.978   3.015
    1C        C  380   4.270   4.153   3.129
    1C        C  381   4.312   4.098   3.253
    1C        C  382   4.175   4.257   3.375
    1C        C  383   4.273   4.155   3.376
    1C        C  384   4.123   4.308   3.497
    1C        C  385   4.173   4.261   3.621
    1C        C  386   4.007   4.389   3.743
    1C        C  387   4.124   4.309   3.744
    1C        C  388   3.947   4.428   3.865
    1C        C  389   4.008   4.391   3.987
    1C        C  390   3.817   4.490   4.106
    1C        C  391   3.943   4.427   4.107
    1C        C  392   3.750   4.518   4.228
    1C        C  393   3.819   4.501   4.350
    1C        C  394   3.614   4.555   4.473
    1C        C  395   3.753   4.529   4.471
    1C        C  396   3.544   4.569   4.594
    1C        C  397   3.621   4.572   4.713
    1C        C  398   3.408   4.555   4.836
    1C        C  399   3.547   4.579   4.833
    1C        C  400   3.342   4.517   4.953
    1C        C  401   4.502   3.700   2.046
    1C        C  402   4.446   3.908   2.165
    1C        C  403   4.495   3.776   2.163
    1C        C  404   4.407   3.976   2.283
    1C        C  405   4.432   3.906   2.403
    1C        C  406   4.323   4.092   2.525
    1C        C  407   4.397   3.971   2.523
    1C        C  408   4.278   4.151   2.645
    1C        C  409   4.320   4.094   2.767
    1C        C  410   4.172   4.250   2.886
    1C        C  411   4.272   4.149   2.888
    1C        C  412   4.122   4.303   3.007
    1C        C  413   4.170   4.252   3.130
    1C        C  414   4.003   4.380   3.252
    1C        C  415   4.121   4.302   3.253
    1C        C  416   3.942   4.416   3.374
    1C        C  417   4.004   4.383   3.497
    1C        C  418   3.812   4.469   3.620
    1C        C  419   3.943   4.417   3.620
    1C        C  420   3.743   4.492   3.741
    1C        C  421   3.813   4.473   3.863
    1C        C  422   3.609   4.535   3.986
    1C        C  423   3.746   4.501   3.984
    1C        C  424   3.541   4.548   4.109
    1C        C  425   3.611   4.544   4.232
    1C        C  426   3.398   4.549   4.352
    1C        C  427   3.539   4.556   4.353
    1C        C  428   3.331   4.542   4.476
    1C        C  429   3.404   4.557   4.597
    1C        C  430   3.193   4.516   4.719
    1C        C  431   3.331   4.548   4.718
    1C        C  432   3.124   4.493   4.841
    1C        C  433   3.204   4.497   4.956
    1C        C  434   4.379   4.115   2.048
    1C        C  435   4.440   3.990   2.051
    1C        C  436   4.301   4.161   2.160
    1C        C  437   4.330   4.095   2.283
    1C        C  438   4.181   4.249   2.399
    1C        C  439   4.281   4.149   2.404
    1C        C  440   4.125   4.294   2.520
    1C        C  441   4.176   4.249   2.644
    1C        C  442   4.000   4.373   2.762
    1C        C  443   4.117   4.293   2.764
    1C        C  444   3.942   4.408   2.886
    1C        C  445   4.004   4.381   3.010
    1C        C  446   3.809   4.471   3.130
    1C        C  447   3.940   4.417   3.131
    1C        C  448   3.744   4.495   3.253
    1C        C  449   3.810   4.466   3.374
    1C        C  450   3.609   4.526   3.495
    1C        C  451   3.746   4.492   3.497
    1C        C  452   3.539   4.539   3.617
    1C        C  453   3.608   4.532   3.740
    1C        C  454   3.398   4.539   3.862
    1C        C  455   3.539   4.544   3.863
    1C        C  456   3.332   4.533   3.986
    1C        C  457   3.400   4.540   4.110
    1C        C  458   3.190   4.501   4.232
    1C        C  459   3.328   4.532   4.231
    1C        C  460   3.126   4.484   4.357
    1C        C  461   3.193   4.515   4.478
    1C        C  462   2.995   4.432   4.601
    1C        C  463   3.122   4.493   4.598
    1C        C  464   2.932   4.397   4.722
    1C        C  465   2.990   4.441   4.844
    1C        C  466   2.800   4.337   4.959
    1C        C  467   2.910   4.424   4.961
    1C        C  468   4.127   4.287   2.039
    1C        C  469   4.190   4.251   2.158
    1C        C  470   4.005   4.370   2.279
    1C        C  471   4.127   4.297   2.277
    1C        C  472   3.937   4.398   2.400
    1C        C  473   4.005   4.369   2.521
    1C        C  474   3.809   4.462   2.642
    1C        C  475   3.936   4.402   2.640
    1C        C  476   3.742   4.487   2.765
    1C        C  477   3.811   4.462   2.886
    1C        C  478   3.605   4.518   3.007
    1C        C  479   3.743   4.490   3.006
    1C        C  480   3.534   4.528   3.129
    1C        C  481   3.606   4.526   3.250
    1C        C  482   3.397   4.531   3.376
    1C        C  483   3.538   4.536   3.374
    1C        C  484   3.325   4.532   3.498
    1C        C  485   3.397   4.535   3.619
    1C        C  486   3.187   4.502   3.743
    1C        C  487   3.325   4.530   3.741
    1C        C  488   3.123   4.479   3.867
    1C        C  489   3.195   4.498   3.987
    1C        C  490   2.999   4.416   4.115
    1C        C  491   3.125   4.479   4.109
    1C        C  492   2.937   4.381   4.237
    1C        C  493   3.001   4.419   4.357
    1C        C  494   2.826   4.302   4.484
    1C        C  495   2.936   4.391   4.479
    1C        C  496   2.774   4.250   4.604
    1C        C  497   2.821   4.308   4.724
    1C        C  498   2.666   4.161   4.844
    1C        C  499   2.758   4.268   4.844
    1C        C  500   2.603   4.112   4.958
    1C        C  501   4.004   4.354   2.043
    1C        C  502   3.812   4.461   2.154
    1C        C  503   3.942   4.404   2.157
    1C        C  504   3.744   4.485   2.275
    1C        C  505   3.808   4.455   2.397
    1C        C  506   3.603   4.508   2.518
    1C        C  507   3.743   4.483   2.519
    1C        C  508   3.533   4.515   2.640
    1C        C  509   3.603   4.509   2.763
    1C        C  510   3.392   4.522   2.886
    1C        C  511   3.533   4.521   2.885
    1C        C  512   3.321   4.518   3.008
    1C        C  513   3.393   4.525   3.130
    1C        C  514   3.188   4.491   3.253
    1C        C  515   3.327   4.519   3.254
    1C        C  516   3.121   4.467   3.375
    1C        C  517   3.189   4.494   3.496
    1C        C  518   2.995   4.415   3.623
    1C        C  519   3.122   4.477   3.620
    1C        C  520   2.937   4.377   3.746
    1C        C  521   3.001   4.409   3.868
    1C        C  522   2.837   4.279   3.991
    1C        C  523   2.943   4.373   3.992
    1C        C  524   2.784   4.238   4.114
    1C        C  525   2.828   4.291   4.238
    1C        C  526   2.696   4.133   4.362
    1C        C  527   2.778   4.248   4.363
    1C        C  528   2.651   4.074   4.482
    1C        C  529   2.693   4.134   4.603
    1C        C  530   2.586   3.956   4.728
    1C        C  531   2.645   4.086   4.726
    1C        C  532   2.541   3.897   4.849
    1C        C  533   2.532   3.991   4.957
    1C        C  534   3.613   4.551   2.037
    1C        C  535   3.748   4.513   2.041
    1C        C  536   3.535   4.536   2.156
    1C        C  537   3.605   4.514   2.278
    1C        C  538   3.389   4.511   2.398
    1C        C  539   3.530   4.507   2.397
    1C        C  540   3.320   4.511   2.521
    1C        C  541   3.392   4.520   2.643
    1C        C  542   3.182   4.491   2.765
    1C        C  543   3.321   4.518   2.764
    1C        C  544   3.115   4.465   2.887
    1C        C  545   3.184   4.481   3.009
    1C        C  546   2.996   4.394   3.133
    1C        C  547   3.119   4.463   3.133
    1C        C  548   2.941   4.356   3.258
    1C        C  549   2.996   4.400   3.380
    1C        C  550   2.828   4.277   3.502
    1C        C  551   2.937   4.367   3.504
    1C        C  552   2.778   4.230   3.625
    1C        C  553   2.829   4.286   3.744
    1C        C  554   2.703   4.118   3.874
    1C        C  555   2.787   4.232   3.867
    1C        C  556   2.664   4.059   3.996
    1C        C  557   2.700   4.124   4.116
    1C        C  558   2.596   3.944   4.244
    1C        C  559   2.659   4.071   4.240
    1C        C  560   2.562   3.880   4.366
    1C        C  561   2.593   3.945   4.487
    1C        C  562   2.529   3.745   4.613
    1C        C  563   2.568   3.881   4.610
    1C        C  564   2.512   3.678   4.736
    1C        C  565   2.514   3.757   4.855
    1C        C  566   2.521   3.542   4.980
    1C        C  567   2.533   3.680   4.971
    1C        C  568   3.326   4.474   2.043
    1C        C  569   3.394   4.515   2.158
    1C        C  570   3.178   4.477   2.279
    1C        C  571   3.317   4.510   2.277
    1C        C  572   3.111   4.459   2.402
    1C        C  573   3.181   4.484   2.523
    1C        C  574   2.988   4.399   2.646
    1C        C  575   3.114   4.462   2.645
    1C        C  576   2.930   4.357   2.768
    1C        C  577   2.994   4.393   2.888
    1C        C  578   2.825   4.268   3.014
    1C        C  579   2.935   4.357   3.012
    1C        C  580   2.778   4.215   3.136
    1C        C  581   2.831   4.267   3.256
    1C        C  582   2.697   4.109   3.382
    1C        C  583   2.784   4.220   3.381
    1C        C  584   2.658   4.056   3.507
    1C        C  585   2.695   4.115   3.630
    1C        C  586   2.590   3.934   3.757
    1C        C  587   2.661   4.056   3.754
    1C        C  588   2.567   3.867   3.879
    1C        C  589   2.603   3.932   4.000
    1C        C  590   2.537   3.736   4.128
    1C        C  591   2.581   3.870   4.125
    1C        C  592   2.522   3.669   4.251
    1C        C  593   2.524   3.744   4.371
    1C        C  594   2.505   3.532   4.492
    1C        C  595   2.511   3.673   4.493
    1C        C  596   2.514   3.466   4.616
    1C        C  597   2.512   3.536   4.739
    1C        C  598   2.532   3.327   4.858
    1C        C  599   2.514   3.466   4.862
    1C        C  600   2.525   3.249   4.974
    1C        C  601   3.193   4.439   2.042
    1C        C  602   2.980   4.387   2.157
    1C        C  603   3.115   4.435   2.159
    1C        C  604   2.919   4.357   2.282
    1C        C  605   2.984   4.397   2.400
    1C        C  606   2.825   4.262   2.525
    1C        C  607   2.928   4.358   2.524
    1C        C  608   2.773   4.215   2.648
    1C        C  609   2.819   4.269   2.770
    1C        C  610   2.683   4.108   2.894
    1C        C  611   2.772   4.217   2.893
    1C        C  612   2.653   4.047   3.018
    1C        C  613   2.694   4.102   3.141
    1C        C  614   2.589   3.919   3.265
    1C        C  615   2.652   4.045   3.264
    1C        C  616   2.566   3.863   3.393
    1C        C  617   2.597   3.929   3.514
    1C        C  618   2.525   3.729   3.638
    1C        C  619   2.569   3.864   3.636
    1C        C  620   2.511   3.662   3.761
    1C        C  621   2.525   3.732   3.883
    1C        C  622   2.507   3.525   4.007
    1C        C  623   2.515   3.666   4.007
    1C        C  624   2.517   3.454   4.129
    1C        C  625   2.516   3.528   4.249
    1C        C  626   2.536   3.320   4.376
    1C        C  627   2.508   3.458   4.372
    1C        C  628   2.556   3.252   4.499
    1C        C  629   2.532   3.326   4.617
    1C        C  630   2.589   3.118   4.739
    1C        C  631   2.542   3.253   4.738
    1C        C  632   2.610   3.048   4.860
    1C        C  633   2.557   3.112   4.977
    1C        C  634   2.777   4.305   2.054
    1C        C  635   2.887   4.391   2.049
    1C        C  636   2.747   4.225   2.165
    1C        C  637   2.808   4.269   2.284
    1C        C  638   2.681   4.100   2.407
    1C        C  639   2.765   4.214   2.407
    1C        C  640   2.646   4.041   2.530
    1C        C  641   2.683   4.106   2.649
    1C        C  642   2.589   3.919   2.777
    1C        C  643   2.642   4.050   2.772
    1C        C  644   2.565   3.851   2.898
    1C        C  645   2.593   3.918   3.020
    1C        C  646   2.527   3.718   3.147
    1C        C  647   2.564   3.855   3.142
    1C        C  648   2.511   3.654   3.271
    1C        C  649   2.524   3.728   3.391
    1C        C  650   2.505   3.520   3.516
    1C        C  651   2.515   3.661   3.515
    1C        C  652   2.508   3.452   3.640
    1C        C  653   2.507   3.521   3.763
    1C        C  654   2.524   3.312   3.887
    1C        C  655   2.503   3.452   3.886
    1C        C  656   2.547   3.246   4.010
    1C        C  657   2.533   3.314   4.132
    1C        C  658   2.597   3.114   4.256
    1C        C  659   2.550   3.247   4.256
    1C        C  660   2.627   3.050   4.378
    1C        C  661   2.599   3.118   4.499
    1C        C  662   2.712   2.940   4.623
    1C        C  663   2.626   3.051   4.620
    1C        C  664   2.751   2.878   4.745
    1C        C  665   2.693   2.932   4.863
    1C        C  666   2.738   2.868   4.980
    1C        C  667   2.668   4.022   2.049
    1C        C  668   2.679   4.101   2.164
    1C        C  669   2.594   3.904   2.288
    1C        C  670   2.645   4.037   2.286
    1C        C  671   2.559   3.846   2.412
    1C        C  672   2.583   3.914   2.533
    1C        C  673   2.519   3.715   2.656
    1C        C  674   2.560   3.850   2.657
    1C        C  675   2.509   3.645   2.779
    1C        C  676   2.521   3.717   2.900
    1C        C  677   2.507   3.509   3.028
    1C        C  678   2.513   3.650   3.024
    1C        C  679   2.502   3.440   3.151
    1C        C  680   2.501   3.513   3.273
    1C        C  681   2.528   3.305   3.399
    1C        C  682   2.504   3.445   3.396
    1C        C  683   2.555   3.244   3.523
    1C        C  684   2.537   3.314   3.645
    1C        C  685   2.601   3.111   3.768
    1C        C  686   2.547   3.242   3.766
    1C        C  687   2.638   3.052   3.891
    1C        C  688   2.599   3.114   4.012
    1C        C  689   2.715   2.937   4.136
    1C        C  690   2.635   3.053   4.134
    1C        C  691   2.757   2.882   4.259
    1C        C  692   2.710   2.936   4.380
    1C        C  693   2.753   2.879   4.502
    1C        C  694   2.622   3.890   2.050
    1C        C  695   2.535   3.696   2.174
    1C        C  696   2.585   3.827   2.170
    1C        C  697   2.511   3.633   2.298
    1C        C  698   2.519   3.710   2.415
    1C        C  699   2.485   3.501   2.539
    1C        C  700   2.499   3.642   2.537
    1C        C  701   2.498   3.433   2.662
    1C        C  702   2.498   3.505   2.783
    1C        C  703   2.524   3.296   2.908
    1C        C  704   2.505   3.436   2.907
    1C        C  705   2.541   3.231   3.032
    1C        C  706   2.524   3.301   3.153
    1C        C  707   2.596   3.104   3.278
    1C        C  708   2.543   3.235   3.277
    1C        C  709   2.636   3.048   3.401
    1C        C  710   2.608   3.113   3.524
    1C        C  711   2.707   2.928   3.644
    1C        C  712   2.631   3.047   3.646
    1C        C  713   2.757   2.878   3.767
    1C        C  714   2.713   2.933   3.889
    1C        C  715   2.756   2.879   4.013
    1C        C  716   2.441   3.494   2.066
    1C        C  717   2.493   3.624   2.061
    1C        C  718   2.454   3.414   2.184
    1C        C  719   2.479   3.494   2.299
    1C        C  720   2.507   3.286   2.422
    1C        C  721   2.477   3.424   2.421
    1C        C  722   2.534   3.222   2.545
    1C        C  723   2.524   3.294   2.666
    1C        C  724   2.590   3.092   2.788
    1C        C  725   2.544   3.225   2.788
    1C        C  726   2.626   3.034   2.912
    1C        C  727   2.593   3.099   3.033
    1C        C  728   2.707   2.923   3.156
    1C        C  729   2.624   3.038   3.156
    1C        C  730   2.750   2.871   3.280
    1C        C  731   2.713   2.930   3.402
    1C        C  732   2.754   2.871   3.524
    1C        C  733   2.483   3.192   2.070
    1C        C  734   2.477   3.273   2.185
    1C        C  735   2.582   3.081   2.304
    1C        C  736   2.519   3.208   2.304
    1C        C  737   2.609   3.016   2.426
    1C        C  738   2.586   3.091   2.544
    1C        C  739   2.691   2.906   2.668
    1C        C  740   2.620   3.028   2.666
    1C        C  741   2.737   2.852   2.790
    1C        C  742   2.704   2.916   2.912
    1C        C  743   2.749   2.863   3.035
    1C        C  744   2.543   3.066   2.073
    1C        C  745   2.684   2.893   2.183
    1C        C  746   2.614   3.015   2.182
    1C        C  747   2.729   2.835   2.304
    1C        C  748   2.685   2.897   2.423
    1C        C  749   2.731   2.846   2.547
    1C        C  750   2.737   2.836   2.067
    1C        C  751   3.660   2.309   1.976
    1C        O  752   3.664   2.189   2.015
    1C        O  753   3.649   2.314   1.837
    1C        C  754   4.625   3.056   1.972
    1C        O  755   4.597   3.044   1.850
    1C        O  756   4.752   3.014   2.014
    1C        C  757   4.469   4.210   1.979
    1C        O  758   4.553   4.276   2.045
    1C        O  759   4.428   4.271   1.860
    1C        C  760   3.579   4.652   1.935
    1C        O  761   3.578   4.772   1.974
    1C        O  762   3.618   4.638   1.801
    1C        C  763   2.890   4.473   1.925
    1C        O  764   2.892   4.417   1.812
    1C        O  765   2.800   4.579   1.908
    1C        C  766   2.308   3.486   2.001
    1C        O  767   2.294   3.511   1.878
    1C        O  768   2.199   3.422   2.061
    1C        C  769   4.693   3.592   5.040
    1C        O  770   4.697   3.537   5.154
    1C        O  771   4.822   3.599   4.986
    1C        C  772   4.284   4.457   5.014
    1C        O  773   4.280   4.461   5.140
    1C        O  774   4.352   4.567   4.959
    1C        C  775   4.139   2.493   5.058
    1C        O  776   4.158   2.373   5.023
    1C        O  777   4.230   2.545   5.151
    1C        C  778   2.909   4.526   5.068
    1C        O  779   2.822   4.617   5.068
    1C        O  780   2.980   4.513   5.188
    1C        C  781   2.462   3.043   5.067
    1C        O  782   2.344   3.005   5.049
    1C        O  783   2.492   3.038   5.203
    1C        C  784   2.410   3.987   5.040
    1C        O  785   2.304   4.049   5.012
    1C        O  786   2.409   3.937   5.171
    1C        C  787   2.942   2.432   2.001
    1C        O  788   2.932   2.443   1.876
    1C        O  789   2.879   2.314   2.039
    1C        C  790   3.159   2.371   5.052
    1C        O  791   3.194   2.257   5.013
    1C        O  792   3.127   2.362   5.189
    1C        H  793   4.262   3.024   5.053
    1C        H  794   4.160   2.814   5.064
    1C        H  795   4.492   3.129   5.059
    1C        H  796   4.559   3.360   5.060
    1C        H  797   4.505   3.796   5.055
    1C        H  798   4.438   3.998   5.049
    1C        H  799   4.255   4.153   5.048
    1C        H  800   4.023   4.524   5.032
    1C        H  801   3.815   4.620   5.028
    1C        H  802   3.581   4.661   5.017
    1C        H  803   3.398   4.455   5.019
    1C        H  804   3.154   4.502   5.051
    1C        H  805   3.871   2.524   5.068
    1C        H  806   3.667   2.409   5.053
    1C        H  807   3.000   2.543   5.060
    1C        H  808   3.446   2.469   5.078
    1C        H  809   2.910   2.792   5.063
    1C        H  810   2.663   2.861   5.057
    1C        H  811   2.526   3.303   5.066
    1C        H  812   2.513   3.505   5.080
    1C        H  813   2.585   3.728   5.051
    1C        H  814   2.585   4.180   5.039
    1C        H  815   2.721   4.365   5.025
    1C        H  816   2.699   2.863   1.970
    1C        H  817   2.873   2.697   1.976
    1C        H  818   3.198   2.387   2.015
    1C        H  819   3.430   2.426   1.976
    1C        H  820   3.847   2.525   1.972
    1C        H  821   4.076   2.565   1.977
    1C        H  822   4.232   2.738   1.965
    1C        H  823   4.369   2.924   1.963
    1C        H  824   4.586   3.306   1.968
    1C        H  825   4.447   3.516   1.974
    1C        H  826   4.479   3.746   1.953
    1C        H  827   3.809   4.565   1.971
    1C        H  828   3.938   4.325   1.964
    1C        H  829   4.183   4.292   1.948
    1C        H  830   4.479   3.955   1.957
    1C        H  831   2.629   3.837   1.957
    1C        H  832   2.702   4.051   1.952
    1C        H  833   2.705   4.302   1.974
    1C        H  834   3.384   4.435   1.962
    1C        H  835   3.156   4.411   1.945
    1C        H  836   2.548   3.013   1.980
    1C        H  837   2.461   3.230   1.973
    1C        H  838   2.473   3.675   1.969
    2V3OU   H29  839   2.808   3.543   0.857
    2V3OU   C27  840   2.783   3.497   0.955
    2V3OU   H27  841   2.725   3.576   1.009
    2V3OU   H28  842   2.727   3.401   0.940
    2V3OU   O11  843   2.905   3.475   1.028
    2V3OU   C15  844   2.922   3.393   1.137
    2V3OU   C13  845   3.050   3.373   1.194
    2V3OU   C14  846   3.073   3.263   1.278
    2V3OU   C16  847   2.965   3.183   1.314
    2V3OU    H6  848   2.987   3.095   1.376
    2V3OU   C12  849   3.214   3.227   1.306
    2V3OU    O2  850   3.242   3.121   1.367
    2V3OU   C10  851   3.329   3.309   1.265
    2V3OU    C8  852   3.459   3.268   1.290
    2V3OU   O10  853   3.492   3.148   1.346
    2V3OU   H26  854   3.405   3.114   1.372
    2V3OU    C6  855   3.564   3.351   1.240
    2V3OU    C5  856   3.537   3.466   1.166
    2V3OU    C4  857   3.702   3.296   1.244
    2V3OU    H4  858   3.723   3.233   1.335
    2V3OU    H5  859   3.711   3.229   1.154
    2V3OU    C2  860   3.817   3.398   1.236
    2V3OU    O6  861   3.807   3.470   1.359
    2V3OU   H21  862   3.761   3.552   1.338
    2V3OU    C3  863   3.785   3.495   1.123
    2V3OU    H2  864   3.867   3.570   1.113
    2V3OU    H3  865   3.785   3.435   1.028
    2V3OU   C25  866   3.947   3.321   1.215
    2V3OU    O7  867   3.992   3.291   1.104
    2V3OU   C26  868   4.032   3.283   1.336
    2V3OU   H22  869   4.069   3.383   1.367
    2V3OU   H23  870   4.119   3.221   1.303
    2V3OU    O8  871   3.959   3.207   1.430
    2V3OU   H24  872   3.925   3.266   1.500
    2V3OU    C1  873   3.649   3.562   1.139
    2V3OU    H1  874   3.623   3.614   1.042
    2V3OU    O3  875   3.652   3.656   1.247
    2V3OU   C19  876   3.613   3.791   1.226
    2V3OU    H9  877   3.518   3.809   1.167
    2V3OU    O4  878   3.709   3.846   1.139
    2V3OU   C20  879   3.841   3.872   1.187
    2V3OU   H10  880   3.890   3.770   1.190
    2V3OU   C24  881   3.608   3.861   1.363
    2V3OU   H16  882   3.542   3.800   1.428
    2V3OU   H17  883   3.566   3.962   1.339
    2V3OU   C23  884   3.750   3.875   1.417
    2V3OU   H15  885   3.791   3.770   1.433
    2V3OU    N1  886   3.738   3.952   1.540
    2V3OU   H19  887   3.808   3.923   1.606
    2V3OU   H20  888   3.647   3.934   1.576
    2V3OU   C21  889   3.847   3.949   1.319
    2V3OU   H11  890   3.953   3.929   1.352
    2V3OU    O5  891   3.828   4.090   1.312
    2V3OU   H18  892   3.775   4.103   1.392
    2V3OU   C22  893   3.911   3.948   1.075
    2V3OU   H12  894   3.858   4.046   1.062
    2V3OU   H13  895   3.903   3.890   0.980
    2V3OU   H14  896   4.021   3.956   1.096
    2V3OU   C11  897   3.159   3.469   1.172
    2V3OU    O1  898   3.130   3.584   1.134
    2V3OU    C9  899   3.300   3.426   1.191
    2V3OU    C7  900   3.402   3.506   1.141
    2V3OU    O9  901   3.384   3.616   1.060
    2V3OU   H25  902   3.289   3.633   1.056
    2V3OU   C17  903   2.815   3.316   1.188
    2V3OU    H7  904   2.711   3.339   1.167
    2V3OU   C18  905   2.834   3.211   1.276
    2V3OU    H8  906   2.754   3.144   1.312
    3SOL     OW  907   0.579   4.487   0.738
    3SOL    HW1  908   0.553   4.398   0.699
    3SOL    HW2  909   0.670   4.480   0.777
    4SOL     OW  910   5.886   1.174   2.068
    4SOL    HW1  911   5.874   1.230   1.987
    4SOL    HW2  912   5.843   1.084   2.053
    5SOL     OW  913   3.754   2.974   1.198
    5SOL    HW1  914   3.840   2.959   1.247
    5SOL    HW2  915   3.683   2.917   1.239
    6SOL     OW  916   2.784   2.208   0.359
    6SOL    HW1  917   2.740   2.128   0.400
    6SOL    HW2  918   2.736   2.233   0.275
    7SOL     OW  919   6.063   1.032   1.555
    7SOL    HW1  920   6.019   1.021   1.644
    7SOL    HW2  921   5.994   1.058   1.487
    8SOL     OW  922   3.302   1.916   3.555
    8SOL    HW1  923   3.311   1.816   3.557
    8SOL    HW2  924   3.228   1.943   3.617
    9SOL     OW  925   6.775   4.281   5.986
    9SOL    HW1  926   6.701   4.326   6.037
    9SOL    HW2  927   6.795   4.332   5.903
   10SOL     OW  928   0.218   4.666   0.892
   10SOL    HW1  929   0.294   4.691   0.952
   10SOL    HW2  930   0.198   4.568   0.902
   11SOL     OW  931   4.102   6.941   6.833
   11SOL    HW1  932   4.181   6.883   6.856
   11SOL    HW2  933   4.020   6.904   6.876
   12SOL     OW  934   5.172   6.577   2.665
   12SOL    HW1  935   5.108   6.652   2.680
   12SOL    HW2  936   5.254   6.611   2.619
   13SOL     OW  937   1.699   0.385   2.820
   13SOL    HW1  938   1.722   0.288   2.816
   13SOL    HW2  939   1.600   0.395   2.809
   14SOL     OW  940   2.818   6.682   3.015
   14SOL    HW1  941   2.881   6.717   2.946
   14SOL    HW2  942   2.819   6.582   3.013
   15SOL     OW  943   2.384   6.385   6.306
   15SOL    HW1  944   2.292   6.410   6.336
   15SOL    HW2  945   2.450   6.412   6.376
   16SOL     OW  946   6.423   2.248   0.135
   16SOL    HW1  947   6.483   2.269   0.212
   16SOL    HW2  948   6.332   2.225   0.169
   17SOL     OW  949   4.009   6.105   2.770
   17SOL    HW1  950   4.064   6.057   2.838
   17SOL    HW2  951   3.934   6.153   2.816
   18SOL     OW  952   1.387   0.672   6.840
   18SOL    HW1  953   1.475   0.683   6.887
   18SOL    HW2  954   1.314   0.664   6.907
   19SOL     OW  955   0.952   6.889   1.158
   19SOL    HW1  956   1.032   6.933   1.119
   19SOL    HW2  957   0.932   6.930   1.247
   20SOL     OW  958   3.402   0.808   3.998
   20SOL    HW1  959   3.422   0.790   4.094
   20SOL    HW2  960   3.482   0.786   3.942
   21SOL     OW  961   3.016   3.009   1.881
   21SOL    HW1  962   3.037   3.082   1.816
   21SOL    HW2  963   2.948   2.948   1.842
   22SOL     OW  964   0.710   1.279   5.647
   22SOL    HW1  965   0.741   1.184   5.640
   22SOL    HW2  966   0.704   1.304   5.744
   23SOL     OW  967   3.158   6.146   4.800
   23SOL    HW1  968   3.225   6.197   4.853
   23SOL    HW2  969   3.175   6.048   4.810
   24SOL     OW  970   4.128   1.387   4.902
   24SOL    HW1  971   4.133   1.484   4.880
   24SOL    HW2  972   4.044   1.368   4.952
   25SOL     OW  973   2.258   5.455   0.881
   25SOL    HW1  974   2.218   5.379   0.933
   25SOL    HW2  975   2.357   5.457   0.896
   26SOL     OW  976   5.750   1.048   2.865
   26SOL    HW1  977   5.720   1.066   2.772
   26SOL    HW2  978   5.739   1.130   2.921
   27SOL     OW  979   6.329   0.207   2.646
   27SOL    HW1  980   6.262   0.197   2.719
   27SOL    HW2  981   6.386   0.125   2.642
   28SOL     OW  982   2.791   0.488   0.256
   28SOL    HW1  983   2.809   0.486   0.354
   28SOL    HW2  984   2.715   0.550   0.236
   29SOL     OW  985   4.376   2.972   1.712
   29SOL    HW1  986   4.455   3.022   1.746
   29SOL    HW2  987   4.393   2.873   1.721
   30SOL     OW  988   4.313   1.231   5.231
   30SOL    HW1  989   4.225   1.272   5.256
   30SOL    HW2  990   4.331   1.249   5.134
   31SOL     OW  991   0.829   1.298   5.390
   31SOL    HW1  992   0.821   1.394   5.362
   31SOL    HW2  993   0.772   1.282   5.471
   32SOL     OW  994   6.874   2.190   2.225
   32SOL    HW1  995   6.788   2.224   2.261
   32SOL    HW2  996   6.930   2.267   2.192
   33SOL     OW  997   1.781   1.513   5.607
   33SOL    HW1  998   1.810   1.439   5.546
   33SOL    HW2  999   1.774   1.479   5.700
   34SOL     OW 1000   0.605   1.050   5.219
   34SOL    HW1 1001   0.703   1.032   5.208
   34SOL    HW2 1002   0.552   0.989   5.160
   35SOL     OW 1003   4.362   1.947   6.359
   35SOL    HW1 1004   4.312   1.861   6.350
   35SOL    HW2 1005   4.309   2.010   6.416
   36SOL     OW 1006   1.325   1.765   5.807
   36SOL    HW1 1007   1.308   1.778   5.709
   36SOL    HW2 1008   1.242   1.788   5.858
   37SOL     OW 1009   2.522   6.597   1.318
   37SOL    HW1 1010   2.603   6.640   1.277
   37SOL    HW2 1011   2.490   6.523   1.258
   38SOL     OW 1012   0.105   6.001   1.966
   38SOL    HW1 1013   0.063   6.085   2.001
   38SOL    HW2 1014   0.144   5.949   2.042
   39SOL     OW 1015   6.733   2.777   6.381
   39SOL    HW1 1016   6.794   2.842   6.334
   39SOL    HW2 1017   6.652   2.762   6.326
   40SOL     OW 1018   6.895   1.394   1.331
   40SOL    HW1 1019   6.880   1.387   1.232
   40SOL    HW2 1020   6.807   1.407   1.376
   41SOL     OW 1021   1.573   1.033   6.023
   41SOL    HW1 1022   1.566   1.122   5.979
   41SOL    HW2 1023   1.482   1.003   6.053
   42SOL     OW 1024   3.712   0.362   0.647
   42SOL    HW1 1025   3.652   0.442   0.642
   42SOL    HW2 1026   3.750   0.344   0.556
   43SOL     OW 1027   4.413   5.454   5.348
   43SOL    HW1 1028   4.509   5.439   5.373
   43SOL    HW2 1029   4.391   5.403   5.265
   44SOL     OW 1030   0.885   4.114   6.970
   44SOL    HW1 1031   0.806   4.053   6.968
   44SOL    HW2 1032   0.969   4.060   6.974
   45SOL     OW 1033   2.385   0.479   1.117
   45SOL    HW1 1034   2.463   0.419   1.135
   45SOL    HW2 1035   2.390   0.559   1.176
   46SOL     OW 1036   1.026   5.219   4.332
   46SOL    HW1 1037   1.101   5.258   4.278
   46SOL    HW2 1038   1.064   5.157   4.401
   47SOL     OW 1039   5.611   4.265   2.718
   47SOL    HW1 1040   5.592   4.305   2.628
   47SOL    HW2 1041   5.541   4.197   2.739
   48SOL     OW 1042   0.739   1.003   5.613
   48SOL    HW1 1043   0.656   1.034   5.566
   48SOL    HW2 1044   0.727   0.908   5.642
   49SOL     OW 1045   5.508   3.670   0.348
   49SOL    HW1 1046   5.592   3.714   0.314
   49SOL    HW2 1047   5.437   3.676   0.277
   50SOL     OW 1048   0.153   3.983   4.865
   50SOL    HW1 1049   0.250   3.997   4.845
   50SOL    HW2 1050   0.098   4.036   4.800
   51SOL     OW 1051   3.865   5.492   1.797
   51SOL    HW1 1052   3.830   5.453   1.883
   51SOL    HW2 1053   3.806   5.567   1.769
   52SOL     OW 1054   0.762   2.391   2.169
   52SOL    HW1 1055   0.775   2.376   2.071
   52SOL    HW2 1056   0.718   2.480   2.184
   53SOL     OW 1057   5.059   6.244   4.191
   53SOL    HW1 1058   5.106   6.175   4.244
   53SOL    HW2 1059   5.074   6.227   4.093
   54SOL     OW 1060   5.271   4.572   5.487
   54SOL    HW1 1061   5.323   4.507   5.543
   54SOL    HW2 1062   5.292   4.665   5.516
   55SOL     OW 1063   3.810   1.872   0.878
   55SOL    HW1 1064   3.859   1.786   0.892
   55SOL    HW2 1065   3.712   1.852   0.870
   56SOL     OW 1066   0.521   6.976   1.635
   56SOL    HW1 1067   0.477   6.945   1.719
   56SOL    HW2 1068   0.620   6.980   1.648
   57SOL     OW 1069   5.635   1.053   1.421
   57SOL    HW1 1070   5.728   1.067   1.386
   57SOL    HW2 1071   5.577   1.017   1.349
   58SOL     OW 1072   6.732   0.150   6.747
   58SOL    HW1 1073   6.704   0.239   6.713
   58SOL    HW2 1074   6.787   0.104   6.678
   59SOL     OW 1075   0.691   0.341   5.170
   59SOL    HW1 1076   0.613   0.305   5.220
   59SOL    HW2 1077   0.689   0.441   5.172
   60SOL     OW 1078   5.114   6.856   4.848
   60SOL    HW1 1079   5.123   6.908   4.933
   60SOL    HW2 1080   5.144   6.914   4.771
   61SOL     OW 1081   4.049   6.998   5.193
   61SOL    HW1 1082   4.029   7.018   5.097
   61SOL    HW2 1083   4.078   0.061   5.239
   62SOL     OW 1084   2.993   0.811   5.226
   62SOL    HW1 1085   2.950   0.779   5.311
   62SOL    HW2 1086   2.990   0.910   5.222
   63SOL     OW 1087   6.792   3.220   3.677
   63SOL    HW1 1088   6.833   3.129   3.685
   63SOL    HW2 1089   6.786   3.246   3.580
   64SOL     OW 1090   0.001   2.253   5.368
   64SOL    HW1 1091   0.060   2.190   5.418
   64SOL    HW2 1092   0.045   2.277   5.281
   65SOL     OW 1093   1.093   3.624   6.073
   65SOL    HW1 1094   1.118   3.529   6.092
   65SOL    HW2 1095   1.050   3.630   5.983
   66SOL     OW 1096   2.340   0.846   0.894
   66SOL    HW1 1097   2.328   0.757   0.850
   66SOL    HW2 1098   2.295   0.916   0.839
   67SOL     OW 1099   4.709   5.563   4.168
   67SOL    HW1 1100   4.620   5.578   4.210
   67SOL    HW2 1101   4.749   5.651   4.142
   68SOL     OW 1102   5.564   2.559   6.964
   68SOL    HW1 1103   5.615   2.492   6.910
   68SOL    HW2 1104   5.476   2.521   6.992
   69SOL     OW 1105   2.454   2.503   6.024
   69SOL    HW1 1106   2.366   2.551   6.021
   69SOL    HW2 1107   2.455   2.432   5.953
   70SOL     OW 1108   6.102   6.663   2.544
   70SOL    HW1 1109   6.031   6.610   2.591
   70SOL    HW2 1110   6.094   6.759   2.570
   71SOL     OW 1111   1.843   4.285   2.473
   71SOL    HW1 1112   1.857   4.235   2.387
   71SOL    HW2 1113   1.749   4.273   2.504
   72SOL     OW 1114   3.580   5.154   3.575
   72SOL    HW1 1115   3.603   5.246   3.605
   72SOL    HW2 1116   3.622   5.087   3.636
   73SOL     OW 1117   3.654   2.642   6.647
   73SOL    HW1 1118   3.590   2.646   6.570
   73SOL    HW2 1119   3.727   2.709   6.633
   74SOL     OW 1120   5.095   6.986   6.282
   74SOL    HW1 1121   5.124   6.890   6.288
   74SOL    HW2 1122   5.159   0.024   6.330
   75SOL     OW 1123   3.332   4.949   5.407
   75SOL    HW1 1124   3.346   4.858   5.368
   75SOL    HW2 1125   3.349   5.018   5.337
   76SOL     OW 1126   2.612   2.990   1.071
   76SOL    HW1 1127   2.555   3.073   1.078
   76SOL    HW2 1128   2.557   2.910   1.094
   77SOL     OW 1129   5.683   4.521   6.361
   77SOL    HW1 1130   5.628   4.449   6.319
   77SOL    HW2 1131   5.630   4.606   6.365
   78SOL     OW 1132   5.835   6.594   6.071
   78SOL    HW1 1133   5.859   6.597   5.974
   78SOL    HW2 1134   5.736   6.600   6.081
   79SOL     OW 1135   3.215   7.003   0.561
   79SOL    HW1 1136   3.263   6.927   0.518
   79SOL    HW2 1137   3.262   0.069   0.542
   80SOL     OW 1138   0.424   0.970   4.600
   80SOL    HW1 1139   0.367   1.050   4.579
   80SOL    HW2 1140   0.519   0.999   4.611
   81SOL     OW 1141   1.729   0.306   3.453
   81SOL    HW1 1142   1.706   0.210   3.438
   81SOL    HW2 1143   1.672   0.364   3.395
   82SOL     OW 1144   6.676   4.518   5.892
   82SOL    HW1 1145   6.750   4.583   5.875
   82SOL    HW2 1146   6.604   4.564   5.944
   83SOL     OW 1147   6.402   6.498   5.918
   83SOL    HW1 1148   6.467   6.570   5.893
   83SOL    HW2 1149   6.428   6.413   5.873
   84SOL     OW 1150   6.303   3.973   1.601
   84SOL    HW1 1151   6.223   4.016   1.643
   84SOL    HW2 1152   6.288   3.964   1.502
   85SOL     OW 1153   0.942   0.738   5.417
   85SOL    HW1 1154   1.005   0.795   5.365
   85SOL    HW2 1155   0.867   0.794   5.452
   86SOL     OW 1156   2.284   1.002   4.570
   86SOL    HW1 1157   2.321   0.940   4.640
   86SOL    HW2 1158   2.290   1.096   4.602
   87SOL     OW 1159   4.481   0.065   1.980
   87SOL    HW1 1160   4.462   0.098   1.887
   87SOL    HW2 1161   4.401   0.078   2.037
   88SOL     OW 1162   6.119   0.788   1.267
   88SOL    HW1 1163   6.160   0.845   1.196
   88SOL    HW2 1164   6.019   0.793   1.261
   89SOL     OW 1165   2.173   1.557   5.385
   89SOL    HW1 1166   2.155   1.599   5.297
   89SOL    HW2 1167   2.114   1.597   5.455
   90SOL     OW 1168   6.759   5.783   3.552
   90SOL    HW1 1169   6.810   5.857   3.596
   90SOL    HW2 1170   6.661   5.799   3.562
   91SOL     OW 1171   4.415   4.921   4.619
   91SOL    HW1 1172   4.349   4.865   4.670
   91SOL    HW2 1173   4.456   4.989   4.681
   92SOL     OW 1174   2.953   6.021   1.602
   92SOL    HW1 1175   2.908   5.990   1.686
   92SOL    HW2 1176   2.980   5.942   1.548
   93SOL     OW 1177   3.140   4.629   5.786
   93SOL    HW1 1178   3.063   4.669   5.736
   93SOL    HW2 1179   3.226   4.667   5.749
   94SOL     OW 1180   2.222   6.706   1.751
   94SOL    HW1 1181   2.186   6.799   1.742
   94SOL    HW2 1182   2.206   6.672   1.844
   95SOL     OW 1183   6.664   0.046   5.008
   95SOL    HW1 1184   6.635   6.986   5.061
   95SOL    HW2 1185   6.755   0.030   4.971
   96SOL     OW 1186   1.947   6.831   5.020
   96SOL    HW1 1187   1.956   6.847   4.922
   96SOL    HW2 1188   1.890   6.750   5.035
   97SOL     OW 1189   5.971   3.123   4.510
   97SOL    HW1 1190   6.029   3.071   4.448
   97SOL    HW2 1191   5.957   3.070   4.594
   98SOL     OW 1192   5.765   1.472   5.927
   98SOL    HW1 1193   5.772   1.532   6.006
   98SOL    HW2 1194   5.704   1.395   5.949
   99SOL     OW 1195   5.071   1.820   0.993
   99SOL    HW1 1196   5.045   1.743   1.051
   99SOL    HW2 1197   5.064   1.905   1.045
  100SOL     OW 1198   6.071   5.579   6.658
  100SOL    HW1 1199   6.002   5.650   6.673
  100SOL    HW2 1200   6.161   5.615   6.684
  101SOL     OW 1201   1.058   6.741   4.666
  101SOL    HW1 1202   1.151   6.726   4.632
  101SOL    HW2 1203   1.007   6.655   4.661
  102SOL     OW 1204   4.158   0.288   3.331
  102SOL    HW1 1205   4.095   0.365   3.322
  102SOL    HW2 1206   4.113   0.214   3.381
  103SOL     OW 1207   3.398   1.899   1.679
  103SOL    HW1 1208   3.457   1.862   1.607
  103SOL    HW2 1209   3.442   1.979   1.720
  104SOL     OW 1210   0.437   6.368   2.119
  104SOL    HW1 1211   0.387   6.291   2.158
  104SOL    HW2 1212   0.419   6.373   2.021
  105SOL     OW 1213   5.325   1.125   6.117
  105SOL    HW1 1214   5.381   1.055   6.072
  105SOL    HW2 1215   5.243   1.141   6.062
  106SOL     OW 1216   3.298   6.518   1.202
  106SOL    HW1 1217   3.363   6.592   1.222
  106SOL    HW2 1218   3.340   6.454   1.138
  107SOL     OW 1219   2.424   3.023   0.732
  107SOL    HW1 1220   2.413   3.017   0.632
  107SOL    HW2 1221   2.519   3.001   0.756
  108SOL     OW 1222   4.771   4.050   4.870
  108SOL    HW1 1223   4.790   4.028   4.966
  108SOL    HW2 1224   4.678   4.021   4.847
  109SOL     OW 1225   5.746   0.827   1.510
  109SOL    HW1 1226   5.790   0.822   1.599
  109SOL    HW2 1227   5.698   0.915   1.501
  110SOL     OW 1228   3.490   6.124   4.532
  110SOL    HW1 1229   3.470   6.028   4.548
  110SOL    HW2 1230   3.437   6.157   4.455
  111SOL     OW 1231   3.240   1.421   3.217
  111SOL    HW1 1232   3.165   1.360   3.192
  111SOL    HW2 1233   3.271   1.399   3.310
  112SOL     OW 1234   6.520   1.383   6.644
  112SOL    HW1 1235   6.493   1.435   6.724
  112SOL    HW2 1236   6.618   1.396   6.626
  113SOL     OW 1237   6.837   6.542   3.441
  113SOL    HW1 1238   6.826   6.578   3.349
  113SOL    HW2 1239   6.865   6.615   3.503
  114SOL     OW 1240   1.149   6.310   0.454
  114SOL    HW1 1241   1.236   6.296   0.501
  114SOL    HW2 1242   1.163   6.370   0.376
  115SOL     OW 1243   5.294   0.481   5.503
  115SOL    HW1 1244   5.393   0.472   5.497
  115SOL    HW2 1245   5.250   0.398   5.468
  116SOL     OW 1246   6.463   4.137   2.682
  116SOL    HW1 1247   6.368   4.108   2.694
  116SOL    HW2 1248   6.518   4.059   2.653
  117SOL     OW 1249   0.980   6.824   6.624
  117SOL    HW1 1250   1.079   6.838   6.628
  117SOL    HW2 1251   0.943   6.821   6.717
  118SOL     OW 1252   2.149   1.099   2.914
  118SOL    HW1 1253   2.192   1.161   2.980
  118SOL    HW2 1254   2.050   1.102   2.925
  119SOL     OW 1255   6.599   2.529   6.474
  119SOL    HW1 1256   6.636   2.621   6.463
  119SOL    HW2 1257   6.609   2.479   6.389
  120SOL     OW 1258   5.248   6.608   1.515
  120SOL    HW1 1259   5.210   6.673   1.580
  120SOL    HW2 1260   5.347   6.620   1.510
  121SOL     OW 1261   2.763   2.898   5.817
  121SOL    HW1 1262   2.798   2.809   5.788
  121SOL    HW2 1263   2.666   2.905   5.792
  122SOL     OW 1264   0.767   3.642   4.635
  122SOL    HW1 1265   0.802   3.566   4.580
  122SOL    HW2 1266   0.825   3.722   4.619
  123SOL     OW 1267   0.115   2.320   2.141
  123SOL    HW1 1268   0.071   2.402   2.105
  123SOL    HW2 1269   0.207   2.312   2.104
  124SOL     OW 1270   4.779   3.815   1.251
  124SOL    HW1 1271   4.871   3.826   1.288
  124SOL    HW2 1272   4.758   3.891   1.190
  125SOL     OW 1273   2.234   3.629   1.641
  125SOL    HW1 1274   2.231   3.729   1.639
  125SOL    HW2 1275   2.277   3.598   1.725
  126SOL     OW 1276   4.107   4.255   0.559
  126SOL    HW1 1277   4.066   4.268   0.469
  126SOL    HW2 1278   4.040   4.282   0.629
  127SOL     OW 1279   0.813   5.217   5.556
  127SOL    HW1 1280   0.776   5.228   5.648
  127SOL    HW2 1281   0.751   5.259   5.489
  128SOL     OW 1282   4.775   2.682   0.621
  128SOL    HW1 1283   4.698   2.737   0.588
  128SOL    HW2 1284   4.770   2.590   0.581
  129SOL     OW 1285   2.827   3.724   0.127
  129SOL    HW1 1286   2.874   3.800   0.083
  129SOL    HW2 1287   2.877   3.639   0.109
  130SOL     OW 1288   2.016   2.374   4.941
  130SOL    HW1 1289   2.090   2.345   4.881
  130SOL    HW2 1290   2.010   2.473   4.942
  131SOL     OW 1291   5.592   1.486   2.022
  131SOL    HW1 1292   5.568   1.406   1.966
  131SOL    HW2 1293   5.691   1.496   2.026
  132SOL     OW 1294   0.533   2.125   2.583
  132SOL    HW1 1295   0.526   2.215   2.541
  132SOL    HW2 1296   0.546   2.056   2.512
  133SOL     OW 1297   6.736   5.722   2.824
  133SOL    HW1 1298   6.694   5.809   2.798
  133SOL    HW2 1299   6.672   5.670   2.881
  134SOL     OW 1300   1.423   3.134   2.474
  134SOL    HW1 1301   1.414   3.188   2.391
  134SOL    HW2 1302   1.385   3.184   2.552
  135SOL     OW 1303   4.309   1.290   4.269
  135SOL    HW1 1304   4.330   1.385   4.245
  135SOL    HW2 1305   4.222   1.264   4.227
  136SOL     OW 1306   4.792   4.753   5.684
  136SOL    HW1 1307   4.886   4.720   5.686
  136SOL    HW2 1308   4.743   4.710   5.608
  137SOL     OW 1309   3.427   0.567   5.687
  137SOL    HW1 1310   3.470   0.477   5.678
  137SOL    HW2 1311   3.478   0.622   5.754
  138SOL     OW 1312   6.075   4.652   5.726
  138SOL    HW1 1313   6.029   4.582   5.671
  138SOL    HW2 1314   6.148   4.693   5.673
  139SOL     OW 1315   3.424   5.825   5.667
  139SOL    HW1 1316   3.377   5.825   5.578
  139SOL    HW2 1317   3.518   5.794   5.655
  140SOL     OW 1318   6.983   4.310   4.533
  140SOL    HW1 1319   6.906   4.320   4.596
  140SOL    HW2 1320   0.046   4.345   4.576
  141SOL     OW 1321   1.296   1.688   2.229
  141SOL    HW1 1322   1.202   1.712   2.254
  141SOL    HW2 1323   1.302   1.678   2.130
  142SOL     OW 1324   1.723   4.900   1.238
  142SOL    HW1 1325   1.816   4.919   1.206
  142SOL    HW2 1326   1.727   4.857   1.328
  143SOL     OW 1327   5.170   4.087   2.306
  143SOL    HW1 1328   5.111   4.006   2.304
  143SOL    HW2 1329   5.182   4.117   2.401
  144SOL     OW 1330   2.663   6.315   1.042
  144SOL    HW1 1331   2.601   6.319   1.120
  144SOL    HW2 1332   2.667   6.405   0.998
  145SOL     OW 1333   6.657   5.392   0.645
  145SOL    HW1 1334   6.735   5.354   0.695
  145SOL    HW2 1335   6.624   5.324   0.579
  146SOL     OW 1336   6.670   4.730   0.564
  146SOL    HW1 1337   6.646   4.634   0.576
  146SOL    HW2 1338   6.694   4.747   0.468
  147SOL     OW 1339   6.036   2.764   0.911
  147SOL    HW1 1340   6.033   2.838   0.979
  147SOL    HW2 1341   5.951   2.763   0.859
  148SOL     OW 1342   0.791   5.431   5.026
  148SOL    HW1 1343   0.836   5.362   5.083
  148SOL    HW2 1344   0.730   5.386   4.961
  149SOL     OW 1345   3.423   1.009   6.191
  149SOL    HW1 1346   3.499   1.038   6.249
  149SOL    HW2 1347   3.399   0.914   6.212
  150SOL     OW 1348   0.073   6.016   5.215
  150SOL    HW1 1349   0.054   5.944   5.149
  150SOL    HW2 1350   0.009   6.008   5.292
  151SOL     OW 1351   4.171   0.736   2.078
  151SOL    HW1 1352   4.134   0.828   2.078
  151SOL    HW2 1353   4.269   0.739   2.096
  152SOL     OW 1354   2.826   1.132   4.819
  152SOL    HW1 1355   2.866   1.122   4.728
  152SOL    HW2 1356   2.825   1.229   4.845
  153SOL     OW 1357   1.112   0.374   2.866
  153SOL    HW1 1358   1.099   0.461   2.913
  153SOL    HW2 1359   1.080   0.382   2.771
  154SOL     OW 1360   6.872   2.007   2.967
  154SOL    HW1 1361   6.917   2.071   3.030
  154SOL    HW2 1362   6.785   1.976   3.008
  155SOL     OW 1363   0.535   1.070   2.821
  155SOL    HW1 1364   0.619   1.056   2.874
  155SOL    HW2 1365   0.462   1.103   2.881
  156SOL     OW 1366   0.170   2.458   1.482
  156SOL    HW1 1367   0.251   2.510   1.453
  156SOL    HW2 1368   0.182   2.428   1.577
  157SOL     OW 1369   6.037   2.962   2.748
  157SOL    HW1 1370   6.031   3.062   2.746
  157SOL    HW2 1371   6.067   2.929   2.658
  158SOL     OW 1372   2.040   2.205   4.299
  158SOL    HW1 1373   2.000   2.206   4.207
  158SOL    HW2 1374   1.968   2.216   4.367
  159SOL     OW 1375   4.930   3.191   2.138
  159SOL    HW1 1376   4.846   3.137   2.141
  159SOL    HW2 1377   4.997   3.147   2.078
  160SOL     OW 1378   6.377   4.349   5.982
  160SOL    HW1 1379   6.395   4.277   5.914
  160SOL    HW2 1380   6.440   4.338   6.059
  161SOL     OW 1381   3.171   4.663   5.272
  161SOL    HW1 1382   3.114   4.589   5.236
  161SOL    HW2 1383   3.137   4.751   5.237
  162SOL     OW 1384   4.617   5.982   2.303
  162SOL    HW1 1385   4.710   5.978   2.339
  162SOL    HW2 1386   4.594   5.895   2.259
  163SOL     OW 1387   5.963   0.880   2.120
  163SOL    HW1 1388   5.982   0.836   2.208
  163SOL    HW2 1389   5.888   0.832   2.074
  164SOL     OW 1390   6.517   3.095   0.983
  164SOL    HW1 1391   6.612   3.125   0.974
  164SOL    HW2 1392   6.512   3.023   1.053
  165SOL     OW 1393   6.495   3.682   6.906
  165SOL    HW1 1394   6.506   3.707   6.810
  165SOL    HW2 1395   6.479   3.583   6.913
  166SOL     OW 1396   1.428   0.567   0.936
  166SOL    HW1 1397   1.408   0.485   0.990
  166SOL    HW2 1398   1.495   0.624   0.984
  167SOL     OW 1399   6.419   2.507   1.192
  167SOL    HW1 1400   6.359   2.584   1.212
  167SOL    HW2 1401   6.504   2.517   1.245
  168SOL     OW 1402   2.627   5.435   1.614
  168SOL    HW1 1403   2.557   5.429   1.544
  168SOL    HW2 1404   2.625   5.353   1.671
  169SOL     OW 1405   0.965   0.077   1.434
  169SOL    HW1 1406   0.889   0.141   1.428
  169SOL    HW2 1407   0.932   7.010   1.471
  170SOL     OW 1408   0.406   1.215   3.005
  170SOL    HW1 1409   0.357   1.302   3.018
  170SOL    HW2 1410   0.498   1.224   3.043
  171SOL     OW 1411   3.619   3.873   0.347
  171SOL    HW1 1412   3.613   3.774   0.331
  171SOL    HW2 1413   3.527   3.912   0.347
  172SOL     OW 1414   0.267   3.117   1.531
  172SOL    HW1 1415   0.271   3.217   1.529
  172SOL    HW2 1416   0.224   3.084   1.446
  173SOL     OW 1417   0.218   6.708   5.908
  173SOL    HW1 1418   0.139   6.678   5.855
  173SOL    HW2 1419   0.195   6.791   5.958
  174SOL     OW 1420   2.560   5.804   3.809
  174SOL    HW1 1421   2.650   5.814   3.853
  174SOL    HW2 1422   2.503   5.744   3.865
  175SOL     OW 1423   0.597   5.225   3.453
  175SOL    HW1 1424   0.567   5.222   3.548
  175SOL    HW2 1425   0.518   5.216   3.392
  176SOL     OW 1426   2.958   5.225   7.017
  176SOL    HW1 1427   3.057   5.229   0.009
  176SOL    HW2 1428   2.921   5.144   0.044
  177SOL     OW 1429   4.623   2.035   2.802
  177SOL    HW1 1430   4.592   1.978   2.878
  177SOL    HW2 1431   4.550   2.100   2.777
  178SOL     OW 1432   5.408   4.009   5.652
  178SOL    HW1 1433   5.344   3.940   5.686
  178SOL    HW2 1434   5.383   4.034   5.558
  179SOL     OW 1435   3.057   6.829   0.721
  179SOL    HW1 1436   3.121   6.799   0.791
  179SOL    HW2 1437   3.104   6.890   0.657
  180SOL     OW 1438   1.171   2.019   6.884
  180SOL    HW1 1439   1.253   1.965   6.901
  180SOL    HW2 1440   1.096   1.959   6.856
  181SOL     OW 1441   2.998   3.787   4.503
  181SOL    HW1 1442   2.960   3.825   4.588
  181SOL    HW2 1443   3.095   3.808   4.498
  182SOL     OW 1444   5.099   2.793   4.513
  182SOL    HW1 1445   5.175   2.784   4.448
  182SOL    HW2 1446   5.035   2.717   4.499
  183SOL     OW 1447   6.168   1.911   2.462
  183SOL    HW1 1448   6.117   1.892   2.545
  183SOL    HW2 1449   6.155   1.837   2.396
  184SOL     OW 1450   0.270   4.245   2.770
  184SOL    HW1 1451   0.342   4.224   2.705
  184SOL    HW2 1452   0.252   4.344   2.769
  185SOL     OW 1453   2.565   3.212   6.413
  185SOL    HW1 1454   2.514   3.135   6.374
  185SOL    HW2 1455   2.590   3.277   6.341
  186SOL     OW 1456   6.017   6.356   3.551
  186SOL    HW1 1457   5.992   6.402   3.466
  186SOL    HW2 1458   6.057   6.267   3.529
  187SOL     OW 1459   5.380   6.838   4.039
  187SOL    HW1 1460   5.302   6.834   3.977
  187SOL    HW2 1461   5.456   6.884   3.993
  188SOL     OW 1462   5.984   1.922   4.601
  188SOL    HW1 1463   5.964   1.865   4.521
  188SOL    HW2 1464   6.066   1.976   4.584
  189SOL     OW 1465   1.416   4.491   2.955
  189SOL    HW1 1466   1.414   4.561   2.884
  189SOL    HW2 1467   1.509   4.483   2.991
  190SOL     OW 1468   3.563   0.965   6.552
  190SOL    HW1 1469   3.498   1.033   6.586
  190SOL    HW2 1470   3.616   1.005   6.477
  191SOL     OW 1471   4.971   6.098   6.072
  191SOL    HW1 1472   5.038   6.052   6.014
  191SOL    HW2 1473   4.950   6.041   6.151
  192SOL     OW 1474   6.313   0.776   0.473
  192SOL    HW1 1475   6.300   0.689   0.424
  192SOL    HW2 1476   6.373   0.760   0.552
  193SOL     OW 1477   6.088   4.553   0.084
  193SOL    HW1 1478   6.120   4.616   0.012
  193SOL    HW2 1479   6.091   4.459   0.050
  194SOL     OW 1480   4.288   7.016   4.407
  194SOL    HW1 1481   4.375   0.044   4.415
  194SOL    HW2 1482   4.257   6.988   4.498
  195SOL     OW 1483   6.707   5.072   3.152
  195SOL    HW1 1484   6.641   5.031   3.215
  195SOL    HW2 1485   6.660   5.132   3.088
  196SOL     OW 1486   0.723   1.309   0.770
  196SOL    HW1 1487   0.716   1.280   0.866
  196SOL    HW2 1488   0.634   1.300   0.726
  197SOL     OW 1489   1.627   0.870   0.448
  197SOL    HW1 1490   1.666   0.815   0.374
  197SOL    HW2 1491   1.655   0.966   0.437
  198SOL     OW 1492   2.921   1.162   4.147
  198SOL    HW1 1493   2.833   1.188   4.184
  198SOL    HW2 1494   2.993   1.218   4.189
  199SOL     OW 1495   1.136   1.838   5.064
  199SOL    HW1 1496   1.211   1.799   5.118
  199SOL    HW2 1497   1.100   1.768   5.002
  200SOL     OW 1498   5.985   2.339   7.002
  200SOL    HW1 1499   5.970   2.364   0.078
  200SOL    HW2 1500   6.082   2.345   6.980
  201SOL     OW 1501   6.745   1.563   6.070
  201SOL    HW1 1502   6.726   1.660   6.050
  201SOL    HW2 1503   6.661   1.510   6.056
  202SOL     OW 1504   5.022   0.435   0.187
  202SOL    HW1 1505   4.983   0.378   0.115
  202SOL    HW2 1506   5.015   0.532   0.161
  203SOL     OW 1507   6.529   3.291   6.633
  203SOL    HW1 1508   6.537   3.217   6.700
  203SOL    HW2 1509   6.588   3.272   6.554
  204SOL     OW 1510   6.129   0.481   5.407
  204SOL    HW1 1511   6.175   0.568   5.390
  204SOL    HW2 1512   6.196   0.407   5.410
  205SOL     OW 1513   2.073   4.154   2.891
  205SOL    HW1 1514   2.076   4.226   2.821
  205SOL    HW2 1515   2.031   4.190   2.974
  206SOL     OW 1516   0.682   3.741   0.716
  206SOL    HW1 1517   0.595   3.699   0.742
  206SOL    HW2 1518   0.689   3.746   0.617
  207SOL     OW 1519   6.190   2.991   4.949
  207SOL    HW1 1520   6.237   3.055   4.888
  207SOL    HW2 1521   6.255   2.957   5.018
  208SOL     OW 1522   1.001   2.893   4.990
  208SOL    HW1 1523   1.008   2.955   5.069
  208SOL    HW2 1524   0.907   2.893   4.957
  209SOL     OW 1525   6.750   4.551   2.712
  209SOL    HW1 1526   6.762   4.630   2.772
  209SOL    HW2 1527   6.663   4.559   2.664
  210SOL     OW 1528   4.614   3.427   0.821
  210SOL    HW1 1529   4.575   3.421   0.729
  210SOL    HW2 1530   4.608   3.522   0.853
  211SOL     OW 1531   1.651   1.404   1.753
  211SOL    HW1 1532   1.596   1.470   1.804
  211SOL    HW2 1533   1.728   1.451   1.711
  212SOL     OW 1534   2.278   3.907   1.587
  212SOL    HW1 1535   2.371   3.928   1.616
  212SOL    HW2 1536   2.214   3.972   1.630
  213SOL     OW 1537   1.145   5.167   1.127
  213SOL    HW1 1538   1.128   5.149   1.030
  213SOL    HW2 1539   1.067   5.217   1.166
  214SOL     OW 1540   5.481   6.627   2.159
  214SOL    HW1 1541   5.552   6.663   2.098
  214SOL    HW2 1542   5.459   6.696   2.229
  215SOL     OW 1543   2.031   5.080   2.836
  215SOL    HW1 1544   2.022   5.159   2.896
  215SOL    HW2 1545   2.007   5.106   2.742
  216SOL     OW 1546   1.732   6.044   2.995
  216SOL    HW1 1547   1.718   6.140   3.021
  216SOL    HW2 1548   1.690   6.028   2.905
  217SOL     OW 1549   0.584   5.288   5.713
  217SOL    HW1 1550   0.525   5.252   5.640
  217SOL    HW2 1551   0.587   5.387   5.707
  218SOL     OW 1552   2.634   2.066   5.643
  218SOL    HW1 1553   2.689   2.124   5.582
  218SOL    HW2 1554   2.679   1.978   5.654
  219SOL     OW 1555   4.430   2.343   1.249
  219SOL    HW1 1556   4.349   2.311   1.299
  219SOL    HW2 1557   4.413   2.338   1.151
  220SOL     OW 1558   2.948   6.504   0.806
  220SOL    HW1 1559   2.971   6.409   0.828
  220SOL    HW2 1560   2.948   6.558   0.891
  221SOL     OW 1561   4.917   4.513   2.072
  221SOL    HW1 1562   4.948   4.419   2.064
  221SOL    HW2 1563   4.940   4.563   1.988
  222SOL     OW 1564   2.059   4.459   6.548
  222SOL    HW1 1565   2.086   4.536   6.491
  222SOL    HW2 1566   2.111   4.460   6.633
  223SOL     OW 1567   6.583   2.216   5.016
  223SOL    HW1 1568   6.572   2.205   5.114
  223SOL    HW2 1569   6.657   2.280   4.997
  224SOL     OW 1570   3.426   2.279   5.668
  224SOL    HW1 1571   3.505   2.257   5.610
  224SOL    HW2 1572   3.437   2.234   5.757
  225SOL     OW 1573   4.150   6.123   6.788
  225SOL    HW1 1574   4.231   6.075   6.822
  225SOL    HW2 1575   4.159   6.136   6.689
  226SOL     OW 1576   1.969   2.484   0.116
  226SOL    HW1 1577   1.916   2.399   0.125
  226SOL    HW2 1578   2.006   2.508   0.206
  227SOL     OW 1579   1.426   3.903   1.108
  227SOL    HW1 1580   1.346   3.958   1.134
  227SOL    HW2 1581   1.474   3.874   1.191
  228SOL     OW 1582   1.069   0.567   2.298
  228SOL    HW1 1583   1.092   0.472   2.318
  228SOL    HW2 1584   1.127   0.601   2.225
  229SOL     OW 1585   3.958   0.382   5.911
  229SOL    HW1 1586   4.043   0.402   5.863
  229SOL    HW2 1587   3.895   0.335   5.849
  230SOL     OW 1588   5.688   4.667   6.079
  230SOL    HW1 1589   5.618   4.658   6.009
  230SOL    HW2 1590   5.685   4.586   6.139
  231SOL     OW 1591   5.317   1.592   6.910
  231SOL    HW1 1592   5.354   1.530   6.841
  231SOL    HW2 1593   5.321   1.686   6.876
  232SOL     OW 1594   1.303   1.800   5.548
  232SOL    HW1 1595   1.302   1.883   5.493
  232SOL    HW2 1596   1.394   1.760   5.547
  233SOL     OW 1597   3.327   1.878   2.820
  233SOL    HW1 1598   3.391   1.825   2.876
  233SOL    HW2 1599   3.251   1.819   2.791
  234SOL     OW 1600   5.090   0.583   0.857
  234SOL    HW1 1601   5.116   0.487   0.857
  234SOL    HW2 1602   5.131   0.629   0.935
  235SOL     OW 1603   5.141   2.844   2.528
  235SOL    HW1 1604   5.076   2.920   2.539
  235SOL    HW2 1605   5.227   2.879   2.489
  236SOL     OW 1606   4.158   3.523   5.995
  236SOL    HW1 1607   4.086   3.488   5.934
  236SOL    HW2 1608   4.117   3.553   6.081
  237SOL     OW 1609   5.805   3.473   2.833
  237SOL    HW1 1610   5.811   3.373   2.829
  237SOL    HW2 1611   5.824   3.504   2.926
  238SOL     OW 1612   6.050   1.868   0.508
  238SOL    HW1 1613   6.012   1.788   0.462
  238SOL    HW2 1614   6.105   1.921   0.443
  239SOL     OW 1615   1.117   3.677   0.505
  239SOL    HW1 1616   1.178   3.598   0.514
  239SOL    HW2 1617   1.142   3.729   0.424
  240SOL     OW 1618   4.893   3.606   4.249
  240SOL    HW1 1619   4.795   3.619   4.258
  240SOL    HW2 1620   4.911   3.527   4.190
  241SOL     OW 1621   2.664   1.871   4.028
  241SOL    HW1 1622   2.682   1.894   4.124
  241SOL    HW2 1623   2.572   1.833   4.019
  242SOL     OW 1624   3.698   3.425   2.777
  242SOL    HW1 1625   3.644   3.341   2.773
  242SOL    HW2 1626   3.705   3.457   2.871
  243SOL     OW 1627   3.877   2.507   6.437
  243SOL    HW1 1628   3.841   2.435   6.496
  243SOL    HW2 1629   3.827   2.592   6.453
  244SOL     OW 1630   4.911   3.357   5.048
  244SOL    HW1 1631   4.889   3.435   4.990
  244SOL    HW2 1632   4.852   3.358   5.129
  245SOL     OW 1633   3.488   1.523   3.132
  245SOL    HW1 1634   3.397   1.481   3.128
  245SOL    HW2 1635   3.529   1.502   3.221
  246SOL     OW 1636   6.701   1.077   2.499
  246SOL    HW1 1637   6.606   1.051   2.481
  246SOL    HW2 1638   6.754   1.069   2.414
  247SOL     OW 1639   1.769   1.569   1.453
  247SOL    HW1 1640   1.801   1.607   1.540
  247SOL    HW2 1641   1.840   1.579   1.384
  248SOL     OW 1642   3.290   3.578   1.593
  248SOL    HW1 1643   3.281   3.630   1.678
  248SOL    HW2 1644   3.236   3.494   1.600
  249SOL     OW 1645   5.070   6.611   4.991
  249SOL    HW1 1646   5.055   6.686   4.928
  249SOL    HW2 1647   5.054   6.524   4.944
  250SOL     OW 1648   4.222   2.251   0.106
  250SOL    HW1 1649   4.266   2.235   0.194
  250SOL    HW2 1650   4.202   2.348   0.096
  251SOL     OW 1651   4.189   4.908   4.965
  251SOL    HW1 1652   4.256   4.859   5.021
  251SOL    HW2 1653   4.126   4.957   5.024
  252SOL     OW 1654   6.474   6.459   5.025
  252SOL    HW1 1655   6.488   6.393   5.099
  252SOL    HW2 1656   6.559   6.506   5.005
  253SOL     OW 1657   4.324   6.316   6.426
  253SOL    HW1 1658   4.286   6.346   6.339
  253SOL    HW2 1659   4.253   6.275   6.482
  254SOL     OW 1660   6.268   1.943   5.558
  254SOL    HW1 1661   6.215   2.018   5.599
  254SOL    HW2 1662   6.210   1.894   5.492
  255SOL     OW 1663   0.916   4.505   6.920
  255SOL    HW1 1664   0.852   4.514   6.996
  255SOL    HW2 1665   0.991   4.444   6.947
  256SOL     OW 1666   5.162   2.219   5.034
  256SOL    HW1 1667   5.182   2.204   5.131
  256SOL    HW2 1668   5.189   2.312   5.008
  257SOL     OW 1669   4.630   6.418   2.238
  257SOL    HW1 1670   4.583   6.502   2.209
  257SOL    HW2 1671   4.573   6.370   2.305
  258SOL     OW 1672   2.107   3.316   5.782
  258SOL    HW1 1673   2.149   3.248   5.841
  258SOL    HW2 1674   2.144   3.308   5.690
  259SOL     OW 1675   3.296   6.836   3.968
  259SOL    HW1 1676   3.296   6.847   4.067
  259SOL    HW2 1677   3.313   6.740   3.944
  260SOL     OW 1678   4.002   5.449   3.155
  260SOL    HW1 1679   4.005   5.372   3.090
  260SOL    HW2 1680   4.092   5.461   3.196
  261SOL     OW 1681   4.152   5.213   0.101
  261SOL    HW1 1682   4.177   5.127   0.145
  261SOL    HW2 1683   4.122   5.278   0.171
  262SOL     OW 1684   0.902   3.825   6.637
  262SOL    HW1 1685   0.921   3.879   6.720
  262SOL    HW2 1686   0.807   3.795   6.637
  263SOL     OW 1687   1.248   0.100   4.120
  263SOL    HW1 1688   1.197   0.157   4.185
  263SOL    HW2 1689   1.311   0.157   4.068
  264SOL     OW 1690   6.491   3.092   6.843
  264SOL    HW1 1691   6.457   3.091   6.937
  264SOL    HW2 1692   6.511   2.998   6.814
  265SOL     OW 1693   0.435   0.395   3.122
  265SOL    HW1 1694   0.357   0.437   3.076
  265SOL    HW2 1695   0.455   0.306   3.080
  266SOL     OW 1696   3.511   0.310   5.807
  266SOL    HW1 1697   3.610   0.303   5.822
  266SOL    HW2 1698   3.463   0.289   5.892
  267SOL     OW 1699   1.962   0.366   3.295
  267SOL    HW1 1700   2.030   0.411   3.354
  267SOL    HW2 1701   1.874   0.361   3.342
  268SOL     OW 1702   3.324   2.522   0.951
  268SOL    HW1 1703   3.395   2.471   1.000
  268SOL    HW2 1704   3.357   2.547   0.860
  269SOL     OW 1705   5.128   1.809   0.510
  269SOL    HW1 1706   5.148   1.727   0.564
  269SOL    HW2 1707   5.030   1.824   0.506
  270SOL     OW 1708   5.731   0.800   0.651
  270SOL    HW1 1709   5.804   0.732   0.660
  270SOL    HW2 1710   5.719   0.823   0.554
  271SOL     OW 1711   0.510   4.086   6.496
  271SOL    HW1 1712   0.462   4.163   6.456
  271SOL    HW2 1713   0.528   4.018   6.425
  272SOL     OW 1714   2.981   5.811   3.234
  272SOL    HW1 1715   2.959   5.843   3.143
  272SOL    HW2 1716   3.003   5.888   3.293
  273SOL     OW 1717   1.621   5.130   6.107
  273SOL    HW1 1718   1.666   5.217   6.126
  273SOL    HW2 1719   1.559   5.107   6.181
  274SOL     OW 1720   4.818   2.437   3.785
  274SOL    HW1 1721   4.813   2.368   3.712
  274SOL    HW2 1722   4.775   2.522   3.754
  275SOL     OW 1723   6.290   6.466   1.420
  275SOL    HW1 1724   6.329   6.557   1.404
  275SOL    HW2 1725   6.344   6.398   1.370
  276SOL     OW 1726   1.029   0.429   5.008
  276SOL    HW1 1727   1.053   0.358   5.075
  276SOL    HW2 1728   0.945   0.404   4.962
  277SOL     OW 1729   1.961   4.215   0.881
  277SOL    HW1 1730   2.041   4.190   0.934
  277SOL    HW2 1731   1.879   4.179   0.925
  278SOL     OW 1732   0.442   2.864   2.879
  278SOL    HW1 1733   0.535   2.885   2.907
  278SOL    HW2 1734   0.415   2.776   2.916
  279SOL     OW 1735   6.321   0.978   3.458
  279SOL    HW1 1736   6.415   0.973   3.491
  279SOL    HW2 1737   6.320   0.980   3.358
  280SOL     OW 1738   1.714   4.357   2.746
  280SOL    HW1 1739   1.797   4.394   2.788
  280SOL    HW2 1740   1.697   4.265   2.781
  281SOL     OW 1741   2.630   4.829   0.986
  281SOL    HW1 1742   2.721   4.794   0.960
  281SOL    HW2 1743   2.595   4.778   1.064
  282SOL     OW 1744   2.318   1.195   5.859
  282SOL    HW1 1745   2.376   1.188   5.941
  282SOL    HW2 1746   2.246   1.263   5.875
  283SOL     OW 1747   3.491   2.847   6.000
  283SOL    HW1 1748   3.581   2.892   5.999
  283SOL    HW2 1749   3.428   2.898   5.942
  284SOL     OW 1750   0.521   3.292   3.980
  284SOL    HW1 1751   0.518   3.238   4.064
  284SOL    HW2 1752   0.612   3.333   3.970
  285SOL     OW 1753   4.913   4.769   4.020
  285SOL    HW1 1754   4.838   4.713   4.055
  285SOL    HW2 1755   4.913   4.766   3.920
  286SOL     OW 1756   2.967   4.000   0.506
  286SOL    HW1 1757   2.997   4.058   0.430
  286SOL    HW2 1758   2.939   4.057   0.583
  287SOL     OW 1759   1.385   2.946   0.263
  287SOL    HW1 1760   1.355   2.945   0.358
  287SOL    HW2 1761   1.322   2.891   0.207
  288SOL     OW 1762   4.745   3.293   1.226
  288SOL    HW1 1763   4.767   3.377   1.176
  288SOL    HW2 1764   4.733   3.218   1.162
  289SOL     OW 1765   4.053   5.631   6.907
  289SOL    HW1 1766   4.048   5.649   7.005
  289SOL    HW2 1767   4.108   5.549   6.891
  290SOL     OW 1768   1.541   1.116   4.796
  290SOL    HW1 1769   1.559   1.173   4.716
  290SOL    HW2 1770   1.622   1.113   4.854
  291SOL     OW 1771   6.301   2.657   2.849
  291SOL    HW1 1772   6.349   2.571   2.830
  291SOL    HW2 1773   6.262   2.654   2.941
  292SOL     OW 1774   3.484   0.390   3.805
  292SOL    HW1 1775   3.510   0.482   3.776
  292SOL    HW2 1776   3.406   0.395   3.866
  293SOL     OW 1777   3.886   4.854   3.885
  293SOL    HW1 1778   3.803   4.878   3.936
  293SOL    HW2 1779   3.937   4.784   3.936
  294SOL     OW 1780   4.980   0.847   0.819
  294SOL    HW1 1781   5.074   0.880   0.812
  294SOL    HW2 1782   4.973   0.756   0.780
  295SOL     OW 1783   5.656   7.002   3.618
  295SOL    HW1 1784   5.752   6.974   3.614
  295SOL    HW2 1785   5.651   0.081   3.629
  296SOL     OW 1786   2.294   2.197   3.258
  296SOL    HW1 1787   2.363   2.192   3.186
  296SOL    HW2 1788   2.234   2.118   3.253
  297SOL     OW 1789   1.812   5.008   2.339
  297SOL    HW1 1790   1.746   5.082   2.332
  297SOL    HW2 1791   1.818   4.961   2.251
  298SOL     OW 1792   6.539   4.541   1.076
  298SOL    HW1 1793   6.441   4.539   1.053
  298SOL    HW2 1794   6.559   4.625   1.126
  299SOL     OW 1795   5.718   1.981   4.102
  299SOL    HW1 1796   5.748   2.072   4.072
  299SOL    HW2 1797   5.646   1.990   4.170
  300SOL     OW 1798   6.336   6.795   1.868
  300SOL    HW1 1799   6.359   6.727   1.938
  300SOL    HW2 1800   6.354   6.887   1.904
  301SOL     OW 1801   4.523   2.630   5.549
  301SOL    HW1 1802   4.532   2.715   5.498
  301SOL    HW2 1803   4.611   2.582   5.551
  302SOL     OW 1804   1.224   5.932   4.283
  302SOL    HW1 1805   1.195   6.018   4.325
  302SOL    HW2 1806   1.226   5.860   4.353
  303SOL     OW 1807   6.437   0.115   3.569
  303SOL    HW1 1808   6.439   0.078   3.476
  303SOL    HW2 1809   6.342   0.118   3.602
  304SOL     OW 1810   3.367   0.199   3.267
  304SOL    HW1 1811   3.382   0.274   3.331
  304SOL    HW2 1812   3.411   0.116   3.302
  305SOL     OW 1813   1.685   4.508   0.993
  305SOL    HW1 1814   1.773   4.542   1.025
  305SOL    HW2 1815   1.621   4.584   0.981
  306SOL     OW 1816   1.883   0.932   3.513
  306SOL    HW1 1817   1.783   0.931   3.507
  306SOL    HW2 1818   1.916   0.842   3.541
  307SOL     OW 1819   3.352   0.317   1.628
  307SOL    HW1 1820   3.275   0.380   1.633
  307SOL    HW2 1821   3.392   0.305   1.719
  308SOL     OW 1822   0.454   4.666   3.828
  308SOL    HW1 1823   0.549   4.672   3.860
  308SOL    HW2 1824   0.425   4.570   3.830
  309SOL     OW 1825   3.496   4.881   5.114
  309SOL    HW1 1826   3.589   4.918   5.115
  309SOL    HW2 1827   3.493   4.797   5.168
  310SOL     OW 1828   1.521   6.052   6.265
  310SOL    HW1 1829   1.487   6.033   6.173
  310SOL    HW2 1830   1.550   5.967   6.309
  311SOL     OW 1831   0.316   0.820   1.466
  311SOL    HW1 1832   0.337   0.765   1.386
  311SOL    HW2 1833   0.310   0.917   1.439
  312SOL     OW 1834   3.942   1.410   5.637
  312SOL    HW1 1835   3.859   1.381   5.683
  312SOL    HW2 1836   3.924   1.418   5.538
  313SOL     OW 1837   0.104   4.938   1.181
  313SOL    HW1 1838   0.090   4.943   1.279
  313SOL    HW2 1839   0.049   4.863   1.143
  314SOL     OW 1840   3.479   5.777   1.911
  314SOL    HW1 1841   3.417   5.855   1.897
  314SOL    HW2 1842   3.531   5.792   1.995
  315SOL     OW 1843   1.143   3.712   2.695
  315SOL    HW1 1844   1.202   3.775   2.747
  315SOL    HW2 1845   1.049   3.746   2.698
  316SOL     OW 1846   2.109   3.167   4.618
  316SOL    HW1 1847   2.156   3.255   4.617
  316SOL    HW2 1848   2.085   3.144   4.712
  317SOL     OW 1849   6.755   0.984   0.309
  317SOL    HW1 1850   6.679   0.969   0.246
  317SOL    HW2 1851   6.839   0.997   0.257
  318SOL     OW 1852   2.714   4.128   0.985
  318SOL    HW1 1853   2.619   4.150   0.964
  318SOL    HW2 1854   2.736   4.159   1.078
  319SOL     OW 1855   0.935   0.255   6.388
  319SOL    HW1 1856   1.022   0.290   6.354
  319SOL    HW2 1857   0.908   0.175   6.335
  320SOL     OW 1858   5.402   3.198   1.118
  320SOL    HW1 1859   5.378   3.243   1.204
  320SOL    HW2 1860   5.457   3.260   1.062
  321SOL     OW 1861   2.009   1.547   2.360
  321SOL    HW1 1862   1.994   1.646   2.363
  321SOL    HW2 1863   2.099   1.526   2.398
  322SOL     OW 1864   3.285   2.620   5.480
  322SOL    HW1 1865   3.189   2.618   5.507
  322SOL    HW2 1866   3.301   2.552   5.408
  323SOL     OW 1867   1.444   4.190   1.682
  323SOL    HW1 1868   1.542   4.211   1.678
  323SOL    HW2 1869   1.402   4.242   1.756
  324SOL     OW 1870   0.032   2.633   4.563
  324SOL    HW1 1871   7.001   2.572   4.502
  324SOL    HW2 1872   0.080   2.701   4.509
  325SOL     OW 1873   2.204   1.933   2.969
  325SOL    HW1 1874   2.161   1.942   3.059
  325SOL    HW2 1875   2.156   1.863   2.916
  326SOL     OW 1876   1.588   3.852   4.402
  326SOL    HW1 1877   1.518   3.803   4.453
  326SOL    HW2 1878   1.679   3.825   4.434
  327SOL     OW 1879   6.237   3.890   6.193
  327SOL    HW1 1880   6.209   3.796   6.179
  327SOL    HW2 1881   6.323   3.907   6.144
  328SOL     OW 1882   3.524   5.688   2.609
  328SOL    HW1 1883   3.427   5.669   2.596
  328SOL    HW2 1884   3.576   5.651   2.531
  329SOL     OW 1885   3.457   4.098   2.395
  329SOL    HW1 1886   3.474   4.118   2.491
  329SOL    HW2 1887   3.362   4.067   2.384
  330SOL     OW 1888   2.400   2.130   1.861
  330SOL    HW1 1889   2.450   2.180   1.933
  330SOL    HW2 1890   2.436   2.037   1.856
  331SOL     OW 1891   6.136   4.043   5.431
  331SOL    HW1 1892   6.223   4.031   5.479
  331SOL    HW2 1893   6.105   3.955   5.396
  332SOL     OW 1894   4.032   1.936   3.613
  332SOL    HW1 1895   3.998   1.846   3.585
  332SOL    HW2 1896   4.041   1.938   3.713
  333SOL     OW 1897   4.880   6.840   0.703
  333SOL    HW1 1898   4.849   6.856   0.797
  333SOL    HW2 1899   4.800   6.824   0.644
  334SOL     OW 1900   4.853   6.403   2.877
  334SOL    HW1 1901   4.839   6.305   2.884
  334SOL    HW2 1902   4.949   6.424   2.897
  335SOL     OW 1903   3.303   0.138   2.556
  335SOL    HW1 1904   3.389   0.180   2.585
  335SOL    HW2 1905   3.321   0.070   2.484
  336SOL     OW 1906   3.743   0.647   4.463
  336SOL    HW1 1907   3.709   0.726   4.514
  336SOL    HW2 1908   3.833   0.669   4.425
  337SOL     OW 1909   0.236   4.062   2.104
  337SOL    HW1 1910   0.297   4.056   2.183
  337SOL    HW2 1911   0.224   4.158   2.079
  338SOL     OW 1912   2.449   2.273   1.328
  338SOL    HW1 1913   2.512   2.329   1.381
  338SOL    HW2 1914   2.406   2.206   1.389
  339SOL     OW 1915   4.371   1.255   3.223
  339SOL    HW1 1916   4.347   1.286   3.131
  339SOL    HW2 1917   4.291   1.264   3.283
  340SOL     OW 1918   5.005   3.994   4.752
  340SOL    HW1 1919   4.992   3.896   4.770
  340SOL    HW2 1920   4.924   4.044   4.782
  341SOL     OW 1921   4.521   4.534   5.686
  341SOL    HW1 1922   4.494   4.451   5.635
  341SOL    HW2 1923   4.583   4.508   5.760
  342SOL     OW 1924   5.929   4.049   0.687
  342SOL    HW1 1925   5.944   3.954   0.662
  342SOL    HW2 1926   6.017   4.092   0.708
  343SOL     OW 1927   2.261   0.725   2.595
  343SOL    HW1 1928   2.287   0.634   2.561
  343SOL    HW2 1929   2.323   0.793   2.557
  344SOL     OW 1930   3.827   6.553   0.284
  344SOL    HW1 1931   3.922   6.557   0.254
  344SOL    HW2 1932   3.816   6.605   0.369
  345SOL     OW 1933   1.453   1.112   5.551
  345SOL    HW1 1934   1.476   1.033   5.608
  345SOL    HW2 1935   1.457   1.086   5.455
  346SOL     OW 1936   3.037   1.092   5.233
  346SOL    HW1 1937   2.946   1.106   5.195
  346SOL    HW2 1938   3.106   1.122   5.167
  347SOL     OW 1939   5.101   6.370   6.102
  347SOL    HW1 1940   5.102   6.405   6.009
  347SOL    HW2 1941   5.060   6.279   6.104
  348SOL     OW 1942   2.635   6.546   2.661
  348SOL    HW1 1943   2.706   6.483   2.692
  348SOL    HW2 1944   2.551   6.529   2.713
  349SOL     OW 1945   2.512   5.475   2.410
  349SOL    HW1 1946   2.460   5.550   2.450
  349SOL    HW2 1947   2.459   5.390   2.417
  350SOL     OW 1948   4.640   3.201   0.967
  350SOL    HW1 1949   4.579   3.130   0.932
  350SOL    HW2 1950   4.630   3.284   0.911
  351SOL     OW 1951   3.521   1.851   0.844
  351SOL    HW1 1952   3.460   1.813   0.774
  351SOL    HW2 1953   3.468   1.901   0.912
  352SOL     OW 1954   2.998   2.116   6.079
  352SOL    HW1 1955   3.084   2.127   6.030
  352SOL    HW2 1956   3.016   2.088   6.173
  353SOL     OW 1957   2.211   6.930   1.309
  353SOL    HW1 1958   2.221   6.833   1.330
  353SOL    HW2 1959   2.179   6.978   1.391
  354SOL     OW 1960   5.118   0.228   2.031
  354SOL    HW1 1961   5.136   0.231   2.130
  354SOL    HW2 1962   5.059   0.150   2.010
  355SOL     OW 1963   1.003   1.228   2.499
  355SOL    HW1 1964   1.010   1.321   2.534
  355SOL    HW2 1965   0.909   1.196   2.507
  356SOL     OW 1966   3.220   6.984   2.810
  356SOL    HW1 1967   3.233   0.039   2.875
  356SOL    HW2 1968   3.233   7.018   2.717
  357SOL     OW 1969   1.387   5.259   5.138
  357SOL    HW1 1970   1.379   5.174   5.086
  357SOL    HW2 1971   1.335   5.251   5.223
  358SOL     OW 1972   4.561   0.991   3.256
  358SOL    HW1 1973   4.627   1.059   3.223
  358SOL    HW2 1974   4.470   1.013   3.221
  359SOL     OW 1975   0.074   1.869   0.103
  359SOL    HW1 1976   0.043   1.814   0.026
  359SOL    HW2 1977   0.022   1.844   0.185
  360SOL     OW 1978   4.920   0.284   0.005
  360SOL    HW1 1979   4.934   0.187   7.007
  360SOL    HW2 1980   4.877   0.327   6.946
  361SOL     OW 1981   3.044   0.238   2.561
  361SOL    HW1 1982   3.037   0.308   2.632
  361SOL    HW2 1983   3.134   0.194   2.567
  362SOL     OW 1984   3.008   3.889   0.850
  362SOL    HW1 1985   2.932   3.853   0.797
  362SOL    HW2 1986   3.014   3.988   0.837
  363SOL     OW 1987   4.912   4.782   3.742
  363SOL    HW1 1988   4.822   4.757   3.706
  363SOL    HW2 1989   4.909   4.876   3.777
  364SOL     OW 1990   2.733   5.770   6.321
  364SOL    HW1 1991   2.826   5.748   6.350
  364SOL    HW2 1992   2.725   5.868   6.305
  365SOL     OW 1993   4.500   6.657   3.235
  365SOL    HW1 1994   4.543   6.594   3.171
  365SOL    HW2 1995   4.466   6.737   3.186
  366SOL     OW 1996   5.332   1.179   0.337
  366SOL    HW1 1997   5.396   1.183   0.414
  366SOL    HW2 1998   5.380   1.144   0.257
  367SOL     OW 1999   5.394   2.118   2.232
  367SOL    HW1 2000   5.441   2.040   2.273
  367SOL    HW2 2001   5.344   2.088   2.151
  368SOL     OW 2002   0.417   5.164   5.504
  368SOL    HW1 2003   0.321   5.156   5.530
  368SOL    HW2 2004   0.423   5.194   5.408
  369SOL     OW 2005   1.045   3.684   1.643
  369SOL    HW1 2006   1.144   3.678   1.631
  369SOL    HW2 2007   1.023   3.704   1.738
  370SOL     OW 2008   3.902   1.562   6.401
  370SOL    HW1 2009   3.942   1.482   6.356
  370SOL    HW2 2010   3.812   1.581   6.362
  371SOL     OW 2011   3.493   2.635   6.439
  371SOL    HW1 2012   3.551   2.696   6.385
  371SOL    HW2 2013   3.398   2.645   6.410
  372SOL     OW 2014   2.118   5.482   0.092
  372SOL    HW1 2015   2.063   5.537   0.155
  372SOL    HW2 2016   2.190   5.540   0.052
  373SOL     OW 2017   5.925   6.800   6.220
  373SOL    HW1 2018   5.918   6.763   6.312
  373SOL    HW2 2019   5.910   6.726   6.154
  374SOL     OW 2020   4.887   0.980   1.219
  374SOL    HW1 2021   4.789   0.993   1.202
  374SOL    HW2 2022   4.937   1.059   1.184
  375SOL     OW 2023   6.637   4.396   1.330
  375SOL    HW1 2024   6.617   4.399   1.233
  375SOL    HW2 2025   6.591   4.317   1.371
  376SOL     OW 2026   2.081   4.004   4.889
  376SOL    HW1 2027   2.033   3.921   4.915
  376SOL    HW2 2028   2.161   4.016   4.947
  377SOL     OW 2029   4.984   1.194   4.095
  377SOL    HW1 2030   5.000   1.119   4.159
  377SOL    HW2 2031   5.000   1.161   4.001
  378SOL     OW 2032   5.240   2.192   5.296
  378SOL    HW1 2033   5.324   2.151   5.329
  378SOL    HW2 2034   5.238   2.289   5.321
  379SOL     OW 2035   6.392   2.675   1.516
  379SOL    HW1 2036   6.374   2.578   1.500
  379SOL    HW2 2037   6.311   2.729   1.492
  380SOL     OW 2038   1.032   2.535   0.357
  380SOL    HW1 2039   1.125   2.571   0.361
  380SOL    HW2 2040   0.997   2.520   0.450
  381SOL     OW 2041   4.678   4.821   7.020
  381SOL    HW1 2042   4.729   4.877   6.955
  381SOL    HW2 2043   4.596   4.871   0.030
  382SOL     OW 2044   2.066   5.694   6.546
  382SOL    HW1 2045   2.127   5.614   6.544
  382SOL    HW2 2046   2.121   5.777   6.535
  383SOL     OW 2047   6.181   1.416   0.063
  383SOL    HW1 2048   6.239   1.396   0.143
  383SOL    HW2 2049   6.145   1.330   0.027
  384SOL     OW 2050   0.700   5.475   4.600
  384SOL    HW1 2051   0.707   5.421   4.684
  384SOL    HW2 2052   0.690   5.572   4.622
  385SOL     OW 2053   4.798   5.408   0.978
  385SOL    HW1 2054   4.815   5.343   1.052
  385SOL    HW2 2055   4.725   5.373   0.919
  386SOL     OW 2056   2.201   5.803   4.425
  386SOL    HW1 2057   2.276   5.760   4.476
  386SOL    HW2 2058   2.238   5.851   4.346
  387SOL     OW 2059   0.127   0.660   5.628
  387SOL    HW1 2060   0.044   0.694   5.582
  387SOL    HW2 2061   0.208   0.688   5.576
  388SOL     OW 2062   0.699   1.617   4.707
  388SOL    HW1 2063   0.721   1.680   4.782
  388SOL    HW2 2064   0.718   1.663   4.620
  389SOL     OW 2065   5.237   3.681   2.646
  389SOL    HW1 2066   5.173   3.621   2.693
  389SOL    HW2 2067   5.226   3.775   2.679
  390SOL     OW 2068   3.401   2.506   0.400
  390SOL    HW1 2069   3.316   2.491   0.351
  390SOL    HW2 2070   3.474   2.527   0.335
  391SOL     OW 2071   3.965   3.731   3.836
  391SOL    HW1 2072   3.982   3.688   3.925
  391SOL    HW2 2073   3.969   3.831   3.846
  392SOL     OW 2074   2.297   3.839   1.325
  392SOL    HW1 2075   2.226   3.774   1.297
  392SOL    HW2 2076   2.293   3.853   1.424
  393SOL     OW 2077   1.392   6.093   1.337
  393SOL    HW1 2078   1.464   6.141   1.286
  393SOL    HW2 2079   1.322   6.060   1.273
  394SOL     OW 2080   5.911   1.240   5.983
  394SOL    HW1 2081   5.900   1.336   5.958
  394SOL    HW2 2082   5.879   1.225   6.076
  395SOL     OW 2083   6.281   5.052   6.636
  395SOL    HW1 2084   6.363   5.081   6.586
  395SOL    HW2 2085   6.205   5.113   6.614
  396SOL     OW 2086   0.834   0.808   1.288
  396SOL    HW1 2087   0.771   0.885   1.292
  396SOL    HW2 2088   0.925   0.840   1.262
  397SOL     OW 2089   4.753   2.198   4.636
  397SOL    HW1 2090   4.844   2.171   4.668
  397SOL    HW2 2091   4.689   2.199   4.712
  398SOL     OW 2092   0.152   1.565   2.746
  398SOL    HW1 2093   0.060   1.597   2.767
  398SOL    HW2 2094   0.166   1.568   2.647
  399SOL     OW 2095   6.106   5.452   3.786
  399SOL    HW1 2096   6.042   5.518   3.747
  399SOL    HW2 2097   6.115   5.467   3.884
  400SOL     OW 2098   6.987   6.614   2.884
  400SOL    HW1 2099   6.981   6.620   2.984
  400SOL    HW2 2100   0.061   6.592   2.858
  401SOL     OW 2101   0.918   6.089   5.045
  401SOL    HW1 2102   1.007   6.126   5.019
  401SOL    HW2 2103   0.924   5.989   5.050
  402SOL     OW 2104   6.228   0.956   4.199
  402SOL    HW1 2105   6.206   1.044   4.240
  402SOL    HW2 2106   6.280   0.969   4.115
  403SOL     OW 2107   2.401   1.790   5.224
  403SOL    HW1 2108   2.307   1.779   5.190
  403SOL    HW2 2109   2.418   1.887   5.241
  404SOL     OW 2110   2.870   5.381   3.566
  404SOL    HW1 2111   2.884   5.436   3.484
  404SOL    HW2 2112   2.842   5.439   3.642
  405SOL     OW 2113   2.596   4.596   3.759
  405SOL    HW1 2114   2.688   4.620   3.728
  405SOL    HW2 2115   2.595   4.584   3.858
  406SOL     OW 2116   0.653   6.940   6.718
  406SOL    HW1 2117   0.606   0.007   6.706
  406SOL    HW2 2118   0.586   6.869   6.741
  407SOL     OW 2119   2.022   3.831   4.269
  407SOL    HW1 2120   1.962   3.822   4.189
  407SOL    HW2 2121   1.971   3.809   4.352
  408SOL     OW 2122   2.614   2.334   2.030
  408SOL    HW1 2123   2.713   2.341   2.018
  408SOL    HW2 2124   2.568   2.376   1.952
  409SOL     OW 2125   0.260   2.833   2.302
  409SOL    HW1 2126   0.348   2.873   2.329
  409SOL    HW2 2127   0.204   2.819   2.383
  410SOL     OW 2128   1.642   3.510   1.629
  410SOL    HW1 2129   1.728   3.487   1.673
  410SOL    HW2 2130   1.621   3.443   1.558
  411SOL     OW 2131   6.776   1.635   1.058
  411SOL    HW1 2132   6.828   1.560   1.018
  411SOL    HW2 2133   6.689   1.601   1.094
  412SOL     OW 2134   2.399   4.335   2.932
  412SOL    HW1 2135   2.396   4.343   2.833
  412SOL    HW2 2136   2.372   4.422   2.974
  413SOL     OW 2137   6.329   5.386   2.795
  413SOL    HW1 2138   6.348   5.472   2.748
  413SOL    HW2 2139   6.407   5.325   2.784
  414SOL     OW 2140   2.356   0.343   2.980
  414SOL    HW1 2141   2.359   0.243   2.986
  414SOL    HW2 2142   2.306   0.380   3.058
  415SOL     OW 2143   5.628   3.352   0.436
  415SOL    HW1 2144   5.579   3.287   0.495
  415SOL    HW2 2145   5.723   3.322   0.425
  416SOL     OW 2146   5.936   3.490   0.144
  416SOL    HW1 2147   5.919   3.584   0.173
  416SOL    HW2 2148   5.866   3.463   0.077
  417SOL     OW 2149   2.466   2.369   5.293
  417SOL    HW1 2150   2.464   2.309   5.213
  417SOL    HW2 2151   2.456   2.464   5.264
  418SOL     OW 2152   3.514   5.677   6.577
  418SOL    HW1 2153   3.455   5.744   6.621
  418SOL    HW2 2154   3.481   5.659   6.484
  419SOL     OW 2155   5.636   0.437   0.836
  419SOL    HW1 2156   5.653   0.385   0.919
  419SOL    HW2 2157   5.715   0.430   0.775
  420SOL     OW 2158   3.225   6.776   0.954
  420SOL    HW1 2159   3.283   6.850   0.987
  420SOL    HW2 2160   3.167   6.743   1.029
  421SOL     OW 2161   5.399   4.737   2.865
  421SOL    HW1 2162   5.469   4.669   2.846
  421SOL    HW2 2163   5.369   4.780   2.780
  422SOL     OW 2164   4.124   1.727   2.451
  422SOL    HW1 2165   4.177   1.686   2.526
  422SOL    HW2 2166   4.036   1.681   2.444
  423SOL     OW 2167   2.765   1.090   5.804
  423SOL    HW1 2168   2.859   1.124   5.803
  423SOL    HW2 2169   2.765   0.991   5.794
  424SOL     OW 2170   1.370   4.294   4.554
  424SOL    HW1 2171   1.369   4.232   4.476
  424SOL    HW2 2172   1.400   4.245   4.636
  425SOL     OW 2173   3.490   1.581   0.236
  425SOL    HW1 2174   3.477   1.538   0.326
  425SOL    HW2 2175   3.402   1.608   0.199
  426SOL     OW 2176   2.426   2.697   3.386
  426SOL    HW1 2177   2.404   2.662   3.477
  426SOL    HW2 2178   2.516   2.664   3.359
  427SOL     OW 2179   4.511   1.708   4.441
  427SOL    HW1 2180   4.605   1.708   4.475
  427SOL    HW2 2181   4.509   1.670   4.349
  428SOL     OW 2182   2.339   2.166   6.008
  428SOL    HW1 2183   2.418   2.106   6.023
  428SOL    HW2 2184   2.349   2.212   5.920
  429SOL     OW 2185   0.044   0.001   3.022
  429SOL    HW1 2186   0.124   0.045   2.983
  429SOL    HW2 2187   0.069   6.933   3.061
  430SOL     OW 2188   1.979   1.417   3.415
  430SOL    HW1 2189   1.903   1.377   3.466
  430SOL    HW2 2190   1.957   1.417   3.317
  431SOL     OW 2191   2.382   1.047   1.426
  431SOL    HW1 2192   2.403   1.090   1.514
  431SOL    HW2 2193   2.466   1.042   1.371
  432SOL     OW 2194   5.181   1.804   1.716
  432SOL    HW1 2195   5.263   1.843   1.675
  432SOL    HW2 2196   5.133   1.875   1.769
  433SOL     OW 2197   2.322   4.164   6.991
  433SOL    HW1 2198   2.339   4.211   6.905
  433SOL    HW2 2199   2.359   4.071   6.987
  434SOL     OW 2200   3.657   5.486   2.487
  434SOL    HW1 2201   3.580   5.424   2.500
  434SOL    HW2 2202   3.707   5.460   2.405
  435SOL     OW 2203   2.921   2.410   6.557
  435SOL    HW1 2204   2.895   2.330   6.504
  435SOL    HW2 2205   3.017   2.432   6.539
  436SOL     OW 2206   5.129   6.485   2.927
  436SOL    HW1 2207   5.146   6.531   2.840
  436SOL    HW2 2208   5.190   6.406   2.936
  437SOL     OW 2209   6.741   0.895   5.822
  437SOL    HW1 2210   6.780   0.981   5.854
  437SOL    HW2 2211   6.697   0.847   5.898
  438SOL     OW 2212   0.722   3.666   1.711
  438SOL    HW1 2213   0.674   3.692   1.627
  438SOL    HW2 2214   0.810   3.713   1.715
  439SOL     OW 2215   0.320   1.173   6.209
  439SOL    HW1 2216   0.256   1.226   6.153
  439SOL    HW2 2217   0.409   1.219   6.211
  440SOL     OW 2218   3.557   1.555   1.210
  440SOL    HW1 2219   3.603   1.486   1.266
  440SOL    HW2 2220   3.601   1.644   1.225
  441SOL     OW 2221   1.196   4.678   2.469
  441SOL    HW1 2222   1.104   4.677   2.430
  441SOL    HW2 2223   1.204   4.752   2.536
  442SOL     OW 2224   3.244   3.094   4.820
  442SOL    HW1 2225   3.231   3.114   4.723
  442SOL    HW2 2226   3.160   3.115   4.869
  443SOL     OW 2227   4.935   2.402   2.487
  443SOL    HW1 2228   4.860   2.336   2.477
  443SOL    HW2 2229   5.022   2.353   2.495
  444SOL     OW 2230   4.072   2.359   1.039
  444SOL    HW1 2231   4.009   2.402   0.975
  444SOL    HW2 2232   4.025   2.286   1.088
  445SOL     OW 2233   2.121   5.640   3.811
  445SOL    HW1 2234   2.181   5.570   3.773
  445SOL    HW2 2235   2.026   5.619   3.787
  446SOL     OW 2236   6.971   6.784   0.548
  446SOL    HW1 2237   7.012   6.801   0.459
  446SOL    HW2 2238   7.006   6.850   0.615
  447SOL     OW 2239   6.564   3.439   0.053
  447SOL    HW1 2240   6.538   3.418   0.147
  447SOL    HW2 2241   6.483   3.435   7.015
  448SOL     OW 2242   3.524   6.591   4.108
  448SOL    HW1 2243   3.539   6.638   4.195
  448SOL    HW2 2244   3.553   6.652   4.033
  449SOL     OW 2245   0.727   3.596   4.906
  449SOL    HW1 2246   0.689   3.504   4.895
  449SOL    HW2 2247   0.734   3.640   4.816
  450SOL     OW 2248   6.541   3.915   3.320
  450SOL    HW1 2249   6.452   3.884   3.352
  450SOL    HW2 2250   6.579   3.981   3.385
  451SOL     OW 2251   2.541   1.604   6.731
  451SOL    HW1 2252   2.448   1.640   6.720
  451SOL    HW2 2253   2.562   1.593   6.828
  452SOL     OW 2254   4.537   5.563   1.247
  452SOL    HW1 2255   4.493   5.516   1.324
  452SOL    HW2 2256   4.504   5.524   1.161
  453SOL     OW 2257   3.961   0.925   6.784
  453SOL    HW1 2258   3.869   0.899   6.813
  453SOL    HW2 2259   4.009   0.844   6.750
  454SOL     OW 2260   6.904   2.938   3.656
  454SOL    HW1 2261   6.945   2.859   3.611
  454SOL    HW2 2262   6.934   2.941   3.751
  455SOL     OW 2263   6.332   5.357   0.026
  455SOL    HW1 2264   6.265   5.349   6.973
  455SOL    HW2 2265   6.334   5.452   0.059
  456SOL     OW 2266   1.754   1.230   3.441
  456SOL    HW1 2267   1.703   1.257   3.522
  456SOL    HW2 2268   1.713   1.270   3.360
  457SOL     OW 2269   3.337   5.658   0.629
  457SOL    HW1 2270   3.434   5.634   0.624
  457SOL    HW2 2271   3.300   5.663   0.536
  458SOL     OW 2272   3.175   1.069   4.402
  458SOL    HW1 2273   3.268   1.038   4.421
  458SOL    HW2 2274   3.179   1.162   4.364
  459SOL     OW 2275   2.886   1.323   3.552
  459SOL    HW1 2276   2.818   1.260   3.590
  459SOL    HW2 2277   2.840   1.403   3.513
  460SOL     OW 2278   0.988   1.688   6.885
  460SOL    HW1 2279   0.992   1.726   6.977
  460SOL    HW2 2280   0.972   1.762   6.819
  461SOL     OW 2281   1.236   0.055   5.042
  461SOL    HW1 2282   1.167   0.076   4.972
  461SOL    HW2 2283   1.306   0.126   5.042
  462SOL     OW 2284   3.594   4.500   5.424
  462SOL    HW1 2285   3.524   4.455   5.479
  462SOL    HW2 2286   3.683   4.458   5.441
  463SOL     OW 2287   5.051   6.211   3.189
  463SOL    HW1 2288   5.101   6.139   3.236
  463SOL    HW2 2289   4.993   6.260   3.255
  464SOL     OW 2290   4.417   5.839   4.500
  464SOL    HW1 2291   4.351   5.910   4.474
  464SOL    HW2 2292   4.382   5.789   4.578
  465SOL     OW 2293   0.760   5.275   0.750
  465SOL    HW1 2294   0.670   5.318   0.741
  465SOL    HW2 2295   0.829   5.332   0.706
  466SOL     OW 2296   3.745   4.963   4.121
  466SOL    HW1 2297   3.654   4.947   4.159
  466SOL    HW2 2298   3.813   4.910   4.172
  467SOL     OW 2299   6.547   6.613   1.348
  467SOL    HW1 2300   6.575   6.518   1.361
  467SOL    HW2 2301   6.619   6.663   1.299
  468SOL     OW 2302   2.479   5.950   6.479
  468SOL    HW1 2303   2.495   5.867   6.532
  468SOL    HW2 2304   2.553   6.015   6.496
  469SOL     OW 2305   3.716   4.739   5.389
  469SOL    HW1 2306   3.666   4.653   5.404
  469SOL    HW2 2307   3.664   4.815   5.427
  470SOL     OW 2308   2.349   5.227   2.360
  470SOL    HW1 2309   2.364   5.195   2.453
  470SOL    HW2 2310   2.251   5.221   2.339
  471SOL     OW 2311   1.672   1.886   4.775
  471SOL    HW1 2312   1.605   1.818   4.747
  471SOL    HW2 2313   1.702   1.867   4.869
  472SOL     OW 2314   5.473   4.146   6.324
  472SOL    HW1 2315   5.404   4.217   6.312
  472SOL    HW2 2316   5.524   4.134   6.238
  473SOL     OW 2317   5.608   3.282   1.691
  473SOL    HW1 2318   5.566   3.229   1.765
  473SOL    HW2 2319   5.607   3.227   1.607
  474SOL     OW 2320   5.169   4.998   3.524
  474SOL    HW1 2321   5.231   5.018   3.600
  474SOL    HW2 2322   5.122   5.082   3.496
  475SOL     OW 2323   4.585   1.390   0.317
  475SOL    HW1 2324   4.650   1.443   0.264
  475SOL    HW2 2325   4.632   1.347   0.395
  476SOL     OW 2326   1.097   3.138   0.137
  476SOL    HW1 2327   1.142   3.049   0.142
  476SOL    HW2 2328   1.160   3.205   0.097
  477SOL     OW 2329   6.128   5.661   3.445
  477SOL    HW1 2330   6.224   5.688   3.440
  477SOL    HW2 2331   6.083   5.681   3.358
  478SOL     OW 2332   6.870   5.068   2.270
  478SOL    HW1 2333   6.804   5.001   2.237
  478SOL    HW2 2334   6.835   5.110   2.353
  479SOL     OW 2335   3.523   3.853   2.856
  479SOL    HW1 2336   3.499   3.858   2.759
  479SOL    HW2 2337   3.547   3.945   2.889
  480SOL     OW 2338   0.207   0.256   1.857
  480SOL    HW1 2339   0.122   0.306   1.874
  480SOL    HW2 2340   0.194   0.194   1.781
  481SOL     OW 2341   5.921   5.985   0.764
  481SOL    HW1 2342   5.872   5.898   0.764
  481SOL    HW2 2343   6.009   5.974   0.809
  482SOL     OW 2344   3.418   4.945   2.682
  482SOL    HW1 2345   3.376   4.956   2.591
  482SOL    HW2 2346   3.360   4.886   2.738
  483SOL     OW 2347   6.358   1.397   4.685
  483SOL    HW1 2348   6.311   1.320   4.643
  483SOL    HW2 2349   6.398   1.368   4.772
  484SOL     OW 2350   2.557   5.122   3.536
  484SOL    HW1 2351   2.636   5.154   3.483
  484SOL    HW2 2352   2.515   5.044   3.491
  485SOL     OW 2353   4.654   2.412   0.546
  485SOL    HW1 2354   4.632   2.397   0.450
  485SOL    HW2 2355   4.647   2.325   0.596
  486SOL     OW 2356   6.165   6.002   5.281
  486SOL    HW1 2357   6.139   5.996   5.184
  486SOL    HW2 2358   6.260   5.974   5.291
  487SOL     OW 2359   6.475   0.850   6.893
  487SOL    HW1 2360   6.397   0.912   6.908
  487SOL    HW2 2361   6.450   0.758   6.921
  488SOL     OW 2362   1.709   6.297   3.679
  488SOL    HW1 2363   1.654   6.239   3.739
  488SOL    HW2 2364   1.800   6.256   3.667
  489SOL     OW 2365   2.782   4.516   5.360
  489SOL    HW1 2366   2.748   4.423   5.376
  489SOL    HW2 2367   2.856   4.513   5.292
  490SOL     OW 2368   1.473   3.480   5.230
  490SOL    HW1 2369   1.408   3.405   5.213
  490SOL    HW2 2370   1.423   3.560   5.263
  491SOL     OW 2371   6.169   3.610   1.476
  491SOL    HW1 2372   6.196   3.652   1.390
  491SOL    HW2 2373   6.249   3.593   1.533
  492SOL     OW 2374   1.564   2.592   5.392
  492SOL    HW1 2375   1.515   2.619   5.309
  492SOL    HW2 2376   1.647   2.542   5.366
  493SOL     OW 2377   1.276   5.536   3.565
  493SOL    HW1 2378   1.308   5.466   3.501
  493SOL    HW2 2379   1.198   5.500   3.618
  494SOL     OW 2380   2.782   0.360   2.900
  494SOL    HW1 2381   2.720   0.394   2.830
  494SOL    HW2 2382   2.876   0.373   2.870
  495SOL     OW 2383   3.888   4.689   0.264
  495SOL    HW1 2384   3.988   4.699   0.257
  495SOL    HW2 2385   3.844   4.765   0.215
  496SOL     OW 2386   4.685   0.246   3.326
  496SOL    HW1 2387   4.616   0.256   3.398
  496SOL    HW2 2388   4.656   0.175   3.262
  497SOL     OW 2389   4.822   2.858   1.120
  497SOL    HW1 2390   4.731   2.820   1.133
  497SOL    HW2 2391   4.865   2.817   1.039
  498SOL     OW 2392   1.010   0.168   1.069
  498SOL    HW1 2393   0.917   0.143   1.096
  498SOL    HW2 2394   1.053   0.218   1.144
  499SOL     OW 2395   2.983   6.467   6.707
  499SOL    HW1 2396   2.886   6.451   6.689
  499SOL    HW2 2397   3.022   6.521   6.633
  500SOL     OW 2398   6.269   1.866   6.577
  500SOL    HW1 2399   6.196   1.915   6.530
  500SOL    HW2 2400   6.234   1.826   6.661
  501SOL     OW 2401   1.965   2.105   4.960
  501SOL    HW1 2402   1.990   2.202   4.962
  501SOL    HW2 2403   1.869   2.094   4.984
  502SOL     OW 2404   2.186   3.006   0.026
  502SOL    HW1 2405   2.090   3.022   0.003
  502SOL    HW2 2406   2.207   2.909   0.012
  503SOL     OW 2407   4.476   5.051   0.767
  503SOL    HW1 2408   4.555   4.998   0.800
  503SOL    HW2 2409   4.402   4.988   0.743
  504SOL     OW 2410   6.267   0.553   0.350
  504SOL    HW1 2411   6.310   0.470   0.387
  504SOL    HW2 2412   6.176   0.530   0.314
  505SOL     OW 2413   0.006   3.783   5.331
  505SOL    HW1 2414   0.011   3.883   5.329
  505SOL    HW2 2415   0.017   3.747   5.239
  506SOL     OW 2416   2.624   5.954   2.317
  506SOL    HW1 2417   2.608   5.893   2.395
  506SOL    HW2 2418   2.645   5.899   2.236
  507SOL     OW 2419   2.799   6.610   3.639
  507SOL    HW1 2420   2.813   6.668   3.559
  507SOL    HW2 2421   2.704   6.614   3.668
  508SOL     OW 2422   0.349   5.085   3.016
  508SOL    HW1 2423   0.376   5.154   2.949
  508SOL    HW2 2424   0.258   5.051   2.995
  509SOL     OW 2425   4.737   0.446   6.078
  509SOL    HW1 2426   4.711   0.351   6.089
  509SOL    HW2 2427   4.835   0.452   6.060
  510SOL     OW 2428   6.557   4.219   0.470
  510SOL    HW1 2429   6.461   4.226   0.442
  510SOL    HW2 2430   6.587   4.124   0.462
  511SOL     OW 2431   0.219   1.737   0.643
  511SOL    HW1 2432   0.178   1.646   0.646
  511SOL    HW2 2433   0.237   1.763   0.548
  512SOL     OW 2434   1.577   2.179   4.788
  512SOL    HW1 2435   1.586   2.085   4.757
  512SOL    HW2 2436   1.554   2.238   4.710
  513SOL     OW 2437   5.769   5.645   2.788
  513SOL    HW1 2438   5.847   5.612   2.735
  513SOL    HW2 2439   5.801   5.691   2.871
  514SOL     OW 2440   4.991   1.359   4.512
  514SOL    HW1 2441   5.027   1.424   4.578
  514SOL    HW2 2442   4.906   1.319   4.547
  515SOL     OW 2443   3.093   0.455   6.731
  515SOL    HW1 2444   3.129   0.424   6.819
  515SOL    HW2 2445   3.004   0.498   6.745
  516SOL     OW 2446   0.690   5.656   2.464
  516SOL    HW1 2447   0.672   5.720   2.539
  516SOL    HW2 2448   0.785   5.664   2.436
  517SOL     OW 2449   3.871   5.175   1.027
  517SOL    HW1 2450   3.830   5.093   0.988
  517SOL    HW2 2451   3.805   5.250   1.025
  518SOL     OW 2452   2.150   6.838   3.884
  518SOL    HW1 2453   2.234   6.891   3.878
  518SOL    HW2 2454   2.077   6.894   3.924
  519SOL     OW 2455   6.785   6.896   2.824
  519SOL    HW1 2456   6.814   6.991   2.806
  519SOL    HW2 2457   6.862   6.835   2.810
  520SOL     OW 2458   3.893   5.579   0.804
  520SOL    HW1 2459   3.796   5.572   0.781
  520SOL    HW2 2460   3.937   5.491   0.788
  521SOL     OW 2461   6.844   6.849   5.180
  521SOL    HW1 2462   6.835   6.918   5.252
  521SOL    HW2 2463   6.767   6.785   5.185
  522SOL     OW 2464   3.584   4.792   6.325
  522SOL    HW1 2465   3.517   4.752   6.387
  522SOL    HW2 2466   3.663   4.825   6.377
  523SOL     OW 2467   1.618   0.183   5.816
  523SOL    HW1 2468   1.519   0.180   5.800
  523SOL    HW2 2469   1.654   0.270   5.784
  524SOL     OW 2470   6.432   1.302   1.018
  524SOL    HW1 2471   6.472   1.300   1.109
  524SOL    HW2 2472   6.407   1.209   0.991
  525SOL     OW 2473   1.067   3.311   3.754
  525SOL    HW1 2474   0.976   3.328   3.716
  525SOL    HW2 2475   1.108   3.398   3.781
  526SOL     OW 2476   4.103   6.216   4.304
  526SOL    HW1 2477   4.152   6.206   4.391
  526SOL    HW2 2478   4.087   6.313   4.286
  527SOL     OW 2479   6.647   1.134   0.812
  527SOL    HW1 2480   6.585   1.121   0.735
  527SOL    HW2 2481   6.663   1.047   0.857
  528SOL     OW 2482   0.019   1.665   4.023
  528SOL    HW1 2483   6.940   1.651   4.023
  528SOL    HW2 2484   0.065   1.577   4.030
  529SOL     OW 2485   0.947   1.457   6.194
  529SOL    HW1 2486   0.940   1.494   6.101
  529SOL    HW2 2487   0.995   1.370   6.192
  530SOL     OW 2488   3.475   4.519   1.606
  530SOL    HW1 2489   3.513   4.575   1.679
  530SOL    HW2 2490   3.435   4.578   1.536
  531SOL     OW 2491   6.947   1.691   5.841
  531SOL    HW1 2492   0.003   1.701   5.905
  531SOL    HW2 2493   6.866   1.737   5.879
  532SOL     OW 2494   3.678   1.277   6.756
  532SOL    HW1 2495   3.702   1.190   6.800
  532SOL    HW2 2496   3.742   1.296   6.682
  533SOL     OW 2497   4.018   0.225   4.988
  533SOL    HW1 2498   4.012   0.324   4.979
  533SOL    HW2 2499   3.936   0.190   5.035
  534SOL     OW 2500   1.983   3.982   1.302
  534SOL    HW1 2501   1.931   4.055   1.259
  534SOL    HW2 2502   2.081   3.993   1.281
  535SOL     OW 2503   4.524   4.461   3.594
  535SOL    HW1 2504   4.550   4.495   3.685
  535SOL    HW2 2505   4.601   4.410   3.555
  536SOL     OW 2506   6.469   6.295   1.289
  536SOL    HW1 2507   6.442   6.276   1.195
  536SOL    HW2 2508   6.566   6.275   1.301
  537SOL     OW 2509   3.107   1.745   2.767
  537SOL    HW1 2510   3.097   1.732   2.668
  537SOL    HW2 2511   3.035   1.806   2.800
  538SOL     OW 2512   4.188   5.357   5.725
  538SOL    HW1 2513   4.121   5.297   5.769
  538SOL    HW2 2514   4.216   5.428   5.790
  539SOL     OW 2515   2.195   0.220   0.012
  539SOL    HW1 2516   2.175   0.130   6.993
  539SOL    HW2 2517   2.110   0.270   0.024
  540SOL     OW 2518   2.543   1.714   5.495
  540SOL    HW1 2519   2.495   1.729   5.409
  540SOL    HW2 2520   2.500   1.769   5.567
  541SOL     OW 2521   5.208   5.949   2.336
  541SOL    HW1 2522   5.258   5.996   2.264
  541SOL    HW2 2523   5.214   6.001   2.422
  542SOL     OW 2524   4.064   5.680   5.833
  542SOL    HW1 2525   4.023   5.771   5.825
  542SOL    HW2 2526   4.115   5.658   5.750
  543SOL     OW 2527   6.235   2.000   5.193
  543SOL    HW1 2528   6.170   2.076   5.193
  543SOL    HW2 2529   6.199   1.925   5.249
  544SOL     OW 2530   1.113   2.707   1.068
  544SOL    HW1 2531   1.061   2.628   1.099
  544SOL    HW2 2532   1.182   2.731   1.136
  545SOL     OW 2533   0.023   5.510   0.450
  545SOL    HW1 2534   0.113   5.468   0.463
  545SOL    HW2 2535   6.984   5.447   0.401
  546SOL     OW 2536   6.923   5.591   3.002
  546SOL    HW1 2537   7.018   5.577   2.974
  546SOL    HW2 2538   6.878   5.652   2.937
  547SOL     OW 2539   3.762   6.306   6.666
  547SOL    HW1 2540   3.725   6.384   6.716
  547SOL    HW2 2541   3.804   6.242   6.731
  548SOL     OW 2542   4.057   2.872   0.172
  548SOL    HW1 2543   4.027   2.901   0.081
  548SOL    HW2 2544   4.157   2.872   0.177
  549SOL     OW 2545   5.403   2.512   3.708
  549SOL    HW1 2546   5.357   2.538   3.623
  549SOL    HW2 2547   5.336   2.481   3.775
  550SOL     OW 2548   0.212   5.584   3.874
  550SOL    HW1 2549   0.253   5.494   3.891
  550SOL    HW2 2550   0.128   5.573   3.821
  551SOL     OW 2551   5.440   0.787   0.668
  551SOL    HW1 2552   5.534   0.820   0.660
  551SOL    HW2 2553   5.439   0.703   0.723
  552SOL     OW 2554   0.349   0.420   4.957
  552SOL    HW1 2555   0.435   0.468   4.936
  552SOL    HW2 2556   0.304   0.465   5.034
  553SOL     OW 2557   3.623   2.250   5.283
  553SOL    HW1 2558   3.711   2.298   5.289
  553SOL    HW2 2559   3.630   2.176   5.215
  554SOL     OW 2560   6.809   5.149   0.458
  554SOL    HW1 2561   6.878   5.084   0.428
  554SOL    HW2 2562   6.730   5.100   0.495
  555SOL     OW 2563   3.416   4.457   5.900
  555SOL    HW1 2564   3.372   4.465   5.811
  555SOL    HW2 2565   3.353   4.486   5.972
  556SOL     OW 2566   5.729   6.276   2.881
  556SOL    HW1 2567   5.712   6.199   2.819
  556SOL    HW2 2568   5.651   6.338   2.880
  557SOL     OW 2569   6.448   3.845   0.113
  557SOL    HW1 2570   6.464   3.766   0.055
  557SOL    HW2 2571   6.450   3.816   0.209
  558SOL     OW 2572   3.168   3.402   1.812
  558SOL    HW1 2573   3.077   3.402   1.853
  558SOL    HW2 2574   3.224   3.473   1.853
  559SOL     OW 2575   6.030   1.174   6.443
  559SOL    HW1 2576   6.101   1.229   6.400
  559SOL    HW2 2577   6.056   1.154   6.538
  560SOL     OW 2578   1.276   2.261   3.435
  560SOL    HW1 2579   1.345   2.285   3.503
  560SOL    HW2 2580   1.312   2.189   3.375
  561SOL     OW 2581   0.175   4.170   0.227
  561SOL    HW1 2582   0.177   4.205   0.320
  561SOL    HW2 2583   0.245   4.099   0.216
  562SOL     OW 2584   3.376   5.822   3.362
  562SOL    HW1 2585   3.355   5.838   3.266
  562SOL    HW2 2586   3.394   5.910   3.407
  563SOL     OW 2587   0.676   1.088   4.655
  563SOL    HW1 2588   0.683   1.186   4.673
  563SOL    HW2 2589   0.766   1.052   4.630
  564SOL     OW 2590   5.812   1.388   5.465
  564SOL    HW1 2591   5.823   1.408   5.368
  564SOL    HW2 2592   5.742   1.317   5.477
  565SOL     OW 2593   3.099   3.548   3.991
  565SOL    HW1 2594   3.090   3.454   4.025
  565SOL    HW2 2595   3.013   3.597   4.006
  566SOL     OW 2596   1.705   2.758   3.642
  566SOL    HW1 2597   1.606   2.765   3.630
  566SOL    HW2 2598   1.730   2.786   3.735
  567SOL     OW 2599   1.777   3.214   5.503
  567SOL    HW1 2600   1.739   3.191   5.593
  567SOL    HW2 2601   1.744   3.304   5.476
  568SOL     OW 2602   0.940   0.573   6.830
  568SOL    HW1 2603   1.014   0.506   6.821
  568SOL    HW2 2604   0.893   0.560   6.917
  569SOL     OW 2605   5.141   3.412   5.395
  569SOL    HW1 2606   5.181   3.382   5.309
  569SOL    HW2 2607   5.067   3.477   5.376
  570SOL     OW 2608   3.147   0.202   6.135
  570SOL    HW1 2609   3.134   0.162   6.225
  570SOL    HW2 2610   3.058   0.227   6.097
  571SOL     OW 2611   2.372   4.390   1.766
  571SOL    HW1 2612   2.467   4.415   1.785
  571SOL    HW2 2613   2.319   4.473   1.748
  572SOL     OW 2614   2.795   1.431   4.931
  572SOL    HW1 2615   2.708   1.384   4.938
  572SOL    HW2 2616   2.799   1.481   4.845
  573SOL     OW 2617   0.514   0.047   5.820
  573SOL    HW1 2618   0.494   0.142   5.843
  573SOL    HW2 2619   0.531   0.039   5.722
  574SOL     OW 2620   2.735   0.808   5.757
  574SOL    HW1 2621   2.666   0.752   5.710
  574SOL    HW2 2622   2.743   0.778   5.852
  575SOL     OW 2623   3.881   3.537   0.466
  575SOL    HW1 2624   3.851   3.522   0.560
  575SOL    HW2 2625   3.939   3.461   0.437
  576SOL     OW 2626   0.399   0.823   3.123
  576SOL    HW1 2627   0.323   0.844   3.062
  576SOL    HW2 2628   0.439   0.735   3.098
  577SOL     OW 2629   0.048   6.671   2.419
  577SOL    HW1 2630   7.019   6.666   2.507
  577SOL    HW2 2631   7.004   6.696   2.347
  578SOL     OW 2632   4.143   6.688   0.736
  578SOL    HW1 2633   4.097   6.617   0.684
  578SOL    HW2 2634   4.236   6.700   0.701
  579SOL     OW 2635   0.684   3.749   2.011
  579SOL    HW1 2636   0.690   3.654   1.981
  579SOL    HW2 2637   0.612   3.796   1.960
  580SOL     OW 2638   4.788   4.611   4.693
  580SOL    HW1 2639   4.703   4.561   4.675
  580SOL    HW2 2640   4.867   4.553   4.673
  581SOL     OW 2641   2.223   2.279   3.943
  581SOL    HW1 2642   2.317   2.277   3.908
  581SOL    HW2 2643   2.221   2.327   4.031
  582SOL     OW 2644   5.628   3.913   4.763
  582SOL    HW1 2645   5.717   3.914   4.716
  582SOL    HW2 2646   5.635   3.965   4.848
  583SOL     OW 2647   3.553   5.555   5.448
  583SOL    HW1 2648   3.536   5.466   5.490
  583SOL    HW2 2649   3.594   5.616   5.515
  584SOL     OW 2650   3.874   1.081   5.212
  584SOL    HW1 2651   3.875   1.100   5.310
  584SOL    HW2 2652   3.968   1.078   5.177
  585SOL     OW 2653   3.713   6.340   1.767
  585SOL    HW1 2654   3.637   6.276   1.780
  585SOL    HW2 2655   3.688   6.430   1.803
  586SOL     OW 2656   3.782   0.312   1.289
  586SOL    HW1 2657   3.731   0.258   1.221
  586SOL    HW2 2658   3.876   0.280   1.294
  587SOL     OW 2659   4.652   1.018   2.864
  587SOL    HW1 2660   4.700   1.063   2.939
  587SOL    HW2 2661   4.706   1.024   2.780
  588SOL     OW 2662   2.357   4.369   2.671
  588SOL    HW1 2663   2.410   4.394   2.590
  588SOL    HW2 2664   2.284   4.307   2.644
  589SOL     OW 2665   3.393   4.693   6.506
  589SOL    HW1 2666   3.332   4.628   6.460
  589SOL    HW2 2667   3.363   4.705   6.601
  590SOL     OW 2668   2.254   1.780   6.135
  590SOL    HW1 2669   2.305   1.703   6.173
  590SOL    HW2 2670   2.317   1.843   6.089
  591SOL     OW 2671   3.041   0.343   4.169
  591SOL    HW1 2672   3.137   0.353   4.198
  591SOL    HW2 2673   3.024   0.248   4.142
  592SOL     OW 2674   4.744   2.192   4.076
  592SOL    HW1 2675   4.701   2.281   4.093
  592SOL    HW2 2676   4.783   2.192   3.984
  593SOL     OW 2677   1.334   0.156   0.369
  593SOL    HW1 2678   1.391   0.233   0.338
  593SOL    HW2 2679   1.390   0.095   0.425
  594SOL     OW 2680   3.458   1.106   5.104
  594SOL    HW1 2681   3.412   1.057   5.178
  594SOL    HW2 2682   3.390   1.156   5.050
  595SOL     OW 2683   6.621   3.816   2.084
  595SOL    HW1 2684   6.550   3.885   2.094
  595SOL    HW2 2685   6.652   3.786   2.174
  596SOL     OW 2686   5.834   4.891   4.164
  596SOL    HW1 2687   5.900   4.946   4.216
  596SOL    HW2 2688   5.862   4.795   4.167
  597SOL     OW 2689   3.977   1.419   6.148
  597SOL    HW1 2690   3.977   1.507   6.196
  597SOL    HW2 2691   4.071   1.396   6.122
  598SOL     OW 2692   3.130   3.039   2.655
  598SOL    HW1 2693   3.046   3.061   2.704
  598SOL    HW2 2694   3.187   2.980   2.712
  599SOL     OW 2695   2.069   4.767   1.130
  599SOL    HW1 2696   2.046   4.860   1.157
  599SOL    HW2 2697   2.167   4.760   1.113
  600SOL     OW 2698   0.316   3.315   6.164
  600SOL    HW1 2699   0.265   3.363   6.091
  600SOL    HW2 2700   0.278   3.341   6.253
  601SOL     OW 2701   7.005   0.243   5.604
  601SOL    HW1 2702   0.015   0.176   5.537
  601SOL    HW2 2703   0.065   0.285   5.647
  602SOL     OW 2704   0.928   0.610   3.627
  602SOL    HW1 2705   1.012   0.580   3.673
  602SOL    HW2 2706   0.914   0.708   3.645
  603SOL     OW 2707   1.479   1.760   4.110
  603SOL    HW1 2708   1.566   1.726   4.147
  603SOL    HW2 2709   1.407   1.693   4.129
  604SOL     OW 2710   5.255   2.421   0.750
  604SOL    HW1 2711   5.242   2.330   0.709
  604SOL    HW2 2712   5.165   2.465   0.760
  605SOL     OW 2713   5.893   6.508   1.933
  605SOL    HW1 2714   5.880   6.422   1.982
  605SOL    HW2 2715   5.905   6.490   1.835
  606SOL     OW 2716   3.264   6.460   5.067
  606SOL    HW1 2717   3.199   6.385   5.074
  606SOL    HW2 2718   3.229   6.539   5.117
  607SOL     OW 2719   1.602   3.280   6.049
  607SOL    HW1 2720   1.584   3.376   6.069
  607SOL    HW2 2721   1.663   3.242   6.119
  608SOL     OW 2722   3.207   1.413   0.271
  608SOL    HW1 2723   3.231   1.486   0.336
  608SOL    HW2 2724   3.111   1.388   0.283
  609SOL     OW 2725   3.888   3.019   2.632
  609SOL    HW1 2726   3.967   3.046   2.577
  609SOL    HW2 2727   3.877   3.084   2.707
  610SOL     OW 2728   4.969   2.952   1.906
  610SOL    HW1 2729   4.886   2.989   1.947
  610SOL    HW2 2730   5.020   2.900   1.974
  611SOL     OW 2731   3.743   1.798   2.169
  611SOL    HW1 2732   3.651   1.798   2.208
  611SOL    HW2 2733   3.739   1.826   2.073
  612SOL     OW 2734   4.350   5.098   4.407
  612SOL    HW1 2735   4.426   5.155   4.439
  612SOL    HW2 2736   4.362   5.005   4.440
  613SOL     OW 2737   3.709   5.511   6.140
  613SOL    HW1 2738   3.650   5.474   6.212
  613SOL    HW2 2739   3.655   5.570   6.080
  614SOL     OW 2740   3.467   6.155   5.986
  614SOL    HW1 2741   3.425   6.146   6.076
  614SOL    HW2 2742   3.397   6.139   5.915
  615SOL     OW 2743   6.718   5.199   3.811
  615SOL    HW1 2744   6.802   5.244   3.841
  615SOL    HW2 2745   6.685   5.138   3.882
  616SOL     OW 2746   5.843   2.565   3.745
  616SOL    HW1 2747   5.930   2.558   3.697
  616SOL    HW2 2748   5.782   2.491   3.716
  617SOL     OW 2749   2.164   0.261   6.243
  617SOL    HW1 2750   2.256   0.234   6.217
  617SOL    HW2 2751   2.125   0.191   6.303
  618SOL     OW 2752   2.328   0.653   2.860
  618SOL    HW1 2753   2.267   0.678   2.784
  618SOL    HW2 2754   2.307   0.559   2.888
  619SOL     OW 2755   1.151   2.760   6.869
  619SOL    HW1 2756   1.166   2.661   6.871
  619SOL    HW2 2757   1.053   2.779   6.871
  620SOL     OW 2758   4.329   3.752   0.734
  620SOL    HW1 2759   4.325   3.652   0.737
  620SOL    HW2 2760   4.303   3.789   0.823
  621SOL     OW 2761   0.049   6.123   1.108
  621SOL    HW1 2762   0.068   6.218   1.085
  621SOL    HW2 2763   0.128   6.084   1.156
  622SOL     OW 2764   0.934   1.416   0.012
  622SOL    HW1 2765   0.947   1.516   0.011
  622SOL    HW2 2766   0.940   1.381   6.939
  623SOL     OW 2767   6.716   5.804   5.080
  623SOL    HW1 2768   6.682   5.888   5.038
  623SOL    HW2 2769   6.677   5.795   5.172
  624SOL     OW 2770   0.558   1.634   1.640
  624SOL    HW1 2771   0.535   1.540   1.615
  624SOL    HW2 2772   0.487   1.671   1.701
  625SOL     OW 2773   1.582   1.356   2.277
  625SOL    HW1 2774   1.501   1.388   2.228
  625SOL    HW2 2775   1.665   1.386   2.230
  626SOL     OW 2776   3.208   5.595   4.956
  626SOL    HW1 2777   3.303   5.580   4.928
  626SOL    HW2 2778   3.199   5.575   5.053
  627SOL     OW 2779   4.494   6.093   0.046
  627SOL    HW1 2780   4.523   6.095   6.971
  627SOL    HW2 2781   4.558   6.145   0.102
  628SOL     OW 2782   4.896   3.720   3.254
  628SOL    HW1 2783   4.863   3.801   3.206
  628SOL    HW2 2784   4.947   3.661   3.191
  629SOL     OW 2785   1.970   6.961   1.171
  629SOL    HW1 2786   1.958   6.876   1.120
  629SOL    HW2 2787   2.058   6.959   1.218
  630SOL     OW 2788   2.457   0.847   2.251
  630SOL    HW1 2789   2.531   0.789   2.283
  630SOL    HW2 2790   2.374   0.792   2.238
  631SOL     OW 2791   2.442   1.522   4.039
  631SOL    HW1 2792   2.445   1.616   4.006
  631SOL    HW2 2793   2.382   1.517   4.119
  632SOL     OW 2794   3.031   0.427   0.590
  632SOL    HW1 2795   3.032   0.355   0.658
  632SOL    HW2 2796   2.959   0.494   0.612
  633SOL     OW 2797   2.132   0.265   4.882
  633SOL    HW1 2798   2.164   0.352   4.919
  633SOL    HW2 2799   2.035   0.273   4.856
  634SOL     OW 2800   3.018   5.537   2.076
  634SOL    HW1 2801   3.021   5.566   1.980
  634SOL    HW2 2802   3.066   5.449   2.085
  635SOL     OW 2803   3.167   0.277   2.201
  635SOL    HW1 2804   3.142   0.186   2.234
  635SOL    HW2 2805   3.119   0.295   2.115
  636SOL     OW 2806   4.927   4.667   6.430
  636SOL    HW1 2807   4.959   4.585   6.476
  636SOL    HW2 2808   4.958   4.748   6.481
  637SOL     OW 2809   5.882   5.196   6.565
  637SOL    HW1 2810   5.785   5.218   6.573
  637SOL    HW2 2811   5.895   5.134   6.487
  638SOL     OW 2812   5.830   1.714   3.524
  638SOL    HW1 2813   5.890   1.681   3.597
  638SOL    HW2 2814   5.803   1.638   3.466
  639SOL     OW 2815   4.156   3.666   1.914
  639SOL    HW1 2816   4.068   3.655   1.869
  639SOL    HW2 2817   4.142   3.681   2.012
  640SOL     OW 2818   2.815   2.587   5.301
  640SOL    HW1 2819   2.787   2.495   5.272
  640SOL    HW2 2820   2.749   2.622   5.367
  641SOL     OW 2821   0.203   6.805   4.743
  641SOL    HW1 2822   0.153   6.719   4.757
  641SOL    HW2 2823   0.138   6.877   4.717
  642SOL     OW 2824   0.591   4.417   6.134
  642SOL    HW1 2825   0.675   4.383   6.089
  642SOL    HW2 2826   0.550   4.343   6.187
  643SOL     OW 2827   5.622   6.335   4.760
  643SOL    HW1 2828   5.602   6.376   4.849
  643SOL    HW2 2829   5.583   6.392   4.688
  644SOL     OW 2830   3.217   6.079   1.665
  644SOL    HW1 2831   3.130   6.070   1.616
  644SOL    HW2 2832   3.287   6.025   1.618
  645SOL     OW 2833   0.702   2.945   2.934
  645SOL    HW1 2834   0.780   2.970   2.877
  645SOL    HW2 2835   0.713   2.851   2.967
  646SOL     OW 2836   1.698   3.119   4.309
  646SOL    HW1 2837   1.720   3.207   4.353
  646SOL    HW2 2838   1.757   3.107   4.229
  647SOL     OW 2839   5.486   4.328   0.459
  647SOL    HW1 2840   5.578   4.297   0.438
  647SOL    HW2 2841   5.439   4.354   0.375
  648SOL     OW 2842   4.236   2.310   3.903
  648SOL    HW1 2843   4.149   2.296   3.950
  648SOL    HW2 2844   4.230   2.273   3.810
  649SOL     OW 2845   4.326   4.478   1.505
  649SOL    HW1 2846   4.231   4.455   1.484
  649SOL    HW2 2847   4.338   4.577   1.503
  650SOL     OW 2848   5.628   5.057   0.542
  650SOL    HW1 2849   5.577   5.050   0.628
  650SOL    HW2 2850   5.622   4.970   0.493
  651SOL     OW 2851   1.589   5.821   6.374
  651SOL    HW1 2852   1.686   5.809   6.395
  651SOL    HW2 2853   1.549   5.732   6.353
  652SOL     OW 2854   5.130   2.498   1.588
  652SOL    HW1 2855   5.218   2.453   1.574
  652SOL    HW2 2856   5.076   2.496   1.504
  653SOL     OW 2857   3.338   5.314   2.556
  653SOL    HW1 2858   3.394   5.243   2.598
  653SOL    HW2 2859   3.283   5.360   2.626
  654SOL     OW 2860   0.043   5.115   6.745
  654SOL    HW1 2861   6.985   5.126   6.684
  654SOL    HW2 2862   0.010   5.106   6.839
  655SOL     OW 2863   1.668   1.760   0.028
  655SOL    HW1 2864   1.711   1.819   6.979
  655SOL    HW2 2865   1.739   1.712   0.079
  656SOL     OW 2866   1.810   6.617   1.163
  656SOL    HW1 2867   1.802   6.583   1.257
  656SOL    HW2 2868   1.850   6.547   1.105
  657SOL     OW 2869   3.980   0.339   0.115
  657SOL    HW1 2870   3.925   0.348   0.198
  657SOL    HW2 2871   3.923   0.360   0.036
  658SOL     OW 2872   3.701   5.655   0.263
  658SOL    HW1 2873   3.666   5.716   0.192
  658SOL    HW2 2874   3.672   5.688   0.353
  659SOL     OW 2875   3.622   0.297   6.250
  659SOL    HW1 2876   3.613   0.323   6.347
  659SOL    HW2 2877   3.712   0.325   6.216
  660SOL     OW 2878   2.972   6.555   3.370
  660SOL    HW1 2879   3.014   6.522   3.454
  660SOL    HW2 2880   2.890   6.501   3.350
  661SOL     OW 2881   6.443   5.016   2.717
  661SOL    HW1 2882   6.484   4.950   2.780
  661SOL    HW2 2883   6.344   5.012   2.724
  662SOL     OW 2884   4.425   2.332   6.789
  662SOL    HW1 2885   4.435   2.250   6.846
  662SOL    HW2 2886   4.332   2.369   6.800
  663SOL     OW 2887   1.187   4.490   4.422
  663SOL    HW1 2888   1.220   4.499   4.328
  663SOL    HW2 2889   1.240   4.419   4.469
  664SOL     OW 2890   5.825   0.044   6.381
  664SOL    HW1 2891   5.830   6.964   6.378
  664SOL    HW2 2892   5.733   0.072   6.408
  665SOL     OW 2893   1.692   4.002   2.096
  665SOL    HW1 2894   1.674   3.982   2.000
  665SOL    HW2 2895   1.741   3.925   2.137
  666SOL     OW 2896   4.212   0.737   2.526
  666SOL    HW1 2897   4.134   0.794   2.497
  666SOL    HW2 2898   4.178   0.657   2.575
  667SOL     OW 2899   0.447   0.447   1.478
  667SOL    HW1 2900   0.520   0.483   1.420
  667SOL    HW2 2901   0.486   0.410   1.562
  668SOL     OW 2902   5.394   3.139   0.064
  668SOL    HW1 2903   5.458   3.192   0.119
  668SOL    HW2 2904   5.443   3.066   0.016
  669SOL     OW 2905   5.189   1.388   3.176
  669SOL    HW1 2906   5.221   1.339   3.095
  669SOL    HW2 2907   5.205   1.486   3.164
  670SOL     OW 2908   4.080   2.201   2.271
  670SOL    HW1 2909   4.012   2.197   2.345
  670SOL    HW2 2910   4.035   2.181   2.184
  671SOL     OW 2911   1.147   5.734   1.641
  671SOL    HW1 2912   1.207   5.655   1.630
  671SOL    HW2 2913   1.062   5.719   1.591
  672SOL     OW 2914   0.736   0.126   1.042
  672SOL    HW1 2915   0.695   0.084   0.960
  672SOL    HW2 2916   0.664   0.151   1.106
  673SOL     OW 2917   6.192   6.948   6.561
  673SOL    HW1 2918   6.121   7.017   6.577
  673SOL    HW2 2919   6.280   6.984   6.592
  674SOL     OW 2920   5.311   0.095   4.108
  674SOL    HW1 2921   5.369   0.167   4.147
  674SOL    HW2 2922   5.346   0.005   4.135
  675SOL     OW 2923   0.983   4.880   1.949
  675SOL    HW1 2924   0.908   4.822   1.918
  675SOL    HW2 2925   0.988   4.962   1.892
  676SOL     OW 2926   2.556   5.630   6.519
  676SOL    HW1 2927   2.541   5.677   6.606
  676SOL    HW2 2928   2.629   5.676   6.468
  677SOL     OW 2929   5.498   0.628   1.356
  677SOL    HW1 2930   5.482   0.688   1.278
  677SOL    HW2 2931   5.595   0.602   1.359
  678SOL     OW 2932   0.636   5.299   4.252
  678SOL    HW1 2933   0.575   5.268   4.325
  678SOL    HW2 2934   0.695   5.372   4.287
  679SOL     OW 2935   4.855   1.272   5.919
  679SOL    HW1 2936   4.847   1.285   6.018
  679SOL    HW2 2937   4.836   1.358   5.872
  680SOL     OW 2938   6.144   6.574   4.259
  680SOL    HW1 2939   6.125   6.632   4.179
  680SOL    HW2 2940   6.222   6.515   4.239
  681SOL     OW 2941   4.114   4.884   2.624
  681SOL    HW1 2942   4.161   4.819   2.564
  681SOL    HW2 2943   4.017   4.859   2.632
  682SOL     OW 2944   6.612   1.136   2.946
  682SOL    HW1 2945   6.574   1.227   2.930
  682SOL    HW2 2946   6.584   1.075   2.873
  683SOL     OW 2947   3.344   4.950   0.332
  683SOL    HW1 2948   3.376   4.899   0.252
  683SOL    HW2 2949   3.405   5.028   0.348
  684SOL     OW 2950   6.314   1.768   6.232
  684SOL    HW1 2951   6.336   1.840   6.297
  684SOL    HW2 2952   6.328   1.679   6.275
  685SOL     OW 2953   3.113   6.862   3.767
  685SOL    HW1 2954   3.136   6.927   3.695
  685SOL    HW2 2955   3.185   6.863   3.837
  686SOL     OW 2956   3.362   0.277   5.376
  686SOL    HW1 2957   3.444   0.299   5.323
  686SOL    HW2 2958   3.288   0.340   5.351
  687SOL     OW 2959   6.979   1.038   4.569
  687SOL    HW1 2960   6.920   1.006   4.643
  687SOL    HW2 2961   0.010   1.118   4.599
  688SOL     OW 2962   5.160   3.281   0.025
  688SOL    HW1 2963   5.250   3.239   0.013
  688SOL    HW2 2964   5.164   3.345   0.101
  689SOL     OW 2965   2.632   5.583   0.176
  689SOL    HW1 2966   2.659   5.669   0.218
  689SOL    HW2 2967   2.713   5.537   0.140
  690SOL     OW 2968   5.716   3.554   4.263
  690SOL    HW1 2969   5.677   3.484   4.322
  690SOL    HW2 2970   5.677   3.643   4.286
  691SOL     OW 2971   5.655   0.910   2.348
  691SOL    HW1 2972   5.612   0.827   2.382
  691SOL    HW2 2973   5.749   0.891   2.321
  692SOL     OW 2974   1.199   0.061   3.411
  692SOL    HW1 2975   1.295   0.069   3.384
  692SOL    HW2 2976   1.140   0.071   3.330
  693SOL     OW 2977   5.947   4.219   2.450
  693SOL    HW1 2978   6.019   4.187   2.389
  693SOL    HW2 2979   5.860   4.223   2.401
  694SOL     OW 2980   4.468   4.806   4.389
  694SOL    HW1 2981   4.561   4.770   4.387
  694SOL    HW2 2982   4.453   4.855   4.475
  695SOL     OW 2983   4.574   6.930   4.069
  695SOL    HW1 2984   4.501   6.870   4.100
  695SOL    HW2 2985   4.659   6.878   4.059
  696SOL     OW 2986   5.999   4.286   1.879
  696SOL    HW1 2987   6.050   4.205   1.851
  696SOL    HW2 2988   6.053   4.336   1.947
  697SOL     OW 2989   0.753   6.385   2.779
  697SOL    HW1 2990   0.750   6.460   2.845
  697SOL    HW2 2991   0.680   6.397   2.712
  698SOL     OW 2992   5.896   6.323   6.165
  698SOL    HW1 2993   5.845   6.263   6.102
  698SOL    HW2 2994   5.886   6.418   6.136
  699SOL     OW 2995   4.050   3.326   0.855
  699SOL    HW1 2996   4.001   3.300   0.938
  699SOL    HW2 2997   4.092   3.245   0.814
  700SOL     OW 2998   3.862   6.604   5.336
  700SOL    HW1 2999   3.945   6.638   5.380
  700SOL    HW2 3000   3.830   6.672   5.269
  701SOL     OW 3001   4.639   4.521   2.070
  701SOL    HW1 3002   4.739   4.513   2.070
  701SOL    HW2 3003   4.598   4.431   2.058
  702SOL     OW 3004   3.787   0.676   4.802
  702SOL    HW1 3005   3.795   0.641   4.709
  702SOL    HW2 3006   3.701   0.646   4.842
  703SOL     OW 3007   3.901   3.031   0.595
  703SOL    HW1 3008   3.973   3.072   0.652
  703SOL    HW2 3009   3.824   3.004   0.652
  704SOL     OW 3010   4.109   1.708   0.121
  704SOL    HW1 3011   4.054   1.625   0.125
  704SOL    HW2 3012   4.062   1.782   0.168
  705SOL     OW 3013   6.953   6.244   5.683
  705SOL    HW1 3014   6.919   6.317   5.623
  705SOL    HW2 3015   0.018   6.208   5.646
  706SOL     OW 3016   4.077   0.089   4.762
  706SOL    HW1 3017   4.042   0.135   4.843
  706SOL    HW2 3018   4.022   0.113   4.682
  707SOL     OW 3019   3.171   5.075   4.174
  707SOL    HW1 3020   3.129   5.068   4.084
  707SOL    HW2 3021   3.142   4.999   4.231
  708SOL     OW 3022   2.959   6.026   3.697
  708SOL    HW1 3023   3.059   6.015   3.701
  708SOL    HW2 3024   2.937   6.123   3.682
  709SOL     OW 3025   2.177   0.055   1.906
  709SOL    HW1 3026   2.232   0.063   1.823
  709SOL    HW2 3027   2.082   0.038   1.881
  710SOL     OW 3028   5.012   3.088   2.593
  710SOL    HW1 3029   5.069   3.147   2.536
  710SOL    HW2 3030   4.987   3.136   2.677
  711SOL     OW 3031   6.893   1.406   0.953
  711SOL    HW1 3032   6.862   1.327   1.005
  711SOL    HW2 3033   6.958   1.377   0.883
  712SOL     OW 3034   5.050   4.029   0.226
  712SOL    HW1 3035   5.053   3.990   0.133
  712SOL    HW2 3036   5.098   4.116   0.226
  713SOL     OW 3037   4.336   2.862   6.218
  713SOL    HW1 3038   4.273   2.787   6.239
  713SOL    HW2 3039   4.290   2.949   6.230
  714SOL     OW 3040   4.422   6.521   2.896
  714SOL    HW1 3041   4.374   6.439   2.864
  714SOL    HW2 3042   4.370   6.562   2.971
  715SOL     OW 3043   5.972   4.430   5.562
  715SOL    HW1 3044   6.054   4.410   5.509
  715SOL    HW2 3045   5.918   4.346   5.573
  716SOL     OW 3046   3.665   1.839   3.537
  716SOL    HW1 3047   3.688   1.878   3.626
  716SOL    HW2 3048   3.613   1.905   3.484
  717SOL     OW 3049   4.918   5.060   3.931
  717SOL    HW1 3050   4.874   4.994   3.992
  717SOL    HW2 3051   5.005   5.089   3.971
  718SOL     OW 3052   6.526   1.810   5.214
  718SOL    HW1 3053   6.475   1.844   5.294
  718SOL    HW2 3054   6.462   1.786   5.142
  719SOL     OW 3055   4.684   5.536   2.609
  719SOL    HW1 3056   4.629   5.601   2.556
  719SOL    HW2 3057   4.674   5.444   2.571
  720SOL     OW 3058   3.103   1.576   1.196
  720SOL    HW1 3059   3.106   1.675   1.182
  720SOL    HW2 3060   3.129   1.555   1.290
  721SOL     OW 3061   0.045   2.759   2.145
  721SOL    HW1 3062   6.982   2.813   2.157
  721SOL    HW2 3063   0.122   2.805   2.189
  722SOL     OW 3064   5.706   6.378   1.733
  722SOL    HW1 3065   5.668   6.302   1.680
  722SOL    HW2 3066   5.664   6.381   1.823
  723SOL     OW 3067   2.114   0.690   4.353
  723SOL    HW1 3068   2.090   0.666   4.259
  723SOL    HW2 3069   2.089   0.786   4.370
  724SOL     OW 3070   1.436   2.849   4.855
  724SOL    HW1 3071   1.508   2.783   4.875
  724SOL    HW2 3072   1.347   2.810   4.876
  725SOL     OW 3073   1.408   4.135   3.326
  725SOL    HW1 3074   1.395   4.138   3.227
  725SOL    HW2 3075   1.416   4.040   3.356
  726SOL     OW 3076   2.364   3.809   0.486
  726SOL    HW1 3077   2.334   3.812   0.581
  726SOL    HW2 3078   2.437   3.741   0.475
  727SOL     OW 3079   3.484   5.254   4.567
  727SOL    HW1 3080   3.423   5.281   4.642
  727SOL    HW2 3081   3.566   5.312   4.568
  728SOL     OW 3082   5.980   3.436   3.516
  728SOL    HW1 3083   5.899   3.492   3.495
  728SOL    HW2 3084   6.009   3.454   3.610
  729SOL     OW 3085   0.968   5.146   0.295
  729SOL    HW1 3086   0.890   5.176   0.240
  729SOL    HW2 3087   0.946   5.158   0.392
  730SOL     OW 3088   4.209   1.630   3.110
  730SOL    HW1 3089   4.241   1.708   3.057
  730SOL    HW2 3090   4.286   1.590   3.161
  731SOL     OW 3091   4.839   4.384   4.981
  731SOL    HW1 3092   4.801   4.344   4.898
  731SOL    HW2 3093   4.817   4.327   5.060
  732SOL     OW 3094   4.482   0.763   4.208
  732SOL    HW1 3095   4.430   0.746   4.291
  732SOL    HW2 3096   4.580   0.762   4.229
  733SOL     OW 3097   0.365   4.976   4.234
  733SOL    HW1 3098   0.363   5.071   4.265
  733SOL    HW2 3099   0.416   4.970   4.148
  734SOL     OW 3100   5.950   5.963   3.338
  734SOL    HW1 3101   5.893   6.036   3.375
  734SOL    HW2 3102   5.895   5.880   3.326
  735SOL     OW 3103   4.397   0.517   2.811
  735SOL    HW1 3104   4.313   0.530   2.759
  735SOL    HW2 3105   4.398   0.580   2.889
  736SOL     OW 3106   1.749   2.049   4.199
  736SOL    HW1 3107   1.791   2.078   4.284
  736SOL    HW2 3108   1.653   2.027   4.215
  737SOL     OW 3109   3.358   0.720   6.190
  737SOL    HW1 3110   3.450   0.685   6.210
  737SOL    HW2 3111   3.321   0.673   6.110
  738SOL     OW 3112   1.719   5.416   0.215
  738SOL    HW1 3113   1.624   5.386   0.199
  738SOL    HW2 3114   1.723   5.468   0.300
  739SOL     OW 3115   1.690   0.608   3.300
  739SOL    HW1 3116   1.741   0.582   3.219
  739SOL    HW2 3117   1.754   0.636   3.372
  740SOL     OW 3118   4.812   2.931   2.929
  740SOL    HW1 3119   4.886   2.900   2.869
  740SOL    HW2 3120   4.762   2.851   2.964
  741SOL     OW 3121   2.715   1.730   2.827
  741SOL    HW1 3122   2.644   1.747   2.896
  741SOL    HW2 3123   2.793   1.684   2.869
  742SOL     OW 3124   2.375   0.466   2.501
  742SOL    HW1 3125   2.295   0.441   2.556
  742SOL    HW2 3126   2.392   0.395   2.432
  743SOL     OW 3127   0.217   6.605   2.804
  743SOL    HW1 3128   0.288   6.542   2.771
  743SOL    HW2 3129   0.240   6.698   2.777
  744SOL     OW 3130   5.267   1.966   1.242
  744SOL    HW1 3131   5.341   1.919   1.291
  744SOL    HW2 3132   5.294   1.979   1.146
  745SOL     OW 3133   1.812   0.010   5.474
  745SOL    HW1 3134   1.878   0.009   5.399
  745SOL    HW2 3135   1.808   0.101   5.514
  746SOL     OW 3136   6.198   5.683   4.694
  746SOL    HW1 3137   6.257   5.736   4.634
  746SOL    HW2 3138   6.130   5.743   4.736
  747SOL     OW 3139   3.830   5.134   2.563
  747SOL    HW1 3140   3.847   5.169   2.471
  747SOL    HW2 3141   3.731   5.124   2.576
  748SOL     OW 3142   6.197   4.864   2.278
  748SOL    HW1 3143   6.269   4.864   2.208
  748SOL    HW2 3144   6.145   4.949   2.273
  749SOL     OW 3145   4.705   4.301   4.588
  749SOL    HW1 3146   4.803   4.322   4.583
  749SOL    HW2 3147   4.692   4.212   4.632
  750SOL     OW 3148   2.573   2.166   3.161
  750SOL    HW1 3149   2.659   2.218   3.160
  750SOL    HW2 3150   2.563   2.117   3.075
  751SOL     OW 3151   4.324   0.294   0.443
  751SOL    HW1 3152   4.339   0.195   0.449
  751SOL    HW2 3153   4.298   0.319   0.350
  752SOL     OW 3154   3.027   3.515   4.814
  752SOL    HW1 3155   3.033   3.462   4.729
  752SOL    HW2 3156   3.109   3.573   4.822
  753SOL     OW 3157   3.710   3.846   3.456
  753SOL    HW1 3158   3.809   3.851   3.467
  753SOL    HW2 3159   3.683   3.899   3.376
  754SOL     OW 3160   4.832   0.314   6.756
  754SOL    HW1 3161   4.789   0.228   6.783
  754SOL    HW2 3162   4.821   0.327   6.657
  755SOL     OW 3163   4.689   4.252   5.185
  755SOL    HW1 3164   4.619   4.197   5.231
  755SOL    HW2 3165   4.652   4.342   5.163
  756SOL     OW 3166   3.075   5.490   5.676
  756SOL    HW1 3167   3.059   5.538   5.591
  756SOL    HW2 3168   2.994   5.436   5.701
  757SOL     OW 3169   1.306   6.945   1.810
  757SOL    HW1 3170   1.285   0.019   1.836
  757SOL    HW2 3171   1.348   6.945   1.719
  758SOL     OW 3172   3.903   1.346   5.055
  758SOL    HW1 3173   3.852   1.418   5.103
  758SOL    HW2 3174   3.839   1.287   5.006
  759SOL     OW 3175   0.084   2.739   3.497
  759SOL    HW1 3176   0.169   2.694   3.473
  759SOL    HW2 3177   0.010   2.705   3.439
  760SOL     OW 3178   6.889   5.552   4.076
  760SOL    HW1 3179   6.975   5.503   4.094
  760SOL    HW2 3180   6.826   5.492   4.026
  761SOL     OW 3181   4.819   4.910   5.915
  761SOL    HW1 3182   4.818   4.842   5.841
  761SOL    HW2 3183   4.785   4.867   5.998
  762SOL     OW 3184   3.871   5.860   3.264
  762SOL    HW1 3185   3.844   5.881   3.358
  762SOL    HW2 3186   3.843   5.767   3.241
  763SOL     OW 3187   5.679   1.279   0.714
  763SOL    HW1 3188   5.722   1.331   0.639
  763SOL    HW2 3189   5.660   1.341   0.790
  764SOL     OW 3190   5.305   6.363   5.065
  764SOL    HW1 3191   5.320   6.460   5.050
  764SOL    HW2 3192   5.327   6.340   5.160
  765SOL     OW 3193   5.723   6.052   0.440
  765SOL    HW1 3194   5.685   5.982   0.379
  765SOL    HW2 3195   5.823   6.048   0.437
  766SOL     OW 3196   2.726   1.960   3.754
  766SOL    HW1 3197   2.753   2.055   3.740
  766SOL    HW2 3198   2.745   1.933   3.848
  767SOL     OW 3199   6.676   6.070   3.331
  767SOL    HW1 3200   6.590   6.113   3.358
  767SOL    HW2 3201   6.658   5.982   3.289
  768SOL     OW 3202   2.555   5.579   1.857
  768SOL    HW1 3203   2.631   5.541   1.805
  768SOL    HW2 3204   2.561   5.549   1.952
  769SOL     OW 3205   3.607   1.580   5.444
  769SOL    HW1 3206   3.560   1.541   5.365
  769SOL    HW2 3207   3.556   1.559   5.528
  770SOL     OW 3208   0.728   4.647   5.655
  770SOL    HW1 3209   0.742   4.549   5.671
  770SOL    HW2 3210   0.816   4.694   5.657
  771SOL     OW 3211   1.522   4.770   2.497
  771SOL    HW1 3212   1.480   4.699   2.554
  771SOL    HW2 3213   1.617   4.783   2.525
  772SOL     OW 3214   6.193   4.876   0.350
  772SOL    HW1 3215   6.178   4.782   0.318
  772SOL    HW2 3216   6.109   4.911   0.392
  773SOL     OW 3217   1.777   5.017   4.098
  773SOL    HW1 3218   1.828   5.046   4.179
  773SOL    HW2 3219   1.686   4.987   4.125
  774SOL     OW 3220   1.956   2.226   4.038
  774SOL    HW1 3221   1.868   2.253   3.999
  774SOL    HW2 3222   2.028   2.235   3.969
  775SOL     OW 3223   0.628   4.111   2.080
  775SOL    HW1 3224   0.659   4.043   2.014
  775SOL    HW2 3225   0.690   4.190   2.078
  776SOL     OW 3226   3.458   5.040   7.014
  776SOL    HW1 3227   3.453   4.951   0.039
  776SOL    HW2 3228   3.461   5.027   6.915
  777SOL     OW 3229   1.905   3.724   6.531
  777SOL    HW1 3230   1.812   3.727   6.567
  777SOL    HW2 3231   1.964   3.781   6.587
  778SOL     OW 3232   3.800   5.534   6.872
  778SOL    HW1 3233   3.792   5.516   6.774
  778SOL    HW2 3234   3.897   5.543   6.896
  779SOL     OW 3235   5.763   2.176   3.472
  779SOL    HW1 3236   5.723   2.092   3.509
  779SOL    HW2 3237   5.792   2.161   3.378
  780SOL     OW 3238   6.198   1.589   4.541
  780SOL    HW1 3239   6.225   1.522   4.611
  780SOL    HW2 3240   6.279   1.617   4.489
  781SOL     OW 3241   0.744   5.102   6.540
  781SOL    HW1 3242   0.743   5.189   6.490
  781SOL    HW2 3243   0.671   5.103   6.608
  782SOL     OW 3244   2.266   4.410   5.437
  782SOL    HW1 3245   2.178   4.458   5.434
  782SOL    HW2 3246   2.257   4.323   5.388
  783SOL     OW 3247   6.842   4.869   6.309
  783SOL    HW1 3248   6.787   4.944   6.273
  783SOL    HW2 3249   6.933   4.903   6.334
  784SOL     OW 3250   1.991   5.613   6.226
  784SOL    HW1 3251   2.017   5.550   6.153
  784SOL    HW2 3252   2.070   5.668   6.253
  785SOL     OW 3253   0.526   0.189   3.791
  785SOL    HW1 3254   0.609   0.136   3.809
  785SOL    HW2 3255   0.456   0.166   3.859
  786SOL     OW 3256   6.064   1.032   4.586
  786SOL    HW1 3257   6.007   1.029   4.668
  786SOL    HW2 3258   6.031   0.964   4.520
  787SOL     OW 3259   2.067   6.561   0.583
  787SOL    HW1 3260   1.976   6.561   0.542
  787SOL    HW2 3261   2.130   6.611   0.524
  788SOL     OW 3262   2.081   3.248   2.226
  788SOL    HW1 3263   2.122   3.324   2.175
  788SOL    HW2 3264   2.079   3.271   2.323
  789SOL     OW 3265   3.576   5.172   2.675
  789SOL    HW1 3266   3.623   5.214   2.753
  789SOL    HW2 3267   3.531   5.087   2.705
  790SOL     OW 3268   0.001   3.473   2.065
  790SOL    HW1 3269   6.982   3.540   2.128
  790SOL    HW2 3270   0.095   3.452   2.092
  791SOL     OW 3271   3.414   1.506   3.439
  791SOL    HW1 3272   3.329   1.558   3.427
  791SOL    HW2 3273   3.472   1.553   3.505
  792SOL     OW 3274   2.364   0.205   0.394
  792SOL    HW1 3275   2.301   0.276   0.363
  792SOL    HW2 3276   2.435   0.246   0.452
  793SOL     OW 3277   1.774   5.867   4.553
  793SOL    HW1 3278   1.695   5.884   4.612
  793SOL    HW2 3279   1.746   5.869   4.457
  794SOL     OW 3280   3.408   3.732   2.274
  794SOL    HW1 3281   3.495   3.747   2.322
  794SOL    HW2 3282   3.333   3.773   2.325
  795SOL     OW 3283   4.533   6.846   5.111
  795SOL    HW1 3284   4.568   6.937   5.092
  795SOL    HW2 3285   4.433   6.850   5.122
  796SOL     OW 3286   1.150   2.652   6.514
  796SOL    HW1 3287   1.233   2.708   6.513
  796SOL    HW2 3288   1.085   2.687   6.446
  797SOL     OW 3289   3.397   6.973   1.011
  797SOL    HW1 3290   3.476   6.913   1.020
  797SOL    HW2 3291   3.403   0.004   0.925
  798SOL     OW 3292   4.888   4.219   1.579
  798SOL    HW1 3293   4.921   4.304   1.621
  798SOL    HW2 3294   4.804   4.191   1.624
  799SOL     OW 3295   3.705   3.141   5.323
  799SOL    HW1 3296   3.752   3.219   5.363
  799SOL    HW2 3297   3.726   3.136   5.225
  800SOL     OW 3298   5.517   3.018   2.968
  800SOL    HW1 3299   5.444   2.949   2.972
  800SOL    HW2 3300   5.584   2.992   2.899
  801SOL     OW 3301   2.170   5.449   6.790
  801SOL    HW1 3302   2.094   5.507   6.819
  801SOL    HW2 3303   2.256   5.488   6.822
  802SOL     OW 3304   4.207   2.416   6.006
  802SOL    HW1 3305   4.124   2.468   6.026
  802SOL    HW2 3306   4.185   2.340   5.945
  803SOL     OW 3307   2.581   2.487   3.282
  803SOL    HW1 3308   2.535   2.450   3.202
  803SOL    HW2 3309   2.680   2.472   3.275
  804SOL     OW 3310   4.701   6.891   3.105
  804SOL    HW1 3311   4.693   6.920   3.010
  804SOL    HW2 3312   4.791   6.849   3.120
  805SOL     OW 3313   3.687   1.878   3.812
  805SOL    HW1 3314   3.724   1.801   3.864
  805SOL    HW2 3315   3.611   1.920   3.862
  806SOL     OW 3316   4.192   6.053   6.060
  806SOL    HW1 3317   4.195   6.145   6.021
  806SOL    HW2 3318   4.218   6.056   6.156
  807SOL     OW 3319   1.304   6.558   6.101
  807SOL    HW1 3320   1.400   6.542   6.080
  807SOL    HW2 3321   1.275   6.494   6.173
  808SOL     OW 3322   5.314   2.287   6.052
  808SOL    HW1 3323   5.348   2.374   6.016
  808SOL    HW2 3324   5.330   2.215   5.984
  809SOL     OW 3325   3.177   6.553   6.314
  809SOL    HW1 3326   3.078   6.545   6.317
  809SOL    HW2 3327   3.203   6.619   6.243
  810SOL     OW 3328   4.089   4.127   6.805
  810SOL    HW1 3329   4.077   4.029   6.787
  810SOL    HW2 3330   4.011   4.161   6.857
  811SOL     OW 3331   5.658   5.778   4.878
  811SOL    HW1 3332   5.662   5.678   4.873
  811SOL    HW2 3333   5.707   5.817   4.800
  812SOL     OW 3334   1.316   2.859   0.914
  812SOL    HW1 3335   1.307   2.761   0.894
  812SOL    HW2 3336   1.235   2.891   0.963
  813SOL     OW 3337   3.266   1.899   5.252
  813SOL    HW1 3338   3.303   1.810   5.223
  813SOL    HW2 3339   3.227   1.890   5.344
  814SOL     OW 3340   0.523   4.722   1.298
  814SOL    HW1 3341   0.581   4.665   1.240
  814SOL    HW2 3342   0.454   4.768   1.243
  815SOL     OW 3343   4.739   0.740   3.896
  815SOL    HW1 3344   4.798   0.796   3.954
  815SOL    HW2 3345   4.707   0.660   3.948
  816SOL     OW 3346   5.553   3.800   6.188
  816SOL    HW1 3347   5.507   3.784   6.101
  816SOL    HW2 3348   5.611   3.881   6.182
  817SOL     OW 3349   6.856   5.359   6.674
  817SOL    HW1 3350   6.915   5.328   6.600
  817SOL    HW2 3351   6.804   5.439   6.645
  818SOL     OW 3352   6.633   0.937   5.578
  818SOL    HW1 3353   6.655   0.889   5.663
  818SOL    HW2 3354   6.615   0.870   5.506
  819SOL     OW 3355   5.686   3.715   1.718
  819SOL    HW1 3356   5.612   3.656   1.686
  819SOL    HW2 3357   5.650   3.807   1.734
  820SOL     OW 3358   2.415   1.884   5.696
  820SOL    HW1 3359   2.481   1.956   5.674
  820SOL    HW2 3360   2.325   1.925   5.712
  821SOL     OW 3361   5.349   3.285   6.020
  821SOL    HW1 3362   5.270   3.338   6.049
  821SOL    HW2 3363   5.394   3.331   5.944
  822SOL     OW 3364   6.993   4.351   3.265
  822SOL    HW1 3365   6.908   4.353   3.213
  822SOL    HW2 3366   0.050   4.358   3.203
  823SOL     OW 3367   2.088   2.907   4.266
  823SOL    HW1 3368   2.104   3.005   4.284
  823SOL    HW2 3369   1.994   2.894   4.235
  824SOL     OW 3370   5.301   0.497   6.472
  824SOL    HW1 3371   5.214   0.464   6.436
  824SOL    HW2 3372   5.284   0.575   6.533
  825SOL     OW 3373   6.233   5.619   0.945
  825SOL    HW1 3374   6.211   5.569   0.861
  825SOL    HW2 3375   6.320   5.666   0.934
  826SOL     OW 3376   3.804   2.116   0.347
  826SOL    HW1 3377   3.873   2.180   0.314
  826SOL    HW2 3378   3.717   2.134   0.301
  827SOL     OW 3379   3.594   3.079   4.762
  827SOL    HW1 3380   3.558   2.993   4.726
  827SOL    HW2 3381   3.683   3.098   4.720
  828SOL     OW 3382   0.781   6.616   6.131
  828SOL    HW1 3383   0.773   6.588   6.036
  828SOL    HW2 3384   0.821   6.708   6.136
  829SOL     OW 3385   3.837   3.272   1.665
  829SOL    HW1 3386   3.929   3.269   1.703
  829SOL    HW2 3387   3.773   3.232   1.730
  830SOL     OW 3388   6.847   3.935   5.901
  830SOL    HW1 3389   6.921   4.002   5.912
  830SOL    HW2 3390   6.782   3.968   5.832
  831SOL     OW 3391   5.920   1.462   3.064
  831SOL    HW1 3392   5.863   1.384   3.041
  831SOL    HW2 3393   5.869   1.547   3.049
  832SOL     OW 3394   3.075   2.144   4.796
  832SOL    HW1 3395   3.110   2.186   4.880
  832SOL    HW2 3396   3.097   2.047   4.795
  833SOL     OW 3397   3.834   2.829   6.577
  833SOL    HW1 3398   3.798   2.872   6.494
  833SOL    HW2 3399   3.933   2.843   6.582
  834SOL     OW 3400   5.769   3.459   0.688
  834SOL    HW1 3401   5.821   3.483   0.770
  834SOL    HW2 3402   5.780   3.361   0.670
  835SOL     OW 3403   6.378   6.642   5.224
  835SOL    HW1 3404   6.286   6.681   5.220
  835SOL    HW2 3405   6.377   6.550   5.184
  836SOL     OW 3406   5.833   6.830   4.091
  836SOL    HW1 3407   5.816   6.867   3.999
  836SOL    HW2 3408   5.781   6.746   4.104
  837SOL     OW 3409   0.995   0.690   6.583
  837SOL    HW1 3410   0.950   0.621   6.525
  837SOL    HW2 3411   0.982   0.666   6.679
  838SOL     OW 3412   1.315   5.801   3.140
  838SOL    HW1 3413   1.336   5.725   3.078
  838SOL    HW2 3414   1.353   5.886   3.103
  839SOL     OW 3415   1.184   2.832   0.101
  839SOL    HW1 3416   1.089   2.823   0.131
  839SOL    HW2 3417   1.191   2.804   0.006
  840SOL     OW 3418   4.348   5.366   0.543
  840SOL    HW1 3419   4.442   5.402   0.549
  840SOL    HW2 3420   4.296   5.421   0.477
  841SOL     OW 3421   3.101   5.266   6.270
  841SOL    HW1 3422   3.166   5.339   6.290
  841SOL    HW2 3423   3.111   5.238   6.174
  842SOL     OW 3424   4.530   6.809   1.713
  842SOL    HW1 3425   4.583   6.893   1.701
  842SOL    HW2 3426   4.538   6.753   1.630
  843SOL     OW 3427   1.422   0.287   2.156
  843SOL    HW1 3428   1.352   0.217   2.151
  843SOL    HW2 3429   1.453   0.310   2.064
  844SOL     OW 3430   6.993   6.565   1.720
  844SOL    HW1 3431   0.052   6.582   1.778
  844SOL    HW2 3432   6.951   6.478   1.744
  845SOL     OW 3433   3.854   1.433   1.534
  845SOL    HW1 3434   3.923   1.505   1.536
  845SOL    HW2 3435   3.807   1.435   1.445
  846SOL     OW 3436   1.268   1.363   1.301
  846SOL    HW1 3437   1.261   1.273   1.259
  846SOL    HW2 3438   1.363   1.380   1.330
  847SOL     OW 3439   2.517   3.282   1.351
  847SOL    HW1 3440   2.517   3.382   1.357
  847SOL    HW2 3441   2.470   3.254   1.267
  848SOL     OW 3442   6.411   5.978   0.837
  848SOL    HW1 3443   6.407   6.041   0.759
  848SOL    HW2 3444   6.506   5.951   0.853
  849SOL     OW 3445   5.321   3.353   6.380
  849SOL    HW1 3446   5.288   3.302   6.460
  849SOL    HW2 3447   5.246   3.363   6.314
  850SOL     OW 3448   1.927   1.273   4.531
  850SOL    HW1 3449   1.962   1.331   4.458
  850SOL    HW2 3450   1.866   1.326   4.590
  851SOL     OW 3451   4.853   2.576   5.941
  851SOL    HW1 3452   4.897   2.500   5.988
  851SOL    HW2 3453   4.831   2.550   5.847
  852SOL     OW 3454   6.684   4.905   1.768
  852SOL    HW1 3455   6.755   4.857   1.717
  852SOL    HW2 3456   6.705   5.003   1.772
  853SOL     OW 3457   3.359   2.563   0.676
  853SOL    HW1 3458   3.418   2.529   0.602
  853SOL    HW2 3459   3.289   2.623   0.638
  854SOL     OW 3460   6.883   0.039   6.107
  854SOL    HW1 3461   6.919   0.123   6.147
  854SOL    HW2 3462   6.903   0.037   6.009
  855SOL     OW 3463   4.846   1.836   0.235
  855SOL    HW1 3464   4.919   1.772   0.209
  855SOL    HW2 3465   4.830   1.830   0.333
  856SOL     OW 3466   1.698   5.629   1.694
  856SOL    HW1 3467   1.650   5.542   1.684
  856SOL    HW2 3468   1.792   5.619   1.661
  857SOL     OW 3469   7.008   6.430   4.864
  857SOL    HW1 3470   0.021   6.457   4.774
  857SOL    HW2 3471   6.976   6.512   4.913
  858SOL     OW 3472   3.299   3.927   0.050
  858SOL    HW1 3473   3.392   3.938   0.013
  858SOL    HW2 3474   3.233   3.928   6.995
  859SOL     OW 3475   4.569   5.805   5.468
  859SOL    HW1 3476   4.590   5.852   5.554
  859SOL    HW2 3477   4.625   5.723   5.460
  860SOL     OW 3478   4.438   3.244   6.441
  860SOL    HW1 3479   4.492   3.170   6.401
  860SOL    HW2 3480   4.388   3.292   6.369
  861SOL     OW 3481   0.947   5.930   2.251
  861SOL    HW1 3482   1.032   5.972   2.284
  861SOL    HW2 3483   0.899   5.995   2.192
  862SOL     OW 3484   0.883   4.112   3.917
  862SOL    HW1 3485   0.837   4.067   3.841
  862SOL    HW2 3486   0.827   4.187   3.951
  863SOL     OW 3487   5.253   0.668   1.443
  863SOL    HW1 3488   5.347   0.636   1.430
  863SOL    HW2 3489   5.194   0.627   1.375
  864SOL     OW 3490   5.886   4.847   3.140
  864SOL    HW1 3491   5.984   4.846   3.159
  864SOL    HW2 3492   5.866   4.919   3.074
  865SOL     OW 3493   1.521   5.084   4.665
  865SOL    HW1 3494   1.561   5.086   4.756
  865SOL    HW2 3495   1.595   5.080   4.597
  866SOL     OW 3496   3.987   0.020   1.514
  866SOL    HW1 3497   3.932   6.959   1.538
  866SOL    HW2 3498   3.977   0.088   1.586
  867SOL     OW 3499   5.679   3.713   5.191
  867SOL    HW1 3500   5.771   3.677   5.185
  867SOL    HW2 3501   5.666   3.757   5.280
  868SOL     OW 3502   0.738   1.712   2.235
  868SOL    HW1 3503   0.800   1.777   2.280
  868SOL    HW2 3504   0.752   1.716   2.136
  869SOL     OW 3505   0.595   3.211   1.901
  869SOL    HW1 3506   0.679   3.157   1.911
  869SOL    HW2 3507   0.556   3.197   1.810
  870SOL     OW 3508   3.790   4.861   1.852
  870SOL    HW1 3509   3.715   4.830   1.910
  870SOL    HW2 3510   3.842   4.782   1.818
  871SOL     OW 3511   4.514   1.527   3.695
  871SOL    HW1 3512   4.487   1.454   3.757
  871SOL    HW2 3513   4.451   1.604   3.704
  872SOL     OW 3514   1.485   2.674   5.152
  872SOL    HW1 3515   1.398   2.623   5.150
  872SOL    HW2 3516   1.540   2.649   5.072
  873SOL     OW 3517   3.979   0.248   6.406
  873SOL    HW1 3518   3.946   0.338   6.433
  873SOL    HW2 3519   3.923   0.178   6.451
  874SOL     OW 3520   6.399   4.005   2.217
  874SOL    HW1 3521   6.375   3.913   2.249
  874SOL    HW2 3522   6.319   4.064   2.224
  875SOL     OW 3523   5.482   5.393   2.424
  875SOL    HW1 3524   5.452   5.299   2.408
  875SOL    HW2 3525   5.435   5.455   2.362
  876SOL     OW 3526   6.281   1.262   6.500
  876SOL    HW1 3527   6.363   1.308   6.464
  876SOL    HW2 3528   6.263   1.295   6.592
  877SOL     OW 3529   1.391   3.290   6.798
  877SOL    HW1 3530   1.309   3.288   6.740
  877SOL    HW2 3531   1.455   3.220   6.767
  878SOL     OW 3532   3.978   6.459   4.162
  878SOL    HW1 3533   3.911   6.459   4.088
  878SOL    HW2 3534   3.999   6.553   4.188
  879SOL     OW 3535   5.505   6.933   5.885
  879SOL    HW1 3536   5.445   6.900   5.958
  879SOL    HW2 3537   5.451   6.979   5.815
  880SOL     OW 3538   3.524   2.941   3.140
  880SOL    HW1 3539   3.523   3.018   3.204
  880SOL    HW2 3540   3.619   2.915   3.121
  881SOL     OW 3541   4.106   2.383   0.491
  881SOL    HW1 3542   4.154   2.465   0.522
  881SOL    HW2 3543   4.171   2.321   0.445
  882SOL     OW 3544   1.922   2.902   3.538
  882SOL    HW1 3545   2.000   2.842   3.552
  882SOL    HW2 3546   1.837   2.853   3.559
  883SOL     OW 3547   2.357   6.540   2.753
  883SOL    HW1 3548   2.316   6.600   2.821
  883SOL    HW2 3549   2.303   6.544   2.668
  884SOL     OW 3550   2.494   3.401   5.950
  884SOL    HW1 3551   2.521   3.488   5.992
  884SOL    HW2 3552   2.574   3.343   5.937
  885SOL     OW 3553   4.357   3.003   6.641
  885SOL    HW1 3554   4.313   3.083   6.600
  885SOL    HW2 3555   4.351   3.008   6.740
  886SOL     OW 3556   3.640   1.448   6.384
  886SOL    HW1 3557   3.574   1.490   6.322
  886SOL    HW2 3558   3.601   1.443   6.476
  887SOL     OW 3559   4.168   0.990   5.159
  887SOL    HW1 3560   4.247   1.028   5.206
  887SOL    HW2 3561   4.187   0.984   5.061
  888SOL     OW 3562   0.747   6.894   1.848
  888SOL    HW1 3563   0.766   6.985   1.884
  888SOL    HW2 3564   0.669   6.854   1.896
  889SOL     OW 3565   0.456   3.973   0.603
  889SOL    HW1 3566   0.507   3.888   0.610
  889SOL    HW2 3567   0.360   3.957   0.626
  890SOL     OW 3568   2.040   5.817   4.649
  890SOL    HW1 3569   1.947   5.842   4.621
  890SOL    HW2 3570   2.094   5.793   4.569
  891SOL     OW 3571   4.997   4.527   2.351
  891SOL    HW1 3572   4.981   4.462   2.277
  891SOL    HW2 3573   5.038   4.610   2.314
  892SOL     OW 3574   2.423   4.240   1.025
  892SOL    HW1 3575   2.366   4.297   0.965
  892SOL    HW2 3576   2.496   4.296   1.065
  893SOL     OW 3577   1.592   5.176   2.462
  893SOL    HW1 3578   1.500   5.191   2.427
  893SOL    HW2 3579   1.592   5.093   2.518
  894SOL     OW 3580   0.837   4.788   1.384
  894SOL    HW1 3581   0.847   4.699   1.340
  894SOL    HW2 3582   0.767   4.841   1.337
  895SOL     OW 3583   0.082   5.079   4.236
  895SOL    HW1 3584   0.055   5.089   4.332
  895SOL    HW2 3585   0.025   5.010   4.192
  896SOL     OW 3586   6.898   1.058   6.375
  896SOL    HW1 3587   6.914   0.990   6.447
  896SOL    HW2 3588   6.961   1.042   6.299
  897SOL     OW 3589   5.572   1.070   0.880
  897SOL    HW1 3590   5.625   1.150   0.853
  897SOL    HW2 3591   5.622   1.019   0.950
  898SOL     OW 3592   3.795   1.179   2.739
  898SOL    HW1 3593   3.850   1.198   2.821
  898SOL    HW2 3594   3.764   1.084   2.740
  899SOL     OW 3595   6.535   6.603   6.639
  899SOL    HW1 3596   6.585   6.603   6.552
  899SOL    HW2 3597   6.592   6.646   6.710
  900SOL     OW 3598   5.175   5.506   6.672
  900SOL    HW1 3599   5.155   5.457   6.757
  900SOL    HW2 3600   5.263   5.553   6.680
  901SOL     OW 3601   1.031   0.565   3.052
  901SOL    HW1 3602   0.990   0.656   3.049
  901SOL    HW2 3603   1.090   0.557   3.132
  902SOL     OW 3604   0.022   3.207   1.734
  902SOL    HW1 3605   0.116   3.184   1.761
  902SOL    HW2 3606   7.018   3.296   1.773
  903SOL     OW 3607   6.876   0.609   0.598
  903SOL    HW1 3608   6.868   0.549   0.677
  903SOL    HW2 3609   6.870   0.704   0.627
  904SOL     OW 3610   2.449   0.934   3.456
  904SOL    HW1 3611   2.457   1.033   3.460
  904SOL    HW2 3612   2.392   0.908   3.378
  905SOL     OW 3613   5.927   2.031   6.180
  905SOL    HW1 3614   5.908   2.128   6.168
  905SOL    HW2 3615   5.847   1.986   6.220
  906SOL     OW 3616   5.386   3.422   0.789
  906SOL    HW1 3617   5.362   3.360   0.714
  906SOL    HW2 3618   5.392   3.516   0.754
  907SOL     OW 3619   5.674   4.056   6.476
  907SOL    HW1 3620   5.606   4.092   6.412
  907SOL    HW2 3621   5.753   4.021   6.425
  908SOL     OW 3622   0.280   3.741   3.325
  908SOL    HW1 3623   0.185   3.708   3.332
  908SOL    HW2 3624   0.292   3.821   3.383
  909SOL     OW 3625   5.220   4.988   5.960
  909SOL    HW1 3626   5.212   5.014   5.864
  909SOL    HW2 3627   5.199   5.068   6.018
  910SOL     OW 3628   3.480   4.460   0.349
  910SOL    HW1 3629   3.415   4.399   0.394
  910SOL    HW2 3630   3.484   4.439   0.251
  911SOL     OW 3631   1.177   4.742   5.830
  911SOL    HW1 3632   1.098   4.720   5.887
  911SOL    HW2 3633   1.159   4.713   5.736
  912SOL     OW 3634   5.221   1.306   5.290
  912SOL    HW1 3635   5.218   1.224   5.233
  912SOL    HW2 3636   5.128   1.334   5.313
  913SOL     OW 3637   4.417   6.065   2.883
  913SOL    HW1 3638   4.381   6.154   2.858
  913SOL    HW2 3639   4.365   6.028   2.960
  914SOL     OW 3640   3.547   6.674   5.901
  914SOL    HW1 3641   3.564   6.773   5.912
  914SOL    HW2 3642   3.485   6.659   5.825
  915SOL     OW 3643   5.296   5.671   1.511
  915SOL    HW1 3644   5.340   5.702   1.426
  915SOL    HW2 3645   5.308   5.572   1.519
  916SOL     OW 3646   1.218   3.464   2.761
  916SOL    HW1 3647   1.316   3.480   2.745
  916SOL    HW2 3648   1.168   3.549   2.750
  917SOL     OW 3649   0.476   0.034   6.461
  917SOL    HW1 3650   0.399   7.008   6.505
  917SOL    HW2 3651   0.492   0.122   6.505
  918SOL     OW 3652   3.544   6.350   6.889
  918SOL    HW1 3653   3.594   6.384   6.969
  918SOL    HW2 3654   3.547   6.250   6.887
  919SOL     OW 3655   4.553   0.803   6.330
  919SOL    HW1 3656   4.637   0.853   6.351
  919SOL    HW2 3657   4.549   0.782   6.232
  920SOL     OW 3658   3.016   4.755   1.970
  920SOL    HW1 3659   2.948   4.692   1.932
  920SOL    HW2 3660   3.065   4.710   2.045
  921SOL     OW 3661   4.715   5.464   5.365
  921SOL    HW1 3662   4.746   5.535   5.302
  921SOL    HW2 3663   4.792   5.433   5.421
  922SOL     OW 3664   2.999   3.696   3.322
  922SOL    HW1 3665   3.064   3.771   3.312
  922SOL    HW2 3666   3.043   3.609   3.298
  923SOL     OW 3667   2.457   3.875   5.696
  923SOL    HW1 3668   2.377   3.817   5.703
  923SOL    HW2 3669   2.529   3.827   5.646
  924SOL     OW 3670   0.579   3.246   1.294
  924SOL    HW1 3671   0.672   3.257   1.257
  924SOL    HW2 3672   0.561   3.149   1.310
  925SOL     OW 3673   0.586   1.552   6.910
  925SOL    HW1 3674   0.589   1.470   6.852
  925SOL    HW2 3675   0.590   1.634   6.852
  926SOL     OW 3676   2.173   2.053   1.092
  926SOL    HW1 3677   2.151   2.132   1.035
  926SOL    HW2 3678   2.130   2.064   1.182
  927SOL     OW 3679   6.775   3.329   4.944
  927SOL    HW1 3680   6.832   3.278   5.008
  927SOL    HW2 3681   6.829   3.401   4.901
  928SOL     OW 3682   2.898   5.295   5.689
  928SOL    HW1 3683   2.806   5.327   5.713
  928SOL    HW2 3684   2.891   5.216   5.629
  929SOL     OW 3685   0.539   2.007   4.836
  929SOL    HW1 3686   0.534   1.911   4.865
  929SOL    HW2 3687   0.581   2.061   4.909
  930SOL     OW 3688   5.834   5.274   5.131
  930SOL    HW1 3689   5.797   5.185   5.106
  930SOL    HW2 3690   5.800   5.343   5.066
  931SOL     OW 3691   6.121   0.566   3.413
  931SOL    HW1 3692   6.070   0.650   3.429
  931SOL    HW2 3693   6.190   0.554   3.484
  932SOL     OW 3694   3.759   0.022   3.479
  932SOL    HW1 3695   3.693   0.092   3.505
  932SOL    HW2 3696   3.852   0.057   3.489
  933SOL     OW 3697   1.032   5.498   1.887
  933SOL    HW1 3698   1.057   5.586   1.927
  933SOL    HW2 3699   0.943   5.469   1.921
  934SOL     OW 3700   1.901   2.725   0.517
  934SOL    HW1 3701   1.972   2.724   0.447
  934SOL    HW2 3702   1.816   2.760   0.477
  935SOL     OW 3703   5.510   2.766   5.416
  935SOL    HW1 3704   5.593   2.815   5.389
  935SOL    HW2 3705   5.499   2.772   5.515
  936SOL     OW 3706   2.021   0.418   6.423
  936SOL    HW1 3707   2.075   0.389   6.344
  936SOL    HW2 3708   2.069   0.491   6.472
  937SOL     OW 3709   3.148   2.539   6.460
  937SOL    HW1 3710   3.097   2.526   6.375
  937SOL    HW2 3711   3.212   2.615   6.449
  938SOL     OW 3712   4.760   6.266   4.877
  938SOL    HW1 3713   4.847   6.313   4.896
  938SOL    HW2 3714   4.753   6.249   4.779
  939SOL     OW 3715   1.467   0.230   4.609
  939SOL    HW1 3716   1.543   0.230   4.543
  939SOL    HW2 3717   1.385   0.193   4.565
  940SOL     OW 3718   1.824   5.608   0.404
  940SOL    HW1 3719   1.917   5.626   0.436
  940SOL    HW2 3720   1.762   5.603   0.482
  941SOL     OW 3721   3.905   6.945   0.953
  941SOL    HW1 3722   3.910   0.024   0.960
  941SOL    HW2 3723   3.998   6.907   0.955
  942SOL     OW 3724   6.487   5.141   0.011
  942SOL    HW1 3725   6.419   5.215   0.011
  942SOL    HW2 3726   6.562   5.165   6.971
  943SOL     OW 3727   3.610   6.186   0.894
  943SOL    HW1 3728   3.679   6.254   0.872
  943SOL    HW2 3729   3.650   6.094   0.887
  944SOL     OW 3730   6.687   6.181   3.075
  944SOL    HW1 3731   6.776   6.217   3.048
  944SOL    HW2 3732   6.697   6.123   3.156
  945SOL     OW 3733   0.547   5.519   6.642
  945SOL    HW1 3734   0.483   5.532   6.718
  945SOL    HW2 3735   0.629   5.471   6.675
  946SOL     OW 3736   5.938   1.879   3.833
  946SOL    HW1 3737   5.986   1.911   3.914
  946SOL    HW2 3738   5.848   1.923   3.827
  947SOL     OW 3739   3.895   3.951   2.434
  947SOL    HW1 3740   3.848   4.021   2.381
  947SOL    HW2 3741   3.947   3.891   2.372
  948SOL     OW 3742   3.606   1.577   3.942
  948SOL    HW1 3743   3.550   1.494   3.947
  948SOL    HW2 3744   3.604   1.625   4.030
  949SOL     OW 3745   2.717   0.090   5.520
  949SOL    HW1 3746   2.625   0.075   5.556
  949SOL    HW2 3747   2.751   0.178   5.553
  950SOL     OW 3748   0.138   6.729   1.902
  950SOL    HW1 3749   0.123   6.672   1.984
  950SOL    HW2 3750   0.092   6.816   1.914
  951SOL     OW 3751   1.480   0.240   3.185
  951SOL    HW1 3752   1.486   0.156   3.239
  951SOL    HW2 3753   1.488   0.218   3.088
  952SOL     OW 3754   3.560   1.321   2.902
  952SOL    HW1 3755   3.556   1.355   2.996
  952SOL    HW2 3756   3.624   1.245   2.897
  953SOL     OW 3757   1.129   6.030   5.845
  953SOL    HW1 3758   1.188   5.949   5.839
  953SOL    HW2 3759   1.075   6.037   5.762
  954SOL     OW 3760   4.551   6.696   2.514
  954SOL    HW1 3761   4.556   6.602   2.548
  954SOL    HW2 3762   4.614   6.707   2.437
  955SOL     OW 3763   3.177   4.631   1.311
  955SOL    HW1 3764   3.080   4.649   1.330
  955SOL    HW2 3765   3.189   4.534   1.291
  956SOL     OW 3766   3.293   0.518   0.969
  956SOL    HW1 3767   3.339   0.572   1.041
  956SOL    HW2 3768   3.307   0.563   0.881
  957SOL     OW 3769   6.082   6.738   3.364
  957SOL    HW1 3770   5.987   6.709   3.375
  957SOL    HW2 3771   6.095   6.826   3.412
  958SOL     OW 3772   5.772   5.758   2.061
  958SOL    HW1 3773   5.758   5.672   2.111
  958SOL    HW2 3774   5.801   5.738   1.968
  959SOL     OW 3775   4.916   0.314   3.162
  959SOL    HW1 3776   4.828   0.302   3.207
  959SOL    HW2 3777   4.973   0.233   3.178
  960SOL     OW 3778   1.623   6.128   5.468
  960SOL    HW1 3779   1.673   6.213   5.450
  960SOL    HW2 3780   1.671   6.076   5.538
  961SOL     OW 3781   3.805   1.417   3.619
  961SOL    HW1 3782   3.788   1.335   3.674
  961SOL    HW2 3783   3.725   1.477   3.622
  962SOL     OW 3784   0.148   0.243   4.877
  962SOL    HW1 3785   0.213   0.317   4.891
  962SOL    HW2 3786   0.198   0.157   4.866
  963SOL     OW 3787   5.994   2.762   1.362
  963SOL    HW1 3788   5.917   2.824   1.345
  963SOL    HW2 3789   5.970   2.696   1.433
  964SOL     OW 3790   3.419   6.254   4.857
  964SOL    HW1 3791   3.454   6.293   4.772
  964SOL    HW2 3792   3.418   6.324   4.928
  965SOL     OW 3793   5.109   1.795   4.014
  965SOL    HW1 3794   5.200   1.755   4.029
  965SOL    HW2 3795   5.039   1.726   4.030
  966SOL     OW 3796   5.425   0.770   2.993
  966SOL    HW1 3797   5.399   0.743   3.086
  966SOL    HW2 3798   5.369   0.720   2.927
  967SOL     OW 3799   3.872   5.467   5.911
  967SOL    HW1 3800   3.944   5.533   5.931
  967SOL    HW2 3801   3.820   5.447   5.995
  968SOL     OW 3802   3.814   0.572   1.233
  968SOL    HW1 3803   3.789   0.478   1.258
  968SOL    HW2 3804   3.780   0.635   1.303
  969SOL     OW 3805   2.800   3.630   6.847
  969SOL    HW1 3806   2.853   3.691   6.788
  969SOL    HW2 3807   2.853   3.609   6.929
  970SOL     OW 3808   4.286   6.239   5.145
  970SOL    HW1 3809   4.216   6.199   5.205
  970SOL    HW2 3810   4.366   6.178   5.142
  971SOL     OW 3811   5.170   3.567   3.499
  971SOL    HW1 3812   5.208   3.658   3.484
  971SOL    HW2 3813   5.163   3.519   3.412
  972SOL     OW 3814   0.497   1.825   0.901
  972SOL    HW1 3815   0.429   1.887   0.864
  972SOL    HW2 3816   0.569   1.878   0.946
  973SOL     OW 3817   6.421   2.540   4.700
  973SOL    HW1 3818   6.409   2.464   4.635
  973SOL    HW2 3819   6.345   2.605   4.689
  974SOL     OW 3820   0.724   3.149   1.632
  974SOL    HW1 3821   0.786   3.112   1.563
  974SOL    HW2 3822   0.760   3.129   1.724
  975SOL     OW 3823   2.957   0.338   1.579
  975SOL    HW1 3824   3.021   0.414   1.593
  975SOL    HW2 3825   3.008   0.252   1.575
  976SOL     OW 3826   6.842   3.019   4.075
  976SOL    HW1 3827   6.778   3.009   4.000
  976SOL    HW2 3828   6.857   2.931   4.119
  977SOL     OW 3829   6.534   1.399   2.223
  977SOL    HW1 3830   6.523   1.309   2.181
  977SOL    HW2 3831   6.463   1.412   2.292
  978SOL     OW 3832   4.988   2.496   1.020
  978SOL    HW1 3833   4.961   2.558   0.945
  978SOL    HW2 3834   4.934   2.518   1.101
  979SOL     OW 3835   0.046   4.997   6.381
  979SOL    HW1 3836   0.105   4.933   6.430
  979SOL    HW2 3837   0.100   5.052   6.317
  980SOL     OW 3838   4.749   1.454   3.890
  980SOL    HW1 3839   4.725   1.365   3.929
  980SOL    HW2 3840   4.671   1.491   3.840
  981SOL     OW 3841   0.702   6.002   5.441
  981SOL    HW1 3842   0.785   6.048   5.472
  981SOL    HW2 3843   0.656   5.959   5.518
  982SOL     OW 3844   0.012   1.051   6.711
  982SOL    HW1 3845   7.008   0.991   6.634
  982SOL    HW2 3846   6.952   1.106   6.736
  983SOL     OW 3847   0.118   3.718   2.618
  983SOL    HW1 3848   0.166   3.761   2.542
  983SOL    HW2 3849   0.181   3.654   2.664
  984SOL     OW 3850   0.093   3.263   3.679
  984SOL    HW1 3851   0.009   3.277   3.732
  984SOL    HW2 3852   0.119   3.349   3.634
  985SOL     OW 3853   5.774   5.403   5.392
  985SOL    HW1 3854   5.674   5.399   5.398
  985SOL    HW2 3855   5.804   5.360   5.307
  986SOL     OW 3856   4.124   5.356   1.653
  986SOL    HW1 3857   4.069   5.422   1.601
  986SOL    HW2 3858   4.208   5.336   1.603
  987SOL     OW 3859   4.511   4.511   4.533
  987SOL    HW1 3860   4.558   4.423   4.528
  987SOL    HW2 3861   4.412   4.497   4.526
  988SOL     OW 3862   2.983   4.936   2.237
  988SOL    HW1 3863   2.906   4.873   2.227
  988SOL    HW2 3864   3.067   4.885   2.254
  989SOL     OW 3865   0.324   2.639   1.299
  989SOL    HW1 3866   0.270   2.623   1.216
  989SOL    HW2 3867   0.407   2.585   1.296
  990SOL     OW 3868   3.567   0.294   4.961
  990SOL    HW1 3869   3.496   0.227   4.978
  990SOL    HW2 3870   3.526   0.381   4.933
  991SOL     OW 3871   1.215   5.954   3.870
  991SOL    HW1 3872   1.235   6.052   3.861
  991SOL    HW2 3873   1.264   5.917   3.950
  992SOL     OW 3874   6.424   3.367   0.497
  992SOL    HW1 3875   6.351   3.422   0.537
  992SOL    HW2 3876   6.442   3.287   0.555
  993SOL     OW 3877   1.909   5.353   6.498
  993SOL    HW1 3878   2.005   5.330   6.517
  993SOL    HW2 3879   1.898   5.373   6.401
  994SOL     OW 3880   2.687   0.077   1.602
  994SOL    HW1 3881   2.661   0.127   1.519
  994SOL    HW2 3882   2.620   0.094   1.674
  995SOL     OW 3883   5.793   4.211   5.822
  995SOL    HW1 3884   5.803   4.261   5.908
  995SOL    HW2 3885   5.697   4.210   5.795
  996SOL     OW 3886   3.981   6.462   4.887
  996SOL    HW1 3887   4.075   6.429   4.885
  996SOL    HW2 3888   3.980   6.560   4.865
  997SOL     OW 3889   1.281   6.177   3.356
  997SOL    HW1 3890   1.327   6.102   3.404
  997SOL    HW2 3891   1.350   6.237   3.315
  998SOL     OW 3892   4.656   0.095   0.493
  998SOL    HW1 3893   4.676   0.113   0.397
  998SOL    HW2 3894   4.701   0.164   0.550
  999SOL     OW 3895   5.748   3.048   2.224
  999SOL    HW1 3896   5.668   3.028   2.168
  999SOL    HW2 3897   5.777   2.965   2.272
 1000SOL     OW 3898   5.831   1.721   1.960
 1000SOL    HW1 3899   5.850   1.672   1.875
 1000SOL    HW2 3900   5.918   1.747   2.003
 1001SOL     OW 3901   2.351   6.500   3.126
 1001SOL    HW1 3902   2.400   6.535   3.205
 1001SOL    HW2 3903   2.276   6.441   3.157
 1002SOL     OW 3904   3.852   2.440   0.560
 1002SOL    HW1 3905   3.821   2.535   0.556
 1002SOL    HW2 3906   3.940   2.431   0.513
 1003SOL     OW 3907   0.556   1.234   3.957
 1003SOL    HW1 3908   0.488   1.193   3.897
 1003SOL    HW2 3909   0.588   1.166   4.022
 1004SOL     OW 3910   4.816   1.632   4.451
 1004SOL    HW1 3911   4.838   1.569   4.526
 1004SOL    HW2 3912   4.879   1.710   4.454
 1005SOL     OW 3913   0.903   5.437   1.597
 1005SOL    HW1 3914   0.965   5.431   1.675
 1005SOL    HW2 3915   0.826   5.374   1.611
 1006SOL     OW 3916   2.058   4.871   1.446
 1006SOL    HW1 3917   2.080   4.916   1.360
 1006SOL    HW2 3918   2.113   4.788   1.455
 1007SOL     OW 3919   4.530   1.240   6.495
 1007SOL    HW1 3920   4.460   1.174   6.468
 1007SOL    HW2 3921   4.566   1.216   6.585
 1008SOL     OW 3922   0.476   4.644   5.078
 1008SOL    HW1 3923   0.396   4.646   5.019
 1008SOL    HW2 3924   0.461   4.579   5.153
 1009SOL     OW 3925   6.357   6.395   6.409
 1009SOL    HW1 3926   6.304   6.451   6.472
 1009SOL    HW2 3927   6.326   6.411   6.316
 1010SOL     OW 3928   3.008   3.716   0.403
 1010SOL    HW1 3929   2.974   3.810   0.400
 1010SOL    HW2 3930   2.988   3.677   0.493
 1011SOL     OW 3931   0.255   5.164   2.415
 1011SOL    HW1 3932   0.350   5.196   2.418
 1011SOL    HW2 3933   0.209   5.204   2.336
 1012SOL     OW 3934   5.509   6.006   3.186
 1012SOL    HW1 3935   5.549   5.914   3.184
 1012SOL    HW2 3936   5.470   6.023   3.276
 1013SOL     OW 3937   0.545   1.296   6.179
 1013SOL    HW1 3938   0.521   1.392   6.192
 1013SOL    HW2 3939   0.567   1.280   6.083
 1014SOL     OW 3940   0.780   4.807   4.186
 1014SOL    HW1 3941   0.763   4.800   4.088
 1014SOL    HW2 3942   0.838   4.886   4.204
 1015SOL     OW 3943   3.125   6.494   0.134
 1015SOL    HW1 3944   3.048   6.461   0.189
 1015SOL    HW2 3945   3.179   6.415   0.102
 1016SOL     OW 3946   6.809   4.781   0.290
 1016SOL    HW1 3947   6.733   4.842   0.269
 1016SOL    HW2 3948   6.884   4.833   0.331
 1017SOL     OW 3949   2.105   1.188   2.311
 1017SOL    HW1 3950   2.170   1.133   2.364
 1017SOL    HW2 3951   2.016   1.186   2.356
 1018SOL     OW 3952   5.712   6.401   5.414
 1018SOL    HW1 3953   5.744   6.412   5.508
 1018SOL    HW2 3954   5.787   6.421   5.350
 1019SOL     OW 3955   6.309   3.705   0.938
 1019SOL    HW1 3956   6.282   3.621   0.891
 1019SOL    HW2 3957   6.407   3.721   0.921
 1020SOL     OW 3958   5.372   1.369   1.370
 1020SOL    HW1 3959   5.363   1.459   1.412
 1020SOL    HW2 3960   5.307   1.306   1.411
 1021SOL     OW 3961   1.302   6.536   0.571
 1021SOL    HW1 3962   1.338   6.626   0.596
 1021SOL    HW2 3963   1.278   6.486   0.655
 1022SOL     OW 3964   2.079   5.197   6.101
 1022SOL    HW1 3965   2.068   5.125   6.032
 1022SOL    HW2 3966   2.026   5.173   6.182
 1023SOL     OW 3967   0.699   1.492   2.376
 1023SOL    HW1 3968   0.704   1.580   2.329
 1023SOL    HW2 3969   0.790   1.468   2.410
 1024SOL     OW 3970   1.865   2.593   4.497
 1024SOL    HW1 3971   1.944   2.611   4.438
 1024SOL    HW2 3972   1.877   2.638   4.585
 1025SOL     OW 3973   4.496   4.239   1.107
 1025SOL    HW1 3974   4.440   4.196   1.036
 1025SOL    HW2 3975   4.465   4.208   1.197
 1026SOL     OW 3976   3.238   2.734   1.871
 1026SOL    HW1 3977   3.157   2.707   1.819
 1026SOL    HW2 3978   3.209   2.786   1.952
 1027SOL     OW 3979   6.485   0.111   0.103
 1027SOL    HW1 3980   6.579   0.106   0.070
 1027SOL    HW2 3981   6.479   0.072   0.195
 1028SOL     OW 3982   1.075   4.671   2.978
 1028SOL    HW1 3983   1.053   4.768   2.972
 1028SOL    HW2 3984   1.145   4.657   3.047
 1029SOL     OW 3985   0.391   0.825   4.859
 1029SOL    HW1 3986   0.396   0.892   4.786
 1029SOL    HW2 3987   0.298   0.821   4.895
 1030SOL     OW 3988   4.036   3.694   0.937
 1030SOL    HW1 3989   4.087   3.778   0.958
 1030SOL    HW2 3990   4.088   3.639   0.873
 1031SOL     OW 3991   3.772   2.711   0.582
 1031SOL    HW1 3992   3.698   2.711   0.650
 1031SOL    HW2 3993   3.758   2.787   0.519
 1032SOL     OW 3994   1.656   1.453   1.159
 1032SOL    HW1 3995   1.601   1.468   1.077
 1032SOL    HW2 3996   1.604   1.480   1.240
 1033SOL     OW 3997   6.660   6.859   2.005
 1033SOL    HW1 3998   6.642   6.947   1.961
 1033SOL    HW2 3999   6.738   6.815   1.961
 1034SOL     OW 4000   2.647   0.734   5.211
 1034SOL    HW1 4001   2.716   0.784   5.160
 1034SOL    HW2 4002   2.641   0.640   5.177
 1035SOL     OW 4003   1.438   0.401   0.310
 1035SOL    HW1 4004   1.453   0.418   0.213
 1035SOL    HW2 4005   1.515   0.439   0.362
 1036SOL     OW 4006   5.111   1.571   2.231
 1036SOL    HW1 4007   5.027   1.571   2.177
 1036SOL    HW2 4008   5.103   1.638   2.305
 1037SOL     OW 4009   1.518   3.748   3.071
 1037SOL    HW1 4010   1.602   3.695   3.059
 1037SOL    HW2 4011   1.526   3.806   3.152
 1038SOL     OW 4012   1.928   6.441   0.194
 1038SOL    HW1 4013   1.838   6.483   0.184
 1038SOL    HW2 4014   1.992   6.508   0.231
 1039SOL     OW 4015   3.039   3.668   2.662
 1039SOL    HW1 4016   2.987   3.732   2.605
 1039SOL    HW2 4017   3.076   3.715   2.741
 1040SOL     OW 4018   3.677   1.374   2.537
 1040SOL    HW1 4019   3.688   1.300   2.604
 1040SOL    HW2 4020   3.618   1.445   2.574
 1041SOL     OW 4021   6.905   6.537   6.593
 1041SOL    HW1 4022   6.851   6.611   6.632
 1041SOL    HW2 4023   6.848   6.455   6.584
 1042SOL     OW 4024   5.412   3.817   4.097
 1042SOL    HW1 4025   5.427   3.817   3.998
 1042SOL    HW2 4026   5.353   3.740   4.121
 1043SOL     OW 4027   2.310   2.041   3.624
 1043SOL    HW1 4028   2.263   2.105   3.562
 1043SOL    HW2 4029   2.353   1.969   3.571
 1044SOL     OW 4030   6.072   4.573   2.272
 1044SOL    HW1 4031   6.099   4.550   2.365
 1044SOL    HW2 4032   6.049   4.670   2.266
 1045SOL     OW 4033   2.553   0.420   2.761
 1045SOL    HW1 4034   2.514   0.474   2.686
 1045SOL    HW2 4035   2.492   0.423   2.840
 1046SOL     OW 4036   2.910   2.569   0.668
 1046SOL    HW1 4037   3.000   2.611   0.656
 1046SOL    HW2 4038   2.892   2.555   0.766
 1047SOL     OW 4039   3.714   0.950   3.501
 1047SOL    HW1 4040   3.766   0.903   3.430
 1047SOL    HW2 4041   3.616   0.939   3.482
 1048SOL     OW 4042   0.771   0.079   2.313
 1048SOL    HW1 4043   0.860   0.035   2.324
 1048SOL    HW2 4044   0.756   0.102   2.217
 1049SOL     OW 4045   3.486   6.821   0.645
 1049SOL    HW1 4046   3.515   6.749   0.707
 1049SOL    HW2 4047   3.430   6.781   0.571
 1050SOL     OW 4048   2.504   1.865   4.297
 1050SOL    HW1 4049   2.404   1.866   4.292
 1050SOL    HW2 4050   2.536   1.771   4.286
 1051SOL     OW 4051   1.711   2.062   5.489
 1051SOL    HW1 4052   1.647   2.005   5.437
 1051SOL    HW2 4053   1.735   2.016   5.574
 1052SOL     OW 4054   4.319   2.176   6.540
 1052SOL    HW1 4055   4.348   2.226   6.622
 1052SOL    HW2 4056   4.329   2.235   6.460
 1053SOL     OW 4057   5.099   3.013   3.910
 1053SOL    HW1 4058   5.126   2.923   3.943
 1053SOL    HW2 4059   5.178   3.060   3.871
 1054SOL     OW 4060   4.762   5.341   6.560
 1054SOL    HW1 4061   4.831   5.409   6.537
 1054SOL    HW2 4062   4.675   5.386   6.577
 1055SOL     OW 4063   5.361   5.648   6.202
 1055SOL    HW1 4064   5.432   5.587   6.167
 1055SOL    HW2 4065   5.272   5.602   6.199
 1056SOL     OW 4066   3.664   3.601   0.276
 1056SOL    HW1 4067   3.759   3.596   0.307
 1056SOL    HW2 4068   3.612   3.524   0.313
 1057SOL     OW 4069   3.114   3.381   6.531
 1057SOL    HW1 4070   3.069   3.305   6.485
 1057SOL    HW2 4071   3.191   3.413   6.476
 1058SOL     OW 4072   2.991   2.024   2.077
 1058SOL    HW1 4073   2.933   2.106   2.083
 1058SOL    HW2 4074   3.064   2.040   2.010
 1059SOL     OW 4075   2.225   5.941   2.273
 1059SOL    HW1 4076   2.275   5.869   2.225
 1059SOL    HW2 4077   2.218   6.022   2.215
 1060SOL     OW 4078   6.436   0.368   5.671
 1060SOL    HW1 4079   6.438   0.456   5.719
 1060SOL    HW2 4080   6.509   0.309   5.705
 1061SOL     OW 4081   6.971   3.175   6.395
 1061SOL    HW1 4082   0.014   3.245   6.364
 1061SOL    HW2 4083   0.001   3.101   6.440
 1062SOL     OW 4084   3.084   4.542   5.504
 1062SOL    HW1 4085   2.999   4.583   5.537
 1062SOL    HW2 4086   3.118   4.593   5.425
 1063SOL     OW 4087   2.805   6.540   4.069
 1063SOL    HW1 4088   2.772   6.492   4.150
 1063SOL    HW2 4089   2.858   6.476   4.012
 1064SOL     OW 4090   1.067   4.177   0.580
 1064SOL    HW1 4091   1.062   4.203   0.484
 1064SOL    HW2 4092   1.123   4.095   0.590
 1065SOL     OW 4093   5.940   0.973   4.830
 1065SOL    HW1 4094   5.870   0.903   4.819
 1065SOL    HW2 4095   5.945   1.001   4.927
 1066SOL     OW 4096   4.771   6.361   0.849
 1066SOL    HW1 4097   4.824   6.445   0.860
 1066SOL    HW2 4098   4.826   6.283   0.876
 1067SOL     OW 4099   3.346   1.157   0.292
 1067SOL    HW1 4100   3.295   1.237   0.324
 1067SOL    HW2 4101   3.300   1.074   0.324
 1068SOL     OW 4102   5.926   3.138   1.811
 1068SOL    HW1 4103   5.855   3.172   1.872
 1068SOL    HW2 4104   6.003   3.202   1.809
 1069SOL     OW 4105   7.017   2.673   2.869
 1069SOL    HW1 4106   0.035   2.583   2.847
 1069SOL    HW2 4107   6.989   2.719   2.784
 1070SOL     OW 4108   0.785   0.969   2.364
 1070SOL    HW1 4109   0.874   0.962   2.319
 1070SOL    HW2 4110   0.748   0.877   2.380
 1071SOL     OW 4111   0.626   2.930   5.896
 1071SOL    HW1 4112   0.722   2.941   5.870
 1071SOL    HW2 4113   0.598   3.008   5.952
 1072SOL     OW 4114   2.405   1.472   1.828
 1072SOL    HW1 4115   2.379   1.541   1.761
 1072SOL    HW2 4116   2.478   1.507   1.886
 1073SOL     OW 4117   5.344   2.348   2.896
 1073SOL    HW1 4118   5.390   2.288   2.830
 1073SOL    HW2 4119   5.259   2.383   2.856
 1074SOL     OW 4120   3.352   5.524   1.942
 1074SOL    HW1 4121   3.404   5.608   1.934
 1074SOL    HW2 4122   3.288   5.516   1.866
 1075SOL     OW 4123   6.587   3.920   4.816
 1075SOL    HW1 4124   6.527   3.994   4.847
 1075SOL    HW2 4125   6.556   3.887   4.728
 1076SOL     OW 4126   2.289   4.189   5.246
 1076SOL    HW1 4127   2.300   4.140   5.333
 1076SOL    HW2 4128   2.315   4.129   5.171
 1077SOL     OW 4129   6.731   6.354   0.727
 1077SOL    HW1 4130   6.810   6.415   0.728
 1077SOL    HW2 4131   6.676   6.370   0.809
 1078SOL     OW 4132   5.480   6.606   4.196
 1078SOL    HW1 4133   5.439   6.517   4.180
 1078SOL    HW2 4134   5.428   6.676   4.146
 1079SOL     OW 4135   1.023   6.523   1.329
 1079SOL    HW1 4136   0.994   6.471   1.409
 1079SOL    HW2 4137   0.943   6.550   1.276
 1080SOL     OW 4138   4.968   5.626   0.264
 1080SOL    HW1 4139   4.882   5.662   0.228
 1080SOL    HW2 4140   4.962   5.526   0.270
 1081SOL     OW 4141   6.935   6.799   3.485
 1081SOL    HW1 4142   6.845   6.837   3.465
 1081SOL    HW2 4143   7.006   6.856   3.442
 1082SOL     OW 4144   4.493   0.064   0.044
 1082SOL    HW1 4145   4.419   0.028   0.100
 1082SOL    HW2 4146   4.554   7.010   0.018
 1083SOL     OW 4147   6.182   4.174   2.289
 1083SOL    HW1 4148   6.172   4.222   2.201
 1083SOL    HW2 4149   6.233   4.231   2.353
 1084SOL     OW 4150   4.450   0.684   5.165
 1084SOL    HW1 4151   4.469   0.770   5.213
 1084SOL    HW2 4152   4.436   0.702   5.068
 1085SOL     OW 4153   1.601   3.251   5.106
 1085SOL    HW1 4154   1.632   3.276   5.014
 1085SOL    HW2 4155   1.570   3.334   5.154
 1086SOL     OW 4156   5.911   4.742   1.835
 1086SOL    HW1 4157   5.894   4.650   1.800
 1086SOL    HW2 4158   5.871   4.751   1.927
 1087SOL     OW 4159   3.935   7.003   5.648
 1087SOL    HW1 4160   3.964   6.949   5.728
 1087SOL    HW2 4161   4.006   6.997   5.577
 1088SOL     OW 4162   6.778   5.166   4.707
 1088SOL    HW1 4163   6.761   5.223   4.627
 1088SOL    HW2 4164   6.869   5.124   4.699
 1089SOL     OW 4165   6.031   5.019   4.294
 1089SOL    HW1 4166   6.044   5.108   4.249
 1089SOL    HW2 4167   6.089   5.015   4.376
 1090SOL     OW 4168   5.847   2.679   4.956
 1090SOL    HW1 4169   5.748   2.676   4.948
 1090SOL    HW2 4170   5.888   2.674   4.865
 1091SOL     OW 4171   2.056   3.945   3.067
 1091SOL    HW1 4172   2.063   4.023   3.005
 1091SOL    HW2 4173   2.007   3.871   3.022
 1092SOL     OW 4174   1.241   6.394   0.807
 1092SOL    HW1 4175   1.161   6.334   0.803
 1092SOL    HW2 4176   1.323   6.339   0.825
 1093SOL     OW 4177   1.463   0.653   3.060
 1093SOL    HW1 4178   1.446   0.717   3.134
 1093SOL    HW2 4179   1.561   0.639   3.049
 1094SOL     OW 4180   0.545   0.143   3.026
 1094SOL    HW1 4181   0.513   0.080   3.097
 1094SOL    HW2 4182   0.637   0.115   2.996
 1095SOL     OW 4183   6.106   3.914   0.920
 1095SOL    HW1 4184   6.173   3.845   0.948
 1095SOL    HW2 4185   6.138   3.959   0.837
 1096SOL     OW 4186   1.989   5.903   2.035
 1096SOL    HW1 4187   1.990   5.990   2.084
 1096SOL    HW2 4188   2.030   5.915   1.945
 1097SOL     OW 4189   2.782   5.929   4.444
 1097SOL    HW1 4190   2.771   5.994   4.519
 1097SOL    HW2 4191   2.740   5.965   4.361
 1098SOL     OW 4192   6.555   4.049   6.977
 1098SOL    HW1 4193   6.494   3.998   0.018
 1098SOL    HW2 4194   6.636   3.994   6.958
 1099SOL     OW 4195   5.557   0.369   6.529
 1099SOL    HW1 4196   5.607   0.436   6.584
 1099SOL    HW2 4197   5.478   0.413   6.486
 1100SOL     OW 4198   4.722   1.265   4.156
 1100SOL    HW1 4199   4.815   1.235   4.136
 1100SOL    HW2 4200   4.723   1.361   4.184
 1101SOL     OW 4201   4.685   2.801   6.842
 1101SOL    HW1 4202   4.607   2.740   6.860
 1101SOL    HW2 4203   4.740   2.764   6.767
 1102SOL     OW 4204   3.118   0.791   4.001
 1102SOL    HW1 4205   3.078   0.733   4.072
 1102SOL    HW2 4206   3.218   0.780   4.001
 1103SOL     OW 4207   3.574   5.880   0.870
 1103SOL    HW1 4208   3.576   5.856   0.773
 1103SOL    HW2 4209   3.567   5.797   0.925
 1104SOL     OW 4210   6.344   1.381   3.321
 1104SOL    HW1 4211   6.314   1.346   3.409
 1104SOL    HW2 4212   6.273   1.364   3.252
 1105SOL     OW 4213   4.745   0.982   6.431
 1105SOL    HW1 4214   4.720   1.047   6.359
 1105SOL    HW2 4215   4.777   1.031   6.511
 1106SOL     OW 4216   6.051   2.034   1.942
 1106SOL    HW1 4217   6.055   1.940   1.976
 1106SOL    HW2 4218   5.957   2.056   1.915
 1107SOL     OW 4219   1.297   2.119   0.227
 1107SOL    HW1 4220   1.334   2.030   0.203
 1107SOL    HW2 4221   1.283   2.173   0.145
 1108SOL     OW 4222   2.176   1.574   3.540
 1108SOL    HW1 4223   2.260   1.584   3.487
 1108SOL    HW2 4224   2.117   1.506   3.497
 1109SOL     OW 4225   4.928   1.665   5.110
 1109SOL    HW1 4226   4.831   1.642   5.119
 1109SOL    HW2 4227   4.945   1.755   5.150
 1110SOL     OW 4228   1.215   0.699   2.606
 1110SOL    HW1 4229   1.280   0.713   2.681
 1110SOL    HW2 4230   1.246   0.623   2.549
 1111SOL     OW 4231   5.814   3.416   6.146
 1111SOL    HW1 4232   5.784   3.337   6.199
 1111SOL    HW2 4233   5.906   3.400   6.110
 1112SOL     OW 4234   5.772   0.596   2.282
 1112SOL    HW1 4235   5.687   0.629   2.322
 1112SOL    HW2 4236   5.829   0.556   2.354
 1113SOL     OW 4237   6.588   2.543   3.216
 1113SOL    HW1 4238   6.568   2.619   3.277
 1113SOL    HW2 4239   6.648   2.574   3.142
 1114SOL     OW 4240   3.508   3.446   4.978
 1114SOL    HW1 4241   3.480   3.353   5.002
 1114SOL    HW2 4242   3.533   3.449   4.881
 1115SOL     OW 4243   2.131   5.255   5.704
 1115SOL    HW1 4244   2.139   5.300   5.615
 1115SOL    HW2 4245   2.085   5.317   5.769
 1116SOL     OW 4246   4.406   0.035   0.435
 1116SOL    HW1 4247   4.380   6.971   0.387
 1116SOL    HW2 4248   4.506   0.044   0.433
 1117SOL     OW 4249   2.104   2.541   1.723
 1117SOL    HW1 4250   2.039   2.594   1.778
 1117SOL    HW2 4251   2.159   2.483   1.783
 1118SOL     OW 4252   4.783   6.466   0.058
 1118SOL    HW1 4253   4.700   6.492   0.009
 1118SOL    HW2 4254   4.850   6.431   7.013
 1119SOL     OW 4255   2.563   5.240   3.955
 1119SOL    HW1 4256   2.509   5.261   3.874
 1119SOL    HW2 4257   2.503   5.234   4.035
 1120SOL     OW 4258   6.828   3.282   1.550
 1120SOL    HW1 4259   6.844   3.373   1.512
 1120SOL    HW2 4260   6.896   3.263   1.621
 1121SOL     OW 4261   5.857   4.794   5.692
 1121SOL    HW1 4262   5.933   4.734   5.717
 1121SOL    HW2 4263   5.894   4.882   5.661
 1122SOL     OW 4264   6.244   0.886   2.019
 1122SOL    HW1 4265   6.251   0.800   2.069
 1122SOL    HW2 4266   6.147   0.911   2.010
 1123SOL     OW 4267   4.095   1.646   4.817
 1123SOL    HW1 4268   4.127   1.719   4.877
 1123SOL    HW2 4269   4.022   1.680   4.757
 1124SOL     OW 4270   2.333   2.824   3.750
 1124SOL    HW1 4271   2.342   2.834   3.849
 1124SOL    HW2 4272   2.381   2.742   3.720
 1125SOL     OW 4273   1.575   3.205   3.743
 1125SOL    HW1 4274   1.496   3.209   3.683
 1125SOL    HW2 4275   1.604   3.298   3.767
 1126SOL     OW 4276   4.306   4.677   3.888
 1126SOL    HW1 4277   4.323   4.578   3.885
 1126SOL    HW2 4278   4.264   4.706   3.802
 1127SOL     OW 4279   6.089   6.606   1.014
 1127SOL    HW1 4280   6.105   6.508   1.023
 1127SOL    HW2 4281   5.996   6.627   1.044
 1128SOL     OW 4282   4.038   1.731   5.147
 1128SOL    HW1 4283   3.955   1.675   5.147
 1128SOL    HW2 4284   4.051   1.771   5.238
 1129SOL     OW 4285   1.212   0.959   6.974
 1129SOL    HW1 4286   1.114   0.978   6.962
 1129SOL    HW2 4287   1.225   0.861   6.985
 1130SOL     OW 4288   2.228   5.232   1.573
 1130SOL    HW1 4289   2.146   5.189   1.610
 1130SOL    HW2 4290   2.270   5.290   1.643
 1131SOL     OW 4291   1.256   5.466   3.943
 1131SOL    HW1 4292   1.338   5.523   3.935
 1131SOL    HW2 4293   1.180   5.521   3.975
 1132SOL     OW 4294   1.392   1.722   2.895
 1132SOL    HW1 4295   1.428   1.777   2.819
 1132SOL    HW2 4296   1.293   1.738   2.904
 1133SOL     OW 4297   1.331   6.645   6.646
 1133SOL    HW1 4298   1.391   6.581   6.599
 1133SOL    HW2 4299   1.378   6.682   6.726
 1134SOL     OW 4300   4.745   5.718   0.548
 1134SOL    HW1 4301   4.825   5.661   0.529
 1134SOL    HW2 4302   4.695   5.680   0.625
 1135SOL     OW 4303   1.767   0.586   3.033
 1135SOL    HW1 4304   1.742   0.515   2.967
 1135SOL    HW2 4305   1.816   0.659   2.985
 1136SOL     OW 4306   1.524   4.524   2.664
 1136SOL    HW1 4307   1.441   4.472   2.642
 1136SOL    HW2 4308   1.591   4.462   2.705
 1137SOL     OW 4309   1.020   5.390   4.611
 1137SOL    HW1 4310   0.971   5.310   4.646
 1137SOL    HW2 4311   1.026   5.385   4.512
 1138SOL     OW 4312   1.932   3.932   4.570
 1138SOL    HW1 4313   1.987   4.014   4.553
 1138SOL    HW2 4314   1.857   3.955   4.632
 1139SOL     OW 4315   3.176   5.872   4.914
 1139SOL    HW1 4316   3.226   5.939   4.968
 1139SOL    HW2 4317   3.212   5.780   4.932
 1140SOL     OW 4318   2.178   2.778   1.533
 1140SOL    HW1 4319   2.252   2.786   1.599
 1140SOL    HW2 4320   2.101   2.731   1.576
 1141SOL     OW 4321   6.393   5.030   5.565
 1141SOL    HW1 4322   6.328   5.068   5.499
 1141SOL    HW2 4323   6.469   5.094   5.577
 1142SOL     OW 4324   0.917   5.529   3.010
 1142SOL    HW1 4325   0.898   5.616   3.056
 1142SOL    HW2 4326   0.833   5.491   2.974
 1143SOL     OW 4327   6.605   4.447   1.647
 1143SOL    HW1 4328   6.588   4.352   1.671
 1143SOL    HW2 4329   6.598   4.459   1.548
 1144SOL     OW 4330   5.243   4.675   0.372
 1144SOL    HW1 4331   5.323   4.730   0.347
 1144SOL    HW2 4332   5.185   4.663   0.291
 1145SOL     OW 4333   6.333   6.912   0.546
 1145SOL    HW1 4334   6.256   6.887   0.488
 1145SOL    HW2 4335   6.393   6.833   0.557
 1146SOL     OW 4336   1.702   0.982   1.398
 1146SOL    HW1 4337   1.785   1.033   1.421
 1146SOL    HW2 4338   1.625   1.020   1.449
 1147SOL     OW 4339   2.144   6.524   1.135
 1147SOL    HW1 4340   2.100   6.599   1.086
 1147SOL    HW2 4341   2.075   6.470   1.184
 1148SOL     OW 4342   3.806   6.079   2.107
 1148SOL    HW1 4343   3.855   6.012   2.051
 1148SOL    HW2 4344   3.767   6.034   2.187
 1149SOL     OW 4345   5.327   2.239   1.257
 1149SOL    HW1 4346   5.257   2.294   1.303
 1149SOL    HW2 4347   5.293   2.145   1.246
 1150SOL     OW 4348   1.220   2.311   1.041
 1150SOL    HW1 4349   1.299   2.356   0.999
 1150SOL    HW2 4350   1.250   2.226   1.084
 1151SOL     OW 4351   5.299   4.941   4.124
 1151SOL    HW1 4352   5.217   4.897   4.160
 1151SOL    HW2 4353   5.375   4.877   4.127
 1152SOL     OW 4354   3.649   6.402   5.958
 1152SOL    HW1 4355   3.569   6.360   6.000
 1152SOL    HW2 4356   3.626   6.493   5.924
 1153SOL     OW 4357   5.511   6.696   1.526
 1153SOL    HW1 4358   5.473   6.715   1.617
 1153SOL    HW2 4359   5.597   6.745   1.515
 1154SOL     OW 4360   1.554   3.325   0.641
 1154SOL    HW1 4361   1.568   3.276   0.555
 1154SOL    HW2 4362   1.625   3.299   0.706
 1155SOL     OW 4363   3.745   5.900   3.785
 1155SOL    HW1 4364   3.690   5.845   3.847
 1155SOL    HW2 4365   3.747   5.995   3.817
 1156SOL     OW 4366   2.745   1.083   1.920
 1156SOL    HW1 4367   2.693   0.998   1.921
 1156SOL    HW2 4368   2.695   1.152   1.869
 1157SOL     OW 4369   2.736   1.952   0.452
 1157SOL    HW1 4370   2.807   1.899   0.406
 1157SOL    HW2 4371   2.765   1.973   0.545
 1158SOL     OW 4372   5.305   4.609   4.123
 1158SOL    HW1 4373   5.271   4.515   4.112
 1158SOL    HW2 4374   5.235   4.664   4.167
 1159SOL     OW 4375   5.797   4.810   0.385
 1159SOL    HW1 4376   5.853   4.728   0.400
 1159SOL    HW2 4377   5.852   4.892   0.403
 1160SOL     OW 4378   4.401   2.062   0.529
 1160SOL    HW1 4379   4.425   1.991   0.463
 1160SOL    HW2 4380   4.427   2.033   0.621
 1161SOL     OW 4381   6.673   4.994   0.873
 1161SOL    HW1 4382   6.589   4.978   0.925
 1161SOL    HW2 4383   6.737   4.919   0.891
 1162SOL     OW 4384   2.552   2.526   4.808
 1162SOL    HW1 4385   2.604   2.524   4.893
 1162SOL    HW2 4386   2.499   2.611   4.804
 1163SOL     OW 4387   5.001   2.116   1.696
 1163SOL    HW1 4388   4.917   2.118   1.642
 1163SOL    HW2 4389   5.080   2.113   1.634
 1164SOL     OW 4390   4.152   2.120   5.625
 1164SOL    HW1 4391   4.192   2.212   5.635
 1164SOL    HW2 4392   4.174   2.066   5.706
 1165SOL     OW 4393   4.409   0.103   3.635
 1165SOL    HW1 4394   4.318   0.079   3.601
 1165SOL    HW2 4395   4.443   0.030   3.693
 1166SOL     OW 4396   3.553   4.271   6.395
 1166SOL    HW1 4397   3.563   4.370   6.410
 1166SOL    HW2 4398   3.602   4.222   6.466
 1167SOL     OW 4399   5.368   4.327   3.269
 1167SOL    HW1 4400   5.410   4.341   3.358
 1167SOL    HW2 4401   5.272   4.303   3.281
 1168SOL     OW 4402   0.486   6.771   0.862
 1168SOL    HW1 4403   0.498   6.713   0.782
 1168SOL    HW2 4404   0.403   6.744   0.911
 1169SOL     OW 4405   4.824   1.713   5.444
 1169SOL    HW1 4406   4.801   1.802   5.405
 1169SOL    HW2 4407   4.914   1.718   5.488
 1170SOL     OW 4408   5.139   4.435   2.571
 1170SOL    HW1 4409   5.106   4.507   2.632
 1170SOL    HW2 4410   5.093   4.442   2.483
 1171SOL     OW 4411   0.723   6.271   0.721
 1171SOL    HW1 4412   0.786   6.344   0.696
 1171SOL    HW2 4413   0.717   6.205   0.646
 1172SOL     OW 4414   5.752   3.089   0.108
 1172SOL    HW1 4415   5.730   3.007   0.055
 1172SOL    HW2 4416   5.748   3.169   0.048
 1173SOL     OW 4417   4.352   2.734   0.895
 1173SOL    HW1 4418   4.329   2.815   0.949
 1173SOL    HW2 4419   4.313   2.653   0.938
 1174SOL     OW 4420   2.927   4.809   0.375
 1174SOL    HW1 4421   2.850   4.859   0.415
 1174SOL    HW2 4422   3.007   4.817   0.435
 1175SOL     OW 4423   3.280   4.139   4.065
 1175SOL    HW1 4424   3.229   4.196   4.129
 1175SOL    HW2 4425   3.217   4.092   4.004
 1176SOL     OW 4426   5.523   2.953   6.876
 1176SOL    HW1 4427   5.449   2.887   6.869
 1176SOL    HW2 4428   5.604   2.909   6.915
 1177SOL     OW 4429   0.960   1.835   5.319
 1177SOL    HW1 4430   0.879   1.891   5.299
 1177SOL    HW2 4431   1.030   1.851   5.250
 1178SOL     OW 4432   4.558   6.842   0.284
 1178SOL    HW1 4433   4.636   6.843   0.345
 1178SOL    HW2 4434   4.588   6.864   0.191
 1179SOL     OW 4435   0.102   5.803   0.761
 1179SOL    HW1 4436   0.178   5.780   0.822
 1179SOL    HW2 4437   0.138   5.832   0.672
 1180SOL     OW 4438   3.796   6.630   0.631
 1180SOL    HW1 4439   3.735   6.601   0.706
 1180SOL    HW2 4440   3.797   6.730   0.627
 1181SOL     OW 4441   6.548   6.205   6.415
 1181SOL    HW1 4442   6.550   6.144   6.336
 1181SOL    HW2 4443   6.476   6.273   6.404
 1182SOL     OW 4444   4.847   3.842   3.527
 1182SOL    HW1 4445   4.825   3.938   3.513
 1182SOL    HW2 4446   4.856   3.796   3.439
 1183SOL     OW 4447   2.089   4.507   6.822
 1183SOL    HW1 4448   2.107   4.604   6.808
 1183SOL    HW2 4449   1.998   4.496   6.861
 1184SOL     OW 4450   0.357   0.748   5.501
 1184SOL    HW1 4451   0.379   0.698   5.418
 1184SOL    HW2 4452   0.418   0.826   5.511
 1185SOL     OW 4453   6.455   1.509   6.878
 1185SOL    HW1 4454   6.537   1.529   6.932
 1185SOL    HW2 4455   6.388   1.582   6.891
 1186SOL     OW 4456   5.627   6.644   4.400
 1186SOL    HW1 4457   5.713   6.593   4.393
 1186SOL    HW2 4458   5.573   6.631   4.317
 1187SOL     OW 4459   6.402   2.263   6.000
 1187SOL    HW1 4460   6.487   2.296   5.958
 1187SOL    HW2 4461   6.380   2.173   5.963
 1188SOL     OW 4462   4.062   1.783   6.416
 1188SOL    HW1 4463   4.024   1.691   6.432
 1188SOL    HW2 4464   3.996   1.852   6.446
 1189SOL     OW 4465   5.978   3.554   3.772
 1189SOL    HW1 4466   5.948   3.551   3.867
 1189SOL    HW2 4467   5.944   3.638   3.729
 1190SOL     OW 4468   3.262   0.429   3.951
 1190SOL    HW1 4469   3.167   0.458   3.937
 1190SOL    HW2 4470   3.278   0.411   4.048
 1191SOL     OW 4471   3.344   6.544   2.888
 1191SOL    HW1 4472   3.419   6.609   2.874
 1191SOL    HW2 4473   3.258   6.594   2.901
 1192SOL     OW 4474   6.497   5.586   3.639
 1192SOL    HW1 4475   6.541   5.632   3.716
 1192SOL    HW2 4476   6.468   5.495   3.667
 1193SOL     OW 4477   6.581   5.884   4.380
 1193SOL    HW1 4478   6.508   5.923   4.325
 1193SOL    HW2 4479   6.656   5.855   4.320
 1194SOL     OW 4480   3.567   0.316   0.945
 1194SOL    HW1 4481   3.512   0.232   0.943
 1194SOL    HW2 4482   3.660   0.295   0.917
 1195SOL     OW 4483   4.716   2.687   2.996
 1195SOL    HW1 4484   4.727   2.622   2.921
 1195SOL    HW2 4485   4.794   2.682   3.057
 1196SOL     OW 4486   0.260   6.732   5.121
 1196SOL    HW1 4487   0.314   6.736   5.037
 1196SOL    HW2 4488   0.261   6.639   5.157
 1197SOL     OW 4489   2.022   6.204   0.483
 1197SOL    HW1 4490   1.934   6.208   0.436
 1197SOL    HW2 4491   2.008   6.179   0.579
 1198SOL     OW 4492   1.479   2.573   0.029
 1198SOL    HW1 4493   1.402   2.576   6.985
 1198SOL    HW2 4494   1.444   2.576   0.123
 1199SOL     OW 4495   6.389   3.748   2.270
 1199SOL    HW1 4496   6.427   3.721   2.359
 1199SOL    HW2 4497   6.332   3.674   2.234
 1200SOL     OW 4498   3.545   4.103   2.662
 1200SOL    HW1 4499   3.606   4.042   2.612
 1200SOL    HW2 4500   3.588   4.131   2.748
 1201SOL     OW 4501   1.593   2.383   4.980
 1201SOL    HW1 4502   1.602   2.296   4.931
 1201SOL    HW2 4503   1.657   2.385   5.057
 1202SOL     OW 4504   1.202   5.757   5.133
 1202SOL    HW1 4505   1.221   5.663   5.106
 1202SOL    HW2 4506   1.257   5.781   5.213
 1203SOL     OW 4507   4.080   5.906   5.214
 1203SOL    HW1 4508   4.159   5.863   5.171
 1203SOL    HW2 4509   4.109   5.969   5.285
 1204SOL     OW 4510   1.994   6.845   3.023
 1204SOL    HW1 4511   2.006   6.940   2.995
 1204SOL    HW2 4512   1.959   6.792   2.946
 1205SOL     OW 4513   5.787   3.604   2.255
 1205SOL    HW1 4514   5.698   3.645   2.232
 1205SOL    HW2 4515   5.799   3.604   2.354
 1206SOL     OW 4516   3.351   3.482   4.461
 1206SOL    HW1 4517   3.316   3.405   4.408
 1206SOL    HW2 4518   3.314   3.477   4.554
 1207SOL     OW 4519   0.821   5.880   2.743
 1207SOL    HW1 4520   0.826   5.980   2.751
 1207SOL    HW2 4521   0.836   5.838   2.832
 1208SOL     OW 4522   3.442   3.379   6.443
 1208SOL    HW1 4523   3.458   3.359   6.346
 1208SOL    HW2 4524   3.381   3.458   6.450
 1209SOL     OW 4525   3.909   6.274   5.087
 1209SOL    HW1 4526   3.935   6.352   5.030
 1209SOL    HW2 4527   3.853   6.211   5.034
 1210SOL     OW 4528   3.022   0.860   2.824
 1210SOL    HW1 4529   2.997   0.911   2.906
 1210SOL    HW2 4530   3.009   0.918   2.744
 1211SOL     OW 4531   0.884   2.789   0.453
 1211SOL    HW1 4532   0.909   2.798   0.357
 1211SOL    HW2 4533   0.886   2.692   0.479
 1212SOL     OW 4534   0.908   0.119   0.262
 1212SOL    HW1 4535   0.945   0.199   0.310
 1212SOL    HW2 4536   0.939   0.036   0.308
 1213SOL     OW 4537   5.505   2.933   1.185
 1213SOL    HW1 4538   5.420   2.982   1.203
 1213SOL    HW2 4539   5.554   2.977   1.109
 1214SOL     OW 4540   6.810   2.530   2.392
 1214SOL    HW1 4541   6.781   2.451   2.447
 1214SOL    HW2 4542   6.773   2.521   2.300
 1215SOL     OW 4543   1.975   5.949   2.861
 1215SOL    HW1 4544   1.922   5.978   2.941
 1215SOL    HW2 4545   2.033   5.871   2.886
 1216SOL     OW 4546   3.933   0.168   1.746
 1216SOL    HW1 4547   3.948   0.120   1.833
 1216SOL    HW2 4548   3.979   0.257   1.749
 1217SOL     OW 4549   2.672   3.789   6.590
 1217SOL    HW1 4550   2.648   3.813   6.684
 1217SOL    HW2 4551   2.604   3.828   6.528
 1218SOL     OW 4552   2.227   5.293   3.941
 1218SOL    HW1 4553   2.128   5.288   3.944
 1218SOL    HW2 4554   2.264   5.204   3.913
 1219SOL     OW 4555   4.078   5.765   1.717
 1219SOL    HW1 4556   4.105   5.670   1.734
 1219SOL    HW2 4557   3.982   5.768   1.690
 1220SOL     OW 4558   0.473   4.809   1.902
 1220SOL    HW1 4559   0.426   4.874   1.963
 1220SOL    HW2 4560   0.406   4.770   1.838
 1221SOL     OW 4561   4.235   4.822   6.718
 1221SOL    HW1 4562   4.196   4.739   6.678
 1221SOL    HW2 4563   4.314   4.797   6.774
 1222SOL     OW 4564   6.525   1.108   6.634
 1222SOL    HW1 4565   6.458   1.077   6.567
 1222SOL    HW2 4566   6.528   1.208   6.635
 1223SOL     OW 4567   3.753   6.739   1.270
 1223SOL    HW1 4568   3.732   6.771   1.363
 1223SOL    HW2 4569   3.852   6.735   1.258
 1224SOL     OW 4570   2.990   1.093   1.696
 1224SOL    HW1 4571   2.917   1.145   1.739
 1224SOL    HW2 4572   3.071   1.151   1.685
 1225SOL     OW 4573   2.985   3.664   6.142
 1225SOL    HW1 4574   2.905   3.634   6.090
 1225SOL    HW2 4575   3.033   3.735   6.091
 1226SOL     OW 4576   2.434   5.032   0.318
 1226SOL    HW1 4577   2.341   4.994   0.320
 1226SOL    HW2 4578   2.458   5.067   0.408
 1227SOL     OW 4579   1.427   4.238   6.151
 1227SOL    HW1 4580   1.409   4.145   6.183
 1227SOL    HW2 4581   1.483   4.286   6.219
 1228SOL     OW 4582   4.014   1.926   6.721
 1228SOL    HW1 4583   3.976   1.933   6.812
 1228SOL    HW2 4584   4.111   1.900   6.727
 1229SOL     OW 4585   3.687   3.779   6.464
 1229SOL    HW1 4586   3.688   3.740   6.372
 1229SOL    HW2 4587   3.593   3.785   6.497
 1230SOL     OW 4588   4.454   0.392   3.919
 1230SOL    HW1 4589   4.434   0.489   3.907
 1230SOL    HW2 4590   4.372   0.346   3.953
 1231SOL     OW 4591   0.984   3.434   4.145
 1231SOL    HW1 4592   1.080   3.409   4.159
 1231SOL    HW2 4593   0.973   3.533   4.158
 1232SOL     OW 4594   1.925   3.075   2.996
 1232SOL    HW1 4595   1.906   3.000   2.932
 1232SOL    HW2 4596   2.021   3.102   2.988
 1233SOL     OW 4597   0.743   2.372   4.285
 1233SOL    HW1 4598   0.720   2.368   4.382
 1233SOL    HW2 4599   0.803   2.450   4.268
 1234SOL     OW 4600   6.247   4.628   4.324
 1234SOL    HW1 4601   6.327   4.630   4.265
 1234SOL    HW2 4602   6.167   4.598   4.272
 1235SOL     OW 4603   6.787   5.006   3.583
 1235SOL    HW1 4604   6.740   4.926   3.622
 1235SOL    HW2 4605   6.842   5.050   3.654
 1236SOL     OW 4606   5.458   0.746   6.524
 1236SOL    HW1 4607   5.443   0.664   6.469
 1236SOL    HW2 4608   5.434   0.827   6.470
 1237SOL     OW 4609   1.884   4.584   6.158
 1237SOL    HW1 4610   1.788   4.591   6.134
 1237SOL    HW2 4611   1.933   4.664   6.124
 1238SOL     OW 4612   1.796   1.680   1.002
 1238SOL    HW1 4613   1.835   1.644   0.917
 1238SOL    HW2 4614   1.712   1.631   1.024
 1239SOL     OW 4615   1.025   0.057   5.953
 1239SOL    HW1 4616   0.982   0.106   5.877
 1239SOL    HW2 4617   1.111   0.101   5.977
 1240SOL     OW 4618   5.421   5.558   0.782
 1240SOL    HW1 4619   5.459   5.483   0.837
 1240SOL    HW2 4620   5.363   5.615   0.839
 1241SOL     OW 4621   0.075   2.175   4.605
 1241SOL    HW1 4622   0.087   2.099   4.540
 1241SOL    HW2 4623   0.148   2.172   4.673
 1242SOL     OW 4624   1.938   2.304   6.734
 1242SOL    HW1 4625   1.924   2.403   6.740
 1242SOL    HW2 4626   1.970   2.270   6.822
 1243SOL     OW 4627   2.744   5.051   5.234
 1243SOL    HW1 4628   2.760   4.957   5.263
 1243SOL    HW2 4629   2.754   5.057   5.135
 1244SOL     OW 4630   0.562   1.807   2.923
 1244SOL    HW1 4631   0.574   1.906   2.928
 1244SOL    HW2 4632   0.646   1.764   2.890
 1245SOL     OW 4633   3.044   2.774   5.548
 1245SOL    HW1 4634   2.979   2.743   5.618
 1245SOL    HW2 4635   2.995   2.828   5.480
 1246SOL     OW 4636   1.385   6.624   1.532
 1246SOL    HW1 4637   1.456   6.673   1.481
 1246SOL    HW2 4638   1.298   6.670   1.520
 1247SOL     OW 4639   0.868   6.616   6.496
 1247SOL    HW1 4640   0.776   6.632   6.459
 1247SOL    HW2 4641   0.903   6.701   6.535
 1248SOL     OW 4642   2.318   0.056   3.864
 1248SOL    HW1 4643   2.297   0.065   3.767
 1248SOL    HW2 4644   2.406   0.010   3.876
 1249SOL     OW 4645   5.752   3.038   3.127
 1249SOL    HW1 4646   5.655   3.050   3.103
 1249SOL    HW2 4647   5.781   2.945   3.104
 1250SOL     OW 4648   0.237   3.156   4.552
 1250SOL    HW1 4649   0.150   3.150   4.503
 1250SOL    HW2 4650   0.221   3.173   4.649
 1251SOL     OW 4651   3.188   0.419   6.480
 1251SOL    HW1 4652   3.148   0.425   6.572
 1251SOL    HW2 4653   3.220   0.509   6.451
 1252SOL     OW 4654   3.365   3.998   0.326
 1252SOL    HW1 4655   3.307   4.002   0.245
 1252SOL    HW2 4656   3.314   3.955   0.401
 1253SOL     OW 4657   4.791   1.109   3.103
 1253SOL    HW1 4658   4.873   1.053   3.089
 1253SOL    HW2 4659   4.817   1.196   3.145
 1254SOL     OW 4660   5.538   1.032   3.756
 1254SOL    HW1 4661   5.512   1.044   3.660
 1254SOL    HW2 4662   5.456   1.019   3.812
 1255SOL     OW 4663   5.710   0.297   1.911
 1255SOL    HW1 4664   5.790   0.247   1.945
 1255SOL    HW2 4665   5.663   0.340   1.988
 1256SOL     OW 4666   4.657   2.647   3.698
 1256SOL    HW1 4667   4.695   2.734   3.729
 1256SOL    HW2 4668   4.561   2.640   3.726
 1257SOL     OW 4669   5.808   0.984   4.376
 1257SOL    HW1 4670   5.754   1.003   4.458
 1257SOL    HW2 4671   5.755   0.927   4.313
 1258SOL     OW 4672   0.079   5.054   3.328
 1258SOL    HW1 4673   7.002   5.032   3.333
 1258SOL    HW2 4674   0.093   5.137   3.275
 1259SOL     OW 4675   5.319   2.208   4.583
 1259SOL    HW1 4676   5.280   2.264   4.510
 1259SOL    HW2 4677   5.390   2.149   4.545
 1260SOL     OW 4678   0.703   1.766   4.947
 1260SOL    HW1 4679   0.751   1.693   4.995
 1260SOL    HW2 4680   0.667   1.832   5.013
 1261SOL     OW 4681   6.614   3.592   1.292
 1261SOL    HW1 4682   6.603   3.509   1.345
 1261SOL    HW2 4683   6.648   3.569   1.200
 1262SOL     OW 4684   4.863   6.357   2.063
 1262SOL    HW1 4685   4.886   6.262   2.085
 1262SOL    HW2 4686   4.801   6.394   2.132
 1263SOL     OW 4687   0.674   1.995   3.170
 1263SOL    HW1 4688   0.683   1.909   3.219
 1263SOL    HW2 4689   0.579   2.025   3.171
 1264SOL     OW 4690   0.764   2.669   5.332
 1264SOL    HW1 4691   0.802   2.760   5.316
 1264SOL    HW2 4692   0.758   2.653   5.431
 1265SOL     OW 4693   5.948   6.900   5.617
 1265SOL    HW1 4694   6.007   6.976   5.643
 1265SOL    HW2 4695   5.866   6.900   5.676
 1266SOL     OW 4696   3.246   1.564   5.291
 1266SOL    HW1 4697   3.173   1.629   5.309
 1266SOL    HW2 4698   3.227   1.478   5.338
 1267SOL     OW 4699   3.002   0.362   1.986
 1267SOL    HW1 4700   2.989   0.450   2.032
 1267SOL    HW2 4701   2.913   0.327   1.957
 1268SOL     OW 4702   4.093   2.286   5.345
 1268SOL    HW1 4703   4.041   2.200   5.349
 1268SOL    HW2 4704   4.032   2.362   5.367
 1269SOL     OW 4705   5.671   1.944   3.567
 1269SOL    HW1 4706   5.736   1.868   3.566
 1269SOL    HW2 4707   5.643   1.963   3.661
 1270SOL     OW 4708   6.025   5.525   3.032
 1270SOL    HW1 4709   6.094   5.494   3.098
 1270SOL    HW2 4710   5.971   5.446   3.002
 1271SOL     OW 4711   1.551   0.783   1.908
 1271SOL    HW1 4712   1.631   0.828   1.949
 1271SOL    HW2 4713   1.546   0.807   1.811
 1272SOL     OW 4714   6.146   2.174   0.648
 1272SOL    HW1 4715   6.177   2.174   0.743
 1272SOL    HW2 4716   6.095   2.091   0.629
 1273SOL     OW 4717   1.647   4.483   5.680
 1273SOL    HW1 4718   1.556   4.478   5.640
 1273SOL    HW2 4719   1.650   4.428   5.764
 1274SOL     OW 4720   0.229   4.133   4.366
 1274SOL    HW1 4721   0.147   4.146   4.422
 1274SOL    HW2 4722   0.228   4.040   4.329
 1275SOL     OW 4723   1.726   1.601   2.924
 1275SOL    HW1 4724   1.812   1.551   2.935
 1275SOL    HW2 4725   1.724   1.679   2.987
 1276SOL     OW 4726   5.880   4.274   3.827
 1276SOL    HW1 4727   5.913   4.359   3.787
 1276SOL    HW2 4728   5.851   4.212   3.754
 1277SOL     OW 4729   1.612   6.302   6.325
 1277SOL    HW1 4730   1.656   6.292   6.414
 1277SOL    HW2 4731   1.568   6.216   6.299
 1278SOL     OW 4732   0.119   5.967   2.659
 1278SOL    HW1 4733   0.033   6.012   2.685
 1278SOL    HW2 4734   0.110   5.929   2.567
 1279SOL     OW 4735   3.072   3.446   0.536
 1279SOL    HW1 4736   3.085   3.472   0.632
 1279SOL    HW2 4737   3.153   3.471   0.483
 1280SOL     OW 4738   2.684   2.446   3.858
 1280SOL    HW1 4739   2.600   2.400   3.888
 1280SOL    HW2 4740   2.668   2.544   3.851
 1281SOL     OW 4741   5.110   6.242   5.368
 1281SOL    HW1 4742   5.121   6.319   5.306
 1281SOL    HW2 4743   5.149   6.265   5.457
 1282SOL     OW 4744   0.961   2.929   0.940
 1282SOL    HW1 4745   0.926   2.885   0.858
 1282SOL    HW2 4746   1.010   2.863   0.997
 1283SOL     OW 4747   0.603   1.273   4.381
 1283SOL    HW1 4748   0.606   1.332   4.300
 1283SOL    HW2 4749   0.689   1.223   4.389
 1284SOL     OW 4750   3.835   2.179   1.723
 1284SOL    HW1 4751   3.766   2.240   1.762
 1284SOL    HW2 4752   3.926   2.207   1.754
 1285SOL     OW 4753   4.360   1.570   4.686
 1285SOL    HW1 4754   4.263   1.552   4.697
 1285SOL    HW2 4755   4.380   1.591   4.590
 1286SOL     OW 4756   4.679   1.062   2.264
 1286SOL    HW1 4757   4.725   1.148   2.240
 1286SOL    HW2 4758   4.621   1.034   2.188
 1287SOL     OW 4759   4.935   5.065   6.149
 1287SOL    HW1 4760   4.964   4.970   6.158
 1287SOL    HW2 4761   5.002   5.125   6.192
 1288SOL     OW 4762   4.538   4.533   6.464
 1288SOL    HW1 4763   4.587   4.526   6.551
 1288SOL    HW2 4764   4.439   4.534   6.481
 1289SOL     OW 4765   0.926   6.749   0.538
 1289SOL    HW1 4766   0.974   6.752   0.625
 1289SOL    HW2 4767   0.935   6.658   0.498
 1290SOL     OW 4768   1.098   6.818   5.068
 1290SOL    HW1 4769   1.128   6.748   5.002
 1290SOL    HW2 4770   1.156   6.899   5.058
 1291SOL     OW 4771   5.555   5.211   3.441
 1291SOL    HW1 4772   5.513   5.131   3.399
 1291SOL    HW2 4773   5.655   5.204   3.436
 1292SOL     OW 4774   0.579   6.708   2.993
 1292SOL    HW1 4775   0.655   6.644   3.002
 1292SOL    HW2 4776   0.603   6.780   2.928
 1293SOL     OW 4777   5.039   0.285   1.072
 1293SOL    HW1 4778   4.942   0.262   1.077
 1293SOL    HW2 4779   5.085   0.256   1.156
 1294SOL     OW 4780   2.049   4.559   5.389
 1294SOL    HW1 4781   2.062   4.611   5.304
 1294SOL    HW2 4782   2.039   4.623   5.465
 1295SOL     OW 4783   0.101   4.634   0.450
 1295SOL    HW1 4784   0.178   4.673   0.501
 1295SOL    HW2 4785   0.119   4.639   0.352
 1296SOL     OW 4786   4.634   0.658   5.418
 1296SOL    HW1 4787   4.619   0.749   5.457
 1296SOL    HW2 4788   4.575   0.592   5.464
 1297SOL     OW 4789   6.614   6.845   6.949
 1297SOL    HW1 4790   6.624   6.937   6.987
 1297SOL    HW2 4791   6.543   6.796   7.000
 1298SOL     OW 4792   5.225   0.524   3.216
 1298SOL    HW1 4793   5.157   0.488   3.279
 1298SOL    HW2 4794   5.305   0.557   3.268
 1299SOL     OW 4795   1.115   4.576   4.675
 1299SOL    HW1 4796   1.194   4.623   4.714
 1299SOL    HW2 4797   1.126   4.569   4.576
 1300SOL     OW 4798   1.636   5.642   7.018
 1300SOL    HW1 4799   1.591   5.680   0.078
 1300SOL    HW2 4800   1.627   5.706   6.942
 1301SOL     OW 4801   6.357   1.008   0.321
 1301SOL    HW1 4802   6.268   1.055   0.317
 1301SOL    HW2 4803   6.345   0.918   0.362
 1302SOL     OW 4804   6.880   7.008   4.803
 1302SOL    HW1 4805   6.847   6.960   4.722
 1302SOL    HW2 4806   6.922   6.943   4.866
 1303SOL     OW 4807   3.108   6.648   1.381
 1303SOL    HW1 4808   3.074   6.709   1.309
 1303SOL    HW2 4809   3.174   6.584   1.343
 1304SOL     OW 4810   6.932   0.043   0.125
 1304SOL    HW1 4811   6.970   0.135   0.122
 1304SOL    HW2 4812   6.976   7.010   0.198
 1305SOL     OW 4813   4.268   3.895   5.886
 1305SOL    HW1 4814   4.274   3.980   5.834
 1305SOL    HW2 4815   4.218   3.912   5.971
 1306SOL     OW 4816   2.890   6.218   4.326
 1306SOL    HW1 4817   2.888   6.212   4.226
 1306SOL    HW2 4818   2.970   6.170   4.360
 1307SOL     OW 4819   2.183   3.311   4.074
 1307SOL    HW1 4820   2.216   3.271   4.159
 1307SOL    HW2 4821   2.231   3.397   4.056
 1308SOL     OW 4822   0.177   3.766   6.351
 1308SOL    HW1 4823   0.205   3.670   6.360
 1308SOL    HW2 4824   0.144   3.783   6.258
 1309SOL     OW 4825   6.225   3.975   6.667
 1309SOL    HW1 4826   6.129   3.989   6.691
 1309SOL    HW2 4827   6.235   3.976   6.567
 1310SOL     OW 4828   2.183   3.160   2.972
 1310SOL    HW1 4829   2.176   3.260   2.979
 1310SOL    HW2 4830   2.264   3.129   3.020
 1311SOL     OW 4831   6.100   5.176   0.208
 1311SOL    HW1 4832   6.123   5.094   0.155
 1311SOL    HW2 4833   6.180   5.236   0.211
 1312SOL     OW 4834   2.809   1.339   6.384
 1312SOL    HW1 4835   2.741   1.357   6.313
 1312SOL    HW2 4836   2.779   1.381   6.470
 1313SOL     OW 4837   5.790   5.095   2.078
 1313SOL    HW1 4838   5.824   5.152   2.004
 1313SOL    HW2 4839   5.865   5.072   2.140
 1314SOL     OW 4840   2.266   1.101   3.717
 1314SOL    HW1 4841   2.176   1.089   3.675
 1314SOL    HW2 4842   2.261   1.173   3.786
 1315SOL     OW 4843   6.334   0.993   3.172
 1315SOL    HW1 4844   6.284   1.067   3.126
 1315SOL    HW2 4845   6.408   0.961   3.114
 1316SOL     OW 4846   5.129   0.098   6.041
 1316SOL    HW1 4847   5.191   0.020   6.033
 1316SOL    HW2 4848   5.062   0.081   6.113
 1317SOL     OW 4849   3.692   2.895   4.450
 1317SOL    HW1 4850   3.625   2.836   4.495
 1317SOL    HW2 4851   3.764   2.919   4.515
 1318SOL     OW 4852   1.923   1.539   6.418
 1318SOL    HW1 4853   1.876   1.564   6.503
 1318SOL    HW2 4854   1.867   1.475   6.366
 1319SOL     OW 4855   6.689   1.243   0.397
 1319SOL    HW1 4856   6.728   1.159   0.360
 1319SOL    HW2 4857   6.613   1.221   0.458
 1320SOL     OW 4858   2.641   2.956   6.099
 1320SOL    HW1 4859   2.721   2.903   6.126
 1320SOL    HW2 4860   2.595   2.909   6.023
 1321SOL     OW 4861   6.912   2.686   1.544
 1321SOL    HW1 4862   6.896   2.782   1.523
 1321SOL    HW2 4863   6.960   2.643   1.467
 1322SOL     OW 4864   2.492   2.499   6.762
 1322SOL    HW1 4865   2.502   2.585   6.712
 1322SOL    HW2 4866   2.546   2.502   6.845
 1323SOL     OW 4867   4.056   0.791   1.516
 1323SOL    HW1 4868   4.119   0.865   1.492
 1323SOL    HW2 4869   4.035   0.795   1.614
 1324SOL     OW 4870   2.387   4.250   6.288
 1324SOL    HW1 4871   2.299   4.267   6.333
 1324SOL    HW2 4872   2.382   4.165   6.236
 1325SOL     OW 4873   4.249   6.171   4.509
 1325SOL    HW1 4874   4.201   6.098   4.559
 1325SOL    HW2 4875   4.272   6.245   4.573
 1326SOL     OW 4876   4.785   1.132   4.698
 1326SOL    HW1 4877   4.871   1.100   4.658
 1326SOL    HW2 4878   4.801   1.161   4.792
 1327SOL     OW 4879   4.902   5.632   2.203
 1327SOL    HW1 4880   4.915   5.535   2.225
 1327SOL    HW2 4881   4.988   5.680   2.213
 1328SOL     OW 4882   1.973   2.204   5.783
 1328SOL    HW1 4883   1.967   2.171   5.877
 1328SOL    HW2 4884   1.885   2.241   5.755
 1329SOL     OW 4885   1.269   2.999   3.836
 1329SOL    HW1 4886   1.290   3.078   3.778
 1329SOL    HW2 4887   1.169   2.989   3.842
 1330SOL     OW 4888   6.358   3.357   3.163
 1330SOL    HW1 4889   6.393   3.269   3.131
 1330SOL    HW2 4890   6.264   3.369   3.130
 1331SOL     OW 4891   4.295   1.872   3.008
 1331SOL    HW1 4892   4.343   1.864   2.921
 1331SOL    HW2 4893   4.331   1.952   3.057
 1332SOL     OW 4894   2.273   6.008   6.795
 1332SOL    HW1 4895   2.228   5.989   6.708
 1332SOL    HW2 4896   2.282   6.107   6.808
 1333SOL     OW 4897   3.421   3.304   3.026
 1333SOL    HW1 4898   3.384   3.222   3.070
 1333SOL    HW2 4899   3.521   3.302   3.031
 1334SOL     OW 4900   6.279   4.279   1.620
 1334SOL    HW1 4901   6.323   4.272   1.710
 1334SOL    HW2 4902   6.340   4.240   1.551
 1335SOL     OW 4903   0.382   3.543   3.030
 1335SOL    HW1 4904   0.366   3.639   3.054
 1335SOL    HW2 4905   0.474   3.517   3.058
 1336SOL     OW 4906   2.201   6.872   5.706
 1336SOL    HW1 4907   2.276   6.843   5.765
 1336SOL    HW2 4908   2.114   6.851   5.750
 1337SOL     OW 4909   0.687   0.085   2.051
 1337SOL    HW1 4910   0.615   0.029   2.092
 1337SOL    HW2 4911   0.652   0.176   2.030
 1338SOL     OW 4912   0.050   4.071   5.106
 1338SOL    HW1 4913   0.073   4.022   5.022
 1338SOL    HW2 4914   0.115   4.145   5.121
 1339SOL     OW 4915   5.481   1.141   0.101
 1339SOL    HW1 4916   5.572   1.183   0.104
 1339SOL    HW2 4917   5.476   1.078   0.024
 1340SOL     OW 4918   3.284   2.764   1.080
 1340SOL    HW1 4919   3.314   2.670   1.063
 1340SOL    HW2 4920   3.213   2.765   1.150
 1341SOL     OW 4921   5.745   5.794   6.455
 1341SOL    HW1 4922   5.779   5.814   6.547
 1341SOL    HW2 4923   5.661   5.846   6.438
 1342SOL     OW 4924   1.797   5.888   1.312
 1342SOL    HW1 4925   1.897   5.898   1.310
 1342SOL    HW2 4926   1.766   5.894   1.407
 1343SOL     OW 4927   4.874   6.121   2.624
 1343SOL    HW1 4928   4.880   6.092   2.720
 1343SOL    HW2 4929   4.954   6.176   2.601
 1344SOL     OW 4930   1.025   0.777   4.002
 1344SOL    HW1 4931   0.950   0.716   3.976
 1344SOL    HW2 4932   1.037   0.846   3.931
 1345SOL     OW 4933   1.492   6.563   5.764
 1345SOL    HW1 4934   1.417   6.528   5.820
 1345SOL    HW2 4935   1.575   6.511   5.782
 1346SOL     OW 4936   3.117   5.353   4.145
 1346SOL    HW1 4937   3.153   5.407   4.220
 1346SOL    HW2 4938   3.121   5.256   4.169
 1347SOL     OW 4939   1.341   0.869   6.332
 1347SOL    HW1 4940   1.278   0.886   6.408
 1347SOL    HW2 4941   1.397   0.789   6.352
 1348SOL     OW 4942   1.514   6.706   4.882
 1348SOL    HW1 4943   1.471   6.790   4.848
 1348SOL    HW2 4944   1.597   6.687   4.828
 1349SOL     OW 4945   5.594   3.817   4.302
 1349SOL    HW1 4946   5.539   3.838   4.221
 1349SOL    HW2 4947   5.534   3.796   4.379
 1350SOL     OW 4948   5.121   4.693   6.649
 1350SOL    HW1 4949   5.073   4.668   6.733
 1350SOL    HW2 4950   5.103   4.789   6.627
 1351SOL     OW 4951   6.968   2.589   6.432
 1351SOL    HW1 4952   6.903   2.660   6.459
 1351SOL    HW2 4953   0.031   2.597   6.487
 1352SOL     OW 4954   0.083   0.504   2.602
 1352SOL    HW1 4955   7.012   0.517   2.642
 1352SOL    HW2 4956   0.113   0.589   2.559
 1353SOL     OW 4957   6.439   2.073   6.246
 1353SOL    HW1 4958   6.421   2.088   6.343
 1353SOL    HW2 4959   6.377   2.129   6.191
 1354SOL     OW 4960   5.041   4.888   2.613
 1354SOL    HW1 4961   5.032   4.790   2.630
 1354SOL    HW2 4962   4.959   4.935   2.644
 1355SOL     OW 4963   4.189   3.764   5.201
 1355SOL    HW1 4964   4.190   3.664   5.211
 1355SOL    HW2 4965   4.123   3.790   5.131
 1356SOL     OW 4966   2.849   3.338   6.728
 1356SOL    HW1 4967   2.853   3.345   6.628
 1356SOL    HW2 4968   2.811   3.423   6.765
 1357SOL     OW 4969   1.110   3.139   5.503
 1357SOL    HW1 4970   1.163   3.203   5.559
 1357SOL    HW2 4971   1.172   3.083   5.448
 1358SOL     OW 4972   2.250   6.762   6.677
 1358SOL    HW1 4973   2.280   6.755   6.772
 1358SOL    HW2 4974   2.153   6.788   6.675
 1359SOL     OW 4975   6.431   4.897   6.826
 1359SOL    HW1 4976   6.388   4.948   6.752
 1359SOL    HW2 4977   6.513   4.945   6.856
 1360SOL     OW 4978   2.607   1.371   6.196
 1360SOL    HW1 4979   2.667   1.415   6.129
 1360SOL    HW2 4980   2.528   1.430   6.214
 1361SOL     OW 4981   6.495   5.485   5.097
 1361SOL    HW1 4982   6.579   5.431   5.097
 1361SOL    HW2 4983   6.428   5.443   5.159
 1362SOL     OW 4984   3.547   3.761   4.072
 1362SOL    HW1 4985   3.447   3.767   4.078
 1362SOL    HW2 4986   3.587   3.799   4.155
 1363SOL     OW 4987   0.351   6.801   3.527
 1363SOL    HW1 4988   0.302   6.872   3.476
 1363SOL    HW2 4989   0.306   6.713   3.514
 1364SOL     OW 4990   3.903   4.154   7.012
 1364SOL    HW1 4991   3.804   4.161   0.001
 1364SOL    HW2 4992   3.938   4.085   0.054
 1365SOL     OW 4993   5.989   2.759   6.244
 1365SOL    HW1 4994   5.984   2.700   6.163
 1365SOL    HW2 4995   5.976   2.704   6.327
 1366SOL     OW 4996   2.171   0.486   5.052
 1366SOL    HW1 4997   2.102   0.537   4.999
 1366SOL    HW2 4998   2.231   0.551   5.099
 1367SOL     OW 4999   2.544   1.734   2.363
 1367SOL    HW1 5000   2.629   1.727   2.415
 1367SOL    HW2 5001   2.496   1.818   2.387
 1368SOL     OW 5002   0.064   0.721   3.036
 1368SOL    HW1 5003   0.116   0.729   3.120
 1368SOL    HW2 5004   6.988   0.742   3.054
 1369SOL     OW 5005   0.021   0.329   2.404
 1369SOL    HW1 5006   0.009   0.236   2.438
 1369SOL    HW2 5007   0.047   0.389   2.480
 1370SOL     OW 5008   1.689   0.825   2.256
 1370SOL    HW1 5009   1.769   0.795   2.306
 1370SOL    HW2 5010   1.609   0.771   2.284
 1371SOL     OW 5011   3.062   6.964   6.300
 1371SOL    HW1 5012   2.989   6.947   6.366
 1371SOL    HW2 5013   3.029   6.942   6.208
 1372SOL     OW 5014   2.672   1.990   1.641
 1372SOL    HW1 5015   2.691   2.084   1.667
 1372SOL    HW2 5016   2.617   1.946   1.712
 1373SOL     OW 5017   1.841   5.933   6.659
 1373SOL    HW1 5018   1.851   5.888   6.570
 1373SOL    HW2 5019   1.889   5.879   6.729
 1374SOL     OW 5020   5.143   3.814   5.421
 1374SOL    HW1 5021   5.238   3.819   5.391
 1374SOL    HW2 5022   5.094   3.745   5.368
 1375SOL     OW 5023   1.195   4.038   4.264
 1375SOL    HW1 5024   1.288   4.045   4.299
 1375SOL    HW2 5025   1.132   4.085   4.326
 1376SOL     OW 5026   4.908   0.612   2.004
 1376SOL    HW1 5027   4.942   0.556   1.929
 1376SOL    HW2 5028   4.819   0.651   1.979
 1377SOL     OW 5029   0.660   4.392   5.150
 1377SOL    HW1 5030   0.674   4.293   5.161
 1377SOL    HW2 5031   0.601   4.426   5.223
 1378SOL     OW 5032   1.761   2.054   0.515
 1378SOL    HW1 5033   1.834   2.033   0.580
 1378SOL    HW2 5034   1.800   2.083   0.428
 1379SOL     OW 5035   4.362   5.622   1.628
 1379SOL    HW1 5036   4.283   5.683   1.643
 1379SOL    HW2 5037   4.422   5.662   1.558
 1380SOL     OW 5038   5.898   5.011   2.909
 1380SOL    HW1 5039   5.991   4.983   2.886
 1380SOL    HW2 5040   5.836   4.982   2.837
 1381SOL     OW 5041   4.610   6.963   2.452
 1381SOL    HW1 5042   4.599   0.028   2.504
 1381SOL    HW2 5043   4.605   6.886   2.515
 1382SOL     OW 5044   0.516   4.254   0.574
 1382SOL    HW1 5045   0.475   4.162   0.576
 1382SOL    HW2 5046   0.609   4.248   0.538
 1383SOL     OW 5047   2.599   0.145   0.746
 1383SOL    HW1 5048   2.637   0.053   0.733
 1383SOL    HW2 5049   2.662   0.201   0.800
 1384SOL     OW 5050   1.371   1.347   1.650
 1384SOL    HW1 5051   1.353   1.261   1.601
 1384SOL    HW2 5052   1.391   1.326   1.745
 1385SOL     OW 5053   5.034   3.649   3.950
 1385SOL    HW1 5054   5.036   3.666   3.851
 1385SOL    HW2 5055   5.032   3.550   3.966
 1386SOL     OW 5056   2.546   2.367   3.549
 1386SOL    HW1 5057   2.583   2.392   3.460
 1386SOL    HW2 5058   2.497   2.280   3.542
 1387SOL     OW 5059   3.430   1.253   3.677
 1387SOL    HW1 5060   3.495   1.257   3.601
 1387SOL    HW2 5061   3.356   1.190   3.655
 1388SOL     OW 5062   5.241   1.918   3.692
 1388SOL    HW1 5063   5.160   1.942   3.745
 1388SOL    HW2 5064   5.233   1.823   3.661
 1389SOL     OW 5065   6.784   0.480   3.892
 1389SOL    HW1 5066   6.751   0.440   3.977
 1389SOL    HW2 5067   6.870   0.529   3.909
 1390SOL     OW 5068   5.630   1.678   2.219
 1390SOL    HW1 5069   5.728   1.685   2.239
 1390SOL    HW2 5070   5.613   1.594   2.167
 1391SOL     OW 5071   5.501   0.620   5.140
 1391SOL    HW1 5072   5.417   0.630   5.193
 1391SOL    HW2 5073   5.528   0.524   5.138
 1392SOL     OW 5074   3.771   0.145   5.083
 1392SOL    HW1 5075   3.710   0.207   5.034
 1392SOL    HW2 5076   3.719   0.094   5.151
 1393SOL     OW 5077   5.273   0.463   6.948
 1393SOL    HW1 5078   5.199   0.468   6.880
 1393SOL    HW2 5079   5.350   0.518   6.916
 1394SOL     OW 5080   4.191   0.910   4.268
 1394SOL    HW1 5081   4.142   0.975   4.326
 1394SOL    HW2 5082   4.284   0.899   4.301
 1395SOL     OW 5083   0.653   4.965   2.748
 1395SOL    HW1 5084   0.648   5.025   2.668
 1395SOL    HW2 5085   0.708   5.009   2.819
 1396SOL     OW 5086   1.446   1.495   3.578
 1396SOL    HW1 5087   1.504   1.532   3.506
 1396SOL    HW2 5088   1.360   1.461   3.538
 1397SOL     OW 5089   2.516   4.386   5.478
 1397SOL    HW1 5090   2.570   4.325   5.419
 1397SOL    HW2 5091   2.421   4.387   5.448
 1398SOL     OW 5092   3.318   6.838   6.669
 1398SOL    HW1 5093   3.410   6.798   6.659
 1398SOL    HW2 5094   3.319   6.932   6.637
 1399SOL     OW 5095   3.637   6.948   6.999
 1399SOL    HW1 5096   3.684   6.996   0.053
 1399SOL    HW2 5097   3.564   7.006   6.963
 1400SOL     OW 5098   0.491   1.414   5.564
 1400SOL    HW1 5099   0.506   1.406   5.466
 1400SOL    HW2 5100   0.544   1.344   5.612
 1401SOL     OW 5101   4.540   0.299   2.309
 1401SOL    HW1 5102   4.565   0.232   2.379
 1401SOL    HW2 5103   4.525   0.388   2.352
 1402SOL     OW 5104   4.828   3.966   2.020
 1402SOL    HW1 5105   4.794   3.974   1.926
 1402SOL    HW2 5106   4.792   4.041   2.075
 1403SOL     OW 5107   3.169   3.213   6.756
 1403SOL    HW1 5108   3.134   3.304   6.735
 1403SOL    HW2 5109   3.160   3.154   6.676
 1404SOL     OW 5110   3.606   6.471   0.124
 1404SOL    HW1 5111   3.565   6.556   0.092
 1404SOL    HW2 5112   3.683   6.492   0.185
 1405SOL     OW 5113   1.231   4.337   6.820
 1405SOL    HW1 5114   1.302   4.271   6.794
 1405SOL    HW2 5115   1.142   4.300   6.795
 1406SOL     OW 5116   1.992   2.675   6.935
 1406SOL    HW1 5117   2.086   2.706   6.949
 1406SOL    HW2 5118   1.973   2.597   6.995
 1407SOL     OW 5119   6.947   2.270   1.819
 1407SOL    HW1 5120   6.958   2.300   1.724
 1407SOL    HW2 5121   6.853   2.286   1.848
 1408SOL     OW 5122   5.896   6.350   1.161
 1408SOL    HW1 5123   5.991   6.353   1.129
 1408SOL    HW2 5124   5.845   6.281   1.110
 1409SOL     OW 5125   5.648   1.998   5.839
 1409SOL    HW1 5126   5.619   2.015   5.933
 1409SOL    HW2 5127   5.676   2.084   5.797
 1410SOL     OW 5128   3.212   0.519   0.397
 1410SOL    HW1 5129   3.156   0.453   0.448
 1410SOL    HW2 5130   3.280   0.560   0.459
 1411SOL     OW 5131   3.123   6.772   0.258
 1411SOL    HW1 5132   3.119   6.677   0.227
 1411SOL    HW2 5133   3.063   6.828   0.201
 1412SOL     OW 5134   2.661   1.400   6.590
 1412SOL    HW1 5135   2.633   1.489   6.627
 1412SOL    HW2 5136   2.646   1.329   6.658
 1413SOL     OW 5137   2.568   1.329   5.017
 1413SOL    HW1 5138   2.515   1.244   5.024
 1413SOL    HW2 5139   2.505   1.406   5.006
 1414SOL     OW 5140   0.389   5.162   2.030
 1414SOL    HW1 5141   0.315   5.096   2.026
 1414SOL    HW2 5142   0.468   5.121   2.076
 1415SOL     OW 5143   3.587   1.873   5.336
 1415SOL    HW1 5144   3.501   1.878   5.286
 1415SOL    HW2 5145   3.574   1.911   5.428
 1416SOL     OW 5146   4.698   0.461   4.896
 1416SOL    HW1 5147   4.776   0.398   4.890
 1416SOL    HW2 5148   4.702   0.527   4.820
 1417SOL     OW 5149   3.692   3.736   4.332
 1417SOL    HW1 5150   3.689   3.787   4.418
 1417SOL    HW2 5151   3.773   3.676   4.332
 1418SOL     OW 5152   3.365   3.895   5.296
 1418SOL    HW1 5153   3.356   3.796   5.282
 1418SOL    HW2 5154   3.455   3.925   5.265
 1419SOL     OW 5155   0.428   5.301   1.803
 1419SOL    HW1 5156   0.487   5.381   1.808
 1419SOL    HW2 5157   0.430   5.252   1.891
 1420SOL     OW 5158   2.556   6.723   3.265
 1420SOL    HW1 5159   2.615   6.672   3.202
 1420SOL    HW2 5160   2.611   6.769   3.333
 1421SOL     OW 5161   2.023   5.361   0.720
 1421SOL    HW1 5162   2.038   5.266   0.692
 1421SOL    HW2 5163   2.100   5.392   0.776
 1422SOL     OW 5164   1.729   4.020   6.815
 1422SOL    HW1 5165   1.703   4.108   6.854
 1422SOL    HW2 5166   1.806   4.034   6.753
 1423SOL     OW 5167   4.512   0.972   4.447
 1423SOL    HW1 5168   4.544   1.016   4.363
 1423SOL    HW2 5169   4.477   1.042   4.510
 1424SOL     OW 5170   6.535   3.312   1.325
 1424SOL    HW1 5171   6.523   3.253   1.404
 1424SOL    HW2 5172   6.463   3.295   1.258
 1425SOL     OW 5173   5.543   6.444   3.364
 1425SOL    HW1 5174   5.567   6.382   3.290
 1425SOL    HW2 5175   5.626   6.485   3.401
 1426SOL     OW 5176   3.926   1.642   0.998
 1426SOL    HW1 5177   3.916   1.638   1.097
 1426SOL    HW2 5178   3.930   1.549   0.961
 1427SOL     OW 5179   1.020   1.203   3.999
 1427SOL    HW1 5180   1.033   1.104   3.990
 1427SOL    HW2 5181   0.927   1.227   3.969
 1428SOL     OW 5182   1.870   3.648   3.797
 1428SOL    HW1 5183   1.844   3.591   3.720
 1428SOL    HW2 5184   1.922   3.727   3.765
 1429SOL     OW 5185   6.265   0.449   1.564
 1429SOL    HW1 5186   6.187   0.395   1.596
 1429SOL    HW2 5187   6.342   0.438   1.627
 1430SOL     OW 5188   2.221   3.962   4.414
 1430SOL    HW1 5189   2.244   4.056   4.389
 1430SOL    HW2 5190   2.172   3.919   4.338
 1431SOL     OW 5191   3.723   2.148   0.672
 1431SOL    HW1 5192   3.744   2.245   0.680
 1431SOL    HW2 5193   3.725   2.107   0.764
 1432SOL     OW 5194   3.331   0.425   2.858
 1432SOL    HW1 5195   3.377   0.459   2.775
 1432SOL    HW2 5196   3.323   0.500   2.924
 1433SOL     OW 5197   3.259   1.865   4.382
 1433SOL    HW1 5198   3.316   1.945   4.400
 1433SOL    HW2 5199   3.286   1.824   4.294
 1434SOL     OW 5200   5.629   3.341   0.980
 1434SOL    HW1 5201   5.565   3.342   0.903
 1434SOL    HW2 5202   5.699   3.411   0.965
 1435SOL     OW 5203   0.167   6.362   4.274
 1435SOL    HW1 5204   0.146   6.330   4.367
 1435SOL    HW2 5205   0.128   6.299   4.207
 1436SOL     OW 5206   5.816   0.833   0.109
 1436SOL    HW1 5207   5.828   0.897   0.185
 1436SOL    HW2 5208   5.727   0.787   0.118
 1437SOL     OW 5209   4.234   1.058   0.537
 1437SOL    HW1 5210   4.277   1.140   0.576
 1437SOL    HW2 5211   4.210   0.995   0.611
 1438SOL     OW 5212   2.395   0.100   3.106
 1438SOL    HW1 5213   2.330   0.122   3.179
 1438SOL    HW2 5214   2.488   0.104   3.142
 1439SOL     OW 5215   6.992   5.214   4.906
 1439SOL    HW1 5216   0.038   5.139   4.895
 1439SOL    HW2 5217   6.903   5.175   4.929
 1440SOL     OW 5218   3.458   3.281   2.710
 1440SOL    HW1 5219   3.413   3.370   2.709
 1440SOL    HW2 5220   3.398   3.214   2.752
 1441SOL     OW 5221   0.486   1.960   6.126
 1441SOL    HW1 5222   0.503   1.983   6.222
 1441SOL    HW2 5223   0.394   1.920   6.117
 1442SOL     OW 5224   5.565   5.827   6.867
 1442SOL    HW1 5225   5.622   5.909   6.866
 1442SOL    HW2 5226   5.470   5.852   6.885
 1443SOL     OW 5227   1.700   3.421   3.878
 1443SOL    HW1 5228   1.739   3.431   3.786
 1443SOL    HW2 5229   1.772   3.432   3.946
 1444SOL     OW 5230   4.971   6.833   4.477
 1444SOL    HW1 5231   4.951   6.775   4.556
 1444SOL    HW2 5232   4.886   6.875   4.444
 1445SOL     OW 5233   6.744   2.554   0.128
 1445SOL    HW1 5234   6.681   2.514   0.195
 1445SOL    HW2 5235   6.692   2.585   0.049
 1446SOL     OW 5236   2.856   5.660   2.245
 1446SOL    HW1 5237   2.910   5.602   2.185
 1446SOL    HW2 5238   2.873   5.756   2.224
 1447SOL     OW 5239   6.524   0.809   4.672
 1447SOL    HW1 5240   6.450   0.767   4.724
 1447SOL    HW2 5241   6.498   0.902   4.645
 1448SOL     OW 5242   5.630   0.946   0.397
 1448SOL    HW1 5243   5.728   0.933   0.383
 1448SOL    HW2 5244   5.610   1.044   0.406
 1449SOL     OW 5245   4.689   5.307   0.525
 1449SOL    HW1 5246   4.646   5.217   0.520
 1449SOL    HW2 5247   4.781   5.299   0.565
 1450SOL     OW 5248   5.267   1.200   3.437
 1450SOL    HW1 5249   5.207   1.121   3.454
 1450SOL    HW2 5250   5.297   1.238   3.524
 1451SOL     OW 5251   1.009   6.927   2.384
 1451SOL    HW1 5252   0.959   6.843   2.404
 1451SOL    HW2 5253   1.047   6.922   2.292
 1452SOL     OW 5254   2.134   6.758   6.363
 1452SOL    HW1 5255   2.156   6.811   6.281
 1452SOL    HW2 5256   2.038   6.768   6.385
 1453SOL     OW 5257   6.027   4.343   4.243
 1453SOL    HW1 5258   5.986   4.293   4.167
 1453SOL    HW2 5259   6.117   4.304   4.264
 1454SOL     OW 5260   5.942   3.697   1.309
 1454SOL    HW1 5261   6.038   3.691   1.337
 1454SOL    HW2 5262   5.937   3.726   1.213
 1455SOL     OW 5263   1.813   1.850   2.070
 1455SOL    HW1 5264   1.799   1.898   2.156
 1455SOL    HW2 5265   1.840   1.916   1.999
 1456SOL     OW 5266   5.483   5.413   5.021
 1456SOL    HW1 5267   5.439   5.327   5.047
 1456SOL    HW2 5268   5.448   5.487   5.080
 1457SOL     OW 5269   2.005   1.003   4.448
 1457SOL    HW1 5270   1.954   1.083   4.479
 1457SOL    HW2 5271   2.102   1.015   4.470
 1458SOL     OW 5272   6.555   5.468   0.262
 1458SOL    HW1 5273   6.548   5.517   0.349
 1458SOL    HW2 5274   6.473   5.412   0.248
 1459SOL     OW 5275   2.894   0.001   1.802
 1459SOL    HW1 5276   2.946   0.072   1.848
 1459SOL    HW2 5277   2.834   0.042   1.734
 1460SOL     OW 5278   0.183   1.276   6.570
 1460SOL    HW1 5279   0.140   1.216   6.637
 1460SOL    HW2 5280   0.277   1.248   6.555
 1461SOL     OW 5281   4.890   4.364   2.796
 1461SOL    HW1 5282   4.920   4.321   2.881
 1461SOL    HW2 5283   4.790   4.368   2.794
 1462SOL     OW 5284   5.755   6.967   5.061
 1462SOL    HW1 5285   5.657   6.954   5.044
 1462SOL    HW2 5286   5.789   0.019   5.001
 1463SOL     OW 5287   1.136   2.067   5.747
 1463SOL    HW1 5288   1.136   2.156   5.702
 1463SOL    HW2 5289   1.094   1.999   5.688
 1464SOL     OW 5290   0.662   1.066   0.978
 1464SOL    HW1 5291   0.688   1.041   1.072
 1464SOL    HW2 5292   0.742   1.062   0.919
 1465SOL     OW 5293   1.874   1.102   3.758
 1465SOL    HW1 5294   1.783   1.095   3.716
 1465SOL    HW2 5295   1.940   1.134   3.690
 1466SOL     OW 5296   6.028   5.728   4.067
 1466SOL    HW1 5297   5.931   5.736   4.045
 1466SOL    HW2 5298   6.050   5.632   4.085
 1467SOL     OW 5299   6.923   4.018   4.763
 1467SOL    HW1 5300   6.872   3.949   4.814
 1467SOL    HW2 5301   6.861   4.093   4.739
 1468SOL     OW 5302   4.523   0.155   2.592
 1468SOL    HW1 5303   4.563   0.194   2.675
 1468SOL    HW2 5304   4.436   0.201   2.572
 1469SOL     OW 5305   6.877   0.447   2.228
 1469SOL    HW1 5306   6.942   0.387   2.273
 1469SOL    HW2 5307   6.784   0.425   2.259
 1470SOL     OW 5308   0.836   0.498   3.220
 1470SOL    HW1 5309   0.920   0.501   3.166
 1470SOL    HW2 5310   0.792   0.588   3.218
 1471SOL     OW 5311   6.097   1.256   1.142
 1471SOL    HW1 5312   6.120   1.344   1.183
 1471SOL    HW2 5313   6.038   1.271   1.062
 1472SOL     OW 5314   4.592   5.057   4.779
 1472SOL    HW1 5315   4.687   5.079   4.757
 1472SOL    HW2 5316   4.555   5.124   4.843
 1473SOL     OW 5317   0.078   3.116   4.095
 1473SOL    HW1 5318   0.076   3.205   4.049
 1473SOL    HW2 5319   7.006   3.078   4.098
 1474SOL     OW 5320   4.516   6.221   2.410
 1474SOL    HW1 5321   4.546   6.207   2.504
 1474SOL    HW2 5322   4.542   6.143   2.354
 1475SOL     OW 5323   5.860   6.614   2.878
 1475SOL    HW1 5324   5.900   6.527   2.909
 1475SOL    HW2 5325   5.825   6.603   2.785
 1476SOL     OW 5326   0.866   2.170   1.318
 1476SOL    HW1 5327   0.901   2.264   1.310
 1476SOL    HW2 5328   0.913   2.123   1.393
 1477SOL     OW 5329   2.622   6.449   4.627
 1477SOL    HW1 5330   2.532   6.404   4.628
 1477SOL    HW2 5331   2.631   6.507   4.707
 1478SOL     OW 5332   0.225   3.991   1.084
 1478SOL    HW1 5333   0.275   3.904   1.081
 1478SOL    HW2 5334   0.163   3.997   1.006
 1479SOL     OW 5335   1.688   5.386   6.847
 1479SOL    HW1 5336   1.685   5.479   6.809
 1479SOL    HW2 5337   1.700   5.320   6.773
 1480SOL     OW 5338   3.210   0.777   0.059
 1480SOL    HW1 5339   3.136   0.761   0.124
 1480SOL    HW2 5340   3.252   0.866   0.077
 1481SOL     OW 5341   0.131   3.461   0.497
 1481SOL    HW1 5342   0.231   3.457   0.499
 1481SOL    HW2 5343   0.102   3.553   0.471
 1482SOL     OW 5344   5.857   0.493   6.260
 1482SOL    HW1 5345   5.782   0.433   6.233
 1482SOL    HW2 5346   5.917   0.510   6.181
 1483SOL     OW 5347   0.316   2.717   0.412
 1483SOL    HW1 5348   0.344   2.621   0.403
 1483SOL    HW2 5349   0.292   2.736   0.506
 1484SOL     OW 5350   6.490   6.710   3.435
 1484SOL    HW1 5351   6.580   6.756   3.437
 1484SOL    HW2 5352   6.427   6.763   3.379
 1485SOL     OW 5353   5.234   3.622   4.244
 1485SOL    HW1 5354   5.136   3.620   4.225
 1485SOL    HW2 5355   5.269   3.528   4.246
 1486SOL     OW 5356   4.960   2.870   1.596
 1486SOL    HW1 5357   4.979   2.786   1.544
 1486SOL    HW2 5358   4.873   2.860   1.644
 1487SOL     OW 5359   0.646   0.043   5.453
 1487SOL    HW1 5360   0.568   0.055   5.391
 1487SOL    HW2 5361   0.704   6.990   5.418
 1488SOL     OW 5362   4.850   2.018   4.235
 1488SOL    HW1 5363   4.805   2.064   4.159
 1488SOL    HW2 5364   4.787   2.013   4.312
 1489SOL     OW 5365   3.149   5.050   4.798
 1489SOL    HW1 5366   3.248   5.057   4.792
 1489SOL    HW2 5367   3.110   5.139   4.821
 1490SOL     OW 5368   2.819   2.866   0.358
 1490SOL    HW1 5369   2.887   2.800   0.328
 1490SOL    HW2 5370   2.762   2.826   0.430
 1491SOL     OW 5371   0.613   1.883   4.026
 1491SOL    HW1 5372   0.677   1.941   4.076
 1491SOL    HW2 5373   0.664   1.822   3.965
 1492SOL     OW 5374   0.405   2.058   1.786
 1492SOL    HW1 5375   0.346   1.983   1.758
 1492SOL    HW2 5376   0.354   2.144   1.783
 1493SOL     OW 5377   6.542   2.592   5.043
 1493SOL    HW1 5378   6.637   2.619   5.027
 1493SOL    HW2 5379   6.526   2.583   5.141
 1494SOL     OW 5380   5.504   1.700   3.802
 1494SOL    HW1 5381   5.563   1.623   3.776
 1494SOL    HW2 5382   5.427   1.705   3.738
 1495SOL     OW 5383   1.629   3.936   1.833
 1495SOL    HW1 5384   1.607   3.992   1.753
 1495SOL    HW2 5385   1.717   3.890   1.819
 1496SOL     OW 5386   0.827   0.651   2.378
 1496SOL    HW1 5387   0.800   0.559   2.406
 1496SOL    HW2 5388   0.921   0.650   2.344
 1497SOL     OW 5389   5.756   5.094   6.087
 1497SOL    HW1 5390   5.755   5.023   6.017
 1497SOL    HW2 5391   5.842   5.088   6.139
 1498SOL     OW 5392   3.284   5.478   0.140
 1498SOL    HW1 5393   3.201   5.471   0.196
 1498SOL    HW2 5394   3.274   5.553   0.075
 1499SOL     OW 5395   1.235   4.450   4.159
 1499SOL    HW1 5396   1.302   4.511   4.117
 1499SOL    HW2 5397   1.176   4.412   4.088
 1500SOL     OW 5398   4.107   6.617   6.042
 1500SOL    HW1 5399   4.180   6.685   6.049
 1500SOL    HW2 5400   4.052   6.635   5.960
 1501SOL     OW 5401   3.460   0.262   1.222
 1501SOL    HW1 5402   3.532   0.195   1.242
 1501SOL    HW2 5403   3.470   0.294   1.128
 1502SOL     OW 5404   0.462   1.287   6.510
 1502SOL    HW1 5405   0.424   1.356   6.448
 1502SOL    HW2 5406   0.544   1.248   6.470
 1503SOL     OW 5407   3.659   3.855   5.013
 1503SOL    HW1 5408   3.686   3.856   5.109
 1503SOL    HW2 5409   3.687   3.941   4.970
 1504SOL     OW 5410   2.943   0.109   4.092
 1504SOL    HW1 5411   2.862   0.159   4.059
 1504SOL    HW2 5412   2.929   0.011   4.078
 1505SOL     OW 5413   5.191   6.705   3.088
 1505SOL    HW1 5414   5.117   6.739   3.147
 1505SOL    HW2 5415   5.162   6.619   3.045
 1506SOL     OW 5416   0.016   6.174   4.133
 1506SOL    HW1 5417   0.065   6.130   4.058
 1506SOL    HW2 5418   6.939   6.152   4.127
 1507SOL     OW 5419   2.315   1.489   6.968
 1507SOL    HW1 5420   2.315   1.557   6.895
 1507SOL    HW2 5421   2.303   1.534   0.036
 1508SOL     OW 5422   4.561   6.547   0.990
 1508SOL    HW1 5423   4.604   6.457   0.985
 1508SOL    HW2 5424   4.463   6.538   1.008
 1509SOL     OW 5425   5.433   1.410   6.702
 1509SOL    HW1 5426   5.452   1.312   6.708
 1509SOL    HW2 5427   5.500   1.453   6.641
 1510SOL     OW 5428   6.552   1.613   2.061
 1510SOL    HW1 5429   6.599   1.681   2.116
 1510SOL    HW2 5430   6.547   1.527   2.112
 1511SOL     OW 5431   0.413   3.068   0.252
 1511SOL    HW1 5432   0.425   2.977   0.213
 1511SOL    HW2 5433   0.491   3.126   0.225
 1512SOL     OW 5434   6.970   0.779   2.290
 1512SOL    HW1 5435   6.900   0.741   2.350
 1512SOL    HW2 5436   6.995   0.710   2.222
 1513SOL     OW 5437   2.059   0.837   2.717
 1513SOL    HW1 5438   2.086   0.933   2.711
 1513SOL    HW2 5439   2.129   0.779   2.677
 1514SOL     OW 5440   4.651   0.701   6.033
 1514SOL    HW1 5441   4.670   0.755   5.951
 1514SOL    HW2 5442   4.692   0.611   6.024
 1515SOL     OW 5443   5.731   5.307   5.718
 1515SOL    HW1 5444   5.677   5.380   5.676
 1515SOL    HW2 5445   5.745   5.233   5.652
 1516SOL     OW 5446   6.076   1.791   2.030
 1516SOL    HW1 5447   6.163   1.762   1.988
 1516SOL    HW2 5448   6.073   1.759   2.124
 1517SOL     OW 5449   3.623   5.413   2.143
 1517SOL    HW1 5450   3.560   5.384   2.215
 1517SOL    HW2 5451   3.588   5.383   2.054
 1518SOL     OW 5452   0.975   4.953   0.984
 1518SOL    HW1 5453   0.961   4.868   0.932
 1518SOL    HW2 5454   1.007   4.931   1.076
 1519SOL     OW 5455   0.451   4.447   1.163
 1519SOL    HW1 5456   0.459   4.515   1.090
 1519SOL    HW2 5457   0.391   4.373   1.132
 1520SOL     OW 5458   1.647   4.098   2.857
 1520SOL    HW1 5459   1.559   4.145   2.863
 1520SOL    HW2 5460   1.640   4.007   2.897
 1521SOL     OW 5461   2.222   6.163   5.215
 1521SOL    HW1 5462   2.131   6.203   5.209
 1521SOL    HW2 5463   2.252   6.161   5.310
 1522SOL     OW 5464   1.606   2.114   5.913
 1522SOL    HW1 5465   1.632   2.159   5.999
 1522SOL    HW2 5466   1.638   2.169   5.836
 1523SOL     OW 5467   5.735   0.480   1.726
 1523SOL    HW1 5468   5.730   0.413   1.801
 1523SOL    HW2 5469   5.653   0.537   1.728
 1524SOL     OW 5470   0.944   2.007   1.106
 1524SOL    HW1 5471   1.018   2.057   1.060
 1524SOL    HW2 5472   0.919   2.055   1.190
 1525SOL     OW 5473   5.326   0.908   5.392
 1525SOL    HW1 5474   5.406   0.952   5.432
 1525SOL    HW2 5475   5.243   0.948   5.431
 1526SOL     OW 5476   5.425   2.742   0.164
 1526SOL    HW1 5477   5.458   2.823   0.213
 1526SOL    HW2 5478   5.378   2.770   0.081
 1527SOL     OW 5479   2.842   0.536   5.449
 1527SOL    HW1 5480   2.859   0.602   5.522
 1527SOL    HW2 5481   2.759   0.485   5.470
 1528SOL     OW 5482   5.297   6.028   3.824
 1528SOL    HW1 5483   5.392   6.051   3.848
 1528SOL    HW2 5484   5.297   5.972   3.741
 1529SOL     OW 5485   1.920   0.002   5.231
 1529SOL    HW1 5486   1.926   6.967   5.148
 1529SOL    HW2 5487   1.958   0.093   5.213
 1530SOL     OW 5488   2.897   6.481   1.490
 1530SOL    HW1 5489   2.960   6.549   1.453
 1530SOL    HW2 5490   2.932   6.446   1.577
 1531SOL     OW 5491   5.809   1.388   6.391
 1531SOL    HW1 5492   5.898   1.389   6.345
 1531SOL    HW2 5493   5.763   1.301   6.370
 1532SOL     OW 5494   2.994   1.733   5.327
 1532SOL    HW1 5495   2.926   1.712   5.257
 1532SOL    HW2 5496   2.966   1.814   5.378
 1533SOL     OW 5497   4.686   3.373   0.351
 1533SOL    HW1 5498   4.637   3.399   0.434
 1533SOL    HW2 5499   4.645   3.420   0.273
 1534SOL     OW 5500   0.376   0.520   0.079
 1534SOL    HW1 5501   0.323   0.511   0.163
 1534SOL    HW2 5502   0.357   0.442   0.020
 1535SOL     OW 5503   5.407   4.012   4.605
 1535SOL    HW1 5504   5.473   3.980   4.673
 1535SOL    HW2 5505   5.390   3.940   4.538
 1536SOL     OW 5506   2.892   6.099   3.072
 1536SOL    HW1 5507   2.933   6.183   3.037
 1536SOL    HW2 5508   2.921   6.021   3.016
 1537SOL     OW 5509   1.754   5.690   4.069
 1537SOL    HW1 5510   1.691   5.745   4.124
 1537SOL    HW2 5511   1.752   5.595   4.102
 1538SOL     OW 5512   3.354   6.332   0.195
 1538SOL    HW1 5513   3.416   6.364   0.123
 1538SOL    HW2 5514   3.392   6.356   0.284
 1539SOL     OW 5515   2.369   6.768   2.363
 1539SOL    HW1 5516   2.417   6.698   2.416
 1539SOL    HW2 5517   2.365   6.853   2.414
 1540SOL     OW 5518   5.938   0.333   5.043
 1540SOL    HW1 5519   5.940   0.432   5.024
 1540SOL    HW2 5520   6.027   0.294   5.022
 1541SOL     OW 5521   5.243   2.106   2.001
 1541SOL    HW1 5522   5.159   2.052   2.001
 1541SOL    HW2 5523   5.224   2.197   1.965
 1542SOL     OW 5524   6.591   5.440   1.329
 1542SOL    HW1 5525   6.606   5.411   1.234
 1542SOL    HW2 5526   6.508   5.398   1.364
 1543SOL     OW 5527   3.362   3.381   3.344
 1543SOL    HW1 5528   3.447   3.429   3.368
 1543SOL    HW2 5529   3.383   3.305   3.283
 1544SOL     OW 5530   3.512   3.519   1.847
 1544SOL    HW1 5531   3.464   3.553   1.928
 1544SOL    HW2 5532   3.455   3.534   1.766
 1545SOL     OW 5533   0.398   6.801   5.458
 1545SOL    HW1 5534   0.441   6.879   5.413
 1545SOL    HW2 5535   0.416   6.718   5.406
 1546SOL     OW 5536   0.405   6.805   0.470
 1546SOL    HW1 5537   0.432   6.859   0.391
 1546SOL    HW2 5538   0.367   6.866   0.540
 1547SOL     OW 5539   2.854   6.092   7.012
 1547SOL    HW1 5540   2.868   6.190   6.997
 1547SOL    HW2 5541   2.881   6.068   0.086
 1548SOL     OW 5542   6.591   4.401   3.126
 1548SOL    HW1 5543   6.566   4.385   3.030
 1548SOL    HW2 5544   6.517   4.371   3.185
 1549SOL     OW 5545   5.988   1.971   1.179
 1549SOL    HW1 5546   5.978   1.981   1.080
 1549SOL    HW2 5547   5.990   1.874   1.203
 1550SOL     OW 5548   2.416   5.180   2.604
 1550SOL    HW1 5549   2.355   5.204   2.680
 1550SOL    HW2 5550   2.511   5.188   2.633
 1551SOL     OW 5551   0.641   2.545   1.782
 1551SOL    HW1 5552   0.670   2.633   1.820
 1551SOL    HW2 5553   0.632   2.552   1.683
 1552SOL     OW 5554   1.714   6.699   1.980
 1552SOL    HW1 5555   1.623   6.670   1.952
 1552SOL    HW2 5556   1.782   6.659   1.918
 1553SOL     OW 5557   5.566   1.599   5.475
 1553SOL    HW1 5558   5.603   1.659   5.545
 1553SOL    HW2 5559   5.555   1.507   5.512
 1554SOL     OW 5560   2.908   3.209   0.636
 1554SOL    HW1 5561   2.974   3.284   0.644
 1554SOL    HW2 5562   2.820   3.244   0.606
 1555SOL     OW 5563   4.502   1.293   1.135
 1555SOL    HW1 5564   4.404   1.284   1.155
 1555SOL    HW2 5565   4.546   1.344   1.209
 1556SOL     OW 5566   3.058   2.184   0.767
 1556SOL    HW1 5567   3.038   2.273   0.810
 1556SOL    HW2 5568   3.099   2.200   0.677
 1557SOL     OW 5569   2.341   2.552   1.395
 1557SOL    HW1 5570   2.273   2.624   1.379
 1557SOL    HW2 5571   2.294   2.465   1.408
 1558SOL     OW 5572   4.497   2.597   6.829
 1558SOL    HW1 5573   4.475   2.640   6.741
 1558SOL    HW2 5574   4.513   2.499   6.815
 1559SOL     OW 5575   2.504   6.334   3.690
 1559SOL    HW1 5576   2.425   6.302   3.637
 1559SOL    HW2 5577   2.507   6.434   3.685
 1560SOL     OW 5578   4.505   2.794   1.483
 1560SOL    HW1 5579   4.421   2.750   1.515
 1560SOL    HW2 5580   4.558   2.826   1.561
 1561SOL     OW 5581   6.441   6.225   0.675
 1561SOL    HW1 5582   6.514   6.190   0.616
 1561SOL    HW2 5583   6.431   6.323   0.661
 1562SOL     OW 5584   2.688   0.020   3.118
 1562SOL    HW1 5585   2.674   7.006   3.025
 1562SOL    HW2 5586   2.698   6.964   3.181
 1563SOL     OW 5587   2.234   4.169   3.781
 1563SOL    HW1 5588   2.249   4.073   3.805
 1563SOL    HW2 5589   2.232   4.225   3.864
 1564SOL     OW 5590   1.335   2.018   3.285
 1564SOL    HW1 5591   1.250   2.012   3.233
 1564SOL    HW2 5592   1.383   1.931   3.280
 1565SOL     OW 5593   5.313   1.566   5.376
 1565SOL    HW1 5594   5.411   1.576   5.391
 1565SOL    HW2 5595   5.292   1.471   5.351
 1566SOL     OW 5596   1.318   3.197   3.646
 1566SOL    HW1 5597   1.223   3.230   3.647
 1566SOL    HW2 5598   1.335   3.148   3.561
 1567SOL     OW 5599   5.532   0.617   4.719
 1567SOL    HW1 5600   5.504   0.655   4.807
 1567SOL    HW2 5601   5.461   0.553   4.687
 1568SOL     OW 5602   2.160   4.370   1.096
 1568SOL    HW1 5603   2.073   4.395   1.138
 1568SOL    HW2 5604   2.235   4.414   1.146
 1569SOL     OW 5605   2.263   0.984   2.422
 1569SOL    HW1 5606   2.288   0.939   2.336
 1569SOL    HW2 5607   2.345   1.015   2.469
 1570SOL     OW 5608   3.177   5.997   6.063
 1570SOL    HW1 5609   3.088   5.972   6.026
 1570SOL    HW2 5610   3.228   5.915   6.086
 1571SOL     OW 5611   0.844   1.570   5.074
 1571SOL    HW1 5612   0.794   1.488   5.045
 1571SOL    HW2 5613   0.849   1.574   5.173
 1572SOL     OW 5614   1.692   6.377   3.384
 1572SOL    HW1 5615   1.784   6.413   3.400
 1572SOL    HW2 5616   1.676   6.296   3.440
 1573SOL     OW 5617   5.370   6.161   0.445
 1573SOL    HW1 5618   5.378   6.073   0.491
 1573SOL    HW2 5619   5.441   6.223   0.478
 1574SOL     OW 5620   0.301   3.297   2.982
 1574SOL    HW1 5621   0.312   3.395   3.001
 1574SOL    HW2 5622   0.364   3.245   3.041
 1575SOL     OW 5623   6.533   2.579   0.334
 1575SOL    HW1 5624   6.555   2.662   0.385
 1575SOL    HW2 5625   6.447   2.591   0.285
 1576SOL     OW 5626   1.493   6.135   2.503
 1576SOL    HW1 5627   1.555   6.170   2.573
 1576SOL    HW2 5628   1.511   6.038   2.487
 1577SOL     OW 5629   3.866   5.532   3.824
 1577SOL    HW1 5630   3.808   5.488   3.755
 1577SOL    HW2 5631   3.958   5.493   3.820
 1578SOL     OW 5632   5.420   1.903   1.637
 1578SOL    HW1 5633   5.459   1.931   1.725
 1578SOL    HW2 5634   5.493   1.898   1.568
 1579SOL     OW 5635   1.231   3.224   2.243
 1579SOL    HW1 5636   1.194   3.223   2.150
 1579SOL    HW2 5637   1.156   3.227   2.309
 1580SOL     OW 5638   3.262   3.828   3.805
 1580SOL    HW1 5639   3.337   3.816   3.740
 1580SOL    HW2 5640   3.285   3.783   3.891
 1581SOL     OW 5641   5.221   4.289   5.702
 1581SOL    HW1 5642   5.184   4.206   5.744
 1581SOL    HW2 5643   5.167   4.368   5.731
 1582SOL     OW 5644   3.981   5.809   3.663
 1582SOL    HW1 5645   4.050   5.756   3.711
 1582SOL    HW2 5646   3.907   5.834   3.726
 1583SOL     OW 5647   0.359   5.516   4.699
 1583SOL    HW1 5648   0.363   5.457   4.780
 1583SOL    HW2 5649   0.302   5.472   4.629
 1584SOL     OW 5650   0.414   4.563   0.066
 1584SOL    HW1 5651   0.431   4.465   0.057
 1584SOL    HW2 5652   0.455   4.611   7.009
 1585SOL     OW 5653   4.742   6.202   4.312
 1585SOL    HW1 5654   4.829   6.187   4.264
 1585SOL    HW2 5655   4.685   6.264   4.259
 1586SOL     OW 5656   2.485   6.058   3.715
 1586SOL    HW1 5657   2.544   6.139   3.710
 1586SOL    HW2 5658   2.536   5.983   3.758
 1587SOL     OW 5659   3.563   6.872   0.321
 1587SOL    HW1 5660   3.663   6.883   0.313
 1587SOL    HW2 5661   3.519   6.959   0.298
 1588SOL     OW 5662   6.453   1.947   3.835
 1588SOL    HW1 5663   6.467   1.912   3.743
 1588SOL    HW2 5664   6.363   1.990   3.842
 1589SOL     OW 5665   0.165   1.537   4.406
 1589SOL    HW1 5666   0.230   1.463   4.424
 1589SOL    HW2 5667   0.177   1.609   4.475
 1590SOL     OW 5668   5.779   0.666   3.562
 1590SOL    HW1 5669   5.862   0.710   3.527
 1590SOL    HW2 5670   5.748   0.597   3.496
 1591SOL     OW 5671   0.292   5.450   0.522
 1591SOL    HW1 5672   0.345   5.501   0.454
 1591SOL    HW2 5673   0.335   5.360   0.536
 1592SOL     OW 5674   6.798   4.558   4.911
 1592SOL    HW1 5675   6.777   4.614   4.991
 1592SOL    HW2 5676   6.714   4.542   4.859
 1593SOL     OW 5677   4.003   5.560   1.512
 1593SOL    HW1 5678   3.911   5.592   1.534
 1593SOL    HW2 5679   4.053   5.631   1.463
 1594SOL     OW 5680   5.487   1.555   2.497
 1594SOL    HW1 5681   5.562   1.621   2.507
 1594SOL    HW2 5682   5.459   1.552   2.401
 1595SOL     OW 5683   0.381   4.013   0.090
 1595SOL    HW1 5684   0.407   3.975   0.001
 1595SOL    HW2 5685   0.376   4.112   0.084
 1596SOL     OW 5686   5.125   4.388   4.413
 1596SOL    HW1 5687   5.219   4.423   4.412
 1596SOL    HW2 5688   5.118   4.314   4.480
 1597SOL     OW 5689   4.259   0.042   1.246
 1597SOL    HW1 5690   4.243   7.003   1.325
 1597SOL    HW2 5691   4.288   7.008   1.168
 1598SOL     OW 5692   1.042   5.634   5.881
 1598SOL    HW1 5693   0.990   5.683   5.951
 1598SOL    HW2 5694   1.037   5.535   5.898
 1599SOL     OW 5695   5.328   5.356   4.286
 1599SOL    HW1 5696   5.229   5.352   4.304
 1599SOL    HW2 5697   5.362   5.264   4.266
 1600SOL     OW 5698   4.749   1.142   1.450
 1600SOL    HW1 5699   4.657   1.169   1.420
 1600SOL    HW2 5700   4.763   1.173   1.544
 1601SOL     OW 5701   5.922   0.616   4.465
 1601SOL    HW1 5702   5.963   0.630   4.555
 1601SOL    HW2 5703   5.966   0.675   4.399
 1602SOL     OW 5704   3.785   5.884   2.953
 1602SOL    HW1 5705   3.801   5.808   3.016
 1602SOL    HW2 5706   3.742   5.960   3.004
 1603SOL     OW 5707   3.354   5.189   1.720
 1603SOL    HW1 5708   3.365   5.220   1.626
 1603SOL    HW2 5709   3.422   5.120   1.742
 1604SOL     OW 5710   4.582   5.235   1.651
 1604SOL    HW1 5711   4.530   5.248   1.735
 1604SOL    HW2 5712   4.658   5.171   1.668
 1605SOL     OW 5713   4.474   4.996   0.095
 1605SOL    HW1 5714   4.393   4.985   0.152
 1605SOL    HW2 5715   4.450   5.048   0.013
 1606SOL     OW 5716   4.851   5.484   5.050
 1606SOL    HW1 5717   4.881   5.570   5.091
 1606SOL    HW2 5718   4.840   5.496   4.951
 1607SOL     OW 5719   4.995   4.002   3.770
 1607SOL    HW1 5720   4.951   4.027   3.856
 1607SOL    HW2 5721   5.011   3.903   3.768
 1608SOL     OW 5722   6.559   3.542   3.183
 1608SOL    HW1 5723   6.651   3.509   3.163
 1608SOL    HW2 5724   6.496   3.464   3.187
 1609SOL     OW 5725   1.776   0.205   0.709
 1609SOL    HW1 5726   1.771   0.162   0.618
 1609SOL    HW2 5727   1.751   0.138   0.779
 1610SOL     OW 5728   5.981   5.855   1.325
 1610SOL    HW1 5729   5.889   5.842   1.288
 1610SOL    HW2 5730   6.036   5.774   1.303
 1611SOL     OW 5731   0.176   4.631   6.805
 1611SOL    HW1 5732   0.251   4.695   6.821
 1611SOL    HW2 5733   0.205   4.560   6.740
 1612SOL     OW 5734   5.360   1.119   2.258
 1612SOL    HW1 5735   5.456   1.140   2.275
 1612SOL    HW2 5736   5.309   1.120   2.344
 1613SOL     OW 5737   0.345   6.115   2.741
 1613SOL    HW1 5738   0.428   6.060   2.748
 1613SOL    HW2 5739   0.271   6.059   2.703
 1614SOL     OW 5740   5.449   1.414   5.663
 1614SOL    HW1 5741   5.423   1.510   5.655
 1614SOL    HW2 5742   5.468   1.392   5.759
 1615SOL     OW 5743   6.532   3.347   5.631
 1615SOL    HW1 5744   6.598   3.398   5.576
 1615SOL    HW2 5745   6.570   3.329   5.722
 1616SOL     OW 5746   1.106   1.420   3.867
 1616SOL    HW1 5747   1.051   1.448   3.788
 1616SOL    HW2 5748   1.059   1.347   3.916
 1617SOL     OW 5749   0.091   5.656   4.477
 1617SOL    HW1 5750   0.138   5.685   4.560
 1617SOL    HW2 5751   0.070   5.735   4.420
 1618SOL     OW 5752   2.586   5.637   3.088
 1618SOL    HW1 5753   2.538   5.607   3.170
 1618SOL    HW2 5754   2.608   5.734   3.096
 1619SOL     OW 5755   0.861   3.748   6.190
 1619SOL    HW1 5756   0.938   3.685   6.179
 1619SOL    HW2 5757   0.776   3.698   6.174
 1620SOL     OW 5758   2.862   6.975   4.733
 1620SOL    HW1 5759   2.871   0.037   4.677
 1620SOL    HW2 5760   2.866   6.894   4.675
 1621SOL     OW 5761   5.728   4.834   1.081
 1621SOL    HW1 5762   5.765   4.822   0.989
 1621SOL    HW2 5763   5.727   4.931   1.104
 1622SOL     OW 5764   6.865   2.997   2.980
 1622SOL    HW1 5765   6.828   3.087   3.000
 1622SOL    HW2 5766   6.950   3.006   2.929
 1623SOL     OW 5767   0.430   2.536   4.072
 1623SOL    HW1 5768   0.522   2.567   4.049
 1623SOL    HW2 5769   0.433   2.440   4.099
 1624SOL     OW 5770   4.435   3.143   0.558
 1624SOL    HW1 5771   4.382   3.094   0.488
 1624SOL    HW2 5772   4.510   3.084   0.590
 1625SOL     OW 5773   1.013   6.081   0.469
 1625SOL    HW1 5774   1.064   6.167   0.471
 1625SOL    HW2 5775   0.964   6.073   0.382
 1626SOL     OW 5776   2.502   1.862   1.821
 1626SOL    HW1 5777   2.500   1.786   1.756
 1626SOL    HW2 5778   2.549   1.833   1.905
 1627SOL     OW 5779   4.617   1.606   6.242
 1627SOL    HW1 5780   4.603   1.556   6.156
 1627SOL    HW2 5781   4.660   1.546   6.309
 1628SOL     OW 5782   5.357   5.954   1.268
 1628SOL    HW1 5783   5.323   5.969   1.361
 1628SOL    HW2 5784   5.423   6.026   1.245
 1629SOL     OW 5785   1.577   6.554   3.013
 1629SOL    HW1 5786   1.641   6.629   2.997
 1629SOL    HW2 5787   1.486   6.592   3.033
 1630SOL     OW 5788   0.379   4.920   6.196
 1630SOL    HW1 5789   0.342   5.012   6.205
 1630SOL    HW2 5790   0.452   4.906   6.263
 1631SOL     OW 5791   5.165   4.279   0.175
 1631SOL    HW1 5792   5.143   4.314   0.266
 1631SOL    HW2 5793   5.118   4.333   0.106
 1632SOL     OW 5794   6.198   6.423   2.422
 1632SOL    HW1 5795   6.150   6.510   2.433
 1632SOL    HW2 5796   6.135   6.348   2.445
 1633SOL     OW 5797   6.926   3.920   4.257
 1633SOL    HW1 5798   6.978   3.955   4.335
 1633SOL    HW2 5799   6.831   3.947   4.265
 1634SOL     OW 5800   1.541   4.009   6.478
 1634SOL    HW1 5801   1.441   4.014   6.481
 1634SOL    HW2 5802   1.569   3.914   6.468
 1635SOL     OW 5803   2.953   0.907   4.265
 1635SOL    HW1 5804   3.016   0.922   4.341
 1635SOL    HW2 5805   2.941   0.993   4.215
 1636SOL     OW 5806   0.317   6.186   1.654
 1636SOL    HW1 5807   0.244   6.223   1.711
 1636SOL    HW2 5808   0.287   6.182   1.559
 1637SOL     OW 5809   1.129   1.178   1.831
 1637SOL    HW1 5810   1.044   1.231   1.823
 1637SOL    HW2 5811   1.197   1.233   1.881
 1638SOL     OW 5812   5.474   2.188   3.700
 1638SOL    HW1 5813   5.482   2.096   3.737
 1638SOL    HW2 5814   5.411   2.241   3.756
 1639SOL     OW 5815   4.868   2.435   1.316
 1639SOL    HW1 5816   4.807   2.486   1.377
 1639SOL    HW2 5817   4.813   2.382   1.252
 1640SOL     OW 5818   6.260   1.076   6.877
 1640SOL    HW1 5819   6.274   1.161   6.827
 1640SOL    HW2 5820   6.172   1.035   6.849
 1641SOL     OW 5821   5.697   1.252   3.043
 1641SOL    HW1 5822   5.598   1.243   3.036
 1641SOL    HW2 5823   5.730   1.201   3.122
 1642SOL     OW 5824   6.939   3.174   6.001
 1642SOL    HW1 5825   6.980   3.106   5.939
 1642SOL    HW2 5826   6.918   3.257   5.950
 1643SOL     OW 5827   2.209   5.039   4.369
 1643SOL    HW1 5828   2.270   5.109   4.407
 1643SOL    HW2 5829   2.161   4.993   4.444
 1644SOL     OW 5830   5.977   1.655   1.280
 1644SOL    HW1 5831   5.969   1.565   1.323
 1644SOL    HW2 5832   6.056   1.656   1.218
 1645SOL     OW 5833   2.353   1.131   4.322
 1645SOL    HW1 5834   2.352   1.082   4.409
 1645SOL    HW2 5835   2.280   1.096   4.263
 1646SOL     OW 5836   0.241   5.595   1.922
 1646SOL    HW1 5837   0.241   5.659   1.844
 1646SOL    HW2 5838   0.285   5.509   1.894
 1647SOL     OW 5839   6.540   2.998   5.215
 1647SOL    HW1 5840   6.472   3.071   5.211
 1647SOL    HW2 5841   6.546   2.952   5.126
 1648SOL     OW 5842   5.555   6.115   2.204
 1648SOL    HW1 5843   5.462   6.131   2.170
 1648SOL    HW2 5844   5.616   6.097   2.127
 1649SOL     OW 5845   3.908   0.766   2.919
 1649SOL    HW1 5846   4.000   0.804   2.932
 1649SOL    HW2 5847   3.862   0.815   2.845
 1650SOL     OW 5848   2.626   2.499   5.062
 1650SOL    HW1 5849   2.704   2.542   5.108
 1650SOL    HW2 5850   2.542   2.520   5.112
 1651SOL     OW 5851   1.491   2.277   4.258
 1651SOL    HW1 5852   1.566   2.344   4.264
 1651SOL    HW2 5853   1.505   2.218   4.179
 1652SOL     OW 5854   6.925   4.168   1.732
 1652SOL    HW1 5855   6.870   4.165   1.815
 1652SOL    HW2 5856   6.965   4.259   1.721
 1653SOL     OW 5857   6.374   4.257   1.874
 1653SOL    HW1 5858   6.428   4.191   1.927
 1653SOL    HW2 5859   6.366   4.342   1.925
 1654SOL     OW 5860   6.763   3.670   1.710
 1654SOL    HW1 5861   6.758   3.726   1.627
 1654SOL    HW2 5862   6.778   3.728   1.789
 1655SOL     OW 5863   6.979   0.345   5.913
 1655SOL    HW1 5864   0.002   0.330   6.002
 1655SOL    HW2 5865   0.030   0.358   5.844
 1656SOL     OW 5866   2.091   4.159   2.578
 1656SOL    HW1 5867   2.128   4.078   2.532
 1656SOL    HW2 5868   1.997   4.175   2.547
 1657SOL     OW 5869   0.160   1.304   6.026
 1657SOL    HW1 5870   0.208   1.334   5.944
 1657SOL    HW2 5871   0.124   1.383   6.075
 1658SOL     OW 5872   5.148   0.167   5.735
 1658SOL    HW1 5873   5.134   0.233   5.809
 1658SOL    HW2 5874   5.213   0.098   5.765
 1659SOL     OW 5875   3.128   0.734   6.395
 1659SOL    HW1 5876   3.223   0.741   6.364
 1659SOL    HW2 5877   3.067   0.760   6.320
 1660SOL     OW 5878   2.995   0.582   2.194
 1660SOL    HW1 5879   2.949   0.623   2.115
 1660SOL    HW2 5880   3.075   0.638   2.219
 1661SOL     OW 5881   4.778   5.006   3.454
 1661SOL    HW1 5882   4.809   4.932   3.394
 1661SOL    HW2 5883   4.832   5.004   3.538
 1662SOL     OW 5884   0.321   1.722   3.900
 1662SOL    HW1 5885   0.323   1.818   3.928
 1662SOL    HW2 5886   0.314   1.664   3.981
 1663SOL     OW 5887   6.038   4.173   1.016
 1663SOL    HW1 5888   5.955   4.184   1.071
 1663SOL    HW2 5889   6.049   4.077   0.992
 1664SOL     OW 5890   1.328   1.741   6.148
 1664SOL    HW1 5891   1.297   1.713   6.057
 1664SOL    HW2 5892   1.269   1.700   6.218
 1665SOL     OW 5893   1.764   4.185   0.058
 1665SOL    HW1 5894   1.846   4.147   0.102
 1665SOL    HW2 5895   1.707   4.229   0.127
 1666SOL     OW 5896   5.487   6.394   5.298
 1666SOL    HW1 5897   5.418   6.458   5.332
 1666SOL    HW2 5898   5.572   6.408   5.347
 1667SOL     OW 5899   6.654   4.818   1.455
 1667SOL    HW1 5900   6.737   4.790   1.503
 1667SOL    HW2 5901   6.654   4.917   1.444
 1668SOL     OW 5902   6.633   3.424   1.713
 1668SOL    HW1 5903   6.683   3.506   1.686
 1668SOL    HW2 5904   6.669   3.344   1.663
 1669SOL     OW 5905   6.093   2.557   5.127
 1669SOL    HW1 5906   6.035   2.486   5.085
 1669SOL    HW2 5907   6.136   2.612   5.055
 1670SOL     OW 5908   2.983   4.295   5.328
 1670SOL    HW1 5909   2.989   4.369   5.262
 1670SOL    HW2 5910   3.031   4.322   5.412
 1671SOL     OW 5911   5.961   2.291   0.804
 1671SOL    HW1 5912   6.033   2.292   0.735
 1671SOL    HW2 5913   5.988   2.349   0.881
 1672SOL     OW 5914   0.479   2.079   1.520
 1672SOL    HW1 5915   0.528   1.993   1.503
 1672SOL    HW2 5916   0.452   2.084   1.616
 1673SOL     OW 5917   1.102   0.828   5.917
 1673SOL    HW1 5918   1.052   0.910   5.890
 1673SOL    HW2 5919   1.139   0.783   5.835
 1674SOL     OW 5920   4.947   2.676   3.140
 1674SOL    HW1 5921   4.992   2.719   3.217
 1674SOL    HW2 5922   4.985   2.584   3.126
 1675SOL     OW 5923   5.361   1.073   1.977
 1675SOL    HW1 5924   5.328   1.075   2.072
 1675SOL    HW2 5925   5.303   1.012   1.923
 1676SOL     OW 5926   1.291   2.358   3.808
 1676SOL    HW1 5927   1.291   2.453   3.777
 1676SOL    HW2 5928   1.374   2.340   3.861
 1677SOL     OW 5929   3.307   3.895   2.065
 1677SOL    HW1 5930   3.319   3.994   2.055
 1677SOL    HW2 5931   3.373   3.860   2.132
 1678SOL     OW 5932   0.370   6.895   0.208
 1678SOL    HW1 5933   0.285   6.943   0.229
 1678SOL    HW2 5934   0.429   6.953   0.152
 1679SOL     OW 5935   5.948   1.749   0.743
 1679SOL    HW1 5936   5.861   1.707   0.719
 1679SOL    HW2 5937   5.991   1.787   0.661
 1680SOL     OW 5938   5.742   2.367   3.187
 1680SOL    HW1 5939   5.747   2.420   3.272
 1680SOL    HW2 5940   5.674   2.294   3.198
 1681SOL     OW 5941   3.843   6.118   4.271
 1681SOL    HW1 5942   3.937   6.152   4.266
 1681SOL    HW2 5943   3.780   6.195   4.274
 1682SOL     OW 5944   3.649   1.279   5.382
 1682SOL    HW1 5945   3.647   1.226   5.297
 1682SOL    HW2 5946   3.732   1.334   5.385
 1683SOL     OW 5947   1.061   3.243   2.755
 1683SOL    HW1 5948   1.140   3.301   2.775
 1683SOL    HW2 5949   0.983   3.300   2.730
 1684SOL     OW 5950   3.294   5.509   1.364
 1684SOL    HW1 5951   3.343   5.563   1.432
 1684SOL    HW2 5952   3.289   5.414   1.395
 1685SOL     OW 5953   0.341   1.897   5.624
 1685SOL    HW1 5954   0.285   1.837   5.681
 1685SOL    HW2 5955   0.416   1.845   5.583
 1686SOL     OW 5956   3.387   5.283   1.472
 1686SOL    HW1 5957   3.395   5.213   1.401
 1686SOL    HW2 5958   3.477   5.326   1.485
 1687SOL     OW 5959   4.386   4.378   0.127
 1687SOL    HW1 5960   4.322   4.339   0.193
 1687SOL    HW2 5961   4.453   4.308   0.100
 1688SOL     OW 5962   3.110   0.468   3.101
 1688SOL    HW1 5963   3.153   0.527   3.169
 1688SOL    HW2 5964   3.099   0.518   3.015
 1689SOL     OW 5965   3.977   0.791   1.794
 1689SOL    HW1 5966   4.035   0.710   1.810
 1689SOL    HW2 5967   3.974   0.847   1.876
 1690SOL     OW 5968   7.011   4.573   4.686
 1690SOL    HW1 5969   6.949   4.571   4.765
 1690SOL    HW2 5970   0.051   4.493   4.689
 1691SOL     OW 5971   4.068   2.647   5.336
 1691SOL    HW1 5972   4.124   2.686   5.409
 1691SOL    HW2 5973   4.123   2.584   5.282
 1692SOL     OW 5974   6.522   5.316   2.421
 1692SOL    HW1 5975   6.505   5.392   2.483
 1692SOL    HW2 5976   6.618   5.290   2.425
 1693SOL     OW 5977   5.732   6.770   5.241
 1693SOL    HW1 5978   5.731   6.837   5.167
 1693SOL    HW2 5979   5.785   6.690   5.213
 1694SOL     OW 5980   4.800   1.087   6.666
 1694SOL    HW1 5981   4.797   1.039   6.754
 1694SOL    HW2 5982   4.875   1.154   6.667
 1695SOL     OW 5983   4.631   0.154   4.762
 1695SOL    HW1 5984   4.535   0.178   4.749
 1695SOL    HW2 5985   4.639   0.089   4.838
 1696SOL     OW 5986   4.773   6.893   1.172
 1696SOL    HW1 5987   4.761   6.870   1.076
 1696SOL    HW2 5988   4.864   6.865   1.202
 1697SOL     OW 5989   4.237   3.327   1.667
 1697SOL    HW1 5990   4.161   3.340   1.730
 1697SOL    HW2 5991   4.250   3.230   1.650
 1698SOL     OW 5992   4.508   1.319   1.585
 1698SOL    HW1 5993   4.424   1.269   1.563
 1698SOL    HW2 5994   4.518   1.324   1.685
 1699SOL     OW 5995   1.680   0.790   1.206
 1699SOL    HW1 5996   1.697   0.854   1.281
 1699SOL    HW2 5997   1.767   0.759   1.167
 1700SOL     OW 5998   5.829   3.219   2.723
 1700SOL    HW1 5999   5.786   3.129   2.732
 1700SOL    HW2 6000   5.811   3.255   2.631
 1701SOL     OW 6001   1.143   5.342   5.263
 1701SOL    HW1 6002   1.159   5.386   5.351
 1701SOL    HW2 6003   1.168   5.404   5.189
 1702SOL     OW 6004   2.061   2.222   6.955
 1702SOL    HW1 6005   2.058   2.262   0.026
 1702SOL    HW2 6006   2.154   2.229   6.918
 1703SOL     OW 6007   1.301   2.367   1.977
 1703SOL    HW1 6008   1.335   2.274   1.961
 1703SOL    HW2 6009   1.325   2.395   2.070
 1704SOL     OW 6010   3.075   3.080   6.525
 1704SOL    HW1 6011   3.063   2.981   6.528
 1704SOL    HW2 6012   3.005   3.120   6.466
 1705SOL     OW 6013   5.547   2.815   0.903
 1705SOL    HW1 6014   5.483   2.764   0.960
 1705SOL    HW2 6015   5.505   2.901   0.874
 1706SOL     OW 6016   5.527   0.571   5.702
 1706SOL    HW1 6017   5.546   0.529   5.613
 1706SOL    HW2 6018   5.491   0.663   5.689
 1707SOL     OW 6019   3.489   1.575   2.272
 1707SOL    HW1 6020   3.582   1.555   2.242
 1707SOL    HW2 6021   3.430   1.585   2.192
 1708SOL     OW 6022   2.557   4.654   1.912
 1708SOL    HW1 6023   2.645   4.606   1.912
 1708SOL    HW2 6024   2.507   4.631   1.828
 1709SOL     OW 6025   5.439   5.132   1.761
 1709SOL    HW1 6026   5.478   5.041   1.752
 1709SOL    HW2 6027   5.366   5.131   1.830
 1710SOL     OW 6028   4.669   2.756   1.951
 1710SOL    HW1 6029   4.709   2.679   1.999
 1710SOL    HW2 6030   4.712   2.841   1.982
 1711SOL     OW 6031   4.398   5.190   6.948
 1711SOL    HW1 6032   4.310   5.208   6.993
 1711SOL    HW2 6033   4.382   5.151   6.858
 1712SOL     OW 6034   0.558   2.125   2.046
 1712SOL    HW1 6035   0.551   2.044   1.988
 1712SOL    HW2 6036   0.546   2.207   1.990
 1713SOL     OW 6037   2.921   1.403   2.607
 1713SOL    HW1 6038   2.952   1.481   2.553
 1713SOL    HW2 6039   2.823   1.410   2.624
 1714SOL     OW 6040   2.854   4.549   1.347
 1714SOL    HW1 6041   2.850   4.493   1.430
 1714SOL    HW2 6042   2.805   4.635   1.362
 1715SOL     OW 6043   1.767   6.130   0.854
 1715SOL    HW1 6044   1.769   6.076   0.770
 1715SOL    HW2 6045   1.754   6.069   0.932
 1716SOL     OW 6046   4.983   1.499   2.847
 1716SOL    HW1 6047   4.890   1.465   2.833
 1716SOL    HW2 6048   5.035   1.487   2.763
 1717SOL     OW 6049   3.455   6.238   3.674
 1717SOL    HW1 6050   3.372   6.255   3.727
 1717SOL    HW2 6051   3.524   6.196   3.733
 1718SOL     OW 6052   1.873   3.781   1.795
 1718SOL    HW1 6053   1.888   3.841   1.716
 1718SOL    HW2 6054   1.956   3.777   1.850
 1719SOL     OW 6055   1.160   4.640   3.271
 1719SOL    HW1 6056   1.066   4.626   3.304
 1719SOL    HW2 6057   1.221   4.575   3.316
 1720SOL     OW 6058   1.307   2.992   5.319
 1720SOL    HW1 6059   1.394   2.991   5.270
 1720SOL    HW2 6060   1.310   2.928   5.395
 1721SOL     OW 6061   2.353   2.682   0.253
 1721SOL    HW1 6062   2.452   2.695   0.241
 1721SOL    HW2 6063   2.331   2.676   0.350
 1722SOL     OW 6064   3.209   2.115   2.926
 1722SOL    HW1 6065   3.241   2.020   2.915
 1722SOL    HW2 6066   3.185   2.153   2.836
 1723SOL     OW 6067   6.459   4.815   1.642
 1723SOL    HW1 6068   6.505   4.799   1.555
 1723SOL    HW2 6069   6.520   4.866   1.703
 1724SOL     OW 6070   5.932   3.499   0.918
 1724SOL    HW1 6071   6.030   3.483   0.901
 1724SOL    HW2 6072   5.921   3.584   0.971
 1725SOL     OW 6073   1.429   6.639   5.136
 1725SOL    HW1 6074   1.452   6.649   5.039
 1725SOL    HW2 6075   1.390   6.724   5.171
 1726SOL     OW 6076   5.235   4.730   3.494
 1726SOL    HW1 6077   5.226   4.828   3.481
 1726SOL    HW2 6078   5.298   4.693   3.426
 1727SOL     OW 6079   2.929   3.654   4.191
 1727SOL    HW1 6080   2.944   3.751   4.214
 1727SOL    HW2 6081   2.914   3.602   4.275
 1728SOL     OW 6082   5.579   2.029   4.925
 1728SOL    HW1 6083   5.485   2.041   4.893
 1728SOL    HW2 6084   5.587   2.064   5.018
 1729SOL     OW 6085   1.849   3.418   3.093
 1729SOL    HW1 6086   1.935   3.391   3.136
 1729SOL    HW2 6087   1.822   3.350   3.025
 1730SOL     OW 6088   2.596   0.663   4.846
 1730SOL    HW1 6089   2.680   0.715   4.860
 1730SOL    HW2 6090   2.615   0.584   4.788
 1731SOL     OW 6091   5.893   4.457   3.639
 1731SOL    HW1 6092   5.848   4.429   3.555
 1731SOL    HW2 6093   5.873   4.553   3.658
 1732SOL     OW 6094   4.155   3.477   5.159
 1732SOL    HW1 6095   4.210   3.417   5.217
 1732SOL    HW2 6096   4.075   3.427   5.127
 1733SOL     OW 6097   1.420   1.893   6.881
 1733SOL    HW1 6098   1.421   1.812   6.822
 1733SOL    HW2 6099   1.506   1.942   6.872
 1734SOL     OW 6100   0.860   4.361   1.772
 1734SOL    HW1 6101   0.806   4.403   1.845
 1734SOL    HW2 6102   0.855   4.262   1.779
 1735SOL     OW 6103   3.363   5.540   5.784
 1735SOL    HW1 6104   3.336   5.452   5.744
 1735SOL    HW2 6105   3.381   5.605   5.710
 1736SOL     OW 6106   4.510   1.864   5.654
 1736SOL    HW1 6107   4.467   1.846   5.743
 1736SOL    HW2 6108   4.523   1.962   5.642
 1737SOL     OW 6109   2.337   0.970   6.541
 1737SOL    HW1 6110   2.416   1.022   6.509
 1737SOL    HW2 6111   2.363   0.913   6.619
 1738SOL     OW 6112   1.128   3.808   2.029
 1738SOL    HW1 6113   1.105   3.719   2.071
 1738SOL    HW2 6114   1.226   3.812   2.012
 1739SOL     OW 6115   4.575   5.421   2.145
 1739SOL    HW1 6116   4.602   5.386   2.235
 1739SOL    HW2 6117   4.589   5.520   2.143
 1740SOL     OW 6118   6.461   2.311   4.535
 1740SOL    HW1 6119   6.539   2.345   4.482
 1740SOL    HW2 6120   6.493   2.245   4.603
 1741SOL     OW 6121   1.089   3.009   4.339
 1741SOL    HW1 6122   1.141   2.972   4.415
 1741SOL    HW2 6123   1.151   3.032   4.264
 1742SOL     OW 6124   5.826   0.158   0.087
 1742SOL    HW1 6125   5.895   0.228   0.069
 1742SOL    HW2 6126   5.799   0.114   0.002
 1743SOL     OW 6127   1.055   2.324   1.843
 1743SOL    HW1 6128   1.084   2.313   1.748
 1743SOL    HW2 6129   1.130   2.298   1.904
 1744SOL     OW 6130   3.528   1.915   5.607
 1744SOL    HW1 6131   3.562   2.009   5.607
 1744SOL    HW2 6132   3.602   1.852   5.631
 1745SOL     OW 6133   6.216   6.669   0.791
 1745SOL    HW1 6134   6.152   6.648   0.866
 1745SOL    HW2 6135   6.260   6.757   0.810
 1746SOL     OW 6136   2.248   5.268   2.787
 1746SOL    HW1 6137   2.169   5.243   2.730
 1746SOL    HW2 6138   2.231   5.241   2.881
 1747SOL     OW 6139   2.878   6.798   1.962
 1747SOL    HW1 6140   2.890   6.880   1.907
 1747SOL    HW2 6141   2.888   6.821   2.059
 1748SOL     OW 6142   6.941   1.622   3.714
 1748SOL    HW1 6143   6.941   1.702   3.653
 1748SOL    HW2 6144   6.854   1.618   3.763
 1749SOL     OW 6145   6.579   5.275   2.762
 1749SOL    HW1 6146   6.658   5.324   2.724
 1749SOL    HW2 6147   6.571   5.186   2.718
 1750SOL     OW 6148   2.653   1.310   1.422
 1750SOL    HW1 6149   2.607   1.399   1.425
 1750SOL    HW2 6150   2.625   1.260   1.341
 1751SOL     OW 6151   6.413   4.214   4.561
 1751SOL    HW1 6152   6.372   4.123   4.552
 1751SOL    HW2 6153   6.345   4.278   4.594
 1752SOL     OW 6154   6.227   0.591   2.516
 1752SOL    HW1 6155   6.242   0.591   2.417
 1752SOL    HW2 6156   6.158   0.523   2.539
 1753SOL     OW 6157   6.531   1.600   1.157
 1753SOL    HW1 6158   6.491   1.547   1.082
 1753SOL    HW2 6159   6.518   1.698   1.139
 1754SOL     OW 6160   2.104   5.059   3.530
 1754SOL    HW1 6161   2.179   5.010   3.575
 1754SOL    HW2 6162   2.059   5.119   3.597
 1755SOL     OW 6163   5.957   6.222   5.328
 1755SOL    HW1 6164   6.015   6.141   5.321
 1755SOL    HW2 6165   5.867   6.202   5.290
 1756SOL     OW 6166   4.525   6.050   1.528
 1756SOL    HW1 6167   4.478   6.119   1.474
 1756SOL    HW2 6168   4.619   6.080   1.545
 1757SOL     OW 6169   2.765   5.010   4.950
 1757SOL    HW1 6170   2.771   4.912   4.930
 1757SOL    HW2 6171   2.791   5.062   4.869
 1758SOL     OW 6172   0.483   6.335   3.989
 1758SOL    HW1 6173   0.461   6.239   3.973
 1758SOL    HW2 6174   0.460   6.358   4.084
 1759SOL     OW 6175   1.614   5.352   6.334
 1759SOL    HW1 6176   1.572   5.355   6.425
 1759SOL    HW2 6177   1.651   5.442   6.311
 1760SOL     OW 6178   5.920   1.472   4.162
 1760SOL    HW1 6179   5.940   1.478   4.260
 1760SOL    HW2 6180   5.855   1.543   4.137
 1761SOL     OW 6181   5.225   2.419   3.883
 1761SOL    HW1 6182   5.217   2.364   3.965
 1761SOL    HW2 6183   5.163   2.498   3.889
 1762SOL     OW 6184   0.943   1.779   5.889
 1762SOL    HW1 6185   0.940   1.787   5.789
 1762SOL    HW2 6186   0.859   1.817   5.928
 1763SOL     OW 6187   1.579   4.870   3.865
 1763SOL    HW1 6188   1.556   4.875   3.962
 1763SOL    HW2 6189   1.669   4.827   3.854
 1764SOL     OW 6190   0.673   5.404   3.703
 1764SOL    HW1 6191   0.686   5.423   3.605
 1764SOL    HW2 6192   0.603   5.333   3.714
 1765SOL     OW 6193   5.235   3.879   2.092
 1765SOL    HW1 6194   5.153   3.926   2.124
 1765SOL    HW2 6195   5.268   3.817   2.164
 1766SOL     OW 6196   4.273   5.091   3.777
 1766SOL    HW1 6197   4.205   5.051   3.715
 1766SOL    HW2 6198   4.274   5.038   3.862
 1767SOL     OW 6199   1.816   4.110   1.610
 1767SOL    HW1 6200   1.747   4.126   1.539
 1767SOL    HW2 6201   1.847   4.015   1.605
 1768SOL     OW 6202   3.717   4.945   3.066
 1768SOL    HW1 6203   3.643   4.989   3.117
 1768SOL    HW2 6204   3.804   4.988   3.088
 1769SOL     OW 6205   5.233   0.326   0.861
 1769SOL    HW1 6206   5.185   0.293   0.942
 1769SOL    HW2 6207   5.206   0.271   0.781
 1770SOL     OW 6208   2.621   4.655   0.578
 1770SOL    HW1 6209   2.687   4.611   0.639
 1770SOL    HW2 6210   2.661   4.737   0.538
 1771SOL     OW 6211   1.419   3.146   5.882
 1771SOL    HW1 6212   1.320   3.149   5.895
 1771SOL    HW2 6213   1.464   3.194   5.957
 1772SOL     OW 6214   2.874   5.200   2.271
 1772SOL    HW1 6215   2.938   5.232   2.201
 1772SOL    HW2 6216   2.823   5.277   2.309
 1773SOL     OW 6217   2.352   6.353   4.622
 1773SOL    HW1 6218   2.260   6.390   4.612
 1773SOL    HW2 6219   2.347   6.254   4.637
 1774SOL     OW 6220   5.599   5.536   1.748
 1774SOL    HW1 6221   5.521   5.595   1.769
 1774SOL    HW2 6222   5.684   5.582   1.774
 1775SOL     OW 6223   1.825   6.795   0.981
 1775SOL    HW1 6224   1.910   6.768   0.937
 1775SOL    HW2 6225   1.802   6.729   1.053
 1776SOL     OW 6226   4.937   3.595   6.357
 1776SOL    HW1 6227   4.853   3.646   6.380
 1776SOL    HW2 6228   4.995   3.588   6.438
 1777SOL     OW 6229   4.766   5.024   6.802
 1777SOL    HW1 6230   4.735   4.956   6.735
 1777SOL    HW2 6231   4.842   5.076   6.763
 1778SOL     OW 6232   0.181   0.764   3.302
 1778SOL    HW1 6233   0.176   0.707   3.384
 1778SOL    HW2 6234   0.276   0.773   3.273
 1779SOL     OW 6235   6.694   0.219   4.495
 1779SOL    HW1 6236   6.721   0.309   4.531
 1779SOL    HW2 6237   6.613   0.230   4.438
 1780SOL     OW 6238   2.859   6.705   4.450
 1780SOL    HW1 6239   2.900   6.724   4.361
 1780SOL    HW2 6240   2.792   6.777   4.472
 1781SOL     OW 6241   4.925   1.313   6.240
 1781SOL    HW1 6242   4.981   1.256   6.300
 1781SOL    HW2 6243   4.975   1.396   6.216
 1782SOL     OW 6244   5.090   0.689   2.468
 1782SOL    HW1 6245   5.057   0.680   2.374
 1782SOL    HW2 6246   5.053   0.772   2.509
 1783SOL     OW 6247   1.752   3.229   0.091
 1783SOL    HW1 6248   1.733   3.327   0.087
 1783SOL    HW2 6249   1.666   3.178   0.103
 1784SOL     OW 6250   2.406   5.550   1.477
 1784SOL    HW1 6251   2.413   5.649   1.484
 1784SOL    HW2 6252   2.310   5.523   1.480
 1785SOL     OW 6253   1.978   5.148   4.278
 1785SOL    HW1 6254   2.004   5.210   4.204
 1785SOL    HW2 6255   2.059   5.100   4.312
 1786SOL     OW 6256   0.439   5.492   2.318
 1786SOL    HW1 6257   0.380   5.440   2.256
 1786SOL    HW2 6258   0.518   5.436   2.343
 1787SOL     OW 6259   2.629   2.733   6.364
 1787SOL    HW1 6260   2.695   2.726   6.290
 1787SOL    HW2 6261   2.655   2.807   6.426
 1788SOL     OW 6262   3.632   4.200   0.601
 1788SOL    HW1 6263   3.622   4.219   0.503
 1788SOL    HW2 6264   3.564   4.134   0.630
 1789SOL     OW 6265   5.623   2.840   2.529
 1789SOL    HW1 6266   5.557   2.785   2.477
 1789SOL    HW2 6267   5.711   2.839   2.481
 1790SOL     OW 6268   2.650   1.869   5.006
 1790SOL    HW1 6269   2.555   1.864   4.975
 1790SOL    HW2 6270   2.677   1.782   5.046
 1791SOL     OW 6271   6.488   0.388   3.454
 1791SOL    HW1 6272   6.427   0.381   3.376
 1791SOL    HW2 6273   6.487   0.302   3.505
 1792SOL     OW 6274   7.000   2.791   6.018
 1792SOL    HW1 6275   0.018   2.866   5.963
 1792SOL    HW2 6276   6.941   2.830   6.089
 1793SOL     OW 6277   0.551   1.632   5.248
 1793SOL    HW1 6278   0.489   1.629   5.170
 1793SOL    HW2 6279   0.558   1.541   5.289
 1794SOL     OW 6280   6.516   1.748   6.576
 1794SOL    HW1 6281   6.420   1.766   6.600
 1794SOL    HW2 6282   6.531   1.773   6.481
 1795SOL     OW 6283   5.689   4.296   0.903
 1795SOL    HW1 6284   5.726   4.262   0.817
 1795SOL    HW2 6285   5.652   4.388   0.890
 1796SOL     OW 6286   6.176   0.359   6.891
 1796SOL    HW1 6287   6.214   0.277   6.934
 1796SOL    HW2 6288   6.084   0.375   6.926
 1797SOL     OW 6289   3.330   6.338   5.530
 1797SOL    HW1 6290   3.340   6.242   5.502
 1797SOL    HW2 6291   3.256   6.380   5.477
 1798SOL     OW 6292   2.593   3.836   6.855
 1798SOL    HW1 6293   2.497   3.815   6.873
 1798SOL    HW2 6294   2.650   3.760   6.886
 1799SOL     OW 6295   3.319   1.642   2.069
 1799SOL    HW1 6296   3.229   1.619   2.108
 1799SOL    HW2 6297   3.327   1.602   1.978
 1800SOL     OW 6298   5.777   2.264   5.756
 1800SOL    HW1 6299   5.819   2.253   5.666
 1800SOL    HW2 6300   5.804   2.352   5.795
 1801SOL     OW 6301   0.968   1.866   2.089
 1801SOL    HW1 6302   0.979   1.778   2.043
 1801SOL    HW2 6303   0.953   1.938   2.021
 1802SOL     OW 6304   6.280   4.533   4.607
 1802SOL    HW1 6305   6.259   4.563   4.514
 1802SOL    HW2 6306   6.339   4.600   4.652
 1803SOL     OW 6307   6.820   6.434   3.714
 1803SOL    HW1 6308   6.806   6.463   3.620
 1803SOL    HW2 6309   6.874   6.503   3.763
 1804SOL     OW 6310   0.918   3.116   6.269
 1804SOL    HW1 6311   0.928   3.055   6.347
 1804SOL    HW2 6312   0.971   3.199   6.284
 1805SOL     OW 6313   6.427   4.959   5.827
 1805SOL    HW1 6314   6.410   4.955   5.729
 1805SOL    HW2 6315   6.340   4.973   5.875
 1806SOL     OW 6316   0.259   1.071   1.339
 1806SOL    HW1 6317   0.258   1.071   1.239
 1806SOL    HW2 6318   0.206   1.148   1.373
 1807SOL     OW 6319   6.218   2.406   2.205
 1807SOL    HW1 6320   6.144   2.471   2.189
 1807SOL    HW2 6321   6.180   2.317   2.229
 1808SOL     OW 6322   6.641   0.462   6.953
 1808SOL    HW1 6323   6.542   0.465   6.946
 1808SOL    HW2 6324   6.674   0.541   7.005
 1809SOL     OW 6325   4.484   0.305   5.003
 1809SOL    HW1 6326   4.552   0.375   4.982
 1809SOL    HW2 6327   4.447   0.268   4.918
 1810SOL     OW 6328   1.381   1.720   5.172
 1810SOL    HW1 6329   1.427   1.671   5.098
 1810SOL    HW2 6330   1.349   1.654   5.240
 1811SOL     OW 6331   3.547   5.201   1.954
 1811SOL    HW1 6332   3.462   5.238   1.918
 1811SOL    HW2 6333   3.610   5.181   1.878
 1812SOL     OW 6334   4.189   0.976   6.567
 1812SOL    HW1 6335   4.158   1.041   6.636
 1812SOL    HW2 6336   4.165   0.883   6.595
 1813SOL     OW 6337   5.867   3.847   1.558
 1813SOL    HW1 6338   5.803   3.812   1.627
 1813SOL    HW2 6339   5.905   3.770   1.506
 1814SOL     OW 6340   6.501   5.690   0.992
 1814SOL    HW1 6341   6.543   5.774   0.957
 1814SOL    HW2 6342   6.507   5.690   1.092
 1815SOL     OW 6343   6.005   5.435   1.348
 1815SOL    HW1 6344   6.028   5.345   1.385
 1815SOL    HW2 6345   5.908   5.452   1.361
 1816SOL     OW 6346   3.362   4.978   4.613
 1816SOL    HW1 6347   3.443   4.925   4.639
 1816SOL    HW2 6348   3.390   5.065   4.573
 1817SOL     OW 6349   6.847   2.599   3.435
 1817SOL    HW1 6350   6.755   2.564   3.414
 1817SOL    HW2 6351   6.883   2.553   3.516
 1818SOL     OW 6352   2.483   1.668   0.352
 1818SOL    HW1 6353   2.479   1.729   0.432
 1818SOL    HW2 6354   2.536   1.586   0.375
 1819SOL     OW 6355   0.774   3.571   1.393
 1819SOL    HW1 6356   0.813   3.662   1.406
 1819SOL    HW2 6357   0.787   3.542   1.298
 1820SOL     OW 6358   3.988   6.746   4.833
 1820SOL    HW1 6359   3.920   6.815   4.857
 1820SOL    HW2 6360   4.065   6.751   4.897
 1821SOL     OW 6361   3.693   1.274   2.301
 1821SOL    HW1 6362   3.678   1.350   2.238
 1821SOL    HW2 6363   3.710   1.310   2.393
 1822SOL     OW 6364   2.164   4.121   4.655
 1822SOL    HW1 6365   2.122   4.105   4.744
 1822SOL    HW2 6366   2.199   4.034   4.619
 1823SOL     OW 6367   4.225   6.688   3.834
 1823SOL    HW1 6368   4.251   6.664   3.928
 1823SOL    HW2 6369   4.153   6.757   3.836
 1824SOL     OW 6370   4.521   2.563   1.784
 1824SOL    HW1 6371   4.547   2.648   1.829
 1824SOL    HW2 6372   4.582   2.490   1.814
 1825SOL     OW 6373   1.432   3.837   0.356
 1825SOL    HW1 6374   1.422   3.874   0.448
 1825SOL    HW2 6375   1.524   3.799   0.345
 1826SOL     OW 6376   3.854   3.264   0.193
 1826SOL    HW1 6377   3.832   3.229   0.284
 1826SOL    HW2 6378   3.819   3.201   0.123
 1827SOL     OW 6379   5.260   4.714   0.671
 1827SOL    HW1 6380   5.352   4.682   0.695
 1827SOL    HW2 6381   5.241   4.692   0.575
 1828SOL     OW 6382   2.356   5.514   5.171
 1828SOL    HW1 6383   2.263   5.500   5.137
 1828SOL    HW2 6384   2.352   5.570   5.254
 1829SOL     OW 6385   1.716   6.334   2.446
 1829SOL    HW1 6386   1.630   6.383   2.456
 1829SOL    HW2 6387   1.716   6.253   2.505
 1830SOL     OW 6388   4.256   1.359   6.458
 1830SOL    HW1 6389   4.316   1.289   6.497
 1830SOL    HW2 6390   4.280   1.448   6.495
 1831SOL     OW 6391   3.570   4.461   0.077
 1831SOL    HW1 6392   3.500   4.426   0.015
 1831SOL    HW2 6393   3.637   4.514   0.025
 1832SOL     OW 6394   2.243   2.649   5.922
 1832SOL    HW1 6395   2.293   2.663   5.837
 1832SOL    HW2 6396   2.168   2.585   5.907
 1833SOL     OW 6397   5.797   1.457   0.492
 1833SOL    HW1 6398   5.784   1.526   0.421
 1833SOL    HW2 6399   5.893   1.430   0.494
 1834SOL     OW 6400   1.827   4.109   6.507
 1834SOL    HW1 6401   1.762   4.055   6.453
 1834SOL    HW2 6402   1.812   4.206   6.490
 1835SOL     OW 6403   5.898   0.086   6.848
 1835SOL    HW1 6404   5.996   0.069   6.840
 1835SOL    HW2 6405   5.869   0.148   6.776
 1836SOL     OW 6406   5.776   1.227   4.635
 1836SOL    HW1 6407   5.709   1.152   4.644
 1836SOL    HW2 6408   5.731   1.306   4.595
 1837SOL     OW 6409   1.287   2.115   1.208
 1837SOL    HW1 6410   1.245   2.149   1.292
 1837SOL    HW2 6411   1.367   2.060   1.231
 1838SOL     OW 6412   5.163   0.531   0.607
 1838SOL    HW1 6413   5.148   0.590   0.686
 1838SOL    HW2 6414   5.104   0.450   0.616
 1839SOL     OW 6415   6.745   1.859   5.946
 1839SOL    HW1 6416   6.799   1.943   5.939
 1839SOL    HW2 6417   6.648   1.883   5.957
 1840SOL     OW 6418   2.726   6.617   5.521
 1840SOL    HW1 6419   2.665   6.696   5.522
 1840SOL    HW2 6420   2.820   6.648   5.507
 1841SOL     OW 6421   2.560   6.910   2.001
 1841SOL    HW1 6422   2.509   6.913   1.915
 1841SOL    HW2 6423   2.646   6.863   1.987
 1842SOL     OW 6424   6.741   4.517   1.918
 1842SOL    HW1 6425   6.711   4.509   1.823
 1842SOL    HW2 6426   6.760   4.425   1.955
 1843SOL     OW 6427   2.614   0.859   6.805
 1843SOL    HW1 6428   2.664   0.924   6.747
 1843SOL    HW2 6429   2.672   0.831   6.882
 1844SOL     OW 6430   4.874   3.471   0.751
 1844SOL    HW1 6431   4.781   3.463   0.785
 1844SOL    HW2 6432   4.913   3.379   0.739
 1845SOL     OW 6433   0.869   2.604   4.232
 1845SOL    HW1 6434   0.945   2.620   4.169
 1845SOL    HW2 6435   0.883   2.657   4.315
 1846SOL     OW 6436   3.894   1.570   2.503
 1846SOL    HW1 6437   3.865   1.653   2.550
 1846SOL    HW2 6438   3.814   1.512   2.487
 1847SOL     OW 6439   3.382   5.913   6.596
 1847SOL    HW1 6440   3.433   5.983   6.548
 1847SOL    HW2 6441   3.288   5.944   6.611
 1848SOL     OW 6442   3.186   5.785   4.636
 1848SOL    HW1 6443   3.123   5.834   4.577
 1848SOL    HW2 6444   3.169   5.809   4.731
 1849SOL     OW 6445   4.641   2.624   2.400
 1849SOL    HW1 6446   4.679   2.710   2.367
 1849SOL    HW2 6447   4.674   2.605   2.492
 1850SOL     OW 6448   4.941   1.615   1.119
 1850SOL    HW1 6449   4.988   1.554   1.184
 1850SOL    HW2 6450   4.913   1.562   1.039
 1851SOL     OW 6451   0.920   4.967   3.833
 1851SOL    HW1 6452   0.947   5.062   3.849
 1851SOL    HW2 6453   0.984   4.925   3.768
 1852SOL     OW 6454   0.665   0.073   3.502
 1852SOL    HW1 6455   0.701   0.136   3.433
 1852SOL    HW2 6456   0.655   0.120   3.589
 1853SOL     OW 6457   0.938   1.887   5.609
 1853SOL    HW1 6458   0.868   1.949   5.642
 1853SOL    HW2 6459   0.937   1.885   5.509
 1854SOL     OW 6460   0.657   6.697   4.141
 1854SOL    HW1 6461   0.652   6.600   4.119
 1854SOL    HW2 6462   0.687   6.748   4.060
 1855SOL     OW 6463   6.604   1.433   5.187
 1855SOL    HW1 6464   6.561   1.493   5.120
 1855SOL    HW2 6465   6.674   1.484   5.237
 1856SOL     OW 6466   5.330   3.902   6.430
 1856SOL    HW1 6467   5.279   3.886   6.346
 1856SOL    HW2 6468   5.393   3.978   6.417
 1857SOL     OW 6469   4.502   0.912   6.671
 1857SOL    HW1 6470   4.572   0.963   6.621
 1857SOL    HW2 6471   4.448   0.975   6.726
 1858SOL     OW 6472   5.318   2.082   4.298
 1858SOL    HW1 6473   5.233   2.031   4.309
 1858SOL    HW2 6474   5.320   2.122   4.206
 1859SOL     OW 6475   5.979   6.288   2.760
 1859SOL    HW1 6476   5.880   6.296   2.758
 1859SOL    HW2 6477   6.013   6.271   2.667
 1860SOL     OW 6478   2.258   0.942   0.483
 1860SOL    HW1 6479   2.299   0.851   0.494
 1860SOL    HW2 6480   2.158   0.934   0.483
 1861SOL     OW 6481   6.502   0.049   5.242
 1861SOL    HW1 6482   6.559   0.128   5.266
 1861SOL    HW2 6483   6.496   7.007   5.321
 1862SOL     OW 6484   3.810   5.216   5.216
 1862SOL    HW1 6485   3.863   5.299   5.197
 1862SOL    HW2 6486   3.713   5.235   5.197
 1863SOL     OW 6487   6.994   1.139   1.521
 1863SOL    HW1 6488   6.907   1.185   1.501
 1863SOL    HW2 6489   6.977   1.041   1.534
 1864SOL     OW 6490   2.306   6.201   2.634
 1864SOL    HW1 6491   2.322   6.235   2.727
 1864SOL    HW2 6492   2.232   6.134   2.636
 1865SOL     OW 6493   6.143   2.701   5.800
 1865SOL    HW1 6494   6.098   2.612   5.802
 1865SOL    HW2 6495   6.203   2.706   5.720
 1866SOL     OW 6496   0.415   3.950   5.454
 1866SOL    HW1 6497   0.414   3.948   5.554
 1866SOL    HW2 6498   0.500   3.909   5.421
 1867SOL     OW 6499   1.393   1.061   1.242
 1867SOL    HW1 6500   1.486   1.052   1.206
 1867SOL    HW2 6501   1.329   1.067   1.166
 1868SOL     OW 6502   5.639   3.646   5.768
 1868SOL    HW1 6503   5.674   3.644   5.674
 1868SOL    HW2 6504   5.644   3.739   5.803
 1869SOL     OW 6505   5.140   0.359   5.055
 1869SOL    HW1 6506   5.133   0.459   5.048
 1869SOL    HW2 6507   5.146   0.320   4.963
 1870SOL     OW 6508   5.543   0.975   5.591
 1870SOL    HW1 6509   5.475   0.934   5.651
 1870SOL    HW2 6510   5.627   0.920   5.592
 1871SOL     OW 6511   2.611   4.737   6.957
 1871SOL    HW1 6512   2.605   4.765   0.033
 1871SOL    HW2 6513   2.695   4.684   6.943
 1872SOL     OW 6514   2.676   3.321   0.497
 1872SOL    HW1 6515   2.716   3.389   0.436
 1872SOL    HW2 6516   2.601   3.274   0.450
 1873SOL     OW 6517   6.159   1.467   1.962
 1873SOL    HW1 6518   6.161   1.567   1.958
 1873SOL    HW2 6519   6.092   1.438   2.032
 1874SOL     OW 6520   2.092   5.450   6.016
 1874SOL    HW1 6521   2.081   5.358   6.054
 1874SOL    HW2 6522   2.188   5.466   5.996
 1875SOL     OW 6523   1.323   6.303   2.334
 1875SOL    HW1 6524   1.382   6.241   2.386
 1875SOL    HW2 6525   1.240   6.255   2.307
 1876SOL     OW 6526   0.810   4.932   5.959
 1876SOL    HW1 6527   0.864   5.007   5.919
 1876SOL    HW2 6528   0.736   4.907   5.896
 1877SOL     OW 6529   0.374   0.924   3.623
 1877SOL    HW1 6530   0.347   0.995   3.559
 1877SOL    HW2 6531   0.292   0.874   3.654
 1878SOL     OW 6532   6.165   3.910   4.280
 1878SOL    HW1 6533   6.071   3.879   4.295
 1878SOL    HW2 6534   6.164   4.007   4.258
 1879SOL     OW 6535   4.111   6.176   5.400
 1879SOL    HW1 6536   4.101   6.099   5.463
 1879SOL    HW2 6537   4.032   6.237   5.410
 1880SOL     OW 6538   1.778   3.481   4.702
 1880SOL    HW1 6539   1.712   3.428   4.755
 1880SOL    HW2 6540   1.860   3.498   4.758
 1881SOL     OW 6541   2.235   2.493   3.323
 1881SOL    HW1 6542   2.308   2.541   3.274
 1881SOL    HW2 6543   2.224   2.401   3.285
 1882SOL     OW 6544   4.290   6.782   0.322
 1882SOL    HW1 6545   4.261   6.738   0.407
 1882SOL    HW2 6546   4.390   6.786   0.319
 1883SOL     OW 6547   2.030   3.586   2.785
 1883SOL    HW1 6548   2.090   3.585   2.705
 1883SOL    HW2 6549   1.993   3.678   2.798
 1884SOL     OW 6550   4.637   0.825   7.008
 1884SOL    HW1 6551   4.586   0.835   6.923
 1884SOL    HW2 6552   4.576   0.839   0.066
 1885SOL     OW 6553   0.014   1.690   0.963
 1885SOL    HW1 6554   6.938   1.700   0.990
 1885SOL    HW2 6555   0.027   1.731   0.873
 1886SOL     OW 6556   3.522   3.144   4.477
 1886SOL    HW1 6557   3.485   3.160   4.568
 1886SOL    HW2 6558   3.592   3.073   4.480
 1887SOL     OW 6559   0.696   5.839   5.228
 1887SOL    HW1 6560   0.785   5.809   5.192
 1887SOL    HW2 6561   0.710   5.907   5.300
 1888SOL     OW 6562   1.976   1.663   6.159
 1888SOL    HW1 6563   2.058   1.718   6.171
 1888SOL    HW2 6564   1.950   1.623   6.247
 1889SOL     OW 6565   3.625   3.651   7.002
 1889SOL    HW1 6566   3.655   3.649   0.077
 1889SOL    HW2 6567   3.635   3.744   6.966
 1890SOL     OW 6568   5.958   6.662   6.458
 1890SOL    HW1 6569   6.043   6.609   6.466
 1890SOL    HW2 6570   5.955   6.731   6.531
 1891SOL     OW 6571   5.443   3.356   6.650
 1891SOL    HW1 6572   5.501   3.275   6.662
 1891SOL    HW2 6573   5.449   3.387   6.555
 1892SOL     OW 6574   4.136   0.704   3.103
 1892SOL    HW1 6575   4.123   0.606   3.120
 1892SOL    HW2 6576   4.105   0.756   3.182
 1893SOL     OW 6577   2.995   2.022   0.043
 1893SOL    HW1 6578   2.969   2.084   6.990
 1893SOL    HW2 6579   3.013   1.931   0.005
 1894SOL     OW 6580   4.975   3.202   0.706
 1894SOL    HW1 6581   5.066   3.180   0.672
 1894SOL    HW2 6582   4.955   3.150   0.789
 1895SOL     OW 6583   4.476   5.729   3.166
 1895SOL    HW1 6584   4.476   5.671   3.085
 1895SOL    HW2 6585   4.492   5.824   3.139
 1896SOL     OW 6586   0.023   1.517   4.681
 1896SOL    HW1 6587   7.006   1.542   4.770
 1896SOL    HW2 6588   0.052   1.600   4.633
 1897SOL     OW 6589   5.407   5.310   2.898
 1897SOL    HW1 6590   5.371   5.398   2.928
 1897SOL    HW2 6591   5.375   5.291   2.805
 1898SOL     OW 6592   5.389   6.861   0.047
 1898SOL    HW1 6593   5.353   6.773   0.079
 1898SOL    HW2 6594   5.433   6.849   6.978
 1899SOL     OW 6595   2.148   2.785   3.568
 1899SOL    HW1 6596   2.199   2.800   3.653
 1899SOL    HW2 6597   2.196   2.829   3.492
 1900SOL     OW 6598   2.688   5.499   1.274
 1900SOL    HW1 6599   2.759   5.441   1.314
 1900SOL    HW2 6600   2.621   5.442   1.227
 1901SOL     OW 6601   0.509   1.593   5.928
 1901SOL    HW1 6602   0.431   1.591   5.864
 1901SOL    HW2 6603   0.476   1.582   6.021
 1902SOL     OW 6604   1.605   2.583   4.797
 1902SOL    HW1 6605   1.619   2.500   4.852
 1902SOL    HW2 6606   1.682   2.645   4.809
 1903SOL     OW 6607   6.659   5.693   3.834
 1903SOL    HW1 6608   6.646   5.789   3.858
 1903SOL    HW2 6609   6.748   5.682   3.789
 1904SOL     OW 6610   0.763   6.994   4.212
 1904SOL    HW1 6611   0.727   7.020   4.122
 1904SOL    HW2 6612   0.810   6.906   4.205
 1905SOL     OW 6613   5.901   3.381   5.296
 1905SOL    HW1 6614   5.935   3.295   5.258
 1905SOL    HW2 6615   5.927   3.386   5.393
 1906SOL     OW 6616   2.395   6.500   5.713
 1906SOL    HW1 6617   2.401   6.453   5.625
 1906SOL    HW2 6618   2.299   6.506   5.741
 1907SOL     OW 6619   3.908   6.673   3.289
 1907SOL    HW1 6620   3.971   6.718   3.353
 1907SOL    HW2 6621   3.814   6.685   3.321
 1908SOL     OW 6622   5.075   4.827   0.810
 1908SOL    HW1 6623   5.152   4.787   0.761
 1908SOL    HW2 6624   5.032   4.897   0.754
 1909SOL     OW 6625   5.182   5.395   3.569
 1909SOL    HW1 6626   5.131   5.317   3.532
 1909SOL    HW2 6627   5.120   5.455   3.619
 1910SOL     OW 6628   5.011   3.900   4.102
 1910SOL    HW1 6629   5.017   3.884   4.201
 1910SOL    HW2 6630   5.003   3.813   4.055
 1911SOL     OW 6631   0.906   2.445   5.668
 1911SOL    HW1 6632   0.883   2.427   5.764
 1911SOL    HW2 6633   0.892   2.362   5.614
 1912SOL     OW 6634   3.260   6.683   2.502
 1912SOL    HW1 6635   3.169   6.691   2.543
 1912SOL    HW2 6636   3.264   6.601   2.446
 1913SOL     OW 6637   2.932   3.791   6.670
 1913SOL    HW1 6638   2.853   3.846   6.643
 1913SOL    HW2 6639   2.986   3.768   6.588
 1914SOL     OW 6640   4.358   1.245   4.942
 1914SOL    HW1 6641   4.282   1.309   4.928
 1914SOL    HW2 6642   4.332   1.155   4.906
 1915SOL     OW 6643   3.102   6.403   5.406
 1915SOL    HW1 6644   3.130   6.458   5.327
 1915SOL    HW2 6645   3.038   6.333   5.376
 1916SOL     OW 6646   3.472   6.790   2.672
 1916SOL    HW1 6647   3.381   6.781   2.633
 1916SOL    HW2 6648   3.539   6.749   2.610
 1917SOL     OW 6649   3.885   3.987   3.628
 1917SOL    HW1 6650   3.796   4.032   3.635
 1917SOL    HW2 6651   3.934   3.997   3.715
 1918SOL     OW 6652   0.509   6.408   5.567
 1918SOL    HW1 6653   0.606   6.413   5.590
 1918SOL    HW2 6654   0.461   6.484   5.611
 1919SOL     OW 6655   5.607   0.418   2.156
 1919SOL    HW1 6656   5.683   0.480   2.177
 1919SOL    HW2 6657   5.521   0.468   2.161
 1920SOL     OW 6658   6.225   6.225   4.579
 1920SOL    HW1 6659   6.315   6.254   4.610
 1920SOL    HW2 6660   6.216   6.243   4.481
 1921SOL     OW 6661   2.475   6.402   6.637
 1921SOL    HW1 6662   2.474   6.419   6.735
 1921SOL    HW2 6663   2.414   6.325   6.616
 1922SOL     OW 6664   3.788   4.578   6.965
 1922SOL    HW1 6665   3.888   4.583   6.953
 1922SOL    HW2 6666   3.750   4.670   6.956
 1923SOL     OW 6667   1.558   2.840   1.301
 1923SOL    HW1 6668   1.565   2.861   1.204
 1923SOL    HW2 6669   1.597   2.750   1.319
 1924SOL     OW 6670   0.346   3.809   1.391
 1924SOL    HW1 6671   0.252   3.830   1.363
 1924SOL    HW2 6672   0.367   3.715   1.368
 1925SOL     OW 6673   3.026   4.481   0.596
 1925SOL    HW1 6674   3.080   4.399   0.617
 1925SOL    HW2 6675   3.056   4.556   0.655
 1926SOL     OW 6676   0.657   0.624   3.471
 1926SOL    HW1 6677   0.640   0.556   3.399
 1926SOL    HW2 6678   0.756   0.628   3.490
 1927SOL     OW 6679   4.985   3.372   1.378
 1927SOL    HW1 6680   4.889   3.366   1.349
 1927SOL    HW2 6681   4.989   3.400   1.474
 1928SOL     OW 6682   0.132   5.272   4.592
 1928SOL    HW1 6683   0.055   5.328   4.559
 1928SOL    HW2 6684   0.096   5.196   4.646
 1929SOL     OW 6685   0.845   4.774   2.810
 1929SOL    HW1 6686   0.872   4.853   2.865
 1929SOL    HW2 6687   0.767   4.799   2.752
 1930SOL     OW 6688   6.436   5.732   5.740
 1930SOL    HW1 6689   6.358   5.779   5.698
 1930SOL    HW2 6690   6.521   5.778   5.714
 1931SOL     OW 6691   2.031   2.631   4.009
 1931SOL    HW1 6692   2.055   2.537   4.036
 1931SOL    HW2 6693   2.068   2.651   3.919
 1932SOL     OW 6694   6.195   3.223   2.443
 1932SOL    HW1 6695   6.273   3.270   2.402
 1932SOL    HW2 6696   6.133   3.290   2.484
 1933SOL     OW 6697   3.085   5.095   0.335
 1933SOL    HW1 6698   3.117   5.106   0.241
 1933SOL    HW2 6699   3.119   5.009   0.373
 1934SOL     OW 6700   0.365   6.228   2.989
 1934SOL    HW1 6701   0.276   6.218   3.032
 1934SOL    HW2 6702   0.363   6.186   2.898
 1935SOL     OW 6703   0.963   1.214   3.438
 1935SOL    HW1 6704   0.989   1.118   3.437
 1935SOL    HW2 6705   0.891   1.230   3.370
 1936SOL     OW 6706   0.315   5.904   4.953
 1936SOL    HW1 6707   0.399   5.851   4.954
 1936SOL    HW2 6708   0.236   5.842   4.948
 1937SOL     OW 6709   4.569   1.806   2.973
 1937SOL    HW1 6710   4.565   1.708   2.955
 1937SOL    HW2 6711   4.523   1.826   3.060
 1938SOL     OW 6712   5.172   6.822   3.800
 1938SOL    HW1 6713   5.154   6.755   3.872
 1938SOL    HW2 6714   5.167   6.778   3.711
 1939SOL     OW 6715   2.978   0.486   4.445
 1939SOL    HW1 6716   2.974   0.430   4.528
 1939SOL    HW2 6717   2.950   0.432   4.366
 1940SOL     OW 6718   6.128   6.868   6.854
 1940SOL    HW1 6719   6.050   6.846   6.795
 1940SOL    HW2 6720   6.213   6.860   6.801
 1941SOL     OW 6721   4.388   4.896   2.759
 1941SOL    HW1 6722   4.332   4.975   2.733
 1941SOL    HW2 6723   4.437   4.863   2.678
 1942SOL     OW 6724   0.000   3.020   2.726
 1942SOL    HW1 6725   6.991   3.086   2.657
 1942SOL    HW2 6726   0.095   3.040   2.752
 1943SOL     OW 6727   3.381   5.110   3.153
 1943SOL    HW1 6728   3.338   5.127   3.242
 1943SOL    HW2 6729   3.455   5.176   3.139
 1944SOL     OW 6730   6.964   6.239   2.084
 1944SOL    HW1 6731   6.884   6.280   2.128
 1944SOL    HW2 6732   7.019   6.192   2.153
 1945SOL     OW 6733   2.820   4.712   2.939
 1945SOL    HW1 6734   2.882   4.772   2.988
 1945SOL    HW2 6735   2.871   4.654   2.876
 1946SOL     OW 6736   1.440   6.701   6.899
 1946SOL    HW1 6737   1.537   6.721   6.906
 1946SOL    HW2 6738   1.387   6.783   6.922
 1947SOL     OW 6739   4.384   0.635   3.822
 1947SOL    HW1 6740   4.379   0.661   3.726
 1947SOL    HW2 6741   4.421   0.710   3.876
 1948SOL     OW 6742   6.251   2.850   5.239
 1948SOL    HW1 6743   6.236   2.791   5.160
 1948SOL    HW2 6744   6.212   2.808   5.321
 1949SOL     OW 6745   4.982   3.436   6.932
 1949SOL    HW1 6746   5.035   3.360   6.969
 1949SOL    HW2 6747   4.920   3.402   6.861
 1950SOL     OW 6748   3.099   5.293   0.836
 1950SOL    HW1 6749   3.156   5.212   0.852
 1950SOL    HW2 6750   3.120   5.363   0.904
 1951SOL     OW 6751   6.287   2.799   6.951
 1951SOL    HW1 6752   6.263   2.861   6.876
 1951SOL    HW2 6753   6.259   2.839   0.018
 1952SOL     OW 6754   2.963   3.278   4.080
 1952SOL    HW1 6755   2.882   3.323   4.116
 1952SOL    HW2 6756   2.951   3.259   3.983
 1953SOL     OW 6757   0.677   2.343   4.576
 1953SOL    HW1 6758   0.611   2.272   4.551
 1953SOL    HW2 6759   0.670   2.362   4.674
 1954SOL     OW 6760   2.711   2.025   4.284
 1954SOL    HW1 6761   2.738   2.067   4.370
 1954SOL    HW2 6762   2.624   1.977   4.296
 1955SOL     OW 6763   6.450   5.866   2.837
 1955SOL    HW1 6764   6.507   5.907   2.766
 1955SOL    HW2 6765   6.445   5.928   2.916
 1956SOL     OW 6766   4.089   5.866   2.893
 1956SOL    HW1 6767   4.076   5.788   2.832
 1956SOL    HW2 6768   4.011   5.872   2.956
 1957SOL     OW 6769   2.595   6.462   5.065
 1957SOL    HW1 6770   2.570   6.366   5.079
 1957SOL    HW2 6771   2.567   6.516   5.144
 1958SOL     OW 6772   4.027   3.837   6.338
 1958SOL    HW1 6773   4.053   3.882   6.252
 1958SOL    HW2 6774   3.944   3.880   6.374
 1959SOL     OW 6775   2.748   0.305   0.914
 1959SOL    HW1 6776   2.739   0.379   0.980
 1959SOL    HW2 6777   2.826   0.324   0.853
 1960SOL     OW 6778   5.193   5.211   2.670
 1960SOL    HW1 6779   5.093   5.208   2.681
 1960SOL    HW2 6780   5.223   5.306   2.674
 1961SOL     OW 6781   5.559   4.537   5.637
 1961SOL    HW1 6782   5.590   4.455   5.589
 1961SOL    HW2 6783   5.588   4.618   5.586
 1962SOL     OW 6784   0.119   6.615   4.054
 1962SOL    HW1 6785   0.054   6.604   4.129
 1962SOL    HW2 6786   0.202   6.659   4.087
 1963SOL     OW 6787   2.555   1.450   3.808
 1963SOL    HW1 6788   2.630   1.385   3.807
 1963SOL    HW2 6789   2.517   1.455   3.901
 1964SOL     OW 6790   6.671   3.195   2.015
 1964SOL    HW1 6791   6.748   3.164   2.070
 1964SOL    HW2 6792   6.682   3.292   1.992
 1965SOL     OW 6793   2.214   0.113   3.291
 1965SOL    HW1 6794   2.123   0.081   3.319
 1965SOL    HW2 6795   2.214   0.213   3.284
 1966SOL     OW 6796   6.935   6.632   6.905
 1966SOL    HW1 6797   7.009   6.578   6.866
 1966SOL    HW2 6798   6.874   6.664   6.832
 1967SOL     OW 6799   5.933   2.674   4.681
 1967SOL    HW1 6800   6.019   2.725   4.686
 1967SOL    HW2 6801   5.877   2.709   4.606
 1968SOL     OW 6802   4.222   5.578   4.772
 1968SOL    HW1 6803   4.130   5.552   4.741
 1968SOL    HW2 6804   4.224   5.676   4.792
 1969SOL     OW 6805   6.510   0.611   1.630
 1969SOL    HW1 6806   6.605   0.640   1.644
 1969SOL    HW2 6807   6.484   0.628   1.535
 1970SOL     OW 6808   1.845   0.947   3.992
 1970SOL    HW1 6809   1.814   0.991   4.076
 1970SOL    HW2 6810   1.855   1.017   3.921
 1971SOL     OW 6811   6.900   1.404   5.798
 1971SOL    HW1 6812   6.875   1.459   5.879
 1971SOL    HW2 6813   6.949   1.462   5.733
 1972SOL     OW 6814   1.260   6.782   3.539
 1972SOL    HW1 6815   1.305   6.810   3.455
 1972SOL    HW2 6816   1.252   6.683   3.541
 1973SOL     OW 6817   3.001   3.078   0.381
 1973SOL    HW1 6818   2.978   3.129   0.464
 1973SOL    HW2 6819   2.931   3.008   0.365
 1974SOL     OW 6820   6.359   6.407   4.057
 1974SOL    HW1 6821   6.367   6.504   4.038
 1974SOL    HW2 6822   6.360   6.355   3.971
 1975SOL     OW 6823   2.679   0.074   3.803
 1975SOL    HW1 6824   2.693   0.135   3.881
 1975SOL    HW2 6825   2.759   0.078   3.743
 1976SOL     OW 6826   6.467   4.686   5.926
 1976SOL    HW1 6827   6.476   4.780   5.896
 1976SOL    HW2 6828   6.399   4.639   5.870
 1977SOL     OW 6829   3.099   2.145   5.336
 1977SOL    HW1 6830   3.104   2.239   5.301
 1977SOL    HW2 6831   3.176   2.093   5.300
 1978SOL     OW 6832   6.568   2.156   4.738
 1978SOL    HW1 6833   6.557   2.194   4.830
 1978SOL    HW2 6834   6.665   2.142   4.719
 1979SOL     OW 6835   6.623   3.934   2.518
 1979SOL    HW1 6836   6.717   3.931   2.554
 1979SOL    HW2 6837   6.612   4.016   2.461
 1980SOL     OW 6838   2.716   0.761   2.633
 1980SOL    HW1 6839   2.791   0.826   2.617
 1980SOL    HW2 6840   2.689   0.720   2.546
 1981SOL     OW 6841   5.774   3.304   1.965
 1981SOL    HW1 6842   5.816   3.373   1.906
 1981SOL    HW2 6843   5.838   3.277   2.036
 1982SOL     OW 6844   0.221   0.073   5.454
 1982SOL    HW1 6845   0.300   0.041   5.401
 1982SOL    HW2 6846   0.220   0.027   5.542
 1983SOL     OW 6847   1.095   4.733   1.503
 1983SOL    HW1 6848   1.175   4.705   1.450
 1983SOL    HW2 6849   1.026   4.772   1.442
 1984SOL     OW 6850   4.078   0.836   5.414
 1984SOL    HW1 6851   4.149   0.829   5.484
 1984SOL    HW2 6852   4.102   0.910   5.351
 1985SOL     OW 6853   1.326   5.519   1.678
 1985SOL    HW1 6854   1.334   5.438   1.736
 1985SOL    HW2 6855   1.363   5.599   1.726
 1986SOL     OW 6856   6.818   2.435   0.458
 1986SOL    HW1 6857   6.847   2.368   0.390
 1986SOL    HW2 6858   6.769   2.510   0.412
 1987SOL     OW 6859   2.871   3.482   0.345
 1987SOL    HW1 6860   2.881   3.580   0.325
 1987SOL    HW2 6861   2.948   3.451   0.400
 1988SOL     OW 6862   4.872   3.082   0.937
 1988SOL    HW1 6863   4.857   3.017   1.012
 1988SOL    HW2 6864   4.789   3.134   0.921
 1989SOL     OW 6865   2.444   2.582   3.682
 1989SOL    HW1 6866   2.511   2.512   3.657
 1989SOL    HW2 6867   2.352   2.545   3.672
 1990SOL     OW 6868   0.833   0.735   2.886
 1990SOL    HW1 6869   0.873   0.752   2.796
 1990SOL    HW2 6870   0.772   0.655   2.881
 1991SOL     OW 6871   4.601   6.178   2.665
 1991SOL    HW1 6872   4.565   6.107   2.726
 1991SOL    HW2 6873   4.694   6.155   2.638
 1992SOL     OW 6874   2.600   5.048   5.618
 1992SOL    HW1 6875   2.579   5.129   5.673
 1992SOL    HW2 6876   2.691   5.057   5.577
 1993SOL     OW 6877   3.100   3.352   4.371
 1993SOL    HW1 6878   3.019   3.403   4.399
 1993SOL    HW2 6879   3.087   3.318   4.278
 1994SOL     OW 6880   6.703   2.171   1.989
 1994SOL    HW1 6881   6.640   2.140   2.059
 1994SOL    HW2 6882   6.791   2.124   1.999
 1995SOL     OW 6883   3.593   2.136   1.531
 1995SOL    HW1 6884   3.682   2.178   1.518
 1995SOL    HW2 6885   3.557   2.161   1.620
 1996SOL     OW 6886   2.202   4.642   5.154
 1996SOL    HW1 6887   2.278   4.704   5.132
 1996SOL    HW2 6888   2.232   4.547   5.142
 1997SOL     OW 6889   5.822   6.067   4.171
 1997SOL    HW1 6890   5.838   6.048   4.268
 1997SOL    HW2 6891   5.762   5.997   4.133
 1998SOL     OW 6892   2.973   4.864   4.681
 1998SOL    HW1 6893   2.898   4.832   4.737
 1998SOL    HW2 6894   3.042   4.908   4.739
 1999SOL     OW 6895   2.591   1.803   2.095
 1999SOL    HW1 6896   2.566   1.787   2.190
 1999SOL    HW2 6897   2.626   1.896   2.085
 2000SOL     OW 6898   3.014   1.445   5.103
 2000SOL    HW1 6899   2.926   1.418   5.064
 2000SOL    HW2 6900   3.015   1.423   5.201
 2001SOL     OW 6901   2.292   2.307   6.762
 2001SOL    HW1 6902   2.381   2.344   6.788
 2001SOL    HW2 6903   2.244   2.373   6.706
 2002SOL     OW 6904   1.521   4.805   4.985
 2002SOL    HW1 6905   1.509   4.904   4.977
 2002SOL    HW2 6906   1.489   4.774   5.074
 2003SOL     OW 6907   6.309   3.867   3.477
 2003SOL    HW1 6908   6.308   3.826   3.568
 2003SOL    HW2 6909   6.236   3.827   3.421
 2004SOL     OW 6910   3.435   0.063   6.850
 2004SOL    HW1 6911   3.376   0.016   6.785
 2004SOL    HW2 6912   3.429   0.162   6.836
 2005SOL     OW 6913   3.122   6.616   5.238
 2005SOL    HW1 6914   3.169   6.698   5.271
 2005SOL    HW2 6915   3.023   6.630   5.245
 2006SOL     OW 6916   4.490   6.597   3.554
 2006SOL    HW1 6917   4.394   6.582   3.580
 2006SOL    HW2 6918   4.499   6.687   3.510
 2007SOL     OW 6919   6.766   5.741   6.917
 2007SOL    HW1 6920   6.839   5.745   6.848
 2007SOL    HW2 6921   6.767   5.651   6.961
 2008SOL     OW 6922   6.963   5.739   5.435
 2008SOL    HW1 6923   6.934   5.677   5.507
 2008SOL    HW2 6924   6.903   5.819   5.434
 2009SOL     OW 6925   1.253   0.670   0.053
 2009SOL    HW1 6926   1.177   0.628   0.102
 2009SOL    HW2 6927   1.325   0.696   0.117
 2010SOL     OW 6928   2.148   1.217   0.688
 2010SOL    HW1 6929   2.136   1.121   0.711
 2010SOL    HW2 6930   2.174   1.225   0.591
 2011SOL     OW 6931   6.545   1.755   4.559
 2011SOL    HW1 6932   6.463   1.733   4.507
 2011SOL    HW2 6933   6.527   1.834   4.618
 2012SOL     OW 6934   6.823   3.277   1.218
 2012SOL    HW1 6935   6.827   3.210   1.144
 2012SOL    HW2 6936   6.728   3.291   1.247
 2013SOL     OW 6937   3.778   2.313   1.457
 2013SOL    HW1 6938   3.788   2.342   1.552
 2013SOL    HW2 6939   3.755   2.392   1.400
 2014SOL     OW 6940   3.216   5.496   3.161
 2014SOL    HW1 6941   3.277   5.418   3.176
 2014SOL    HW2 6942   3.263   5.566   3.107
 2015SOL     OW 6943   3.379   5.515   0.396
 2015SOL    HW1 6944   3.350   5.521   0.301
 2015SOL    HW2 6945   3.341   5.432   0.438
 2016SOL     OW 6946   5.856   5.728   4.374
 2016SOL    HW1 6947   5.935   5.783   4.400
 2016SOL    HW2 6948   5.853   5.719   4.275
 2017SOL     OW 6949   2.076   5.051   2.081
 2017SOL    HW1 6950   2.074   4.951   2.082
 2017SOL    HW2 6951   2.063   5.084   1.987
 2018SOL     OW 6952   0.599   4.229   5.712
 2018SOL    HW1 6953   0.527   4.171   5.749
 2018SOL    HW2 6954   0.566   4.276   5.630
 2019SOL     OW 6955   5.080   1.130   2.776
 2019SOL    HW1 6956   5.007   1.192   2.748
 2019SOL    HW2 6957   5.042   1.057   2.833
 2020SOL     OW 6958   2.377   5.301   3.376
 2020SOL    HW1 6959   2.399   5.235   3.448
 2020SOL    HW2 6960   2.278   5.313   3.372
 2021SOL     OW 6961   1.705   5.731   1.934
 2021SOL    HW1 6962   1.700   5.687   1.845
 2021SOL    HW2 6963   1.773   5.805   1.931
 2022SOL     OW 6964   3.254   5.640   1.705
 2022SOL    HW1 6965   3.353   5.625   1.703
 2022SOL    HW2 6966   3.207   5.553   1.702
 2023SOL     OW 6967   6.552   2.222   5.534
 2023SOL    HW1 6968   6.469   2.258   5.577
 2023SOL    HW2 6969   6.585   2.143   5.586
 2024SOL     OW 6970   5.968   0.294   3.454
 2024SOL    HW1 6971   6.017   0.371   3.413
 2024SOL    HW2 6972   5.906   0.254   3.386
 2025SOL     OW 6973   6.335   1.084   1.243
 2025SOL    HW1 6974   6.337   1.158   1.311
 2025SOL    HW2 6975   6.285   1.114   1.162
 2026SOL     OW 6976   2.148   1.676   5.136
 2026SOL    HW1 6977   2.069   1.732   5.164
 2026SOL    HW2 6978   2.155   1.677   5.036
 2027SOL     OW 6979   6.962   0.101   2.028
 2027SOL    HW1 6980   6.949   0.200   2.019
 2027SOL    HW2 6981   6.987   0.063   1.939
 2028SOL     OW 6982   3.886   3.949   5.602
 2028SOL    HW1 6983   3.945   3.923   5.679
 2028SOL    HW2 6984   3.840   3.867   5.567
 2029SOL     OW 6985   1.765   0.695   0.289
 2029SOL    HW1 6986   1.838   0.659   0.232
 2029SOL    HW2 6987   1.728   0.622   0.347
 2030SOL     OW 6988   2.093   2.826   2.629
 2030SOL    HW1 6989   2.156   2.854   2.556
 2030SOL    HW2 6990   2.026   2.762   2.592
 2031SOL     OW 6991   6.296   6.973   2.500
 2031SOL    HW1 6992   6.322   6.906   2.569
 2031SOL    HW2 6993   6.366   6.974   2.428
 2032SOL     OW 6994   4.539   6.127   2.080
 2032SOL    HW1 6995   4.515   6.222   2.101
 2032SOL    HW2 6996   4.586   6.087   2.158
 2033SOL     OW 6997   0.250   5.279   6.657
 2033SOL    HW1 6998   0.156   5.244   6.667
 2033SOL    HW2 6999   0.253   5.343   6.580
 2034SOL     OW 7000   2.145   5.647   4.074
 2034SOL    HW1 7001   2.238   5.614   4.094
 2034SOL    HW2 7002   2.133   5.653   3.975
 2035SOL     OW 7003   0.509   2.016   3.414
 2035SOL    HW1 7004   0.560   2.079   3.474
 2035SOL    HW2 7005   0.468   1.944   3.470
 2036SOL     OW 7006   0.558   4.904   0.913
 2036SOL    HW1 7007   0.605   4.862   0.835
 2036SOL    HW2 7008   0.616   4.976   0.952
 2037SOL     OW 7009   0.052   2.326   6.694
 2037SOL    HW1 7010   0.018   2.348   6.603
 2037SOL    HW2 7011   0.152   2.314   6.690
 2038SOL     OW 7012   1.366   6.887   4.759
 2038SOL    HW1 7013   1.270   6.892   4.786
 2038SOL    HW2 7014   1.376   6.918   4.664
 2039SOL     OW 7015   1.191   5.279   1.800
 2039SOL    HW1 7016   1.218   5.241   1.889
 2039SOL    HW2 7017   1.143   5.365   1.814
 2040SOL     OW 7018   3.846   3.469   4.679
 2040SOL    HW1 7019   3.764   3.475   4.622
 2040SOL    HW2 7020   3.894   3.383   4.660
 2041SOL     OW 7021   4.671   2.834   0.132
 2041SOL    HW1 7022   4.685   2.930   0.153
 2041SOL    HW2 7023   4.696   2.815   0.037
 2042SOL     OW 7024   3.246   5.675   0.890
 2042SOL    HW1 7025   3.283   5.680   0.798
 2042SOL    HW2 7026   3.159   5.724   0.894
 2043SOL     OW 7027   4.097   5.869   2.335
 2043SOL    HW1 7028   4.150   5.849   2.253
 2043SOL    HW2 7029   4.031   5.942   2.316
 2044SOL     OW 7030   6.509   0.888   2.354
 2044SOL    HW1 7031   6.500   0.948   2.274
 2044SOL    HW2 7032   6.557   0.805   2.327
 2045SOL     OW 7033   3.115   6.660   6.570
 2045SOL    HW1 7034   3.194   6.709   6.606
 2045SOL    HW2 7035   3.134   6.628   6.477
 2046SOL     OW 7036   5.703   6.689   5.625
 2046SOL    HW1 7037   5.788   6.650   5.589
 2046SOL    HW2 7038   5.723   6.745   5.705
 2047SOL     OW 7039   5.031   3.452   0.491
 2047SOL    HW1 7040   4.980   3.452   0.577
 2047SOL    HW2 7041   5.127   3.434   0.509
 2048SOL     OW 7042   4.758   6.369   5.390
 2048SOL    HW1 7043   4.785   6.278   5.421
 2048SOL    HW2 7044   4.749   6.368   5.290
 2049SOL     OW 7045   4.948   5.191   6.715
 2049SOL    HW1 7046   4.993   5.240   6.790
 2049SOL    HW2 7047   4.881   5.252   6.672
 2050SOL     OW 7048   5.668   0.921   3.403
 2050SOL    HW1 7049   5.593   0.976   3.367
 2050SOL    HW2 7050   5.685   0.946   3.498
 2051SOL     OW 7051   3.149   5.463   1.045
 2051SOL    HW1 7052   3.169   5.558   1.020
 2051SOL    HW2 7053   3.084   5.463   1.121
 2052SOL     OW 7054   2.199   2.751   1.160
 2052SOL    HW1 7055   2.137   2.828   1.174
 2052SOL    HW2 7056   2.294   2.783   1.165
 2053SOL     OW 7057   4.945   1.187   1.054
 2053SOL    HW1 7058   5.021   1.185   0.989
 2053SOL    HW2 7059   4.859   1.168   1.006
 2054SOL     OW 7060   0.615   3.068   0.944
 2054SOL    HW1 7061   0.515   3.071   0.944
 2054SOL    HW2 7062   0.645   2.984   0.990
 2055SOL     OW 7063   6.320   1.273   3.866
 2055SOL    HW1 7064   6.313   1.266   3.766
 2055SOL    HW2 7065   6.395   1.336   3.889
 2056SOL     OW 7066   0.606   6.774   2.622
 2056SOL    HW1 7067   0.638   6.818   2.706
 2056SOL    HW2 7068   0.573   6.844   2.558
 2057SOL     OW 7069   4.977   3.384   4.002
 2057SOL    HW1 7070   4.958   3.298   4.048
 2057SOL    HW2 7071   4.958   3.375   3.904
 2058SOL     OW 7072   0.539   0.608   1.779
 2058SOL    HW1 7073   0.481   0.689   1.775
 2058SOL    HW2 7074   0.632   0.632   1.752
 2059SOL     OW 7075   1.478   0.827   6.598
 2059SOL    HW1 7076   1.434   0.917   6.588
 2059SOL    HW2 7077   1.448   0.786   6.684
 2060SOL     OW 7078   0.252   4.718   2.857
 2060SOL    HW1 7079   0.256   4.711   2.957
 2060SOL    HW2 7080   0.216   4.632   2.819
 2061SOL     OW 7081   1.428   0.757   0.559
 2061SOL    HW1 7082   1.513   0.795   0.523
 2061SOL    HW2 7083   1.381   0.826   0.614
 2062SOL     OW 7084   3.933   0.737   3.876
 2062SOL    HW1 7085   3.890   0.652   3.907
 2062SOL    HW2 7086   3.948   0.797   3.954
 2063SOL     OW 7087   2.429   2.202   1.071
 2063SOL    HW1 7088   2.367   2.125   1.056
 2063SOL    HW2 7089   2.433   2.224   1.168
 2064SOL     OW 7090   1.224   1.920   1.028
 2064SOL    HW1 7091   1.164   1.968   0.964
 2064SOL    HW2 7092   1.248   1.981   1.103
 2065SOL     OW 7093   6.870   2.812   2.662
 2065SOL    HW1 7094   6.773   2.809   2.687
 2065SOL    HW2 7095   6.903   2.906   2.664
 2066SOL     OW 7096   1.352   6.017   2.987
 2066SOL    HW1 7097   1.299   6.086   2.939
 2066SOL    HW2 7098   1.431   5.990   2.933
 2067SOL     OW 7099   0.103   0.643   0.505
 2067SOL    HW1 7100   0.008   0.643   0.535
 2067SOL    HW2 7101   0.159   0.694   0.570
 2068SOL     OW 7102   2.166   2.051   5.208
 2068SOL    HW1 7103   2.073   2.088   5.212
 2068SOL    HW2 7104   2.192   2.016   5.298
 2069SOL     OW 7105   1.196   2.087   2.163
 2069SOL    HW1 7106   1.110   2.113   2.208
 2069SOL    HW2 7107   1.256   2.041   2.228
 2070SOL     OW 7108   6.918   1.608   2.844
 2070SOL    HW1 7109   6.883   1.544   2.913
 2070SOL    HW2 7110   6.874   1.590   2.757
 2071SOL     OW 7111   2.663   6.274   5.380
 2071SOL    HW1 7112   2.680   6.220   5.463
 2071SOL    HW2 7113   2.623   6.362   5.405
 2072SOL     OW 7114   5.312   4.823   2.600
 2072SOL    HW1 7115   5.213   4.822   2.583
 2072SOL    HW2 7116   5.336   4.901   2.657
 2073SOL     OW 7117   3.249   6.838   5.315
 2073SOL    HW1 7118   3.207   6.915   5.364
 2073SOL    HW2 7119   3.327   6.804   5.367
 2074SOL     OW 7120   5.724   2.541   2.973
 2074SOL    HW1 7121   5.752   2.492   3.056
 2074SOL    HW2 7122   5.740   2.482   2.894
 2075SOL     OW 7123   4.142   3.130   5.921
 2075SOL    HW1 7124   4.070   3.188   5.882
 2075SOL    HW2 7125   4.226   3.140   5.866
 2076SOL     OW 7126   5.238   0.275   0.348
 2076SOL    HW1 7127   5.234   0.194   0.290
 2076SOL    HW2 7128   5.181   0.347   0.308
 2077SOL     OW 7129   4.383   0.927   3.988
 2077SOL    HW1 7130   4.373   0.870   4.070
 2077SOL    HW2 7131   4.433   1.010   4.011
 2078SOL     OW 7132   3.976   5.976   3.980
 2078SOL    HW1 7133   3.888   5.960   4.025
 2078SOL    HW2 7134   4.022   5.888   3.964
 2079SOL     OW 7135   6.255   6.742   3.813
 2079SOL    HW1 7136   6.225   6.773   3.903
 2079SOL    HW2 7137   6.216   6.652   3.794
 2080SOL     OW 7138   2.499   1.875   3.432
 2080SOL    HW1 7139   2.591   1.902   3.407
 2080SOL    HW2 7140   2.496   1.853   3.530
 2081SOL     OW 7141   0.939   6.316   3.873
 2081SOL    HW1 7142   1.015   6.257   3.902
 2081SOL    HW2 7143   0.957   6.348   3.780
 2082SOL     OW 7144   4.886   0.862   2.366
 2082SOL    HW1 7145   4.832   0.840   2.448
 2082SOL    HW2 7146   4.837   0.929   2.311
 2083SOL     OW 7147   3.820   4.307   6.247
 2083SOL    HW1 7148   3.894   4.266   6.300
 2083SOL    HW2 7149   3.735   4.303   6.300
 2084SOL     OW 7150   6.762   2.727   2.975
 2084SOL    HW1 7151   6.759   2.826   2.988
 2084SOL    HW2 7152   6.849   2.701   2.933
 2085SOL     OW 7153   6.125   6.657   0.023
 2085SOL    HW1 7154   6.131   6.744   6.994
 2085SOL    HW2 7155   6.052   6.662   0.091
 2086SOL     OW 7156   3.485   4.807   0.133
 2086SOL    HW1 7157   3.576   4.813   0.174
 2086SOL    HW2 7158   3.466   4.713   0.107
 2087SOL     OW 7159   5.416   5.647   3.767
 2087SOL    HW1 7160   5.421   5.562   3.715
 2087SOL    HW2 7161   5.362   5.633   3.849
 2088SOL     OW 7162   2.459   6.842   1.741
 2088SOL    HW1 7163   2.392   6.768   1.732
 2088SOL    HW2 7164   2.551   6.803   1.739
 2089SOL     OW 7165   2.262   1.169   6.835
 2089SOL    HW1 7166   2.296   1.077   6.856
 2089SOL    HW2 7167   2.339   1.233   6.833
 2090SOL     OW 7168   3.263   3.753   4.081
 2090SOL    HW1 7169   3.221   3.668   4.049
 2090SOL    HW2 7170   3.197   3.805   4.134
 2091SOL     OW 7171   2.869   4.127   0.759
 2091SOL    HW1 7172   2.848   4.111   0.856
 2091SOL    HW2 7173   2.788   4.163   0.713
 2092SOL     OW 7174   6.833   6.508   1.278
 2092SOL    HW1 7175   6.888   6.528   1.360
 2092SOL    HW2 7176   6.788   6.592   1.248
 2093SOL     OW 7177   1.502   1.785   1.617
 2093SOL    HW1 7178   1.523   1.800   1.714
 2093SOL    HW2 7179   1.583   1.809   1.562
 2094SOL     OW 7180   6.701   0.366   1.875
 2094SOL    HW1 7181   6.628   0.428   1.904
 2094SOL    HW2 7182   6.786   0.391   1.921
 2095SOL     OW 7183   6.261   4.582   5.336
 2095SOL    HW1 7184   6.260   4.681   5.322
 2095SOL    HW2 7185   6.322   4.560   5.412
 2096SOL     OW 7186   4.796   4.386   3.540
 2096SOL    HW1 7187   4.860   4.428   3.604
 2096SOL    HW2 7188   4.793   4.287   3.556
 2097SOL     OW 7189   6.598   3.673   5.963
 2097SOL    HW1 7190   6.688   3.632   5.980
 2097SOL    HW2 7191   6.529   3.627   6.019
 2098SOL     OW 7192   4.166   0.381   4.187
 2098SOL    HW1 7193   4.165   0.481   4.192
 2098SOL    HW2 7194   4.113   0.351   4.107
 2099SOL     OW 7195   2.964   1.971   3.523
 2099SOL    HW1 7196   2.871   1.999   3.498
 2099SOL    HW2 7197   3.019   1.958   3.441
 2100SOL     OW 7198   4.322   4.786   6.306
 2100SOL    HW1 7199   4.245   4.757   6.363
 2100SOL    HW2 7200   4.361   4.706   6.260
 2101SOL     OW 7201   6.358   0.021   2.011
 2101SOL    HW1 7202   6.336   0.075   2.093
 2101SOL    HW2 7203   6.424   0.071   1.955
 2102SOL     OW 7204   0.401   5.198   1.108
 2102SOL    HW1 7205   0.448   5.281   1.079
 2102SOL    HW2 7206   0.442   5.163   1.192
 2103SOL     OW 7207   3.706   3.641   6.229
 2103SOL    HW1 7208   3.720   3.549   6.192
 2103SOL    HW2 7209   3.727   3.709   6.158
 2104SOL     OW 7210   1.423   4.586   5.814
 2104SOL    HW1 7211   1.336   4.635   5.819
 2104SOL    HW2 7212   1.406   4.487   5.813
 2105SOL     OW 7213   5.753   6.065   2.410
 2105SOL    HW1 7214   5.705   6.024   2.332
 2105SOL    HW2 7215   5.843   6.097   2.380
 2106SOL     OW 7216   5.774   6.296   6.405
 2106SOL    HW1 7217   5.731   6.384   6.426
 2106SOL    HW2 7218   5.834   6.306   6.326
 2107SOL     OW 7219   2.811   5.207   0.390
 2107SOL    HW1 7220   2.888   5.150   0.364
 2107SOL    HW2 7221   2.838   5.270   0.463
 2108SOL     OW 7222   6.141   4.573   6.354
 2108SOL    HW1 7223   6.180   4.584   6.262
 2108SOL    HW2 7224   6.158   4.655   6.408
 2109SOL     OW 7225   5.367   5.134   2.454
 2109SOL    HW1 7226   5.311   5.109   2.533
 2109SOL    HW2 7227   5.385   5.053   2.399
 2110SOL     OW 7228   1.063   4.728   5.576
 2110SOL    HW1 7229   1.067   4.821   5.537
 2110SOL    HW2 7230   1.034   4.664   5.505
 2111SOL     OW 7231   2.039   1.979   6.622
 2111SOL    HW1 7232   2.104   1.905   6.607
 2111SOL    HW2 7233   2.057   2.053   6.557
 2112SOL     OW 7234   4.991   4.176   0.825
 2112SOL    HW1 7235   4.981   4.252   0.890
 2112SOL    HW2 7236   5.088   4.149   0.820
 2113SOL     OW 7237   6.871   1.540   3.358
 2113SOL    HW1 7238   6.778   1.515   3.386
 2113SOL    HW2 7239   6.889   1.635   3.384
 2114SOL     OW 7240   1.673   3.513   0.126
 2114SOL    HW1 7241   1.698   3.586   0.191
 2114SOL    HW2 7242   1.633   3.554   0.044
 2115SOL     OW 7243   4.131   5.555   1.883
 2115SOL    HW1 7244   4.052   5.514   1.838
 2115SOL    HW2 7245   4.212   5.499   1.867
 2116SOL     OW 7246   0.640   3.646   4.103
 2116SOL    HW1 7247   0.686   3.577   4.048
 2116SOL    HW2 7248   0.594   3.602   4.180
 2117SOL     OW 7249   6.994   6.000   5.827
 2117SOL    HW1 7250   0.010   5.968   5.739
 2117SOL    HW2 7251   6.934   6.078   5.812
 2118SOL     OW 7252   0.231   3.182   2.316
 2118SOL    HW1 7253   0.162   3.135   2.262
 2118SOL    HW2 7254   0.288   3.239   2.256
 2119SOL     OW 7255   4.312   6.250   0.441
 2119SOL    HW1 7256   4.289   6.258   0.344
 2119SOL    HW2 7257   4.371   6.326   0.467
 2120SOL     OW 7258   6.973   4.021   2.122
 2120SOL    HW1 7259   0.049   4.046   2.114
 2120SOL    HW2 7260   6.928   4.080   2.188
 2121SOL     OW 7261   0.677   4.121   5.158
 2121SOL    HW1 7262   0.654   4.030   5.125
 2121SOL    HW2 7263   0.766   4.120   5.203
 2122SOL     OW 7264   4.042   5.007   5.172
 2122SOL    HW1 7265   3.974   5.075   5.197
 2122SOL    HW2 7266   4.015   4.918   5.207
 2123SOL     OW 7267   4.734   5.559   3.630
 2123SOL    HW1 7268   4.708   5.464   3.641
 2123SOL    HW2 7269   4.801   5.567   3.556
 2124SOL     OW 7270   2.658   2.280   1.507
 2124SOL    HW1 7271   2.715   2.270   1.425
 2124SOL    HW2 7272   2.707   2.336   1.575
 2125SOL     OW 7273   5.134   6.416   0.639
 2125SOL    HW1 7274   5.187   6.335   0.663
 2125SOL    HW2 7275   5.110   6.413   0.542
 2126SOL     OW 7276   3.168   1.537   1.475
 2126SOL    HW1 7277   3.159   1.444   1.510
 2126SOL    HW2 7278   3.094   1.593   1.511
 2127SOL     OW 7279   5.578   2.670   4.460
 2127SOL    HW1 7280   5.540   2.752   4.416
 2127SOL    HW2 7281   5.570   2.679   4.559
 2128SOL     OW 7282   0.487   3.731   4.565
 2128SOL    HW1 7283   0.579   3.700   4.587
 2128SOL    HW2 7284   0.436   3.657   4.521
 2129SOL     OW 7285   4.521   2.320   5.090
 2129SOL    HW1 7286   4.500   2.398   5.031
 2129SOL    HW2 7287   4.620   2.309   5.098
 2130SOL     OW 7288   4.769   6.924   3.570
 2130SOL    HW1 7289   4.756   7.000   3.634
 2130SOL    HW2 7290   4.704   6.932   3.495
 2131SOL     OW 7291   5.056   1.971   6.661
 2131SOL    HW1 7292   5.126   2.015   6.717
 2131SOL    HW2 7293   5.052   2.016   6.572
 2132SOL     OW 7294   1.873   3.627   1.083
 2132SOL    HW1 7295   1.811   3.681   1.027
 2132SOL    HW2 7296   1.862   3.530   1.063
 2133SOL     OW 7297   2.134   4.241   6.411
 2133SOL    HW1 7298   2.144   4.192   6.498
 2133SOL    HW2 7299   2.075   4.320   6.424
 2134SOL     OW 7300   0.050   6.842   0.273
 2134SOL    HW1 7301   6.985   6.804   0.239
 2134SOL    HW2 7302   0.115   6.769   0.291
 2135SOL     OW 7303   6.674   5.107   5.601
 2135SOL    HW1 7304   6.732   5.026   5.594
 2135SOL    HW2 7305   6.710   5.167   5.672
 2136SOL     OW 7306   1.444   5.567   6.766
 2136SOL    HW1 7307   1.382   5.639   6.736
 2136SOL    HW2 7308   1.397   5.509   6.833
 2137SOL     OW 7309   1.411   6.637   3.991
 2137SOL    HW1 7310   1.365   6.693   3.921
 2137SOL    HW2 7311   1.365   6.549   3.998
 2138SOL     OW 7312   5.217   2.052   1.531
 2138SOL    HW1 7313   5.173   2.043   1.441
 2138SOL    HW2 7314   5.293   1.988   1.536
 2139SOL     OW 7315   3.264   6.066   5.520
 2139SOL    HW1 7316   3.271   6.097   5.614
 2139SOL    HW2 7317   3.352   6.029   5.490
 2140SOL     OW 7318   2.048   2.256   3.503
 2140SOL    HW1 7319   2.042   2.353   3.526
 2140SOL    HW2 7320   2.090   2.246   3.413
 2141SOL     OW 7321   6.588   3.179   3.275
 2141SOL    HW1 7322   6.613   3.178   3.179
 2141SOL    HW2 7323   6.573   3.085   3.306
 2142SOL     OW 7324   1.839   2.443   2.178
 2142SOL    HW1 7325   1.914   2.501   2.147
 2142SOL    HW2 7326   1.771   2.499   2.225
 2143SOL     OW 7327   6.539   5.644   5.303
 2143SOL    HW1 7328   6.580   5.597   5.381
 2143SOL    HW2 7329   6.550   5.588   5.221
 2144SOL     OW 7330   6.469   4.582   2.690
 2144SOL    HW1 7331   6.451   4.606   2.594
 2144SOL    HW2 7332   6.383   4.583   2.741
 2145SOL     OW 7333   4.209   1.357   2.977
 2145SOL    HW1 7334   4.262   1.362   2.893
 2145SOL    HW2 7335   4.186   1.450   3.007
 2146SOL     OW 7336   1.833   1.625   6.678
 2146SOL    HW1 7337   1.746   1.578   6.694
 2146SOL    HW2 7338   1.815   1.721   6.654
 2147SOL     OW 7339   6.107   6.736   5.118
 2147SOL    HW1 7340   6.063   6.784   5.194
 2147SOL    HW2 7341   6.051   6.747   5.036
 2148SOL     OW 7342   1.248   2.278   5.010
 2148SOL    HW1 7343   1.313   2.349   4.984
 2148SOL    HW2 7344   1.276   2.190   4.970
 2149SOL     OW 7345   0.245   6.637   0.280
 2149SOL    HW1 7346   0.295   6.669   0.361
 2149SOL    HW2 7347   0.297   6.660   0.198
 2150SOL     OW 7348   1.649   2.621   0.713
 2150SOL    HW1 7349   1.637   2.707   0.664
 2150SOL    HW2 7350   1.690   2.553   0.652
 2151SOL     OW 7351   0.895   4.867   6.811
 2151SOL    HW1 7352   0.896   4.899   6.717
 2151SOL    HW2 7353   0.936   4.775   6.815
 2152SOL     OW 7354   5.166   6.053   4.369
 2152SOL    HW1 7355   5.100   5.979   4.358
 2152SOL    HW2 7356   5.257   6.021   4.346
 2153SOL     OW 7357   4.824   6.814   4.000
 2153SOL    HW1 7358   4.913   6.841   3.964
 2153SOL    HW2 7359   4.799   6.724   3.963
 2154SOL     OW 7360   2.726   6.815   2.635
 2154SOL    HW1 7361   2.747   6.867   2.717
 2154SOL    HW2 7362   2.692   6.724   2.661
 2155SOL     OW 7363   4.651   0.758   1.295
 2155SOL    HW1 7364   4.642   0.855   1.271
 2155SOL    HW2 7365   4.630   0.702   1.214
 2156SOL     OW 7366   5.931   1.976   5.379
 2156SOL    HW1 7367   6.003   1.907   5.382
 2156SOL    HW2 7368   5.924   2.014   5.286
 2157SOL     OW 7369   4.059   6.221   3.825
 2157SOL    HW1 7370   4.045   6.176   3.736
 2157SOL    HW2 7371   4.014   6.167   3.896
 2158SOL     OW 7372   2.659   6.898   0.706
 2158SOL    HW1 7373   2.583   6.851   0.752
 2158SOL    HW2 7374   2.686   6.846   0.625
 2159SOL     OW 7375   0.123   1.164   5.570
 2159SOL    HW1 7376   0.074   1.095   5.623
 2159SOL    HW2 7377   0.058   1.212   5.510
 2160SOL     OW 7378   5.522   0.087   6.798
 2160SOL    HW1 7379   5.522   7.008   6.808
 2160SOL    HW2 7380   5.438   0.117   6.753
 2161SOL     OW 7381   1.707   3.789   0.769
 2161SOL    HW1 7382   1.777   3.750   0.709
 2161SOL    HW2 7383   1.682   3.881   0.738
 2162SOL     OW 7384   1.673   0.056   0.496
 2162SOL    HW1 7385   1.580   0.030   0.524
 2162SOL    HW2 7386   1.688   0.028   0.401
 2163SOL     OW 7387   1.011   2.797   3.907
 2163SOL    HW1 7388   0.946   2.858   3.952
 2163SOL    HW2 7389   1.055   2.738   3.975
 2164SOL     OW 7390   2.229   4.290   2.003
 2164SOL    HW1 7391   2.223   4.373   2.058
 2164SOL    HW2 7392   2.236   4.314   1.907
 2165SOL     OW 7393   6.120   1.295   5.381
 2165SOL    HW1 7394   6.148   1.367   5.317
 2165SOL    HW2 7395   6.092   1.337   5.468
 2166SOL     OW 7396   0.611   2.608   1.529
 2166SOL    HW1 7397   0.555   2.580   1.452
 2166SOL    HW2 7398   0.672   2.682   1.501
 2167SOL     OW 7399   1.271   2.461   3.165
 2167SOL    HW1 7400   1.335   2.409   3.221
 2167SOL    HW2 7401   1.313   2.481   3.076
 2168SOL     OW 7402   1.568   2.442   3.324
 2168SOL    HW1 7403   1.508   2.521   3.334
 2168SOL    HW2 7404   1.569   2.390   3.410
 2169SOL     OW 7405   6.855   0.179   1.250
 2169SOL    HW1 7406   6.947   0.152   1.220
 2169SOL    HW2 7407   6.862   0.246   1.323
 2170SOL     OW 7408   1.569   2.696   6.519
 2170SOL    HW1 7409   1.561   2.634   6.597
 2170SOL    HW2 7410   1.604   2.645   6.440
 2171SOL     OW 7411   7.014   6.143   1.609
 2171SOL    HW1 7412   7.019   6.044   1.621
 2171SOL    HW2 7413   0.011   6.166   1.513
 2172SOL     OW 7414   2.731   2.271   4.900
 2172SOL    HW1 7415   2.701   2.316   4.984
 2172SOL    HW2 7416   2.764   2.179   4.922
 2173SOL     OW 7417   5.043   0.466   4.597
 2173SOL    HW1 7418   4.995   0.416   4.669
 2173SOL    HW2 7419   5.008   0.437   4.507
 2174SOL     OW 7420   5.201   0.380   6.036
 2174SOL    HW1 7421   5.224   0.282   6.036
 2174SOL    HW2 7422   5.107   0.391   6.004
 2175SOL     OW 7423   3.891   2.957   5.677
 2175SOL    HW1 7424   3.855   2.871   5.642
 2175SOL    HW2 7425   3.823   3.029   5.665
 2176SOL     OW 7426   6.435   2.216   2.877
 2176SOL    HW1 7427   6.492   2.244   2.800
 2176SOL    HW2 7428   6.377   2.292   2.906
 2177SOL     OW 7429   0.533   0.825   5.862
 2177SOL    HW1 7430   0.548   0.763   5.939
 2177SOL    HW2 7431   0.582   0.789   5.782
 2178SOL     OW 7432   1.633   2.587   2.295
 2178SOL    HW1 7433   1.673   2.664   2.343
 2178SOL    HW2 7434   1.618   2.511   2.359
 2179SOL     OW 7435   1.393   4.147   0.177
 2179SOL    HW1 7436   1.340   4.207   0.117
 2179SOL    HW2 7437   1.468   4.199   0.218
 2180SOL     OW 7438   0.459   5.301   2.851
 2180SOL    HW1 7439   0.416   5.370   2.794
 2180SOL    HW2 7440   0.530   5.344   2.907
 2181SOL     OW 7441   4.247   4.722   4.238
 2181SOL    HW1 7442   4.246   4.787   4.162
 2181SOL    HW2 7443   4.336   4.726   4.284
 2182SOL     OW 7444   7.019   6.552   1.452
 2182SOL    HW1 7445   7.006   6.529   1.548
 2182SOL    HW2 7446   0.042   6.642   1.444
 2183SOL     OW 7447   3.561   3.413   6.698
 2183SOL    HW1 7448   3.498   3.424   6.775
 2183SOL    HW2 7449   3.508   3.394   6.615
 2184SOL     OW 7450   6.243   1.661   0.012
 2184SOL    HW1 7451   6.328   1.672   0.063
 2184SOL    HW2 7452   6.206   1.569   0.028
 2185SOL     OW 7453   0.723   1.653   6.211
 2185SOL    HW1 7454   0.738   1.709   6.130
 2185SOL    HW2 7455   0.801   1.591   6.223
 2186SOL     OW 7456   6.950   6.497   5.329
 2186SOL    HW1 7457   6.970   6.580   5.277
 2186SOL    HW2 7458   6.977   6.417   5.276
 2187SOL     OW 7459   5.757   4.511   1.735
 2187SOL    HW1 7460   5.786   4.416   1.723
 2187SOL    HW2 7461   5.661   4.514   1.761
 2188SOL     OW 7462   3.176   0.726   0.772
 2188SOL    HW1 7463   3.165   0.705   0.869
 2188SOL    HW2 7464   3.086   0.731   0.728
 2189SOL     OW 7465   1.954   0.585   2.275
 2189SOL    HW1 7466   2.011   0.668   2.271
 2189SOL    HW2 7467   1.879   0.598   2.339
 2190SOL     OW 7468   6.674   4.912   2.171
 2190SOL    HW1 7469   6.587   4.945   2.210
 2190SOL    HW2 7470   6.656   4.869   2.083
 2191SOL     OW 7471   3.834   6.575   6.905
 2191SOL    HW1 7472   3.883   6.514   6.967
 2191SOL    HW2 7473   3.736   6.566   6.921
 2192SOL     OW 7474   4.546   2.146   1.846
 2192SOL    HW1 7475   4.600   2.228   1.864
 2192SOL    HW2 7476   4.467   2.169   1.789
 2193SOL     OW 7477   1.579   0.896   4.508
 2193SOL    HW1 7478   1.548   0.801   4.504
 2193SOL    HW2 7479   1.671   0.900   4.547
 2194SOL     OW 7480   0.975   4.586   5.343
 2194SOL    HW1 7481   0.897   4.620   5.291
 2194SOL    HW2 7482   0.954   4.495   5.380
 2195SOL     OW 7483   0.323   3.650   5.790
 2195SOL    HW1 7484   0.420   3.674   5.793
 2195SOL    HW2 7485   0.279   3.702   5.717
 2196SOL     OW 7486   4.024   1.181   6.816
 2196SOL    HW1 7487   3.980   1.094   6.795
 2196SOL    HW2 7488   3.992   1.251   6.752
 2197SOL     OW 7489   3.872   5.269   6.589
 2197SOL    HW1 7490   3.920   5.220   6.662
 2197SOL    HW2 7491   3.835   5.355   6.625
 2198SOL     OW 7492   1.802   1.375   6.248
 2198SOL    HW1 7493   1.768   1.313   6.319
 2198SOL    HW2 7494   1.726   1.408   6.192
 2199SOL     OW 7495   3.966   6.530   3.867
 2199SOL    HW1 7496   3.888   6.494   3.918
 2199SOL    HW2 7497   4.038   6.461   3.861
 2200SOL     OW 7498   2.543   2.310   4.653
 2200SOL    HW1 7499   2.595   2.243   4.706
 2200SOL    HW2 7500   2.519   2.387   4.711
 2201SOL     OW 7501   5.747   3.424   4.973
 2201SOL    HW1 7502   5.685   3.399   5.048
 2201SOL    HW2 7503   5.720   3.512   4.935
 2202SOL     OW 7504   4.022   6.915   4.021
 2202SOL    HW1 7505   4.010   6.849   4.096
 2202SOL    HW2 7506   4.063   6.998   4.057
 2203SOL     OW 7507   1.947   5.571   1.118
 2203SOL    HW1 7508   1.927   5.484   1.073
 2203SOL    HW2 7509   1.946   5.645   1.050
 2204SOL     OW 7510   5.159   2.851   0.896
 2204SOL    HW1 7511   5.111   2.829   0.811
 2204SOL    HW2 7512   5.218   2.774   0.922
 2205SOL     OW 7513   5.869   5.596   1.036
 2205SOL    HW1 7514   5.821   5.673   1.077
 2205SOL    HW2 7515   5.908   5.538   1.107
 2206SOL     OW 7516   3.732   2.771   5.552
 2206SOL    HW1 7517   3.698   2.678   5.559
 2206SOL    HW2 7518   3.655   2.834   5.539
 2207SOL     OW 7519   4.394   5.445   1.874
 2207SOL    HW1 7520   4.471   5.382   1.882
 2207SOL    HW2 7521   4.413   5.512   1.802
 2208SOL     OW 7522   6.590   6.447   3.121
 2208SOL    HW1 7523   6.618   6.354   3.098
 2208SOL    HW2 7524   6.521   6.445   3.192
 2209SOL     OW 7525   2.544   5.357   3.676
 2209SOL    HW1 7526   2.446   5.375   3.685
 2209SOL    HW2 7527   2.558   5.264   3.645
 2210SOL     OW 7528   5.270   6.638   1.983
 2210SOL    HW1 7529   5.292   6.713   1.920
 2210SOL    HW2 7530   5.332   6.642   2.061
 2211SOL     OW 7531   1.217   1.122   1.559
 2211SOL    HW1 7532   1.160   1.115   1.477
 2211SOL    HW2 7533   1.159   1.140   1.638
 2212SOL     OW 7534   2.930   5.909   5.936
 2212SOL    HW1 7535   2.885   5.970   5.871
 2212SOL    HW2 7536   2.987   5.844   5.887
 2213SOL     OW 7537   3.547   1.372   4.544
 2213SOL    HW1 7538   3.528   1.314   4.623
 2213SOL    HW2 7539   3.477   1.443   4.536
 2214SOL     OW 7540   4.096   4.632   6.408
 2214SOL    HW1 7541   4.048   4.601   6.326
 2214SOL    HW2 7542   4.169   4.568   6.430
 2215SOL     OW 7543   5.453   5.606   6.756
 2215SOL    HW1 7544   5.517   5.530   6.758
 2215SOL    HW2 7545   5.499   5.689   6.790
 2216SOL     OW 7546   0.228   5.799   0.300
 2216SOL    HW1 7547   0.200   5.835   0.390
 2216SOL    HW2 7548   0.257   5.875   0.242
 2217SOL     OW 7549   4.206   1.279   3.452
 2217SOL    HW1 7550   4.240   1.304   3.542
 2217SOL    HW2 7551   4.155   1.193   3.458
 2218SOL     OW 7552   6.260   5.582   5.461
 2218SOL    HW1 7553   6.204   5.516   5.412
 2218SOL    HW2 7554   6.347   5.595   5.413
 2219SOL     OW 7555   5.738   1.979   0.704
 2219SOL    HW1 7556   5.720   1.894   0.654
 2219SOL    HW2 7557   5.732   2.056   0.641
 2220SOL     OW 7558   6.821   6.524   4.141
 2220SOL    HW1 7559   6.797   6.559   4.050
 2220SOL    HW2 7560   6.746   6.543   4.204
 2221SOL     OW 7561   5.418   0.800   4.126
 2221SOL    HW1 7562   5.344   0.823   4.189
 2221SOL    HW2 7563   5.394   0.718   4.075
 2222SOL     OW 7564   3.568   1.284   3.446
 2222SOL    HW1 7565   3.579   1.233   3.362
 2222SOL    HW2 7566   3.492   1.348   3.436
 2223SOL     OW 7567   0.894   0.112   5.681
 2223SOL    HW1 7568   0.832   0.132   5.605
 2223SOL    HW2 7569   0.936   0.023   5.667
 2224SOL     OW 7570   5.537   4.182   6.680
 2224SOL    HW1 7571   5.600   4.202   6.755
 2224SOL    HW2 7572   5.587   4.142   6.604
 2225SOL     OW 7573   6.768   6.778   1.210
 2225SOL    HW1 7574   6.803   6.795   1.118
 2225SOL    HW2 7575   6.740   6.865   1.252
 2226SOL     OW 7576   2.785   3.333   0.131
 2226SOL    HW1 7577   2.863   3.317   0.071
 2226SOL    HW2 7578   2.815   3.387   0.210
 2227SOL     OW 7579   4.173   1.867   1.919
 2227SOL    HW1 7580   4.271   1.846   1.929
 2227SOL    HW2 7581   4.161   1.929   1.841
 2228SOL     OW 7582   5.192   6.896   6.636
 2228SOL    HW1 7583   5.146   6.855   6.715
 2228SOL    HW2 7584   5.223   6.823   6.574
 2229SOL     OW 7585   2.903   3.541   4.462
 2229SOL    HW1 7586   2.819   3.537   4.516
 2229SOL    HW2 7587   2.949   3.628   4.477
 2230SOL     OW 7588   6.636   1.068   6.342
 2230SOL    HW1 7589   6.596   0.976   6.349
 2230SOL    HW2 7590   6.735   1.062   6.350
 2231SOL     OW 7591   0.892   6.997   6.402
 2231SOL    HW1 7592   0.892   6.935   6.481
 2231SOL    HW2 7593   0.964   6.968   6.338
 2232SOL     OW 7594   1.650   0.776   6.399
 2232SOL    HW1 7595   1.596   0.781   6.483
 2232SOL    HW2 7596   1.694   0.864   6.383
 2233SOL     OW 7597   2.840   5.160   0.875
 2233SOL    HW1 7598   2.918   5.213   0.841
 2233SOL    HW2 7599   2.869   5.065   0.888
 2234SOL     OW 7600   4.798   2.144   1.544
 2234SOL    HW1 7601   4.733   2.211   1.509
 2234SOL    HW2 7602   4.763   2.052   1.525
 2235SOL     OW 7603   0.839   2.180   3.035
 2235SOL    HW1 7604   0.878   2.119   2.966
 2235SOL    HW2 7605   0.784   2.128   3.099
 2236SOL     OW 7606   2.783   4.775   5.266
 2236SOL    HW1 7607   2.763   4.722   5.349
 2236SOL    HW2 7608   2.793   4.713   5.188
 2237SOL     OW 7609   5.574   6.666   6.120
 2237SOL    HW1 7610   5.492   6.634   6.072
 2237SOL    HW2 7611   5.558   6.759   6.154
 2238SOL     OW 7612   5.558   3.820   2.295
 2238SOL    HW1 7613   5.519   3.765   2.222
 2238SOL    HW2 7614   5.605   3.899   2.256
 2239SOL     OW 7615   4.036   0.076   2.843
 2239SOL    HW1 7616   4.051   0.031   2.754
 2239SOL    HW2 7617   4.087   0.027   2.913
 2240SOL     OW 7618   4.617   5.253   1.931
 2240SOL    HW1 7619   4.622   5.153   1.934
 2240SOL    HW2 7620   4.617   5.289   2.024
 2241SOL     OW 7621   1.019   1.678   3.179
 2241SOL    HW1 7622   0.943   1.613   3.179
 2241SOL    HW2 7623   1.034   1.711   3.086
 2242SOL     OW 7624   5.481   2.337   4.270
 2242SOL    HW1 7625   5.441   2.249   4.295
 2242SOL    HW2 7626   5.535   2.372   4.346
 2243SOL     OW 7627   2.371   0.464   0.259
 2243SOL    HW1 7628   2.413   0.429   0.176
 2243SOL    HW2 7629   2.271   0.455   0.253
 2244SOL     OW 7630   3.089   1.855   1.181
 2244SOL    HW1 7631   3.110   1.896   1.093
 2244SOL    HW2 7632   3.053   1.926   1.243
 2245SOL     OW 7633   6.967   0.751   0.291
 2245SOL    HW1 7634   0.001   0.734   0.373
 2245SOL    HW2 7635   6.926   0.666   0.259
 2246SOL     OW 7636   5.371   0.836   5.742
 2246SOL    HW1 7637   5.306   0.761   5.729
 2246SOL    HW2 7638   5.347   0.886   5.825
 2247SOL     OW 7639   3.048   3.179   1.666
 2247SOL    HW1 7640   2.958   3.218   1.649
 2247SOL    HW2 7641   3.114   3.253   1.679
 2248SOL     OW 7642   4.913   3.356   4.728
 2248SOL    HW1 7643   4.959   3.413   4.796
 2248SOL    HW2 7644   4.897   3.411   4.645
 2249SOL     OW 7645   2.067   6.400   3.640
 2249SOL    HW1 7646   2.016   6.316   3.659
 2249SOL    HW2 7647   2.146   6.405   3.702
 2250SOL     OW 7648   4.545   5.763   6.431
 2250SOL    HW1 7649   4.585   5.851   6.408
 2250SOL    HW2 7650   4.463   5.777   6.487
 2251SOL     OW 7651   3.584   6.914   4.742
 2251SOL    HW1 7652   3.631   6.997   4.774
 2251SOL    HW2 7653   3.507   6.894   4.802
 2252SOL     OW 7654   4.078   1.336   2.618
 2252SOL    HW1 7655   4.037   1.415   2.662
 2252SOL    HW2 7656   4.056   1.336   2.520
 2253SOL     OW 7657   0.839   3.091   1.931
 2253SOL    HW1 7658   0.828   3.118   2.027
 2253SOL    HW2 7659   0.914   3.025   1.924
 2254SOL     OW 7660   3.264   2.905   3.252
 2254SOL    HW1 7661   3.361   2.907   3.230
 2254SOL    HW2 7662   3.218   2.980   3.206
 2255SOL     OW 7663   1.679   2.565   6.189
 2255SOL    HW1 7664   1.621   2.515   6.252
 2255SOL    HW2 7665   1.648   2.549   6.095
 2256SOL     OW 7666   4.690   0.384   1.719
 2256SOL    HW1 7667   4.739   0.431   1.792
 2256SOL    HW2 7668   4.690   0.441   1.637
 2257SOL     OW 7669   0.272   0.503   6.271
 2257SOL    HW1 7670   0.209   0.566   6.225
 2257SOL    HW2 7671   0.252   0.503   6.370
 2258SOL     OW 7672   2.212   0.057   3.606
 2258SOL    HW1 7673   2.241   0.091   3.517
 2258SOL    HW2 7674   2.116   0.084   3.622
 2259SOL     OW 7675   5.809   0.107   4.845
 2259SOL    HW1 7676   5.898   0.074   4.876
 2259SOL    HW2 7677   5.810   0.121   4.746
 2260SOL     OW 7678   1.715   3.598   1.312
 2260SOL    HW1 7679   1.769   3.607   1.228
 2260SOL    HW2 7680   1.776   3.578   1.389
 2261SOL     OW 7681   5.259   4.343   6.299
 2261SOL    HW1 7682   5.280   4.414   6.366
 2261SOL    HW2 7683   5.161   4.345   6.278
 2262SOL     OW 7684   0.012   6.994   4.070
 2262SOL    HW1 7685   0.105   7.016   4.099
 2262SOL    HW2 7686   0.015   6.940   3.986
 2263SOL     OW 7687   2.668   4.534   6.531
 2263SOL    HW1 7688   2.657   4.465   6.460
 2263SOL    HW2 7689   2.585   4.539   6.586
 2264SOL     OW 7690   1.832   6.959   6.887
 2264SOL    HW1 7691   1.805   0.032   6.864
 2264SOL    HW2 7692   1.870   6.957   6.980
 2265SOL     OW 7693   0.182   6.555   3.721
 2265SOL    HW1 7694   0.171   6.582   3.626
 2265SOL    HW2 7695   0.096   6.572   3.771
 2266SOL     OW 7696   4.887   3.975   6.365
 2266SOL    HW1 7697   4.827   4.022   6.300
 2266SOL    HW2 7698   4.928   4.042   6.427
 2267SOL     OW 7699   5.529   3.046   4.060
 2267SOL    HW1 7700   5.581   3.014   4.140
 2267SOL    HW2 7701   5.431   3.038   4.080
 2268SOL     OW 7702   0.721   6.021   4.813
 2268SOL    HW1 7703   0.702   5.950   4.881
 2268SOL    HW2 7704   0.799   6.076   4.843
 2269SOL     OW 7705   2.025   2.508   5.802
 2269SOL    HW1 7706   2.015   2.409   5.797
 2269SOL    HW2 7707   1.975   2.542   5.882
 2270SOL     OW 7708   5.315   2.268   6.333
 2270SOL    HW1 7709   5.344   2.361   6.354
 2270SOL    HW2 7710   5.321   2.253   6.234
 2271SOL     OW 7711   3.931   5.440   5.184
 2271SOL    HW1 7712   4.021   5.467   5.149
 2271SOL    HW2 7713   3.915   5.485   5.272
 2272SOL     OW 7714   5.847   1.074   6.259
 2272SOL    HW1 7715   5.837   0.976   6.280
 2272SOL    HW2 7716   5.922   1.112   6.314
 2273SOL     OW 7717   0.960   2.225   4.039
 2273SOL    HW1 7718   0.976   2.275   4.124
 2273SOL    HW2 7719   1.013   2.266   3.965
 2274SOL     OW 7720   1.104   1.461   6.783
 2274SOL    HW1 7721   1.157   1.402   6.844
 2274SOL    HW2 7722   1.084   1.547   6.829
 2275SOL     OW 7723   5.949   3.801   3.623
 2275SOL    HW1 7724   5.939   3.897   3.597
 2275SOL    HW2 7725   5.872   3.748   3.587
 2276SOL     OW 7726   1.838   1.834   1.229
 2276SOL    HW1 7727   1.856   1.763   1.162
 2276SOL    HW2 7728   1.739   1.852   1.233
 2277SOL     OW 7729   3.568   3.171   3.273
 2277SOL    HW1 7730   3.613   3.223   3.200
 2277SOL    HW2 7731   3.608   3.196   3.361
 2278SOL     OW 7732   6.603   3.319   3.844
 2278SOL    HW1 7733   6.661   3.291   3.768
 2278SOL    HW2 7734   6.598   3.245   3.912
 2279SOL     OW 7735   1.273   4.993   5.793
 2279SOL    HW1 7736   1.359   5.012   5.841
 2279SOL    HW2 7737   1.259   4.894   5.790
 2280SOL     OW 7738   4.797   2.045   5.527
 2280SOL    HW1 7739   4.761   2.023   5.437
 2280SOL    HW2 7740   4.726   2.090   5.581
 2281SOL     OW 7741   4.943   0.010   2.519
 2281SOL    HW1 7742   4.881   6.964   2.562
 2281SOL    HW2 7743   4.896   0.057   2.445
 2282SOL     OW 7744   3.442   5.300   5.545
 2282SOL    HW1 7745   3.508   5.270   5.614
 2282SOL    HW2 7746   3.350   5.275   5.574
 2283SOL     OW 7747   0.146   1.041   5.008
 2283SOL    HW1 7748   0.124   0.953   4.965
 2283SOL    HW2 7749   0.078   1.109   4.981
 2284SOL     OW 7750   1.692   3.764   6.689
 2284SOL    HW1 7751   1.740   3.847   6.716
 2284SOL    HW2 7752   1.637   3.730   6.765
 2285SOL     OW 7753   1.491   5.120   6.624
 2285SOL    HW1 7754   1.463   5.166   6.540
 2285SOL    HW2 7755   1.587   5.093   6.618
 2286SOL     OW 7756   4.627   4.366   2.807
 2286SOL    HW1 7757   4.541   4.392   2.851
 2286SOL    HW2 7758   4.622   4.388   2.709
 2287SOL     OW 7759   1.398   1.800   4.641
 2287SOL    HW1 7760   1.313   1.824   4.594
 2287SOL    HW2 7761   1.476   1.835   4.589
 2288SOL     OW 7762   6.495   5.573   2.665
 2288SOL    HW1 7763   6.530   5.664   2.687
 2288SOL    HW2 7764   6.572   5.510   2.651
 2289SOL     OW 7765   0.297   5.271   0.117
 2289SOL    HW1 7766   0.201   5.286   0.139
 2289SOL    HW2 7767   0.313   5.173   0.105
 2290SOL     OW 7768   0.754   5.346   6.448
 2290SOL    HW1 7769   0.837   5.359   6.393
 2290SOL    HW2 7770   0.762   5.399   6.533
 2291SOL     OW 7771   2.249   1.703   6.802
 2291SOL    HW1 7772   2.189   1.742   6.873
 2291SOL    HW2 7773   2.208   1.718   6.712
 2292SOL     OW 7774   1.773   1.016   4.266
 2292SOL    HW1 7775   1.849   1.013   4.330
 2292SOL    HW2 7776   1.694   1.060   4.310
 2293SOL     OW 7777   5.883   4.187   2.695
 2293SOL    HW1 7778   5.915   4.188   2.600
 2293SOL    HW2 7779   5.798   4.238   2.702
 2294SOL     OW 7780   4.075   6.614   0.182
 2294SOL    HW1 7781   4.147   6.585   0.119
 2294SOL    HW2 7782   4.116   6.651   0.265
 2295SOL     OW 7783   0.986   1.005   2.166
 2295SOL    HW1 7784   1.026   1.095   2.153
 2295SOL    HW2 7785   1.003   0.949   2.084
 2296SOL     OW 7786   3.138   6.161   0.334
 2296SOL    HW1 7787   3.208   6.098   0.367
 2296SOL    HW2 7788   3.175   6.215   0.259
 2297SOL     OW 7789   4.299   6.807   6.960
 2297SOL    HW1 7790   4.285   6.877   0.010
 2297SOL    HW2 7791   4.362   6.842   6.891
 2298SOL     OW 7792   4.082   3.216   6.636
 2298SOL    HW1 7793   4.147   3.291   6.652
 2298SOL    HW2 7794   3.992   3.242   6.670
 2299SOL     OW 7795   4.307   0.033   0.677
 2299SOL    HW1 7796   4.241   6.981   0.695
 2299SOL    HW2 7797   4.345   0.023   0.585
 2300SOL     OW 7798   1.201   4.652   1.183
 2300SOL    HW1 7799   1.189   4.751   1.186
 2300SOL    HW2 7800   1.279   4.626   1.239
 2301SOL     OW 7801   3.810   3.535   1.867
 2301SOL    HW1 7802   3.726   3.534   1.813
 2301SOL    HW2 7803   3.792   3.579   1.955
 2302SOL     OW 7804   2.389   5.042   3.107
 2302SOL    HW1 7805   2.448   5.122   3.117
 2302SOL    HW2 7806   2.400   5.004   3.015
 2303SOL     OW 7807   6.899   2.942   6.236
 2303SOL    HW1 7808   6.917   2.984   6.325
 2303SOL    HW2 7809   6.881   3.013   6.168
 2304SOL     OW 7810   1.802   1.304   4.790
 2304SOL    HW1 7811   1.806   1.213   4.831
 2304SOL    HW2 7812   1.844   1.370   4.852
 2305SOL     OW 7813   3.959   4.993   2.071
 2305SOL    HW1 7814   3.881   4.968   2.129
 2305SOL    HW2 7815   3.937   4.973   1.975
 2306SOL     OW 7816   0.498   4.635   0.505
 2306SOL    HW1 7817   0.531   4.568   0.571
 2306SOL    HW2 7818   0.408   4.669   0.534
 2307SOL     OW 7819   0.774   1.220   3.244
 2307SOL    HW1 7820   0.698   1.185   3.299
 2307SOL    HW2 7821   0.767   1.185   3.151
 2308SOL     OW 7822   1.035   6.963   0.404
 2308SOL    HW1 7823   1.105   6.989   0.470
 2308SOL    HW2 7824   1.005   6.869   0.422
 2309SOL     OW 7825   2.337   5.212   6.104
 2309SOL    HW1 7826   2.239   5.190   6.095
 2309SOL    HW2 7827   2.391   5.129   6.095
 2310SOL     OW 7828   5.688   1.527   3.356
 2310SOL    HW1 7829   5.594   1.505   3.381
 2310SOL    HW2 7830   5.745   1.445   3.363
 2311SOL     OW 7831   2.879   0.608   2.457
 2311SOL    HW1 7832   2.933   0.615   2.373
 2311SOL    HW2 7833   2.940   0.607   2.536
 2312SOL     OW 7834   2.466   1.080   2.554
 2312SOL    HW1 7835   2.476   1.024   2.636
 2312SOL    HW2 7836   2.503   1.172   2.571
 2313SOL     OW 7837   5.005   4.250   2.163
 2313SOL    HW1 7838   5.073   4.194   2.209
 2313SOL    HW2 7839   4.913   4.224   2.195
 2314SOL     OW 7840   6.132   6.458   2.927
 2314SOL    HW1 7841   6.081   6.388   2.876
 2314SOL    HW2 7842   6.193   6.506   2.864
 2315SOL     OW 7843   4.500   5.884   4.931
 2315SOL    HW1 7844   4.586   5.885   4.880
 2315SOL    HW2 7845   4.423   5.898   4.868
 2316SOL     OW 7846   3.132   1.392   5.861
 2316SOL    HW1 7847   3.112   1.481   5.821
 2316SOL    HW2 7848   3.089   1.320   5.806
 2317SOL     OW 7849   6.884   5.310   3.018
 2317SOL    HW1 7850   6.794   5.268   3.029
 2317SOL    HW2 7851   6.872   5.405   2.991
 2318SOL     OW 7852   0.824   4.345   4.043
 2318SOL    HW1 7853   0.729   4.343   4.075
 2318SOL    HW2 7854   0.867   4.431   4.069
 2319SOL     OW 7855   1.861   5.559   3.303
 2319SOL    HW1 7856   1.858   5.639   3.362
 2319SOL    HW2 7857   1.846   5.587   3.208
 2320SOL     OW 7858   1.096   1.640   5.681
 2320SOL    HW1 7859   1.020   1.594   5.634
 2320SOL    HW2 7860   1.125   1.719   5.628
 2321SOL     OW 7861   1.883   4.976   5.381
 2321SOL    HW1 7862   1.978   4.944   5.385
 2321SOL    HW2 7863   1.835   4.927   5.308
 2322SOL     OW 7864   2.131   4.103   1.734
 2322SOL    HW1 7865   2.174   4.069   1.817
 2322SOL    HW2 7866   2.040   4.138   1.755
 2323SOL     OW 7867   2.767   5.556   0.639
 2323SOL    HW1 7868   2.742   5.521   0.548
 2323SOL    HW2 7869   2.753   5.655   0.641
 2324SOL     OW 7870   6.790   5.032   2.578
 2324SOL    HW1 7871   6.857   5.101   2.549
 2324SOL    HW2 7872   6.838   4.950   2.609
 2325SOL     OW 7873   6.185   5.197   2.590
 2325SOL    HW1 7874   6.087   5.183   2.579
 2325SOL    HW2 7875   6.202   5.259   2.667
 2326SOL     OW 7876   1.921   0.565   0.065
 2326SOL    HW1 7877   1.919   0.600   6.992
 2326SOL    HW2 7878   1.917   0.465   0.063
 2327SOL     OW 7879   6.890   6.744   2.215
 2327SOL    HW1 7880   6.828   6.694   2.155
 2327SOL    HW2 7881   6.942   6.811   2.161
 2328SOL     OW 7882   2.211   3.983   2.314
 2328SOL    HW1 7883   2.267   3.946   2.389
 2328SOL    HW2 7884   2.115   3.961   2.330
 2329SOL     OW 7885   0.536   4.839   3.090
 2329SOL    HW1 7886   0.526   4.911   3.022
 2329SOL    HW2 7887   0.459   4.843   3.154
 2330SOL     OW 7888   5.928   3.301   1.157
 2330SOL    HW1 7889   5.872   3.340   1.230
 2330SOL    HW2 7890   5.917   3.356   1.074
 2331SOL     OW 7891   4.923   5.927   1.278
 2331SOL    HW1 7892   4.881   6.014   1.252
 2331SOL    HW2 7893   4.929   5.922   1.378
 2332SOL     OW 7894   5.765   6.872   5.842
 2332SOL    HW1 7895   5.665   6.882   5.840
 2332SOL    HW2 7896   5.801   6.914   5.925
 2333SOL     OW 7897   1.039   4.393   2.236
 2333SOL    HW1 7898   1.082   4.441   2.159
 2333SOL    HW2 7899   1.064   4.439   2.322
 2334SOL     OW 7900   3.188   1.337   6.293
 2334SOL    HW1 7901   3.162   1.254   6.343
 2334SOL    HW2 7902   3.139   1.341   6.206
 2335SOL     OW 7903   6.614   1.492   3.318
 2335SOL    HW1 7904   6.524   1.449   3.306
 2335SOL    HW2 7905   6.609   1.587   3.287
 2336SOL     OW 7906   1.720   1.899   3.646
 2336SOL    HW1 7907   1.692   1.842   3.723
 2336SOL    HW2 7908   1.800   1.954   3.672
 2337SOL     OW 7909   3.874   1.152   1.620
 2337SOL    HW1 7910   3.814   1.224   1.585
 2337SOL    HW2 7911   3.823   1.066   1.626
 2338SOL     OW 7912   0.018   3.466   4.237
 2338SOL    HW1 7913   6.987   3.383   4.213
 2338SOL    HW2 7914   6.995   3.545   4.193
 2339SOL     OW 7915   3.268   2.934   3.547
 2339SOL    HW1 7916   3.247   3.032   3.545
 2339SOL    HW2 7917   3.258   2.896   3.455
 2340SOL     OW 7918   2.391   4.323   6.760
 2340SOL    HW1 7919   2.460   4.264   6.720
 2340SOL    HW2 7920   2.357   4.387   6.691
 2341SOL     OW 7921   2.386   4.455   4.161
 2341SOL    HW1 7922   2.344   4.535   4.120
 2341SOL    HW2 7923   2.443   4.483   4.239
 2342SOL     OW 7924   3.399   1.071   4.049
 2342SOL    HW1 7925   3.399   0.972   4.033
 2342SOL    HW2 7926   3.403   1.088   4.147
 2343SOL     OW 7927   0.706   0.195   1.383
 2343SOL    HW1 7928   0.675   0.186   1.477
 2343SOL    HW2 7929   0.628   0.198   1.321
 2344SOL     OW 7930   5.824   4.533   0.152
 2344SOL    HW1 7931   5.919   4.525   0.123
 2344SOL    HW2 7932   5.788   4.622   0.122
 2345SOL     OW 7933   3.600   6.036   4.796
 2345SOL    HW1 7934   3.509   6.070   4.819
 2345SOL    HW2 7935   3.618   6.052   4.699
 2346SOL     OW 7936   4.644   3.753   0.429
 2346SOL    HW1 7937   4.596   3.787   0.348
 2346SOL    HW2 7938   4.741   3.743   0.409
 2347SOL     OW 7939   1.691   1.926   1.456
 2347SOL    HW1 7940   1.606   1.920   1.405
 2347SOL    HW2 7941   1.709   2.021   1.480
 2348SOL     OW 7942   0.536   5.143   2.386
 2348SOL    HW1 7943   0.548   5.083   2.306
 2348SOL    HW2 7944   0.595   5.223   2.377
 2349SOL     OW 7945   1.198   4.309   5.418
 2349SOL    HW1 7946   1.297   4.299   5.422
 2349SOL    HW2 7947   1.170   4.332   5.325
 2350SOL     OW 7948   5.062   3.719   0.160
 2350SOL    HW1 7949   4.997   3.712   0.236
 2350SOL    HW2 7950   5.023   3.776   0.088
 2351SOL     OW 7951   2.314   5.951   1.675
 2351SOL    HW1 7952   2.304   5.873   1.736
 2351SOL    HW2 7953   2.322   5.919   1.581
 2352SOL     OW 7954   0.015   2.444   3.274
 2352SOL    HW1 7955   0.040   2.378   3.346
 2352SOL    HW2 7956   6.976   2.514   3.312
 2353SOL     OW 7957   2.902   5.060   4.290
 2353SOL    HW1 7958   2.884   5.078   4.386
 2353SOL    HW2 7959   2.834   5.106   4.233
 2354SOL     OW 7960   2.430   2.621   3.993
 2354SOL    HW1 7961   2.476   2.552   4.049
 2354SOL    HW2 7962   2.408   2.582   3.903
 2355SOL     OW 7963   2.792   5.617   4.903
 2355SOL    HW1 7964   2.709   5.648   4.857
 2355SOL    HW2 7965   2.768   5.557   4.979
 2356SOL     OW 7966   6.968   2.852   0.049
 2356SOL    HW1 7967   6.934   2.788   0.118
 2356SOL    HW2 7968   6.908   2.932   0.046
 2357SOL     OW 7969   2.313   6.714   2.972
 2357SOL    HW1 7970   2.227   6.763   2.985
 2357SOL    HW2 7971   2.313   6.631   3.028
 2358SOL     OW 7972   3.344   4.826   5.676
 2358SOL    HW1 7973   3.443   4.834   5.684
 2358SOL    HW2 7974   3.312   4.883   5.600
 2359SOL     OW 7975   1.892   0.333   4.792
 2359SOL    HW1 7976   1.854   0.269   4.725
 2359SOL    HW2 7977   1.823   0.354   4.861
 2360SOL     OW 7978   6.682   4.291   0.008
 2360SOL    HW1 7979   6.676   4.341   0.094
 2360SOL    HW2 7980   6.616   4.215   0.008
 2361SOL     OW 7981   3.606   1.230   0.301
 2361SOL    HW1 7982   3.509   1.220   0.282
 2361SOL    HW2 7983   3.658   1.220   0.216
 2362SOL     OW 7984   2.635   5.907   3.337
 2362SOL    HW1 7985   2.721   5.956   3.350
 2362SOL    HW2 7986   2.624   5.883   3.240
 2363SOL     OW 7987   3.978   0.923   4.065
 2363SOL    HW1 7988   4.068   0.941   4.105
 2363SOL    HW2 7989   3.910   0.981   4.110
 2364SOL     OW 7990   1.225   2.727   1.501
 2364SOL    HW1 7991   1.198   2.807   1.447
 2364SOL    HW2 7992   1.300   2.753   1.562
 2365SOL     OW 7993   4.854   2.077   0.049
 2365SOL    HW1 7994   4.777   2.049   7.013
 2365SOL    HW2 7995   4.864   2.013   0.125
 2366SOL     OW 7996   4.600   5.304   0.824
 2366SOL    HW1 7997   4.590   5.353   0.737
 2366SOL    HW2 7998   4.550   5.218   0.819
 2367SOL     OW 7999   2.182   3.605   5.896
 2367SOL    HW1 8000   2.242   3.629   5.819
 2367SOL    HW2 8001   2.100   3.561   5.860
 2368SOL     OW 8002   6.385   6.077   2.305
 2368SOL    HW1 8003   6.338   6.126   2.232
 2368SOL    HW2 8004   6.350   6.107   2.393
 2369SOL     OW 8005   2.520   1.128   3.188
 2369SOL    HW1 8006   2.589   1.065   3.154
 2369SOL    HW2 8007   2.521   1.127   3.288
 2370SOL     OW 8008   6.226   2.878   6.328
 2370SOL    HW1 8009   6.206   2.972   6.356
 2370SOL    HW2 8010   6.166   2.852   6.252
 2371SOL     OW 8011   2.371   6.450   1.668
 2371SOL    HW1 8012   2.465   6.472   1.641
 2371SOL    HW2 8013   2.328   6.532   1.706
 2372SOL     OW 8014   6.410   3.153   2.943
 2372SOL    HW1 8015   6.353   3.072   2.934
 2372SOL    HW2 8016   6.387   3.219   2.872
 2373SOL     OW 8017   2.285   3.572   6.660
 2373SOL    HW1 8018   2.371   3.570   6.609
 2373SOL    HW2 8019   2.275   3.486   6.710
 2374SOL     OW 8020   5.565   2.648   4.748
 2374SOL    HW1 8021   5.576   2.707   4.828
 2374SOL    HW2 8022   5.491   2.583   4.764
 2375SOL     OW 8023   1.749   6.975   5.745
 2375SOL    HW1 8024   1.760   6.984   5.646
 2375SOL    HW2 8025   1.710   0.039   5.782
 2376SOL     OW 8026   6.201   2.707   4.621
 2376SOL    HW1 8027   6.180   2.631   4.559
 2376SOL    HW2 8028   6.211   2.791   4.568
 2377SOL     OW 8029   3.693   2.995   3.962
 2377SOL    HW1 8030   3.648   3.084   3.966
 2377SOL    HW2 8031   3.753   2.991   3.882
 2378SOL     OW 8032   5.354   2.662   0.649
 2378SOL    HW1 8033   5.428   2.687   0.711
 2378SOL    HW2 8034   5.297   2.592   0.692
 2379SOL     OW 8035   6.707   6.885   6.461
 2379SOL    HW1 8036   6.759   6.840   6.389
 2379SOL    HW2 8037   6.609   6.880   6.439
 2380SOL     OW 8038   6.486   1.725   2.589
 2380SOL    HW1 8039   6.557   1.794   2.601
 2380SOL    HW2 8040   6.401   1.758   2.630
 2381SOL     OW 8041   2.032   6.189   2.746
 2381SOL    HW1 8042   2.029   6.274   2.799
 2381SOL    HW2 8043   2.000   6.114   2.803
 2382SOL     OW 8044   1.291   3.292   5.652
 2382SOL    HW1 8045   1.331   3.359   5.714
 2382SOL    HW2 8046   1.326   3.201   5.675
 2383SOL     OW 8047   5.955   5.883   2.230
 2383SOL    HW1 8048   5.889   5.843   2.167
 2383SOL    HW2 8049   5.930   5.859   2.324
 2384SOL     OW 8050   4.225   1.452   1.826
 2384SOL    HW1 8051   4.321   1.434   1.847
 2384SOL    HW2 8052   4.175   1.366   1.821
 2385SOL     OW 8053   0.914   2.849   0.166
 2385SOL    HW1 8054   0.895   2.948   0.162
 2385SOL    HW2 8055   0.833   2.799   0.137
 2386SOL     OW 8056   4.356   5.318   3.932
 2386SOL    HW1 8057   4.440   5.289   3.978
 2386SOL    HW2 8058   4.308   5.238   3.896
 2387SOL     OW 8059   1.544   1.377   2.910
 2387SOL    HW1 8060   1.603   1.456   2.925
 2387SOL    HW2 8061   1.462   1.385   2.967
 2388SOL     OW 8062   6.771   1.824   3.978
 2388SOL    HW1 8063   6.746   1.758   4.050
 2388SOL    HW2 8064   6.801   1.909   4.020
 2389SOL     OW 8065   3.299   6.222   2.566
 2389SOL    HW1 8066   3.367   6.257   2.631
 2389SOL    HW2 8067   3.269   6.297   2.506
 2390SOL     OW 8068   3.263   4.246   1.183
 2390SOL    HW1 8069   3.326   4.305   1.132
 2390SOL    HW2 8070   3.312   4.164   1.213
 2391SOL     OW 8071   4.156   5.506   5.056
 2391SOL    HW1 8072   4.204   5.560   4.986
 2391SOL    HW2 8073   4.217   5.435   5.091
 2392SOL     OW 8074   3.912   1.357   6.618
 2392SOL    HW1 8075   3.926   1.281   6.556
 2392SOL    HW2 8076   3.972   1.433   6.592
 2393SOL     OW 8077   3.412   5.068   4.949
 2393SOL    HW1 8078   3.486   5.085   4.884
 2393SOL    HW2 8079   3.414   4.972   4.977
 2394SOL     OW 8080   6.896   4.662   5.872
 2394SOL    HW1 8081   6.926   4.685   5.965
 2394SOL    HW2 8082   6.954   4.589   5.836
 2395SOL     OW 8083   4.679   6.735   6.550
 2395SOL    HW1 8084   4.749   6.667   6.572
 2395SOL    HW2 8085   4.621   6.701   6.476
 2396SOL     OW 8086   3.658   5.302   0.716
 2396SOL    HW1 8087   3.563   5.294   0.686
 2396SOL    HW2 8088   3.706   5.216   0.700
 2397SOL     OW 8089   0.432   3.566   4.312
 2397SOL    HW1 8090   0.380   3.568   4.227
 2397SOL    HW2 8091   0.427   3.474   4.352
 2398SOL     OW 8092   4.691   3.825   5.328
 2398SOL    HW1 8093   4.747   3.824   5.411
 2398SOL    HW2 8094   4.630   3.746   5.327
 2399SOL     OW 8095   4.222   2.289   1.406
 2399SOL    HW1 8096   4.176   2.351   1.470
 2399SOL    HW2 8097   4.154   2.231   1.362
 2400SOL     OW 8098   1.865   5.004   0.233
 2400SOL    HW1 8099   1.838   5.100   0.240
 2400SOL    HW2 8100   1.928   4.992   0.157
 2401SOL     OW 8101   6.864   5.930   6.290
 2401SOL    HW1 8102   6.772   5.963   6.273
 2401SOL    HW2 8103   6.928   6.007   6.288
 2402SOL     OW 8104   6.641   6.345   3.901
 2402SOL    HW1 8105   6.680   6.292   3.977
 2402SOL    HW2 8106   6.715   6.390   3.851
 2403SOL     OW 8107   0.704   1.344   4.980
 2403SOL    HW1 8108   0.663   1.254   4.997
 2403SOL    HW2 8109   0.727   1.352   4.883
 2404SOL     OW 8110   1.163   0.531   0.296
 2404SOL    HW1 8111   1.258   0.512   0.318
 2404SOL    HW2 8112   1.105   0.456   0.330
 2405SOL     OW 8113   2.726   4.189   1.262
 2405SOL    HW1 8114   2.787   4.214   1.338
 2405SOL    HW2 8115   2.669   4.112   1.289
 2406SOL     OW 8116   4.861   0.903   1.496
 2406SOL    HW1 8117   4.818   0.993   1.483
 2406SOL    HW2 8118   4.836   0.843   1.420
 2407SOL     OW 8119   5.018   6.972   3.450
 2407SOL    HW1 8120   5.044   0.040   3.489
 2407SOL    HW2 8121   4.940   6.935   3.502
 2408SOL     OW 8122   4.124   5.167   2.332
 2408SOL    HW1 8123   4.052   5.231   2.360
 2408SOL    HW2 8124   4.163   5.124   2.414
 2409SOL     OW 8125   1.593   4.453   0.591
 2409SOL    HW1 8126   1.510   4.447   0.535
 2409SOL    HW2 8127   1.648   4.371   0.579
 2410SOL     OW 8128   3.813   2.982   3.127
 2410SOL    HW1 8129   3.849   2.901   3.174
 2410SOL    HW2 8130   3.873   3.060   3.147
 2411SOL     OW 8131   4.194   0.660   4.096
 2411SOL    HW1 8132   4.257   0.697   4.164
 2411SOL    HW2 8133   4.200   0.713   4.012
 2412SOL     OW 8134   4.183   3.593   1.169
 2412SOL    HW1 8135   4.139   3.588   1.079
 2412SOL    HW2 8136   4.271   3.546   1.165
 2413SOL     OW 8137   4.216   0.023   3.049
 2413SOL    HW1 8138   4.220   6.946   3.028
 2413SOL    HW2 8139   4.214   0.035   3.149
 2414SOL     OW 8140   5.332   3.365   4.269
 2414SOL    HW1 8141   5.344   3.278   4.221
 2414SOL    HW2 8142   5.420   3.395   4.306
 2415SOL     OW 8143   4.259   0.733   3.564
 2415SOL    HW1 8144   4.169   0.751   3.605
 2415SOL    HW2 8145   4.297   0.818   3.529
 2416SOL     OW 8146   5.509   2.057   6.746
 2416SOL    HW1 8147   5.559   2.050   6.833
 2416SOL    HW2 8148   5.547   1.993   6.680
 2417SOL     OW 8149   3.107   4.097   5.541
 2417SOL    HW1 8150   3.174   4.061   5.476
 2417SOL    HW2 8151   3.021   4.114   5.493
 2418SOL     OW 8152   3.272   2.966   2.898
 2418SOL    HW1 8153   3.323   2.924   2.974
 2418SOL    HW2 8154   3.238   3.056   2.925
 2419SOL     OW 8155   0.101   0.581   3.521
 2419SOL    HW1 8156   0.122   0.553   3.615
 2419SOL    HW2 8157   0.028   0.524   3.484
 2420SOL     OW 8158   2.082   0.035   1.510
 2420SOL    HW1 8159   2.028   0.119   1.509
 2420SOL    HW2 8160   2.021   6.977   1.517
 2421SOL     OW 8161   3.484   1.788   3.046
 2421SOL    HW1 8162   3.450   1.846   3.121
 2421SOL    HW2 8163   3.479   1.692   3.073
 2422SOL     OW 8164   5.400   1.965   1.005
 2422SOL    HW1 8165   5.477   2.011   0.960
 2422SOL    HW2 8166   5.357   1.901   0.941
 2423SOL     OW 8167   1.795   4.856   2.570
 2423SOL    HW1 8168   1.861   4.782   2.555
 2423SOL    HW2 8169   1.786   4.910   2.487
 2424SOL     OW 8170   6.619   0.325   0.190
 2424SOL    HW1 8171   6.570   0.238   0.183
 2424SOL    HW2 8172   6.626   0.366   0.099
 2425SOL     OW 8173   6.802   6.981   4.484
 2425SOL    HW1 8174   6.775   0.056   4.500
 2425SOL    HW2 8175   6.811   6.964   4.386
 2426SOL     OW 8176   2.299   4.725   4.328
 2426SOL    HW1 8177   2.200   4.724   4.338
 2426SOL    HW2 8178   2.338   4.792   4.392
 2427SOL     OW 8179   6.324   6.956   5.638
 2427SOL    HW1 8180   6.283   0.027   5.632
 2427SOL    HW2 8181   6.372   6.947   5.726
 2428SOL     OW 8182   5.600   1.212   0.456
 2428SOL    HW1 8183   5.624   1.241   0.549
 2428SOL    HW2 8184   5.630   1.282   0.391
 2429SOL     OW 8185   4.635   5.071   2.433
 2429SOL    HW1 8186   4.712   5.078   2.369
 2429SOL    HW2 8187   4.584   4.987   2.412
 2430SOL     OW 8188   4.459   6.836   2.757
 2430SOL    HW1 8189   4.552   6.849   2.793
 2430SOL    HW2 8190   4.464   6.788   2.670
 2431SOL     OW 8191   4.291   0.145   2.193
 2431SOL    HW1 8192   4.351   0.097   2.257
 2431SOL    HW2 8193   4.316   0.242   2.190
 2432SOL     OW 8194   2.456   6.319   2.294
 2432SOL    HW1 8195   2.500   6.258   2.229
 2432SOL    HW2 8196   2.358   6.326   2.272
 2433SOL     OW 8197   4.865   0.545   0.665
 2433SOL    HW1 8198   4.956   0.549   0.706
 2433SOL    HW2 8199   4.873   0.534   0.566
 2434SOL     OW 8200   3.316   2.927   4.414
 2434SOL    HW1 8201   3.392   2.952   4.354
 2434SOL    HW2 8202   3.263   2.854   4.371
 2435SOL     OW 8203   5.959   6.082   6.257
 2435SOL    HW1 8204   5.997   6.069   6.349
 2435SOL    HW2 8205   5.994   6.167   6.218
 2436SOL     OW 8206   2.814   4.563   0.781
 2436SOL    HW1 8207   2.816   4.518   0.871
 2436SOL    HW2 8208   2.894   4.535   0.728
 2437SOL     OW 8209   6.889   0.754   5.553
 2437SOL    HW1 8210   6.861   0.827   5.616
 2437SOL    HW2 8211   6.833   0.673   5.570
 2438SOL     OW 8212   3.609   3.236   0.799
 2438SOL    HW1 8213   3.571   3.196   0.883
 2438SOL    HW2 8214   3.536   3.249   0.732
 2439SOL     OW 8215   6.133   4.499   5.971
 2439SOL    HW1 8216   6.205   4.430   5.983
 2439SOL    HW2 8217   6.146   4.545   5.883
 2440SOL     OW 8218   6.177   5.091   5.355
 2440SOL    HW1 8219   6.100   5.085   5.419
 2440SOL    HW2 8220   6.162   5.027   5.280
 2441SOL     OW 8221   6.279   2.384   0.542
 2441SOL    HW1 8222   6.217   2.308   0.560
 2441SOL    HW2 8223   6.226   2.470   0.541
 2442SOL     OW 8224   6.465   1.918   4.761
 2442SOL    HW1 8225   6.472   2.018   4.762
 2442SOL    HW2 8226   6.369   1.891   4.766
 2443SOL     OW 8227   2.687   4.799   5.654
 2443SOL    HW1 8228   2.658   4.895   5.651
 2443SOL    HW2 8229   2.624   4.744   5.600
 2444SOL     OW 8230   3.991   2.598   5.979
 2444SOL    HW1 8231   4.026   2.689   5.957
 2444SOL    HW2 8232   3.916   2.575   5.917
 2445SOL     OW 8233   1.246   0.247   0.685
 2445SOL    HW1 8234   1.162   0.298   0.702
 2445SOL    HW2 8235   1.303   0.297   0.620
 2446SOL     OW 8236   4.750   3.095   6.438
 2446SOL    HW1 8237   4.749   3.064   6.533
 2446SOL    HW2 8238   4.715   3.023   6.378
 2447SOL     OW 8239   1.218   3.497   6.468
 2447SOL    HW1 8240   1.152   3.437   6.423
 2447SOL    HW2 8241   1.310   3.474   6.437
 2448SOL     OW 8242   6.736   0.449   4.660
 2448SOL    HW1 8243   6.739   0.540   4.702
 2448SOL    HW2 8244   6.792   0.386   4.714
 2449SOL     OW 8245   0.049   3.026   5.811
 2449SOL    HW1 8246   0.027   3.109   5.760
 2449SOL    HW2 8247   0.147   3.008   5.804
 2450SOL     OW 8248   2.513   3.552   1.435
 2450SOL    HW1 8249   2.596   3.580   1.484
 2450SOL    HW2 8250   2.434   3.601   1.472
 2451SOL     OW 8251   1.832   5.649   3.824
 2451SOL    HW1 8252   1.775   5.717   3.777
 2451SOL    HW2 8253   1.811   5.651   3.922
 2452SOL     OW 8254   2.457   2.205   5.067
 2452SOL    HW1 8255   2.361   2.200   5.039
 2452SOL    HW2 8256   2.516   2.198   4.987
 2453SOL     OW 8257   0.225   4.303   1.080
 2453SOL    HW1 8258   0.201   4.206   1.071
 2453SOL    HW2 8259   0.215   4.349   0.992
 2454SOL     OW 8260   1.192   0.134   2.140
 2454SOL    HW1 8261   1.187   0.034   2.129
 2454SOL    HW2 8262   1.120   0.177   2.086
 2455SOL     OW 8263   5.414   3.521   1.308
 2455SOL    HW1 8264   5.452   3.552   1.395
 2455SOL    HW2 8265   5.356   3.441   1.324
 2456SOL     OW 8266   2.769   6.833   1.506
 2456SOL    HW1 8267   2.773   6.930   1.528
 2456SOL    HW2 8268   2.745   6.781   1.588
 2457SOL     OW 8269   5.762   5.830   1.150
 2457SOL    HW1 8270   5.787   5.908   1.093
 2457SOL    HW2 8271   5.669   5.800   1.127
 2458SOL     OW 8272   0.708   6.449   1.560
 2458SOL    HW1 8273   0.653   6.439   1.643
 2458SOL    HW2 8274   0.796   6.404   1.573
 2459SOL     OW 8275   1.162   1.669   0.196
 2459SOL    HW1 8276   1.190   1.573   0.203
 2459SOL    HW2 8277   1.243   1.726   0.185
 2460SOL     OW 8278   2.576   4.406   1.183
 2460SOL    HW1 8279   2.492   4.447   1.218
 2460SOL    HW2 8280   2.619   4.350   1.254
 2461SOL     OW 8281   4.444   1.523   3.195
 2461SOL    HW1 8282   4.500   1.580   3.254
 2461SOL    HW2 8283   4.455   1.427   3.220
 2462SOL     OW 8284   3.067   4.181   6.258
 2462SOL    HW1 8285   3.024   4.200   6.169
 2462SOL    HW2 8286   3.032   4.245   6.326
 2463SOL     OW 8287   0.816   2.955   5.247
 2463SOL    HW1 8288   0.759   3.014   5.304
 2463SOL    HW2 8289   0.894   3.008   5.213
 2464SOL     OW 8290   0.864   3.336   0.414
 2464SOL    HW1 8291   0.850   3.422   0.462
 2464SOL    HW2 8292   0.938   3.284   0.457
 2465SOL     OW 8293   6.235   4.611   2.814
 2465SOL    HW1 8294   6.234   4.613   2.914
 2465SOL    HW2 8295   6.170   4.542   2.782
 2466SOL     OW 8296   3.606   1.730   1.543
 2466SOL    HW1 8297   3.674   1.769   1.605
 2466SOL    HW2 8298   3.618   1.769   1.451
 2467SOL     OW 8299   0.666   1.077   4.933
 2467SOL    HW1 8300   0.665   1.075   4.833
 2467SOL    HW2 8301   0.706   0.991   4.967
 2468SOL     OW 8302   6.128   5.274   6.655
 2468SOL    HW1 8303   6.047   5.227   6.621
 2468SOL    HW2 8304   6.122   5.372   6.634
 2469SOL     OW 8305   2.728   2.581   6.011
 2469SOL    HW1 8306   2.768   2.492   6.036
 2469SOL    HW2 8307   2.630   2.569   5.994
 2470SOL     OW 8308   5.223   2.687   1.271
 2470SOL    HW1 8309   5.274   2.706   1.355
 2470SOL    HW2 8310   5.126   2.710   1.285
 2471SOL     OW 8311   0.184   1.414   2.957
 2471SOL    HW1 8312   0.181   1.470   2.874
 2471SOL    HW2 8313   0.092   1.378   2.976
 2472SOL     OW 8314   6.171   0.700   3.692
 2472SOL    HW1 8315   6.144   0.715   3.787
 2472SOL    HW2 8316   6.264   0.734   3.678
 2473SOL     OW 8317   0.433   6.176   4.873
 2473SOL    HW1 8318   0.530   6.155   4.862
 2473SOL    HW2 8319   0.399   6.138   4.959
 2474SOL     OW 8320   6.463   6.641   4.514
 2474SOL    HW1 8321   6.393   6.621   4.583
 2474SOL    HW2 8322   6.488   6.738   4.519
 2475SOL     OW 8323   3.539   2.350   6.013
 2475SOL    HW1 8324   3.540   2.316   6.108
 2475SOL    HW2 8325   3.478   2.428   6.006
 2476SOL     OW 8326   0.723   1.356   3.640
 2476SOL    HW1 8327   0.661   1.385   3.713
 2476SOL    HW2 8328   0.814   1.394   3.657
 2477SOL     OW 8329   4.559   4.408   2.532
 2477SOL    HW1 8330   4.639   4.460   2.504
 2477SOL    HW2 8331   4.495   4.469   2.580
 2478SOL     OW 8332   6.652   0.655   2.289
 2478SOL    HW1 8333   6.655   0.565   2.334
 2478SOL    HW2 8334   6.655   0.644   2.190
 2479SOL     OW 8335   1.150   3.466   0.114
 2479SOL    HW1 8336   1.240   3.427   0.097
 2479SOL    HW2 8337   1.159   3.562   0.140
 2480SOL     OW 8338   6.813   5.181   1.643
 2480SOL    HW1 8339   6.828   5.204   1.547
 2480SOL    HW2 8340   6.899   5.189   1.693
 2481SOL     OW 8341   4.298   4.714   2.397
 2481SOL    HW1 8342   4.306   4.616   2.414
 2481SOL    HW2 8343   4.214   4.733   2.347
 2482SOL     OW 8344   4.315   2.385   4.350
 2482SOL    HW1 8345   4.236   2.445   4.335
 2482SOL    HW2 8346   4.397   2.441   4.362
 2483SOL     OW 8347   1.171   3.805   0.252
 2483SOL    HW1 8348   1.168   3.823   0.153
 2483SOL    HW2 8349   1.264   3.823   0.285
 2484SOL     OW 8350   3.584   4.725   5.821
 2484SOL    HW1 8351   3.529   4.728   5.904
 2484SOL    HW2 8352   3.593   4.630   5.790
 2485SOL     OW 8353   0.807   5.219   6.947
 2485SOL    HW1 8354   0.894   5.172   6.942
 2485SOL    HW2 8355   0.772   5.216   0.021
 2486SOL     OW 8356   0.864   5.170   3.433
 2486SOL    HW1 8357   0.902   5.176   3.525
 2486SOL    HW2 8358   0.770   5.204   3.433
 2487SOL     OW 8359   2.938   1.363   1.151
 2487SOL    HW1 8360   2.993   1.446   1.155
 2487SOL    HW2 8361   2.919   1.332   1.244
 2488SOL     OW 8362   2.999   5.716   6.513
 2488SOL    HW1 8363   3.070   5.744   6.448
 2488SOL    HW2 8364   3.014   5.621   6.540
 2489SOL     OW 8365   6.923   5.429   4.501
 2489SOL    HW1 8366   6.867   5.397   4.425
 2489SOL    HW2 8367   6.967   5.515   4.476
 2490SOL     OW 8368   5.799   2.961   1.311
 2490SOL    HW1 8369   5.817   3.049   1.356
 2490SOL    HW2 8370   5.714   2.967   1.259
 2491SOL     OW 8371   6.488   3.762   2.702
 2491SOL    HW1 8372   6.540   3.825   2.645
 2491SOL    HW2 8373   6.550   3.713   2.764
 2492SOL     OW 8374   4.218   1.766   6.876
 2492SOL    HW1 8375   4.159   1.729   6.949
 2492SOL    HW2 8376   4.313   1.750   6.900
 2493SOL     OW 8377   6.499   0.768   5.402
 2493SOL    HW1 8378   6.400   0.773   5.415
 2493SOL    HW2 8379   6.533   0.682   5.439
 2494SOL     OW 8380   5.275   5.121   0.715
 2494SOL    HW1 8381   5.237   5.110   0.623
 2494SOL    HW2 8382   5.365   5.075   0.720
 2495SOL     OW 8383   0.394   1.078   2.508
 2495SOL    HW1 8384   0.355   0.988   2.524
 2495SOL    HW2 8385   0.375   1.137   2.587
 2496SOL     OW 8386   2.181   4.689   0.464
 2496SOL    HW1 8387   2.124   4.620   0.508
 2496SOL    HW2 8388   2.262   4.645   0.424
 2497SOL     OW 8389   5.948   1.362   6.772
 2497SOL    HW1 8390   5.882   1.330   6.705
 2497SOL    HW2 8391   5.929   1.319   6.861
 2498SOL     OW 8392   0.892   2.783   4.438
 2498SOL    HW1 8393   0.981   2.827   4.431
 2498SOL    HW2 8394   0.828   2.844   4.486
 2499SOL     OW 8395   5.141   0.934   6.962
 2499SOL    HW1 8396   5.173   0.960   0.032
 2499SOL    HW2 8397   5.161   0.838   6.945
 2500SOL     OW 8398   5.092   3.357   5.843
 2500SOL    HW1 8399   5.042   3.397   5.920
 2500SOL    HW2 8400   5.054   3.267   5.823
 2501SOL     OW 8401   6.807   4.922   1.184
 2501SOL    HW1 8402   6.721   4.946   1.137
 2501SOL    HW2 8403   6.855   5.006   1.210
 2502SOL     OW 8404   1.062   6.598   3.341
 2502SOL    HW1 8405   1.143   6.646   3.307
 2502SOL    HW2 8406   1.065   6.502   3.311
 2503SOL     OW 8407   5.347   6.365   4.155
 2503SOL    HW1 8408   5.275   6.337   4.091
 2503SOL    HW2 8409   5.412   6.290   4.167
 2504SOL     OW 8410   2.511   4.870   2.924
 2504SOL    HW1 8411   2.482   4.890   2.831
 2504SOL    HW2 8412   2.572   4.791   2.923
 2505SOL     OW 8413   5.253   3.985   4.858
 2505SOL    HW1 8414   5.181   3.984   4.788
 2505SOL    HW2 8415   5.210   3.977   4.948
 2506SOL     OW 8416   0.706   1.100   0.510
 2506SOL    HW1 8417   0.774   1.172   0.497
 2506SOL    HW2 8418   0.659   1.113   0.597
 2507SOL     OW 8419   6.646   6.421   0.430
 2507SOL    HW1 8420   6.610   6.512   0.413
 2507SOL    HW2 8421   6.696   6.421   0.517
 2508SOL     OW 8422   1.949   1.841   1.535
 2508SOL    HW1 8423   1.874   1.853   1.469
 2508SOL    HW2 8424   2.036   1.855   1.489
 2509SOL     OW 8425   5.898   6.852   3.626
 2509SOL    HW1 8426   5.996   6.855   3.603
 2509SOL    HW2 8427   5.861   6.763   3.599
 2510SOL     OW 8428   3.745   5.946   2.330
 2510SOL    HW1 8429   3.738   5.847   2.327
 2510SOL    HW2 8430   3.758   5.976   2.425
 2511SOL     OW 8431   0.668   5.900   3.780
 2511SOL    HW1 8432   0.675   5.977   3.716
 2511SOL    HW2 8433   0.574   5.865   3.779
 2512SOL     OW 8434   6.018   3.415   4.465
 2512SOL    HW1 8435   6.018   3.315   4.469
 2512SOL    HW2 8436   5.998   3.445   4.372
 2513SOL     OW 8437   6.904   5.342   1.067
 2513SOL    HW1 8438   6.995   5.312   1.036
 2513SOL    HW2 8439   6.846   5.360   0.988
 2514SOL     OW 8440   6.930   2.048   4.064
 2514SOL    HW1 8441   6.991   2.014   3.993
 2514SOL    HW2 8442   6.973   2.126   4.110
 2515SOL     OW 8443   1.021   4.332   6.263
 2515SOL    HW1 8444   1.083   4.344   6.185
 2515SOL    HW2 8445   1.072   4.297   6.341
 2516SOL     OW 8446   4.518   6.765   4.410
 2516SOL    HW1 8447   4.518   6.861   4.381
 2516SOL    HW2 8448   4.567   6.710   4.342
 2517SOL     OW 8449   2.665   5.864   0.681
 2517SOL    HW1 8450   2.584   5.819   0.719
 2517SOL    HW2 8451   2.680   5.950   0.728
 2518SOL     OW 8452   2.094   1.818   6.996
 2518SOL    HW1 8453   2.031   1.875   6.944
 2518SOL    HW2 8454   2.075   1.828   0.074
 2519SOL     OW 8455   6.136   4.095   4.734
 2519SOL    HW1 8456   6.064   4.087   4.803
 2519SOL    HW2 8457   6.137   4.188   4.697
 2520SOL     OW 8458   4.035   5.795   0.748
 2520SOL    HW1 8459   3.986   5.851   0.682
 2520SOL    HW2 8460   3.971   5.732   0.792
 2521SOL     OW 8461   5.559   6.455   5.817
 2521SOL    HW1 8462   5.504   6.505   5.883
 2521SOL    HW2 8463   5.567   6.508   5.733
 2522SOL     OW 8464   2.394   4.857   5.175
 2522SOL    HW1 8465   2.383   4.872   5.274
 2522SOL    HW2 8466   2.475   4.802   5.159
 2523SOL     OW 8467   0.732   2.229   6.417
 2523SOL    HW1 8468   0.700   2.310   6.468
 2523SOL    HW2 8469   0.797   2.178   6.473
 2524SOL     OW 8470   1.643   0.135   4.337
 2524SOL    HW1 8471   1.601   0.064   4.280
 2524SOL    HW2 8472   1.636   0.223   4.290
 2525SOL     OW 8473   2.771   4.751   2.166
 2525SOL    HW1 8474   2.772   4.698   2.081
 2525SOL    HW2 8475   2.677   4.758   2.200
 2526SOL     OW 8476   1.554   2.986   4.496
 2526SOL    HW1 8477   1.600   2.901   4.474
 2526SOL    HW2 8478   1.601   3.062   4.451
 2527SOL     OW 8479   6.955   6.629   3.859
 2527SOL    HW1 8480   6.869   6.669   3.891
 2527SOL    HW2 8481   0.006   6.646   3.926
 2528SOL     OW 8482   5.525   5.161   1.022
 2528SOL    HW1 8483   5.582   5.114   1.090
 2528SOL    HW2 8484   5.557   5.255   1.011
 2529SOL     OW 8485   5.188   4.187   5.247
 2529SOL    HW1 8486   5.215   4.159   5.339
 2529SOL    HW2 8487   5.220   4.280   5.229
 2530SOL     OW 8488   1.143   6.358   3.198
 2530SOL    HW1 8489   1.073   6.340   3.128
 2530SOL    HW2 8490   1.176   6.272   3.235
 2531SOL     OW 8491   5.635   2.380   6.376
 2531SOL    HW1 8492   5.707   2.366   6.308
 2531SOL    HW2 8493   5.594   2.293   6.400
 2532SOL     OW 8494   0.569   5.601   6.253
 2532SOL    HW1 8495   0.576   5.512   6.297
 2532SOL    HW2 8496   0.564   5.590   6.154
 2533SOL     OW 8497   5.599   1.002   4.547
 2533SOL    HW1 8498   5.602   0.902   4.553
 2533SOL    HW2 8499   5.503   1.032   4.544
 2534SOL     OW 8500   6.493   1.361   2.898
 2534SOL    HW1 8501   6.398   1.336   2.879
 2534SOL    HW2 8502   6.496   1.446   2.949
 2535SOL     OW 8503   2.790   0.647   1.714
 2535SOL    HW1 8504   2.760   0.588   1.638
 2535SOL    HW2 8505   2.852   0.716   1.679
 2536SOL     OW 8506   1.123   0.424   3.296
 2536SOL    HW1 8507   1.209   0.426   3.347
 2536SOL    HW2 8508   1.047   0.411   3.360
 2537SOL     OW 8509   2.217   6.277   2.168
 2537SOL    HW1 8510   2.279   6.226   2.108
 2537SOL    HW2 8511   2.123   6.253   2.147
 2538SOL     OW 8512   0.088   5.362   5.139
 2538SOL    HW1 8513   0.135   5.449   5.122
 2538SOL    HW2 8514   0.065   5.319   5.052
 2539SOL     OW 8515   1.124   0.131   5.484
 2539SOL    HW1 8516   1.196   0.186   5.441
 2539SOL    HW2 8517   1.165   0.052   5.529
 2540SOL     OW 8518   5.233   2.729   1.996
 2540SOL    HW1 8519   5.197   2.637   2.008
 2540SOL    HW2 8520   5.185   2.775   1.921
 2541SOL     OW 8521   1.422   1.045   0.154
 2541SOL    HW1 8522   1.341   1.036   0.097
 2541SOL    HW2 8523   1.474   1.126   0.126
 2542SOL     OW 8524   4.169   1.963   2.581
 2542SOL    HW1 8525   4.160   1.877   2.532
 2542SOL    HW2 8526   4.088   2.019   2.565
 2543SOL     OW 8527   6.140   6.308   5.103
 2543SOL    HW1 8528   6.183   6.227   5.144
 2543SOL    HW2 8529   6.045   6.287   5.079
 2544SOL     OW 8530   6.913   0.196   0.510
 2544SOL    HW1 8531   6.924   0.274   0.448
 2544SOL    HW2 8532   6.977   0.205   0.587
 2545SOL     OW 8533   6.888   1.710   0.268
 2545SOL    HW1 8534   6.880   1.714   0.368
 2545SOL    HW2 8535   6.878   1.615   0.239
 2546SOL     OW 8536   6.018   3.410   2.502
 2546SOL    HW1 8537   5.927   3.368   2.499
 2546SOL    HW2 8538   6.010   3.509   2.491
 2547SOL     OW 8539   5.727   3.936   1.293
 2547SOL    HW1 8540   5.772   4.016   1.254
 2547SOL    HW2 8541   5.795   3.872   1.327
 2548SOL     OW 8542   6.354   0.324   5.430
 2548SOL    HW1 8543   6.400   0.344   5.517
 2548SOL    HW2 8544   6.354   0.225   5.416
 2549SOL     OW 8545   2.892   4.964   6.713
 2549SOL    HW1 8546   2.831   4.987   6.636
 2549SOL    HW2 8547   2.838   4.928   6.789
 2550SOL     OW 8548   3.760   0.681   0.742
 2550SOL    HW1 8549   3.815   0.740   0.683
 2550SOL    HW2 8550   3.807   0.669   0.829
 2551SOL     OW 8551   3.880   4.485   1.400
 2551SOL    HW1 8552   3.822   4.441   1.331
 2551SOL    HW2 8553   3.899   4.579   1.372
 2552SOL     OW 8554   3.001   5.508   1.283
 2552SOL    HW1 8555   2.983   5.600   1.249
 2552SOL    HW2 8556   3.094   5.504   1.319
 2553SOL     OW 8557   4.557   1.671   0.780
 2553SOL    HW1 8558   4.656   1.670   0.792
 2553SOL    HW2 8559   4.513   1.631   0.860
 2554SOL     OW 8560   1.207   6.062   1.120
 2554SOL    HW1 8561   1.145   5.984   1.126
 2554SOL    HW2 8562   1.258   6.058   1.034
 2555SOL     OW 8563   0.526   6.619   5.296
 2555SOL    HW1 8564   0.596   6.620   5.225
 2555SOL    HW2 8565   0.453   6.556   5.271
 2556SOL     OW 8566   5.750   0.504   1.300
 2556SOL    HW1 8567   5.834   0.467   1.338
 2556SOL    HW2 8568   5.746   0.484   1.202
 2557SOL     OW 8569   2.678   1.242   6.796
 2557SOL    HW1 8570   2.692   1.249   6.895
 2557SOL    HW2 8571   2.660   1.147   6.771
 2558SOL     OW 8572   6.006   2.983   1.100
 2558SOL    HW1 8573   6.034   3.079   1.108
 2558SOL    HW2 8574   5.965   2.953   1.186
 2559SOL     OW 8575   6.204   4.890   3.462
 2559SOL    HW1 8576   6.174   4.985   3.461
 2559SOL    HW2 8577   6.291   4.883   3.510
 2560SOL     OW 8578   4.326   2.664   1.625
 2560SOL    HW1 8579   4.244   2.606   1.625
 2560SOL    HW2 8580   4.391   2.629   1.693
 2561SOL     OW 8581   3.824   0.377   4.337
 2561SOL    HW1 8582   3.783   0.461   4.372
 2561SOL    HW2 8583   3.773   0.298   4.370
 2562SOL     OW 8584   1.491   6.296   4.926
 2562SOL    HW1 8585   1.492   6.244   4.841
 2562SOL    HW2 8586   1.579   6.342   4.938
 2563SOL     OW 8587   4.499   2.735   6.589
 2563SOL    HW1 8588   4.420   2.791   6.568
 2563SOL    HW2 8589   4.535   2.694   6.505
 2564SOL     OW 8590   1.498   1.529   1.432
 2564SOL    HW1 8591   1.596   1.547   1.435
 2564SOL    HW2 8592   1.468   1.495   1.520
 2565SOL     OW 8593   0.034   0.659   1.194
 2565SOL    HW1 8594   6.978   0.594   1.192
 2565SOL    HW2 8595   0.121   0.609   1.197
 2566SOL     OW 8596   2.324   1.054   0.236
 2566SOL    HW1 8597   2.299   1.071   0.331
 2566SOL    HW2 8598   2.422   1.038   0.229
 2567SOL     OW 8599   2.150   0.626   6.129
 2567SOL    HW1 8600   2.206   0.708   6.115
 2567SOL    HW2 8601   2.056   0.653   6.149
 2568SOL     OW 8602   3.005   6.237   0.800
 2568SOL    HW1 8603   3.002   6.236   0.700
 2568SOL    HW2 8604   3.063   6.162   0.832
 2569SOL     OW 8605   2.703   6.081   6.558
 2569SOL    HW1 8606   2.738   6.175   6.561
 2569SOL    HW2 8607   2.697   6.045   6.651
 2570SOL     OW 8608   0.112   0.245   3.297
 2570SOL    HW1 8609   0.080   0.321   3.241
 2570SOL    HW2 8610   0.204   0.264   3.330
 2571SOL     OW 8611   3.479   3.610   2.683
 2571SOL    HW1 8612   3.497   3.638   2.589
 2571SOL    HW2 8613   3.565   3.584   2.727
 2572SOL     OW 8614   3.007   6.135   2.286
 2572SOL    HW1 8615   2.997   6.192   2.205
 2572SOL    HW2 8616   3.101   6.102   2.293
 2573SOL     OW 8617   6.409   0.661   2.978
 2573SOL    HW1 8618   6.465   0.670   3.061
 2573SOL    HW2 8619   6.467   0.629   2.903
 2574SOL     OW 8620   0.261   4.334   2.080
 2574SOL    HW1 8621   0.291   4.355   1.987
 2574SOL    HW2 8622   0.326   4.373   2.145
 2575SOL     OW 8623   4.515   3.620   5.353
 2575SOL    HW1 8624   4.549   3.572   5.272
 2575SOL    HW2 8625   4.510   3.556   5.430
 2576SOL     OW 8626   0.289   0.365   2.730
 2576SOL    HW1 8627   0.261   0.388   2.823
 2576SOL    HW2 8628   0.239   0.421   2.665
 2577SOL     OW 8629   1.887   4.471   0.814
 2577SOL    HW1 8630   1.936   4.386   0.830
 2577SOL    HW2 8631   1.808   4.476   0.875
 2578SOL     OW 8632   4.567   2.174   4.832
 2578SOL    HW1 8633   4.548   2.205   4.925
 2578SOL    HW2 8634   4.486   2.126   4.796
 2579SOL     OW 8635   0.025   1.732   6.328
 2579SOL    HW1 8636   6.998   1.696   6.408
 2579SOL    HW2 8637   0.053   1.657   6.269
 2580SOL     OW 8638   1.790   1.882   5.682
 2580SOL    HW1 8639   1.879   1.884   5.727
 2580SOL    HW2 8640   1.732   1.813   5.726
 2581SOL     OW 8641   5.005   6.516   4.231
 2581SOL    HW1 8642   5.058   6.432   4.224
 2581SOL    HW2 8643   4.938   6.507   4.305
 2582SOL     OW 8644   6.563   3.994   3.019
 2582SOL    HW1 8645   6.544   3.959   3.111
 2582SOL    HW2 8646   6.521   3.934   2.951
 2583SOL     OW 8647   2.590   1.037   0.218
 2583SOL    HW1 8648   2.606   1.093   0.137
 2583SOL    HW2 8649   2.677   1.005   0.255
 2584SOL     OW 8650   3.899   0.102   3.089
 2584SOL    HW1 8651   3.945   0.095   3.000
 2584SOL    HW2 8652   3.882   0.198   3.110
 2585SOL     OW 8653   3.777   0.858   2.716
 2585SOL    HW1 8654   3.689   0.901   2.737
 2585SOL    HW2 8655   3.793   0.861   2.617
 2586SOL     OW 8656   1.155   1.867   4.478
 2586SOL    HW1 8657   1.200   1.890   4.392
 2586SOL    HW2 8658   1.059   1.894   4.474
 2587SOL     OW 8659   6.497   4.799   2.915
 2587SOL    HW1 8660   6.499   4.720   2.853
 2587SOL    HW2 8661   6.591   4.822   2.941
 2588SOL     OW 8662   3.529   6.919   2.896
 2588SOL    HW1 8663   3.508   6.883   2.805
 2588SOL    HW2 8664   3.445   6.919   2.951
 2589SOL     OW 8665   4.402   6.627   2.183
 2589SOL    HW1 8666   4.325   6.575   2.219
 2589SOL    HW2 8667   4.383   6.653   2.088
 2590SOL     OW 8668   4.390   5.888   3.673
 2590SOL    HW1 8669   4.342   5.819   3.619
 2590SOL    HW2 8670   4.381   5.867   3.770
 2591SOL     OW 8671   5.961   0.328   1.372
 2591SOL    HW1 8672   5.959   0.386   1.453
 2591SOL    HW2 8673   6.055   0.308   1.347
 2592SOL     OW 8674   2.841   4.658   1.644
 2592SOL    HW1 8675   2.835   4.637   1.742
 2592SOL    HW2 8676   2.889   4.584   1.597
 2593SOL     OW 8677   2.962   0.494   3.613
 2593SOL    HW1 8678   2.963   0.526   3.708
 2593SOL    HW2 8679   3.031   0.422   3.602
 2594SOL     OW 8680   2.206   5.779   6.257
 2594SOL    HW1 8681   2.251   5.868   6.265
 2594SOL    HW2 8682   2.248   5.714   6.320
 2595SOL     OW 8683   6.536   2.921   4.963
 2595SOL    HW1 8684   6.548   2.825   4.985
 2595SOL    HW2 8685   6.518   2.930   4.865
 2596SOL     OW 8686   4.806   1.462   0.866
 2596SOL    HW1 8687   4.773   1.368   0.882
 2596SOL    HW2 8688   4.880   1.460   0.799
 2597SOL     OW 8689   2.632   2.378   6.321
 2597SOL    HW1 8690   2.611   2.359   6.225
 2597SOL    HW2 8691   2.667   2.471   6.329
 2598SOL     OW 8692   6.253   0.888   2.843
 2598SOL    HW1 8693   6.276   0.879   2.746
 2598SOL    HW2 8694   6.298   0.815   2.894
 2599SOL     OW 8695   5.173   5.942   6.342
 2599SOL    HW1 8696   5.233   5.879   6.392
 2599SOL    HW2 8697   5.167   5.915   6.246
 2600SOL     OW 8698   0.409   2.895   4.929
 2600SOL    HW1 8699   0.446   2.803   4.928
 2600SOL    HW2 8700   0.394   2.926   4.835
 2601SOL     OW 8701   4.118   4.553   5.324
 2601SOL    HW1 8702   4.171   4.533   5.242
 2601SOL    HW2 8703   4.177   4.542   5.405
 2602SOL     OW 8704   5.873   6.859   6.758
 2602SOL    HW1 8705   5.883   6.957   6.780
 2602SOL    HW2 8706   5.786   6.845   6.710
 2603SOL     OW 8707   1.667   2.008   6.763
 2603SOL    HW1 8708   1.761   1.986   6.789
 2603SOL    HW2 8709   1.654   1.990   6.666
 2604SOL     OW 8710   5.595   1.558   1.304
 2604SOL    HW1 8711   5.566   1.553   1.400
 2604SOL    HW2 8712   5.610   1.466   1.269
 2605SOL     OW 8713   5.028   2.659   5.266
 2605SOL    HW1 8714   5.088   2.724   5.219
 2605SOL    HW2 8715   4.994   2.700   5.350
 2606SOL     OW 8716   6.391   4.578   1.733
 2606SOL    HW1 8717   6.402   4.673   1.703
 2606SOL    HW2 8718   6.468   4.524   1.700
 2607SOL     OW 8719   0.888   0.915   3.583
 2607SOL    HW1 8720   0.921   1.003   3.617
 2607SOL    HW2 8721   0.789   0.911   3.590
 2608SOL     OW 8722   4.387   0.618   0.092
 2608SOL    HW1 8723   4.423   0.697   0.142
 2608SOL    HW2 8724   4.454   0.544   0.095
 2609SOL     OW 8725   0.678   3.648   3.382
 2609SOL    HW1 8726   0.718   3.672   3.293
 2609SOL    HW2 8727   0.749   3.609   3.441
 2610SOL     OW 8728   5.249   5.476   4.727
 2610SOL    HW1 8729   5.339   5.435   4.714
 2610SOL    HW2 8730   5.205   5.491   4.639
 2611SOL     OW 8731   2.695   6.080   1.877
 2611SOL    HW1 8732   2.633   6.139   1.824
 2611SOL    HW2 8733   2.743   6.018   1.815
 2612SOL     OW 8734   0.737   0.142   4.980
 2612SOL    HW1 8735   0.715   0.182   5.069
 2612SOL    HW2 8736   0.664   0.080   4.952
 2613SOL     OW 8737   3.692   1.438   0.072
 2613SOL    HW1 8738   3.628   1.499   0.119
 2613SOL    HW2 8739   3.666   1.343   0.089
 2614SOL     OW 8740   6.260   6.590   6.575
 2614SOL    HW1 8741   6.354   6.589   6.610
 2614SOL    HW2 8742   6.232   6.685   6.561
 2615SOL     OW 8743   6.889   4.338   1.363
 2615SOL    HW1 8744   6.885   4.258   1.422
 2615SOL    HW2 8745   6.799   4.380   1.357
 2616SOL     OW 8746   3.812   4.113   1.890
 2616SOL    HW1 8747   3.739   4.142   1.828
 2616SOL    HW2 8748   3.896   4.097   1.838
 2617SOL     OW 8749   2.255   6.672   1.349
 2617SOL    HW1 8750   2.353   6.651   1.351
 2617SOL    HW2 8751   2.207   6.599   1.300
 2618SOL     OW 8752   0.913   6.059   0.221
 2618SOL    HW1 8753   0.894   5.978   0.166
 2618SOL    HW2 8754   0.845   6.130   0.200
 2619SOL     OW 8755   6.315   1.229   2.013
 2619SOL    HW1 8756   6.264   1.185   1.939
 2619SOL    HW2 8757   6.273   1.317   2.034
 2620SOL     OW 8758   1.206   5.343   4.201
 2620SOL    HW1 8759   1.179   5.406   4.128
 2620SOL    HW2 8760   1.301   5.362   4.228
 2621SOL     OW 8761   0.935   6.290   4.248
 2621SOL    HW1 8762   0.981   6.261   4.331
 2621SOL    HW2 8763   0.839   6.261   4.251
 2622SOL     OW 8764   2.373   2.569   4.490
 2622SOL    HW1 8765   2.308   2.498   4.465
 2622SOL    HW2 8766   2.466   2.540   4.465
 2623SOL     OW 8767   3.237   6.720   6.110
 2623SOL    HW1 8768   3.154   6.769   6.084
 2623SOL    HW2 8769   3.286   6.691   6.027
 2624SOL     OW 8770   5.272   1.853   4.535
 2624SOL    HW1 8771   5.254   1.847   4.437
 2624SOL    HW2 8772   5.192   1.889   4.582
 2625SOL     OW 8773   2.608   6.536   6.353
 2625SOL    HW1 8774   2.580   6.628   6.382
 2625SOL    HW2 8775   2.570   6.517   6.263
 2626SOL     OW 8776   2.295   6.820   3.274
 2626SOL    HW1 8777   2.270   6.904   3.227
 2626SOL    HW2 8778   2.390   6.797   3.253
 2627SOL     OW 8779   0.996   0.072   4.875
 2627SOL    HW1 8780   0.906   0.077   4.918
 2627SOL    HW2 8781   0.986   0.083   4.776
 2628SOL     OW 8782   4.788   5.414   0.180
 2628SOL    HW1 8783   4.802   5.430   0.082
 2628SOL    HW2 8784   4.742   5.326   0.192
 2629SOL     OW 8785   2.836   3.492   1.924
 2629SOL    HW1 8786   2.867   3.402   1.956
 2629SOL    HW2 8787   2.879   3.563   1.979
 2630SOL     OW 8788   3.520   2.069   2.221
 2630SOL    HW1 8789   3.440   2.018   2.190
 2630SOL    HW2 8790   3.563   2.114   2.143
 2631SOL     OW 8791   3.255   6.585   4.329
 2631SOL    HW1 8792   3.290   6.537   4.249
 2631SOL    HW2 8793   3.284   6.537   4.412
 2632SOL     OW 8794   4.508   1.624   1.040
 2632SOL    HW1 8795   4.415   1.630   1.074
 2632SOL    HW2 8796   4.561   1.562   1.098
 2633SOL     OW 8797   6.917   2.717   0.276
 2633SOL    HW1 8798   6.854   2.648   0.240
 2633SOL    HW2 8799   6.978   2.675   0.343
 2634SOL     OW 8800   2.891   4.981   0.138
 2634SOL    HW1 8801   2.892   4.932   0.225
 2634SOL    HW2 8802   2.925   4.921   0.066
 2635SOL     OW 8803   6.484   4.408   3.426
 2635SOL    HW1 8804   6.400   4.354   3.422
 2635SOL    HW2 8805   6.544   4.372   3.498
 2636SOL     OW 8806   5.347   5.646   5.134
 2636SOL    HW1 8807   5.396   5.625   5.219
 2636SOL    HW2 8808   5.398   5.715   5.083
 2637SOL     OW 8809   5.356   5.632   2.283
 2637SOL    HW1 8810   5.364   5.731   2.273
 2637SOL    HW2 8811   5.265   5.609   2.317
 2638SOL     OW 8812   5.276   5.453   0.319
 2638SOL    HW1 8813   5.265   5.504   0.405
 2638SOL    HW2 8814   5.358   5.486   0.271
 2639SOL     OW 8815   6.722   0.081   7.002
 2639SOL    HW1 8816   6.742   0.111   6.909
 2639SOL    HW2 8817   6.807   0.050   0.026
 2640SOL     OW 8818   6.902   6.205   6.859
 2640SOL    HW1 8819   6.806   6.224   6.880
 2640SOL    HW2 8820   6.931   6.261   6.783
 2641SOL     OW 8821   0.264   5.642   1.033
 2641SOL    HW1 8822   0.270   5.560   0.975
 2641SOL    HW2 8823   0.172   5.650   1.069
 2642SOL     OW 8824   6.408   0.236   4.383
 2642SOL    HW1 8825   6.406   0.181   4.299
 2642SOL    HW2 8826   6.352   0.318   4.370
 2643SOL     OW 8827   2.104   0.376   2.183
 2643SOL    HW1 8828   2.054   0.326   2.113
 2643SOL    HW2 8829   2.052   0.456   2.211
 2644SOL     OW 8830   5.948   6.171   4.397
 2644SOL    HW1 8831   5.968   6.219   4.312
 2644SOL    HW2 8832   5.922   6.238   4.467
 2645SOL     OW 8833   5.321   5.913   6.973
 2645SOL    HW1 8834   5.356   5.995   7.018
 2645SOL    HW2 8835   5.252   5.869   0.012
 2646SOL     OW 8836   5.487   5.797   6.019
 2646SOL    HW1 8837   5.431   5.771   6.097
 2646SOL    HW2 8838   5.574   5.835   6.051
 2647SOL     OW 8839   3.229   3.906   0.561
 2647SOL    HW1 8840   3.275   3.951   0.637
 2647SOL    HW2 8841   3.132   3.927   0.562
 2648SOL     OW 8842   4.177   1.310   3.865
 2648SOL    HW1 8843   4.138   1.218   3.875
 2648SOL    HW2 8844   4.110   1.370   3.821
 2649SOL     OW 8845   2.986   4.024   5.046
 2649SOL    HW1 8846   2.912   4.091   5.039
 2649SOL    HW2 8847   3.017   4.018   5.141
 2650SOL     OW 8848   0.735   6.881   2.829
 2650SOL    HW1 8849   0.744   6.974   2.793
 2650SOL    HW2 8850   0.817   6.856   2.879
 2651SOL     OW 8851   1.248   6.996   3.057
 2651SOL    HW1 8852   1.325   7.001   2.994
 2651SOL    HW2 8853   1.197   0.061   3.054
 2652SOL     OW 8854   3.131   3.063   2.385
 2652SOL    HW1 8855   3.229   3.063   2.365
 2652SOL    HW2 8856   3.118   3.073   2.484
 2653SOL     OW 8857   6.424   6.248   1.001
 2653SOL    HW1 8858   6.417   6.172   0.936
 2653SOL    HW2 8859   6.336   6.295   1.007
 2654SOL     OW 8860   6.673   2.786   5.893
 2654SOL    HW1 8861   6.594   2.732   5.921
 2654SOL    HW2 8862   6.752   2.726   5.880
 2655SOL     OW 8863   5.539   4.822   4.066
 2655SOL    HW1 8864   5.639   4.827   4.074
 2655SOL    HW2 8865   5.513   4.846   3.972
 2656SOL     OW 8866   6.395   3.249   5.256
 2656SOL    HW1 8867   6.327   3.211   5.318
 2656SOL    HW2 8868   6.352   3.316   5.195
 2657SOL     OW 8869   4.195   2.415   5.675
 2657SOL    HW1 8870   4.098   2.416   5.651
 2657SOL    HW2 8871   4.226   2.509   5.691
 2658SOL     OW 8872   6.718   4.109   5.342
 2658SOL    HW1 8873   6.619   4.106   5.357
 2658SOL    HW2 8874   6.742   4.050   5.265
 2659SOL     OW 8875   6.722   1.251   3.884
 2659SOL    HW1 8876   6.743   1.233   3.980
 2659SOL    HW2 8877   6.702   1.165   3.837
 2660SOL     OW 8878   1.022   1.986   3.950
 2660SOL    HW1 8879   0.967   2.067   3.970
 2660SOL    HW2 8880   0.971   1.924   3.890
 2661SOL     OW 8881   3.392   6.906   3.384
 2661SOL    HW1 8882   3.482   6.868   3.367
 2661SOL    HW2 8883   3.322   6.848   3.342
 2662SOL     OW 8884   3.677   1.216   3.970
 2662SOL    HW1 8885   3.715   1.169   3.891
 2662SOL    HW2 8886   3.589   1.258   3.944
 2663SOL     OW 8887   0.858   4.183   2.715
 2663SOL    HW1 8888   0.834   4.170   2.812
 2663SOL    HW2 8889   0.794   4.131   2.658
 2664SOL     OW 8890   4.698   4.353   1.764
 2664SOL    HW1 8891   4.629   4.317   1.826
 2664SOL    HW2 8892   4.740   4.435   1.803
 2665SOL     OW 8893   4.565   0.904   4.957
 2665SOL    HW1 8894   4.660   0.887   4.932
 2665SOL    HW2 8895   4.528   0.979   4.903
 2666SOL     OW 8896   5.010   5.896   1.874
 2666SOL    HW1 8897   4.986   5.982   1.830
 2666SOL    HW2 8898   4.962   5.821   1.829
 2667SOL     OW 8899   2.148   4.869   2.584
 2667SOL    HW1 8900   2.176   4.783   2.625
 2667SOL    HW2 8901   2.113   4.852   2.491
 2668SOL     OW 8902   6.658   2.528   5.570
 2668SOL    HW1 8903   6.648   2.604   5.506
 2668SOL    HW2 8904   6.656   2.441   5.521
 2669SOL     OW 8905   4.133   5.932   4.552
 2669SOL    HW1 8906   4.053   5.936   4.611
 2669SOL    HW2 8907   4.107   5.889   4.465
 2670SOL     OW 8908   2.425   6.468   4.363
 2670SOL    HW1 8909   2.363   6.392   4.344
 2670SOL    HW2 8910   2.446   6.470   4.461
 2671SOL     OW 8911   3.087   3.944   6.853
 2671SOL    HW1 8912   3.034   3.952   6.938
 2671SOL    HW2 8913   3.035   3.891   6.786
 2672SOL     OW 8914   0.694   4.771   0.691
 2672SOL    HW1 8915   0.775   4.777   0.632
 2672SOL    HW2 8916   0.620   4.725   0.641
 2673SOL     OW 8917   3.806   2.165   2.784
 2673SOL    HW1 8918   3.757   2.171   2.871
 2673SOL    HW2 8919   3.886   2.106   2.795
 2674SOL     OW 8920   5.210   6.036   4.958
 2674SOL    HW1 8921   5.125   5.993   4.926
 2674SOL    HW2 8922   5.202   6.058   5.055
 2675SOL     OW 8923   0.165   5.115   5.563
 2675SOL    HW1 8924   0.111   5.197   5.583
 2675SOL    HW2 8925   0.151   5.048   5.635
 2676SOL     OW 8926   4.153   0.542   1.790
 2676SOL    HW1 8927   4.236   0.552   1.735
 2676SOL    HW2 8928   4.162   0.463   1.851
 2677SOL     OW 8929   2.346   4.822   1.958
 2677SOL    HW1 8930   2.441   4.796   1.943
 2677SOL    HW2 8931   2.331   4.914   1.921
 2678SOL     OW 8932   0.418   6.814   6.766
 2678SOL    HW1 8933   0.388   6.771   6.681
 2678SOL    HW2 8934   0.393   6.756   6.844
 2679SOL     OW 8935   2.348   5.045   1.796
 2679SOL    HW1 8936   2.281   5.072   1.728
 2679SOL    HW2 8937   2.439   5.044   1.754
 2680SOL     OW 8938   0.170   2.207   1.104
 2680SOL    HW1 8939   0.135   2.293   1.068
 2680SOL    HW2 8940   0.270   2.207   1.097
 2681SOL     OW 8941   2.140   2.381   1.500
 2681SOL    HW1 8942   2.132   2.443   1.578
 2681SOL    HW2 8943   2.101   2.292   1.525
 2682SOL     OW 8944   0.252   2.578   3.743
 2682SOL    HW1 8945   0.346   2.546   3.754
 2682SOL    HW2 8946   0.253   2.676   3.721
 2683SOL     OW 8947   1.431   6.939   0.511
 2683SOL    HW1 8948   1.487   6.885   0.575
 2683SOL    HW2 8949   1.345   6.965   0.555
 2684SOL     OW 8950   2.105   5.302   3.026
 2684SOL    HW1 8951   2.174   5.374   3.036
 2684SOL    HW2 8952   2.098   5.250   3.111
 2685SOL     OW 8953   5.261   5.082   5.715
 2685SOL    HW1 8954   5.264   5.182   5.714
 2685SOL    HW2 8955   5.350   5.047   5.745
 2686SOL     OW 8956   0.908   3.268   4.803
 2686SOL    HW1 8957   0.818   3.256   4.845
 2686SOL    HW2 8958   0.960   3.336   4.855
 2687SOL     OW 8959   4.734   5.100   3.109
 2687SOL    HW1 8960   4.674   5.046   3.167
 2687SOL    HW2 8961   4.807   5.042   3.073
 2688SOL     OW 8962   3.436   4.653   5.249
 2688SOL    HW1 8963   3.478   4.589   5.314
 2688SOL    HW2 8964   3.338   4.633   5.241
 2689SOL     OW 8965   6.095   1.951   4.038
 2689SOL    HW1 8966   6.185   1.909   4.048
 2689SOL    HW2 8967   6.073   2.004   4.120
 2690SOL     OW 8968   3.017   3.942   3.517
 2690SOL    HW1 8969   2.953   3.887   3.465
 2690SOL    HW2 8970   3.019   3.912   3.612
 2691SOL     OW 8971   1.436   5.962   1.596
 2691SOL    HW1 8972   1.403   5.952   1.502
 2691SOL    HW2 8973   1.359   5.987   1.655
 2692SOL     OW 8974   6.799   4.010   3.931
 2692SOL    HW1 8975   6.886   3.965   3.951
 2692SOL    HW2 8976   6.812   4.074   3.855
 2693SOL     OW 8977   1.930   3.944   2.398
 2693SOL    HW1 8978   1.883   3.878   2.339
 2693SOL    HW2 8979   1.891   3.941   2.490
 2694SOL     OW 8980   1.966   1.490   2.922
 2694SOL    HW1 8981   1.996   1.436   2.844
 2694SOL    HW2 8982   2.003   1.583   2.914
 2695SOL     OW 8983   4.087   2.245   1.822
 2695SOL    HW1 8984   4.169   2.295   1.851
 2695SOL    HW2 8985   4.044   2.204   1.902
 2696SOL     OW 8986   3.724   3.407   6.083
 2696SOL    HW1 8987   3.637   3.357   6.075
 2696SOL    HW2 8988   3.751   3.440   5.993
 2697SOL     OW 8989   2.785   1.186   5.156
 2697SOL    HW1 8990   2.760   1.234   5.240
 2697SOL    HW2 8991   2.727   1.217   5.081
 2698SOL     OW 8992   1.378   1.551   6.978
 2698SOL    HW1 8993   1.474   1.530   6.963
 2698SOL    HW2 8994   1.351   1.524   0.050
 2699SOL     OW 8995   1.221   4.676   3.795
 2699SOL    HW1 8996   1.206   4.751   3.731
 2699SOL    HW2 8997   1.199   4.707   3.888
 2700SOL     OW 8998   2.217   4.639   2.704
 2700SOL    HW1 8999   2.221   4.648   2.804
 2700SOL    HW2 9000   2.275   4.562   2.675
 2701SOL     OW 9001   2.361   0.604   5.292
 2701SOL    HW1 9002   2.394   0.695   5.317
 2701SOL    HW2 9003   2.407   0.573   5.209
 2702SOL     OW 9004   6.099   6.749   3.012
 2702SOL    HW1 9005   6.109   6.712   3.105
 2702SOL    HW2 9006   6.048   6.684   2.956
 2703SOL     OW 9007   1.726   2.479   3.100
 2703SOL    HW1 9008   1.825   2.468   3.101
 2703SOL    HW2 9009   1.690   2.463   3.192
 2704SOL     OW 9010   0.898   6.478   0.671
 2704SOL    HW1 9011   0.917   6.544   0.744
 2704SOL    HW2 9012   0.984   6.440   0.637
 2705SOL     OW 9013   0.369   3.201   2.563
 2705SOL    HW1 9014   0.311   3.153   2.628
 2705SOL    HW2 9015   0.339   3.180   2.470
 2706SOL     OW 9016   6.595   2.634   3.904
 2706SOL    HW1 9017   6.563   2.609   3.812
 2706SOL    HW2 9018   6.536   2.706   3.941
 2707SOL     OW 9019   3.315   1.141   6.807
 2707SOL    HW1 9020   3.315   1.215   6.874
 2707SOL    HW2 9021   3.341   1.176   6.718
 2708SOL     OW 9022   1.398   4.704   6.813
 2708SOL    HW1 9023   1.474   4.653   6.773
 2708SOL    HW2 9024   1.328   4.639   6.844
 2709SOL     OW 9025   4.043   0.074   1.988
 2709SOL    HW1 9026   4.011   0.116   2.073
 2709SOL    HW2 9027   4.090   7.008   2.008
 2710SOL     OW 9028   6.584   4.346   2.838
 2710SOL    HW1 9029   6.520   4.287   2.788
 2710SOL    HW2 9030   6.590   4.435   2.792
 2711SOL     OW 9031   1.229   6.568   2.337
 2711SOL    HW1 9032   1.273   6.478   2.335
 2711SOL    HW2 9033   1.133   6.559   2.312
 2712SOL     OW 9034   2.818   5.421   2.759
 2712SOL    HW1 9035   2.845   5.412   2.855
 2712SOL    HW2 9036   2.751   5.495   2.749
 2713SOL     OW 9037   2.251   2.987   5.511
 2713SOL    HW1 9038   2.241   3.048   5.589
 2713SOL    HW2 9039   2.173   2.999   5.450
 2714SOL     OW 9040   5.598   0.677   0.408
 2714SOL    HW1 9041   5.591   0.777   0.413
 2714SOL    HW2 9042   5.506   0.638   0.402
 2715SOL     OW 9043   5.919   0.598   0.620
 2715SOL    HW1 9044   6.001   0.552   0.652
 2715SOL    HW2 9045   5.868   0.537   0.560
 2716SOL     OW 9046   6.098   6.610   2.116
 2716SOL    HW1 9047   6.045   6.564   2.045
 2716SOL    HW2 9048   6.041   6.680   2.161
 2717SOL     OW 9049   0.505   6.914   3.163
 2717SOL    HW1 9050   0.503   6.836   3.101
 2717SOL    HW2 9051   0.584   6.906   3.224
 2718SOL     OW 9052   6.904   3.763   3.009
 2718SOL    HW1 9053   6.910   3.843   3.068
 2718SOL    HW2 9054   6.995   3.741   2.974
 2719SOL     OW 9055   3.992   4.807   2.997
 2719SOL    HW1 9056   3.961   4.736   3.061
 2719SOL    HW2 9057   3.915   4.835   2.939
 2720SOL     OW 9058   0.796   6.512   4.475
 2720SOL    HW1 9059   0.864   6.490   4.545
 2720SOL    HW2 9060   0.750   6.428   4.446
 2721SOL     OW 9061   5.160   6.027   3.364
 2721SOL    HW1 9062   5.093   6.046   3.435
 2721SOL    HW2 9063   5.252   6.049   3.398
 2722SOL     OW 9064   0.594   5.652   2.116
 2722SOL    HW1 9065   0.574   5.588   2.191
 2722SOL    HW2 9066   0.690   5.679   2.120
 2723SOL     OW 9067   1.725   2.418   4.328
 2723SOL    HW1 9068   1.751   2.494   4.267
 2723SOL    HW2 9069   1.750   2.442   4.422
 2724SOL     OW 9070   4.454   5.994   5.902
 2724SOL    HW1 9071   4.415   6.058   5.836
 2724SOL    HW2 9072   4.396   5.990   5.983
 2725SOL     OW 9073   2.330   4.617   2.949
 2725SOL    HW1 9074   2.427   4.616   2.974
 2725SOL    HW2 9075   2.297   4.711   2.948
 2726SOL     OW 9076   4.164   6.093   2.552
 2726SOL    HW1 9077   4.089   6.095   2.618
 2726SOL    HW2 9078   4.230   6.022   2.578
 2727SOL     OW 9079   2.024   5.863   4.178
 2727SOL    HW1 9080   2.063   5.774   4.157
 2727SOL    HW2 9081   1.988   5.904   4.093
 2728SOL     OW 9082   2.403   6.751   5.850
 2728SOL    HW1 9083   2.472   6.811   5.890
 2728SOL    HW2 9084   2.443   6.660   5.836
 2729SOL     OW 9085   0.410   4.719   2.496
 2729SOL    HW1 9086   0.412   4.720   2.596
 2729SOL    HW2 9087   0.315   4.721   2.465
 2730SOL     OW 9088   1.687   3.914   1.256
 2730SOL    HW1 9089   1.749   3.980   1.299
 2730SOL    HW2 9090   1.709   3.822   1.289
 2731SOL     OW 9091   2.471   3.218   0.328
 2731SOL    HW1 9092   2.466   3.128   0.370
 2731SOL    HW2 9093   2.407   3.223   0.251
 2732SOL     OW 9094   5.681   3.160   4.524
 2732SOL    HW1 9095   5.781   3.160   4.527
 2732SOL    HW2 9096   5.645   3.189   4.613
 2733SOL     OW 9097   2.069   0.715   0.242
 2733SOL    HW1 9098   2.023   0.640   0.197
 2733SOL    HW2 9099   2.130   0.680   0.313
 2734SOL     OW 9100   1.747   6.880   4.387
 2734SOL    HW1 9101   1.660   6.906   4.429
 2734SOL    HW2 9102   1.735   6.871   4.288
 2735SOL     OW 9103   1.821   5.196   1.380
 2735SOL    HW1 9104   1.722   5.206   1.379
 2735SOL    HW2 9105   1.863   5.282   1.349
 2736SOL     OW 9106   4.162   0.254   6.682
 2736SOL    HW1 9107   4.071   0.261   6.724
 2736SOL    HW2 9108   4.166   0.173   6.624
 2737SOL     OW 9109   4.041   4.211   5.571
 2737SOL    HW1 9110   3.982   4.130   5.563
 2737SOL    HW2 9111   4.000   4.275   5.637
 2738SOL     OW 9112   6.806   4.230   4.315
 2738SOL    HW1 9113   6.867   4.172   4.260
 2738SOL    HW2 9114   6.851   4.251   4.402
 2739SOL     OW 9115   4.570   3.802   6.771
 2739SOL    HW1 9116   4.660   3.844   6.763
 2739SOL    HW2 9117   4.569   3.741   6.851
 2740SOL     OW 9118   5.932   2.381   4.274
 2740SOL    HW1 9119   5.855   2.368   4.337
 2740SOL    HW2 9120   5.906   2.445   4.202
 2741SOL     OW 9121   2.255   3.288   5.564
 2741SOL    HW1 9122   2.280   3.244   5.478
 2741SOL    HW2 9123   2.331   3.345   5.596
 2742SOL     OW 9124   2.975   6.089   5.525
 2742SOL    HW1 9125   2.902   6.058   5.464
 2742SOL    HW2 9126   3.063   6.056   5.489
 2743SOL     OW 9127   6.231   4.287   6.331
 2743SOL    HW1 9128   6.247   4.374   6.378
 2743SOL    HW2 9129   6.137   4.257   6.348
 2744SOL     OW 9130   4.783   0.130   1.038
 2744SOL    HW1 9131   4.777   0.045   1.091
 2744SOL    HW2 9132   4.763   0.111   0.942
 2745SOL     OW 9133   3.186   5.749   2.113
 2745SOL    HW1 9134   3.151   5.655   2.115
 2745SOL    HW2 9135   3.116   5.810   2.075
 2746SOL     OW 9136   1.179   2.508   6.975
 2746SOL    HW1 9137   1.211   2.416   6.997
 2746SOL    HW2 9138   1.093   2.526   0.003
 2747SOL     OW 9139   5.045   5.900   3.926
 2747SOL    HW1 9140   4.965   5.960   3.931
 2747SOL    HW2 9141   5.121   5.949   3.882
 2748SOL     OW 9142   5.262   1.394   4.835
 2748SOL    HW1 9143   5.212   1.452   4.770
 2748SOL    HW2 9144   5.294   1.450   4.912
 2749SOL     OW 9145   5.608   4.546   2.854
 2749SOL    HW1 9146   5.595   4.456   2.811
 2749SOL    HW2 9147   5.705   4.560   2.873
 2750SOL     OW 9148   0.899   0.074   7.004
 2750SOL    HW1 9149   0.883   0.105   0.077
 2750SOL    HW2 9150   0.993   0.098   6.977
 2751SOL     OW 9151   1.198   0.278   6.530
 2751SOL    HW1 9152   1.143   0.215   6.585
 2751SOL    HW2 9153   1.182   0.260   6.433
 2752SOL     OW 9154   0.409   6.538   6.357
 2752SOL    HW1 9155   0.448   6.447   6.369
 2752SOL    HW2 9156   0.479   6.607   6.374
 2753SOL     OW 9157   2.990   5.449   4.509
 2753SOL    HW1 9158   3.057   5.378   4.533
 2753SOL    HW2 9159   2.965   5.500   4.591
 2754SOL     OW 9160   1.078   5.641   4.107
 2754SOL    HW1 9161   1.066   5.693   4.023
 2754SOL    HW2 9162   1.044   5.695   4.184
 2755SOL     OW 9163   4.549   6.462   2.644
 2755SOL    HW1 9164   4.539   6.499   2.736
 2755SOL    HW2 9165   4.541   6.362   2.647
 2756SOL     OW 9166   6.945   2.589   5.204
 2756SOL    HW1 9167   6.973   2.635   5.288
 2756SOL    HW2 9168   7.019   2.531   5.171
 2757SOL     OW 9169   5.077   4.092   5.832
 2757SOL    HW1 9170   5.095   4.000   5.868
 2757SOL    HW2 9171   5.030   4.085   5.744
 2758SOL     OW 9172   0.370   6.553   1.837
 2758SOL    HW1 9173   0.382   6.454   1.825
 2758SOL    HW2 9174   0.275   6.572   1.863
 2759SOL     OW 9175   3.984   3.837   5.053
 2759SOL    HW1 9176   3.966   3.767   4.985
 2759SOL    HW2 9177   3.949   3.925   5.022
 2760SOL     OW 9178   5.156   5.638   2.805
 2760SOL    HW1 9179   5.178   5.735   2.815
 2760SOL    HW2 9180   5.059   5.624   2.826
 2761SOL     OW 9181   1.917   3.411   4.052
 2761SOL    HW1 9182   2.005   3.364   4.064
 2761SOL    HW2 9183   1.907   3.480   4.123
 2762SOL     OW 9184   4.484   1.376   2.324
 2762SOL    HW1 9185   4.436   1.457   2.289
 2762SOL    HW2 9186   4.489   1.381   2.424
 2763SOL     OW 9187   5.295   0.917   3.857
 2763SOL    HW1 9188   5.235   0.872   3.792
 2763SOL    HW2 9189   5.301   0.862   3.941
 2764SOL     OW 9190   7.000   2.185   3.109
 2764SOL    HW1 9191   6.966   2.270   3.150
 2764SOL    HW2 9192   0.072   2.201   3.074
 2765SOL     OW 9193   0.327   6.665   6.986
 2765SOL    HW1 9194   0.268   6.743   7.004
 2765SOL    HW2 9195   0.272   6.590   6.948
 2766SOL     OW 9196   4.879   0.502   0.408
 2766SOL    HW1 9197   4.943   0.466   0.340
 2766SOL    HW2 9198   4.785   0.489   0.375
 2767SOL     OW 9199   0.437   6.276   5.959
 2767SOL    HW1 9200   0.423   6.371   5.988
 2767SOL    HW2 9201   0.397   6.262   5.869
 2768SOL     OW 9202   3.672   0.168   1.564
 2768SOL    HW1 9203   3.673   0.263   1.593
 2768SOL    HW2 9204   3.746   0.119   1.610
 2769SOL     OW 9205   0.586   4.836   5.808
 2769SOL    HW1 9206   0.582   4.773   5.886
 2769SOL    HW2 9207   0.616   4.786   5.727
 2770SOL     OW 9208   2.430   6.451   0.862
 2770SOL    HW1 9209   2.343   6.432   0.817
 2770SOL    HW2 9210   2.424   6.425   0.958
 2771SOL     OW 9211   4.287   6.380   5.496
 2771SOL    HW1 9212   4.223   6.324   5.442
 2771SOL    HW2 9213   4.379   6.341   5.489
 2772SOL     OW 9214   6.006   1.796   3.047
 2772SOL    HW1 9215   5.990   1.844   2.961
 2772SOL    HW2 9216   5.930   1.815   3.110
 2773SOL     OW 9217   5.552   1.635   6.197
 2773SOL    HW1 9218   5.480   1.596   6.255
 2773SOL    HW2 9219   5.637   1.639   6.249
 2774SOL     OW 9220   6.713   0.351   3.638
 2774SOL    HW1 9221   6.727   0.376   3.733
 2774SOL    HW2 9222   6.668   0.426   3.590
 2775SOL     OW 9223   6.642   2.390   4.342
 2775SOL    HW1 9224   6.585   2.467   4.314
 2775SOL    HW2 9225   6.645   2.322   4.269
 2776SOL     OW 9226   4.889   3.774   6.000
 2776SOL    HW1 9227   4.973   3.811   5.961
 2776SOL    HW2 9228   4.911   3.716   6.078
 2777SOL     OW 9229   1.571   1.711   0.267
 2777SOL    HW1 9230   1.599   1.619   0.296
 2777SOL    HW2 9231   1.618   1.735   0.182
 2778SOL     OW 9232   2.689   6.452   5.752
 2778SOL    HW1 9233   2.748   6.501   5.688
 2778SOL    HW2 9234   2.606   6.423   5.705
 2779SOL     OW 9235   5.510   1.113   3.302
 2779SOL    HW1 9236   5.425   1.139   3.350
 2779SOL    HW2 9237   5.493   1.112   3.204
 2780SOL     OW 9238   0.936   0.467   5.343
 2780SOL    HW1 9239   0.960   0.439   5.250
 2780SOL    HW2 9240   0.946   0.566   5.352
 2781SOL     OW 9241   0.165   0.483   2.970
 2781SOL    HW1 9242   0.088   0.426   2.944
 2781SOL    HW2 9243   0.136   0.579   2.975
 2782SOL     OW 9244   5.969   6.784   4.825
 2782SOL    HW1 9245   6.010   6.874   4.840
 2782SOL    HW2 9246   5.972   6.761   4.728
 2783SOL     OW 9247   6.263   2.757   1.782
 2783SOL    HW1 9248   6.236   2.796   1.693
 2783SOL    HW2 9249   6.361   2.767   1.794
 2784SOL     OW 9250   0.784   2.330   1.897
 2784SOL    HW1 9251   0.881   2.331   1.871
 2784SOL    HW2 9252   0.733   2.390   1.836
 2785SOL     OW 9253   5.307   3.769   3.808
 2785SOL    HW1 9254   5.211   3.741   3.797
 2785SOL    HW2 9255   5.314   3.868   3.794
 2786SOL     OW 9256   6.902   5.605   0.749
 2786SOL    HW1 9257   6.916   5.560   0.661
 2786SOL    HW2 9258   6.966   5.681   0.759
 2787SOL     OW 9259   0.117   6.913   6.069
 2787SOL    HW1 9260   0.037   6.966   6.098
 2787SOL    HW2 9261   0.189   6.920   6.138
 2788SOL     OW 9262   2.895   6.421   0.259
 2788SOL    HW1 9263   2.833   6.371   0.319
 2788SOL    HW2 9264   2.842   6.469   0.189
 2789SOL     OW 9265   2.171   2.006   3.882
 2789SOL    HW1 9266   2.201   2.096   3.913
 2789SOL    HW2 9267   2.211   1.986   3.793
 2790SOL     OW 9268   0.488   5.028   1.374
 2790SOL    HW1 9269   0.463   4.931   1.374
 2790SOL    HW2 9270   0.574   5.040   1.324
 2791SOL     OW 9271   0.268   3.379   5.246
 2791SOL    HW1 9272   0.248   3.433   5.328
 2791SOL    HW2 9273   0.237   3.429   5.165
 2792SOL     OW 9274   2.907   2.567   6.847
 2792SOL    HW1 9275   2.947   2.514   6.772
 2792SOL    HW2 9276   2.937   2.530   6.934
 2793SOL     OW 9277   4.038   3.578   6.230
 2793SOL    HW1 9278   4.030   3.524   6.314
 2793SOL    HW2 9279   4.020   3.675   6.251
 2794SOL     OW 9280   1.483   2.028   6.540
 2794SOL    HW1 9281   1.494   2.075   6.452
 2794SOL    HW2 9282   1.483   1.929   6.525
 2795SOL     OW 9283   1.200   7.000   0.638
 2795SOL    HW1 9284   1.138   6.970   0.710
 2795SOL    HW2 9285   1.227   0.075   0.655
 2796SOL     OW 9286   3.238   5.971   0.015
 2796SOL    HW1 9287   3.267   6.062   0.043
 2796SOL    HW2 9288   3.194   5.976   6.945
 2797SOL     OW 9289   4.963   4.380   4.677
 2797SOL    HW1 9290   5.054   4.413   4.699
 2797SOL    HW2 9291   4.962   4.280   4.682
 2798SOL     OW 9292   5.358   2.791   1.469
 2798SOL    HW1 9293   5.391   2.740   1.549
 2798SOL    HW2 9294   5.397   2.883   1.470
 2799SOL     OW 9295   3.426   0.056   4.572
 2799SOL    HW1 9296   3.438   6.977   4.573
 2799SOL    HW2 9297   3.515   0.100   4.582
 2800SOL     OW 9298   4.994   1.277   6.695
 2800SOL    HW1 9299   5.052   1.345   6.650
 2800SOL    HW2 9300   5.051   1.217   6.751
 2801SOL     OW 9301   6.892   4.198   3.711
 2801SOL    HW1 9302   6.920   4.285   3.671
 2801SOL    HW2 9303   6.946   4.123   3.672
 2802SOL     OW 9304   1.587   4.252   4.158
 2802SOL    HW1 9305   1.541   4.340   4.143
 2802SOL    HW2 9306   1.685   4.268   4.166
 2803SOL     OW 9307   3.548   3.040   6.575
 2803SOL    HW1 9308   3.629   3.016   6.521
 2803SOL    HW2 9309   3.564   3.127   6.621
 2804SOL     OW 9310   5.701   2.356   3.683
 2804SOL    HW1 9311   5.613   2.322   3.716
 2804SOL    HW2 9312   5.729   2.303   3.602
 2805SOL     OW 9313   4.032   5.380   0.537
 2805SOL    HW1 9314   4.087   5.369   0.620
 2805SOL    HW2 9315   3.962   5.308   0.534
 2806SOL     OW 9316   0.464   2.954   4.668
 2806SOL    HW1 9317   0.523   2.883   4.628
 2806SOL    HW2 9318   0.391   2.976   4.603
 2807SOL     OW 9319   4.435   1.346   3.874
 2807SOL    HW1 9320   4.341   1.312   3.869
 2807SOL    HW2 9321   4.496   1.272   3.903
 2808SOL     OW 9322   1.108   5.925   6.753
 2808SOL    HW1 9323   1.013   5.939   6.725
 2808SOL    HW2 9324   1.117   5.944   6.850
 2809SOL     OW 9325   1.546   6.295   0.865
 2809SOL    HW1 9326   1.623   6.232   0.865
 2809SOL    HW2 9327   1.569   6.376   0.918
 2810SOL     OW 9328   0.658   6.223   2.504
 2810SOL    HW1 9329   0.596   6.300   2.520
 2810SOL    HW2 9330   0.632   6.147   2.564
 2811SOL     OW 9331   0.974   0.271   0.709
 2811SOL    HW1 9332   0.913   0.315   0.776
 2811SOL    HW2 9333   0.973   0.172   0.724
 2812SOL     OW 9334   1.656   1.144   1.158
 2812SOL    HW1 9335   1.676   1.242   1.159
 2812SOL    HW2 9336   1.680   1.105   1.247
 2813SOL     OW 9337   6.394   2.269   1.385
 2813SOL    HW1 9338   6.333   2.348   1.393
 2813SOL    HW2 9339   6.382   2.227   1.295
 2814SOL     OW 9340   2.388   4.572   6.589
 2814SOL    HW1 9341   2.347   4.567   6.498
 2814SOL    HW2 9342   2.323   4.614   6.652
 2815SOL     OW 9343   6.485   6.341   4.639
 2815SOL    HW1 9344   6.444   6.431   4.622
 2815SOL    HW2 9345   6.512   6.334   4.735
 2816SOL     OW 9346   1.012   4.986   4.822
 2816SOL    HW1 9347   0.973   4.897   4.847
 2816SOL    HW2 9348   1.110   4.975   4.804
 2817SOL     OW 9349   2.313   0.926   1.784
 2817SOL    HW1 9350   2.278   0.950   1.874
 2817SOL    HW2 9351   2.238   0.890   1.728
 2818SOL     OW 9352   1.916   1.162   0.367
 2818SOL    HW1 9353   1.953   1.167   0.274
 2818SOL    HW2 9354   1.921   1.067   0.400
 2819SOL     OW 9355   6.205   0.360   6.560
 2819SOL    HW1 9356   6.213   0.360   6.659
 2819SOL    HW2 9357   6.123   0.410   6.532
 2820SOL     OW 9358   1.867   1.632   0.160
 2820SOL    HW1 9359   1.931   1.569   0.117
 2820SOL    HW2 9360   1.903   1.661   0.249
 2821SOL     OW 9361   3.439   2.116   5.912
 2821SOL    HW1 9362   3.456   2.195   5.971
 2821SOL    HW2 9363   3.467   2.032   5.960
 2822SOL     OW 9364   4.441   2.611   1.252
 2822SOL    HW1 9365   4.457   2.513   1.261
 2822SOL    HW2 9366   4.353   2.635   1.293
 2823SOL     OW 9367   5.714   4.360   3.109
 2823SOL    HW1 9368   5.737   4.268   3.077
 2823SOL    HW2 9369   5.653   4.404   3.044
 2824SOL     OW 9370   0.736   4.117   5.503
 2824SOL    HW1 9371   0.648   4.157   5.477
 2824SOL    HW2 9372   0.790   4.099   5.421
 2825SOL     OW 9373   4.945   2.126   5.292
 2825SOL    HW1 9374   5.029   2.173   5.321
 2825SOL    HW2 9375   4.888   2.108   5.372
 2826SOL     OW 9376   3.047   3.268   7.012
 2826SOL    HW1 9377   3.105   3.237   6.936
 2826SOL    HW2 9378   3.097   3.261   0.077
 2827SOL     OW 9379   6.467   1.636   0.159
 2827SOL    HW1 9380   6.533   1.700   0.199
 2827SOL    HW2 9381   6.513   1.552   0.133
 2828SOL     OW 9382   1.819   4.490   0.250
 2828SOL    HW1 9383   1.906   4.446   0.272
 2828SOL    HW2 9384   1.824   4.587   0.272
 2829SOL     OW 9385   3.554   4.346   1.365
 2829SOL    HW1 9386   3.503   4.271   1.408
 2829SOL    HW2 9387   3.563   4.421   1.430
 2830SOL     OW 9388   2.760   5.334   4.406
 2830SOL    HW1 9389   2.841   5.390   4.422
 2830SOL    HW2 9390   2.736   5.337   4.309
 2831SOL     OW 9391   6.320   1.717   1.934
 2831SOL    HW1 9392   6.357   1.801   1.896
 2831SOL    HW2 9393   6.394   1.663   1.974
 2832SOL     OW 9394   1.924   3.866   1.542
 2832SOL    HW1 9395   1.898   3.771   1.525
 2832SOL    HW2 9396   1.954   3.908   1.456
 2833SOL     OW 9397   6.393   2.969   3.350
 2833SOL    HW1 9398   6.334   3.049   3.340
 2833SOL    HW2 9399   6.435   2.947   3.262
 2834SOL     OW 9400   3.052   0.611   4.200
 2834SOL    HW1 9401   3.000   0.634   4.282
 2834SOL    HW2 9402   3.029   0.518   4.170
 2835SOL     OW 9403   6.559   1.529   0.460
 2835SOL    HW1 9404   6.640   1.485   0.422
 2835SOL    HW2 9405   6.584   1.582   0.540
 2836SOL     OW 9406   3.405   5.901   1.548
 2836SOL    HW1 9407   3.387   5.868   1.455
 2836SOL    HW2 9408   3.426   5.824   1.608
 2837SOL     OW 9409   5.268   4.072   3.040
 2837SOL    HW1 9410   5.360   4.098   3.009
 2837SOL    HW2 9411   5.222   4.153   3.077
 2838SOL     OW 9412   0.085   4.026   5.857
 2838SOL    HW1 9413   0.162   4.087   5.836
 2838SOL    HW2 9414   0.119   3.945   5.905
 2839SOL     OW 9415   5.644   2.808   6.449
 2839SOL    HW1 9416   5.561   2.804   6.394
 2839SOL    HW2 9417   5.653   2.724   6.501
 2840SOL     OW 9418   6.482   5.971   4.786
 2840SOL    HW1 9419   6.430   6.037   4.842
 2840SOL    HW2 9420   6.481   5.882   4.831
 2841SOL     OW 9421   5.446   3.652   3.383
 2841SOL    HW1 9422   5.457   3.577   3.447
 2841SOL    HW2 9423   5.385   3.721   3.423
 2842SOL     OW 9424   0.624   6.372   3.388
 2842SOL    HW1 9425   0.546   6.356   3.327
 2842SOL    HW2 9426   0.593   6.422   3.469
 2843SOL     OW 9427   1.126   2.637   4.125
 2843SOL    HW1 9428   1.132   2.543   4.157
 2843SOL    HW2 9429   1.209   2.687   4.148
 2844SOL     OW 9430   5.441   3.947   6.888
 2844SOL    HW1 9431   5.521   3.965   6.830
 2844SOL    HW2 9432   5.411   4.033   6.929
 2845SOL     OW 9433   3.698   1.800   1.286
 2845SOL    HW1 9434   3.784   1.824   1.240
 2845SOL    HW2 9435   3.636   1.879   1.284
 2846SOL     OW 9436   4.873   0.398   6.484
 2846SOL    HW1 9437   4.957   0.424   6.436
 2846SOL    HW2 9438   4.796   0.450   6.446
 2847SOL     OW 9439   5.886   4.797   2.444
 2847SOL    HW1 9440   5.970   4.800   2.498
 2847SOL    HW2 9441   5.882   4.877   2.384
 2848SOL     OW 9442   0.490   3.351   0.205
 2848SOL    HW1 9443   0.550   3.293   0.261
 2848SOL    HW2 9444   0.513   3.447   0.220
 2849SOL     OW 9445   5.438   0.749   1.058
 2849SOL    HW1 9446   5.399   0.680   0.996
 2849SOL    HW2 9447   5.365   0.806   1.094
 2850SOL     OW 9448   6.935   0.854   0.745
 2850SOL    HW1 9449   6.863   0.835   0.811
 2850SOL    HW2 9450   6.936   0.951   0.723
 2851SOL     OW 9451   3.592   3.403   2.195
 2851SOL    HW1 9452   3.509   3.404   2.138
 2851SOL    HW2 9453   3.578   3.341   2.272
 2852SOL     OW 9454   0.674   5.011   4.985
 2852SOL    HW1 9455   0.692   4.935   4.923
 2852SOL    HW2 9456   0.741   5.011   5.060
 2853SOL     OW 9457   0.598   4.678   6.045
 2853SOL    HW1 9458   0.658   4.731   6.105
 2853SOL    HW2 9459   0.579   4.589   6.087
 2854SOL     OW 9460   2.770   0.203   6.605
 2854SOL    HW1 9461   2.823   0.265   6.547
 2854SOL    HW2 9462   2.776   0.233   6.700
 2855SOL     OW 9463   2.639   2.501   4.441
 2855SOL    HW1 9464   2.732   2.524   4.411
 2855SOL    HW2 9465   2.645   2.431   4.512
 2856SOL     OW 9466   1.455   5.363   4.652
 2856SOL    HW1 9467   1.518   5.380   4.727
 2856SOL    HW2 9468   1.440   5.264   4.643
 2857SOL     OW 9469   0.892   4.784   0.499
 2857SOL    HW1 9470   0.891   4.834   0.412
 2857SOL    HW2 9471   0.987   4.763   0.524
 2858SOL     OW 9472   5.623   4.577   4.185
 2858SOL    HW1 9473   5.670   4.538   4.106
 2858SOL    HW2 9474   5.548   4.635   4.154
 2859SOL     OW 9475   0.211   4.850   1.729
 2859SOL    HW1 9476   0.287   4.801   1.687
 2859SOL    HW2 9477   0.196   4.936   1.681
 2860SOL     OW 9478   1.318   6.798   3.259
 2860SOL    HW1 9479   1.324   6.718   3.200
 2860SOL    HW2 9480   1.294   6.878   3.204
 2861SOL     OW 9481   5.654   3.236   5.197
 2861SOL    HW1 9482   5.570   3.284   5.224
 2861SOL    HW2 9483   5.733   3.294   5.216
 2862SOL     OW 9484   4.819   1.286   0.521
 2862SOL    HW1 9485   4.817   1.219   0.447
 2862SOL    HW2 9486   4.763   1.254   0.597
 2863SOL     OW 9487   5.683   1.927   6.281
 2863SOL    HW1 9488   5.710   1.832   6.295
 2863SOL    HW2 9489   5.650   1.965   6.367
 2864SOL     OW 9490   4.376   4.820   0.931
 2864SOL    HW1 9491   4.410   4.802   1.023
 2864SOL    HW2 9492   4.280   4.845   0.935
 2865SOL     OW 9493   5.848   4.810   6.277
 2865SOL    HW1 9494   5.788   4.813   6.357
 2865SOL    HW2 9495   5.801   4.762   6.203
 2866SOL     OW 9496   4.661   5.969   1.113
 2866SOL    HW1 9497   4.721   5.889   1.115
 2866SOL    HW2 9498   4.588   5.958   1.180
 2867SOL     OW 9499   0.417   5.949   3.100
 2867SOL    HW1 9500   0.410   6.048   3.089
 2867SOL    HW2 9501   0.326   5.909   3.105
 2868SOL     OW 9502   6.666   0.247   5.370
 2868SOL    HW1 9503   6.712   0.315   5.313
 2868SOL    HW2 9504   6.620   0.293   5.446
 2869SOL     OW 9505   5.625   4.431   5.194
 2869SOL    HW1 9506   5.652   4.409   5.100
 2869SOL    HW2 9507   5.691   4.494   5.234
 2870SOL     OW 9508   0.189   1.328   1.350
 2870SOL    HW1 9509   0.196   1.399   1.281
 2870SOL    HW2 9510   0.100   1.335   1.396
 2871SOL     OW 9511   4.539   1.200   3.504
 2871SOL    HW1 9512   4.501   1.232   3.417
 2871SOL    HW2 9513   4.605   1.266   3.539
 2872SOL     OW 9514   3.568   1.613   2.600
 2872SOL    HW1 9515   3.545   1.679   2.529
 2872SOL    HW2 9516   3.487   1.594   2.656
 2873SOL     OW 9517   6.923   0.135   2.722
 2873SOL    HW1 9518   6.856   0.173   2.658
 2873SOL    HW2 9519   6.930   0.195   2.802
 2874SOL     OW 9520   1.850   1.069   2.469
 2874SOL    HW1 9521   1.855   1.166   2.496
 2874SOL    HW2 9522   1.755   1.045   2.448
 2875SOL     OW 9523   2.890   0.305   2.322
 2875SOL    HW1 9524   2.928   0.388   2.280
 2875SOL    HW2 9525   2.950   0.275   2.396
 2876SOL     OW 9526   1.235   6.924   0.964
 2876SOL    HW1 9527   1.264   7.011   0.924
 2876SOL    HW2 9528   1.308   6.887   1.021
 2877SOL     OW 9529   1.327   3.697   6.727
 2877SOL    HW1 9530   1.312   3.795   6.743
 2877SOL    HW2 9531   1.325   3.680   6.628
 2878SOL     OW 9532   3.930   3.614   4.892
 2878SOL    HW1 9533   3.869   3.580   4.820
 2878SOL    HW2 9534   4.025   3.606   4.861
 2879SOL     OW 9535   6.218   6.216   0.416
 2879SOL    HW1 9536   6.286   6.162   0.465
 2879SOL    HW2 9537   6.245   6.225   0.320
 2880SOL     OW 9538   1.673   2.077   2.892
 2880SOL    HW1 9539   1.635   2.169   2.890
 2880SOL    HW2 9540   1.609   2.016   2.939
 2881SOL     OW 9541   5.394   4.932   7.010
 2881SOL    HW1 9542   5.460   4.857   0.000
 2881SOL    HW2 9543   5.388   4.984   0.075
 2882SOL     OW 9544   5.265   6.441   0.090
 2882SOL    HW1 9545   5.221   6.446   0.180
 2882SOL    HW2 9546   5.364   6.441   0.101
 2883SOL     OW 9547   4.879   6.139   2.976
 2883SOL    HW1 9548   4.945   6.187   3.033
 2883SOL    HW2 9549   4.894   6.040   2.982
 2884SOL     OW 9550   6.127   5.163   3.446
 2884SOL    HW1 9551   6.061   5.147   3.374
 2884SOL    HW2 9552   6.080   5.179   3.533
 2885SOL     OW 9553   0.404   3.503   3.361
 2885SOL    HW1 9554   0.375   3.593   3.329
 2885SOL    HW2 9555   0.498   3.508   3.396
 2886SOL     OW 9556   2.178   4.320   4.910
 2886SOL    HW1 9557   2.199   4.223   4.896
 2886SOL    HW2 9558   2.227   4.354   4.990
 2887SOL     OW 9559   0.131   4.432   3.050
 2887SOL    HW1 9560   0.199   4.358   3.051
 2887SOL    HW2 9561   0.055   4.407   2.991
 2888SOL     OW 9562   4.341   5.944   6.862
 2888SOL    HW1 9563   4.365   5.848   6.873
 2888SOL    HW2 9564   4.417   5.993   6.820
 2889SOL     OW 9565   3.845   5.466   4.148
 2889SOL    HW1 9566   3.936   5.470   4.105
 2889SOL    HW2 9567   3.834   5.377   4.192
 2890SOL     OW 9568   1.617   2.251   0.824
 2890SOL    HW1 9569   1.517   2.260   0.824
 2890SOL    HW2 9570   1.650   2.246   0.730
 2891SOL     OW 9571   1.947   1.701   5.490
 2891SOL    HW1 9572   1.873   1.649   5.532
 2891SOL    HW2 9573   1.970   1.779   5.549
 2892SOL     OW 9574   5.946   3.978   2.042
 2892SOL    HW1 9575   5.977   4.063   1.999
 2892SOL    HW2 9576   6.015   3.907   2.030
 2893SOL     OW 9577   6.689   6.043   4.962
 2893SOL    HW1 9578   6.770   6.101   4.955
 2893SOL    HW2 9579   6.648   6.032   4.872
 2894SOL     OW 9580   1.855   5.463   1.345
 2894SOL    HW1 9581   1.925   5.504   1.287
 2894SOL    HW2 9582   1.769   5.515   1.337
 2895SOL     OW 9583   4.870   6.559   6.632
 2895SOL    HW1 9584   4.819   6.480   6.665
 2895SOL    HW2 9585   4.968   6.544   6.649
 2896SOL     OW 9586   6.671   6.880   6.073
 2896SOL    HW1 9587   6.604   6.895   6.000
 2896SOL    HW2 9588   6.735   6.956   6.076
 2897SOL     OW 9589   3.071   5.998   3.418
 2897SOL    HW1 9590   3.099   5.959   3.506
 2897SOL    HW2 9591   3.146   6.051   3.380
 2898SOL     OW 9592   5.296   2.363   2.297
 2898SOL    HW1 9593   5.289   2.352   2.396
 2898SOL    HW2 9594   5.354   2.291   2.259
 2899SOL     OW 9595   6.554   2.826   1.164
 2899SOL    HW1 9596   6.626   2.838   1.096
 2899SOL    HW2 9597   6.577   2.751   1.226
 2900SOL     OW 9598   3.309   2.878   5.012
 2900SOL    HW1 9599   3.260   2.792   5.000
 2900SOL    HW2 9600   3.296   2.935   4.930
 2901SOL     OW 9601   1.478   3.496   1.306
 2901SOL    HW1 9602   1.542   3.572   1.316
 2901SOL    HW2 9603   1.410   3.518   1.235
 2902SOL     OW 9604   5.410   6.040   3.440
 2902SOL    HW1 9605   5.472   6.104   3.487
 2902SOL    HW2 9606   5.399   5.958   3.495
 2903SOL     OW 9607   0.902   5.272   1.228
 2903SOL    HW1 9608   0.919   5.332   1.150
 2903SOL    HW2 9609   0.803   5.264   1.242
 2904SOL     OW 9610   2.717   4.769   4.326
 2904SOL    HW1 9611   2.803   4.800   4.287
 2904SOL    HW2 9612   2.683   4.837   4.391
 2905SOL     OW 9613   1.361   4.367   1.493
 2905SOL    HW1 9614   1.397   4.288   1.543
 2905SOL    HW2 9615   1.262   4.358   1.484
 2906SOL     OW 9616   6.512   6.275   5.812
 2906SOL    HW1 9617   6.599   6.323   5.823
 2906SOL    HW2 9618   6.510   6.194   5.870
 2907SOL     OW 9619   6.529   0.999   6.071
 2907SOL    HW1 9620   6.584   1.030   6.148
 2907SOL    HW2 9621   6.465   0.929   6.102
 2908SOL     OW 9622   3.691   5.917   3.503
 2908SOL    HW1 9623   3.655   5.827   3.478
 2908SOL    HW2 9624   3.715   5.918   3.600
 2909SOL     OW 9625   0.440   6.379   0.840
 2909SOL    HW1 9626   0.533   6.342   0.832
 2909SOL    HW2 9627   0.427   6.452   0.773
 2910SOL     OW 9628   1.105   0.552   4.396
 2910SOL    HW1 9629   1.121   0.638   4.347
 2910SOL    HW2 9630   1.060   0.572   4.483
 2911SOL     OW 9631   6.517   3.574   3.828
 2911SOL    HW1 9632   6.579   3.497   3.838
 2911SOL    HW2 9633   6.552   3.652   3.880
 2912SOL     OW 9634   0.293   1.197   2.724
 2912SOL    HW1 9635   0.348   1.266   2.677
 2912SOL    HW2 9636   0.301   1.210   2.823
 2913SOL     OW 9637   1.132   6.496   4.257
 2913SOL    HW1 9638   1.058   6.428   4.254
 2913SOL    HW2 9639   1.093   6.586   4.279
 2914SOL     OW 9640   3.840   4.374   0.645
 2914SOL    HW1 9641   3.810   4.468   0.628
 2914SOL    HW2 9642   3.760   4.314   0.649
 2915SOL     OW 9643   2.536   0.577   3.757
 2915SOL    HW1 9644   2.485   0.662   3.743
 2915SOL    HW2 9645   2.580   0.551   3.671
 2916SOL     OW 9646   0.438   5.832   6.284
 2916SOL    HW1 9647   0.494   5.749   6.285
 2916SOL    HW2 9648   0.343   5.808   6.267
 2917SOL     OW 9649   2.037   1.150   3.553
 2917SOL    HW1 9650   2.061   1.225   3.491
 2917SOL    HW2 9651   1.972   1.089   3.507
 2918SOL     OW 9652   5.253   1.541   1.189
 2918SOL    HW1 9653   5.281   1.447   1.210
 2918SOL    HW2 9654   5.315   1.605   1.234
 2919SOL     OW 9655   0.571   6.121   5.130
 2919SOL    HW1 9656   0.496   6.072   5.174
 2919SOL    HW2 9657   0.648   6.059   5.116
 2920SOL     OW 9658   2.824   2.165   1.820
 2920SOL    HW1 9659   2.865   2.227   1.887
 2920SOL    HW2 9660   2.886   2.155   1.742
 2921SOL     OW 9661   0.102   5.381   3.468
 2921SOL    HW1 9662   0.099   5.377   3.368
 2921SOL    HW2 9663   0.115   5.476   3.497
 2922SOL     OW 9664   4.041   5.244   3.493
 2922SOL    HW1 9665   4.116   5.297   3.533
 2922SOL    HW2 9666   3.963   5.243   3.555
 2923SOL     OW 9667   0.965   4.687   3.468
 2923SOL    HW1 9668   0.982   4.632   3.550
 2923SOL    HW2 9669   0.868   4.709   3.462
 2924SOL     OW 9670   5.168   1.407   0.015
 2924SOL    HW1 9671   5.180   1.316   6.994
 2924SOL    HW2 9672   5.220   1.474   6.982
 2925SOL     OW 9673   5.388   6.780   4.727
 2925SOL    HW1 9674   5.456   6.853   4.717
 2925SOL    HW2 9675   5.302   6.808   4.686
 2926SOL     OW 9676   6.773   2.779   4.733
 2926SOL    HW1 9677   6.714   2.836   4.675
 2926SOL    HW2 9678   6.732   2.688   4.742
 2927SOL     OW 9679   1.106   2.224   2.442
 2927SOL    HW1 9680   1.048   2.298   2.407
 2927SOL    HW2 9681   1.147   2.252   2.529
 2928SOL     OW 9682   5.001   4.895   0.531
 2928SOL    HW1 9683   5.035   4.817   0.479
 2928SOL    HW2 9684   4.903   4.886   0.546
 2929SOL     OW 9685   1.892   1.918   2.984
 2929SOL    HW1 9686   1.817   1.984   2.985
 2929SOL    HW2 9687   1.901   1.880   2.892
 2930SOL     OW 9688   0.456   2.950   4.336
 2930SOL    HW1 9689   0.431   2.960   4.240
 2930SOL    HW2 9690   0.471   2.854   4.357
 2931SOL     OW 9691   6.107   3.916   5.709
 2931SOL    HW1 9692   6.070   3.996   5.661
 2931SOL    HW2 9693   6.091   3.926   5.807
 2932SOL     OW 9694   6.755   6.744   0.732
 2932SOL    HW1 9695   6.778   6.737   0.829
 2932SOL    HW2 9696   6.835   6.774   0.680
 2933SOL     OW 9697   0.575   0.935   0.053
 2933SOL    HW1 9698   0.551   1.032   0.050
 2933SOL    HW2 9699   0.576   0.904   0.148
 2934SOL     OW 9700   5.598   4.802   2.476
 2934SOL    HW1 9701   5.631   4.725   2.423
 2934SOL    HW2 9702   5.529   4.771   2.541
 2935SOL     OW 9703   1.145   4.098   5.939
 2935SOL    HW1 9704   1.177   4.174   5.996
 2935SOL    HW2 9705   1.143   4.014   5.994
 2936SOL     OW 9706   4.210   6.538   2.567
 2936SOL    HW1 9707   4.258   6.531   2.654
 2936SOL    HW2 9708   4.258   6.484   2.498
 2937SOL     OW 9709   6.155   3.510   3.322
 2937SOL    HW1 9710   6.238   3.457   3.337
 2937SOL    HW2 9711   6.081   3.475   3.379
 2938SOL     OW 9712   0.656   5.315   1.324
 2938SOL    HW1 9713   0.705   5.402   1.310
 2938SOL    HW2 9714   0.584   5.328   1.392
 2939SOL     OW 9715   5.828   6.279   2.085
 2939SOL    HW1 9716   5.822   6.183   2.058
 2939SOL    HW2 9717   5.746   6.304   2.138
 2940SOL     OW 9718   5.025   5.776   3.648
 2940SOL    HW1 9719   4.973   5.823   3.719
 2940SOL    HW2 9720   4.969   5.766   3.566
 2941SOL     OW 9721   2.707   5.006   2.435
 2941SOL    HW1 9722   2.744   4.915   2.453
 2941SOL    HW2 9723   2.757   5.048   2.359
 2942SOL     OW 9724   3.130   1.819   1.663
 2942SOL    HW1 9725   3.230   1.819   1.661
 2942SOL    HW2 9726   3.098   1.748   1.725
 2943SOL     OW 9727   0.612   3.797   3.721
 2943SOL    HW1 9728   0.614   3.771   3.624
 2943SOL    HW2 9729   0.578   3.720   3.775
 2944SOL     OW 9730   1.140   5.359   3.173
 2944SOL    HW1 9731   1.131   5.390   3.078
 2944SOL    HW2 9732   1.216   5.408   3.217
 2945SOL     OW 9733   5.530   4.061   0.181
 2945SOL    HW1 9734   5.459   3.991   0.183
 2945SOL    HW2 9735   5.620   4.018   0.188
 2946SOL     OW 9736   3.504   4.207   4.725
 2946SOL    HW1 9737   3.511   4.168   4.633
 2946SOL    HW2 9738   3.511   4.306   4.720
 2947SOL     OW 9739   6.316   6.229   0.166
 2947SOL    HW1 9740   6.239   6.234   0.103
 2947SOL    HW2 9741   6.380   6.159   0.135
 2948SOL     OW 9742   5.962   4.531   0.480
 2948SOL    HW1 9743   5.913   4.497   0.400
 2948SOL    HW2 9744   5.976   4.456   0.545
 2949SOL     OW 9745   2.011   5.897   0.919
 2949SOL    HW1 9746   1.976   5.972   0.975
 2949SOL    HW2 9747   2.109   5.910   0.904
 2950SOL     OW 9748   5.515   5.397   2.034
 2950SOL    HW1 9749   5.571   5.366   1.957
 2950SOL    HW2 9750   5.428   5.432   1.999
 2951SOL     OW 9751   0.698   2.021   0.966
 2951SOL    HW1 9752   0.788   2.025   1.010
 2951SOL    HW2 9753   0.694   2.090   0.893
 2952SOL     OW 9754   0.667   1.945   4.592
 2952SOL    HW1 9755   0.604   2.007   4.546
 2952SOL    HW2 9756   0.644   1.940   4.689
 2953SOL     OW 9757   1.395   5.593   2.937
 2953SOL    HW1 9758   1.399   5.534   3.017
 2953SOL    HW2 9759   1.456   5.558   2.866
 2954SOL     OW 9760   0.773   4.309   6.388
 2954SOL    HW1 9761   0.854   4.339   6.337
 2954SOL    HW2 9762   0.801   4.254   6.466
 2955SOL     OW 9763   1.764   4.689   6.481
 2955SOL    HW1 9764   1.858   4.655   6.491
 2955SOL    HW2 9765   1.730   4.665   6.390
 2956SOL     OW 9766   5.966   3.692   4.876
 2956SOL    HW1 9767   6.063   3.701   4.857
 2956SOL    HW2 9768   5.937   3.765   4.938
 2957SOL     OW 9769   1.344   5.160   2.385
 2957SOL    HW1 9770   1.302   5.079   2.344
 2957SOL    HW2 9771   1.273   5.219   2.423
 2958SOL     OW 9772   1.723   4.074   0.987
 2958SOL    HW1 9773   1.630   4.076   0.952
 2958SOL    HW2 9774   1.729   4.013   1.066
 2959SOL     OW 9775   0.471   4.214   4.286
 2959SOL    HW1 9776   0.498   4.292   4.342
 2959SOL    HW2 9777   0.388   4.173   4.324
 2960SOL     OW 9778   4.901   6.727   1.005
 2960SOL    HW1 9779   4.951   6.718   1.091
 2960SOL    HW2 9780   4.938   6.663   0.937
 2961SOL     OW 9781   5.814   2.189   1.148
 2961SOL    HW1 9782   5.898   2.146   1.181
 2961SOL    HW2 9783   5.836   2.281   1.114
 2962SOL     OW 9784   0.164   0.403   3.757
 2962SOL    HW1 9785   0.175   0.427   3.853
 2962SOL    HW2 9786   0.253   0.380   3.718
 2963SOL     OW 9787   2.102   2.241   5.505
 2963SOL    HW1 9788   2.058   2.229   5.594
 2963SOL    HW2 9789   2.070   2.170   5.442
 2964SOL     OW 9790   1.292   1.116   5.910
 2964SOL    HW1 9791   1.320   1.039   5.968
 2964SOL    HW2 9792   1.229   1.082   5.839
 2965SOL     OW 9793   5.998   0.239   6.299
 2965SOL    HW1 9794   5.952   0.325   6.279
 2965SOL    HW2 9795   5.933   0.174   6.338
 2966SOL     OW 9796   3.125   6.370   3.113
 2966SOL    HW1 9797   3.038   6.416   3.095
 2966SOL    HW2 9798   3.191   6.437   3.148
 2967SOL     OW 9799   6.071   0.003   4.871
 2967SOL    HW1 9800   6.153   6.996   4.921
 2967SOL    HW2 9801   6.086   0.092   4.828
 2968SOL     OW 9802   1.503   3.648   2.126
 2968SOL    HW1 9803   1.446   3.710   2.073
 2968SOL    HW2 9804   1.592   3.638   2.082
 2969SOL     OW 9805   4.566   2.462   4.734
 2969SOL    HW1 9806   4.526   2.502   4.816
 2969SOL    HW2 9807   4.566   2.362   4.741
 2970SOL     OW 9808   3.038   2.580   5.901
 2970SOL    HW1 9809   3.009   2.496   5.947
 2970SOL    HW2 9810   3.110   2.559   5.835
 2971SOL     OW 9811   4.392   3.455   5.886
 2971SOL    HW1 9812   4.471   3.403   5.920
 2971SOL    HW2 9813   4.320   3.454   5.955
 2972SOL     OW 9814   0.735   6.142   6.665
 2972SOL    HW1 9815   0.802   6.212   6.688
 2972SOL    HW2 9816   0.642   6.180   6.672
 2973SOL     OW 9817   5.878   0.343   3.933
 2973SOL    HW1 9818   5.947   0.326   4.004
 2973SOL    HW2 9819   5.860   0.259   3.882
 2974SOL     OW 9820   5.100   5.587   2.450
 2974SOL    HW1 9821   5.054   5.529   2.383
 2974SOL    HW2 9822   5.039   5.603   2.528
 2975SOL     OW 9823   6.797   3.780   4.907
 2975SOL    HW1 9824   6.816   3.700   4.851
 2975SOL    HW2 9825   6.711   3.823   4.876
 2976SOL     OW 9826   4.121   0.561   0.876
 2976SOL    HW1 9827   4.194   0.566   0.807
 2976SOL    HW2 9828   4.131   0.477   0.929
 2977SOL     OW 9829   1.687   1.654   2.669
 2977SOL    HW1 9830   1.666   1.581   2.604
 2977SOL    HW2 9831   1.700   1.615   2.760
 2978SOL     OW 9832   3.690   5.981   0.301
 2978SOL    HW1 9833   3.745   6.063   0.282
 2978SOL    HW2 9834   3.709   5.948   0.393
 2979SOL     OW 9835   2.156   1.534   5.744
 2979SOL    HW1 9836   2.099   1.452   5.739
 2979SOL    HW2 9837   2.226   1.529   5.672
 2980SOL     OW 9838   3.124   3.086   3.854
 2980SOL    HW1 9839   3.200   3.101   3.917
 2980SOL    HW2 9840   3.132   2.996   3.812
 2981SOL     OW 9841   3.055   2.097   1.650
 2981SOL    HW1 9842   3.126   2.162   1.678
 2981SOL    HW2 9843   3.092   2.005   1.650
 2982SOL     OW 9844   1.182   0.447   1.967
 2982SOL    HW1 9845   1.269   0.478   1.927
 2982SOL    HW2 9846   1.122   0.525   1.981
 2983SOL     OW 9847   6.341   2.499   6.401
 2983SOL    HW1 9848   6.437   2.487   6.423
 2983SOL    HW2 9849   6.300   2.567   6.461
 2984SOL     OW 9850   0.791   6.470   1.108
 2984SOL    HW1 9851   0.760   6.549   1.056
 2984SOL    HW2 9852   0.762   6.386   1.062
 2985SOL     OW 9853   6.818   0.035   5.372
 2985SOL    HW1 9854   6.750   0.108   5.372
 2985SOL    HW2 9855   6.827   7.018   5.464
 2986SOL     OW 9856   4.089   3.622   2.486
 2986SOL    HW1 9857   4.028   3.589   2.415
 2986SOL    HW2 9858   4.052   3.705   2.527
 2987SOL     OW 9859   2.831   6.278   5.155
 2987SOL    HW1 9860   2.759   6.348   5.150
 2987SOL    HW2 9861   2.803   6.205   5.217
 2988SOL     OW 9862   0.570   1.983   6.397
 2988SOL    HW1 9863   0.634   1.906   6.406
 2988SOL    HW2 9864   0.622   2.068   6.390
 2989SOL     OW 9865   5.913   3.792   6.012
 2989SOL    HW1 9866   5.915   3.777   6.111
 2989SOL    HW2 9867   5.833   3.846   5.987
 2990SOL     OW 9868   4.860   1.206   4.974
 2990SOL    HW1 9869   4.923   1.128   4.974
 2990SOL    HW2 9870   4.911   1.290   4.994
 2991SOL     OW 9871   6.835   3.066   0.457
 2991SOL    HW1 9872   6.927   3.027   0.455
 2991SOL    HW2 9873   6.770   2.996   0.426
 2992SOL     OW 9874   1.580   4.110   4.982
 2992SOL    HW1 9875   1.584   4.138   5.078
 2992SOL    HW2 9876   1.510   4.039   4.972
 2993SOL     OW 9877   3.514   4.414   6.662
 2993SOL    HW1 9878   3.511   4.499   6.610
 2993SOL    HW2 9879   3.609   4.392   6.684
 2994SOL     OW 9880   2.805   5.040   4.536
 2994SOL    HW1 9881   2.821   5.116   4.600
 2994SOL    HW2 9882   2.845   4.956   4.574
 2995SOL     OW 9883   4.866   0.213   2.342
 2995SOL    HW1 9884   4.850   0.303   2.382
 2995SOL    HW2 9885   4.885   0.223   2.244
 2996SOL     OW 9886   0.555   0.734   4.049
 2996SOL    HW1 9887   0.540   0.640   4.018
 2996SOL    HW2 9888   0.492   0.795   4.001
 2997SOL     OW 9889   4.658   5.717   3.903
 2997SOL    HW1 9890   4.737   5.764   3.943
 2997SOL    HW2 9891   4.690   5.648   3.838
 2998SOL     OW 9892   2.452   0.018   2.218
 2998SOL    HW1 9893   2.466   7.003   2.125
 2998SOL    HW2 9894   2.502   6.981   2.283
 2999SOL     OW 9895   2.159   4.997   0.326
 2999SOL    HW1 9896   2.080   4.965   0.275
 2999SOL    HW2 9897   2.155   5.097   0.334
 3000SOL     OW 9898   1.770   3.921   6.211
 3000SOL    HW1 9899   1.830   3.850   6.247
 3000SOL    HW2 9900   1.826   3.996   6.176
 3001SOL     OW 9901   3.590   0.182   6.556
 3001SOL    HW1 9902   3.572   0.279   6.575
 3001SOL    HW2 9903   3.504   0.131   6.558
 3002SOL     OW 9904   0.871   2.153   2.216
 3002SOL    HW1 9905   0.847   2.069   2.167
 3002SOL    HW2 9906   0.815   2.229   2.183
 3003SOL     OW 9907   1.776   6.231   0.339
 3003SOL    HW1 9908   1.803   6.323   0.311
 3003SOL    HW2 9909   1.680   6.231   0.368
 3004SOL     OW 9910   3.040   0.720   4.595
 3004SOL    HW1 9911   2.966   0.787   4.596
 3004SOL    HW2 9912   3.027   0.656   4.520
 3005SOL     OW 9913   2.948   1.806   0.289
 3005SOL    HW1 9914   2.969   1.761   0.202
 3005SOL    HW2 9915   3.014   1.880   0.305
 3006SOL     OW 9916   5.560   0.767   6.145
 3006SOL    HW1 9917   5.514   0.685   6.110
 3006SOL    HW2 9918   5.659   0.755   6.137
 3007SOL     OW 9919   6.204   5.779   5.612
 3007SOL    HW1 9920   6.163   5.741   5.695
 3007SOL    HW2 9921   6.232   5.704   5.552
 3008SOL     OW 9922   5.759   3.907   5.456
 3008SOL    HW1 9923   5.764   3.869   5.549
 3008SOL    HW2 9924   5.845   3.892   5.409
 3009SOL     OW 9925   5.504   3.545   1.614
 3009SOL    HW1 9926   5.410   3.550   1.646
 3009SOL    HW2 9927   5.542   3.456   1.636
 3010SOL     OW 9928   4.392   4.744   1.453
 3010SOL    HW1 9929   4.428   4.756   1.545
 3010SOL    HW2 9930   4.305   4.794   1.444
 3011SOL     OW 9931   5.831   0.110   0.515
 3011SOL    HW1 9932   5.740   0.070   0.511
 3011SOL    HW2 9933   5.843   0.157   0.603
 3012SOL     OW 9934   2.674   1.163   4.427
 3012SOL    HW1 9935   2.635   1.074   4.452
 3012SOL    HW2 9936   2.612   1.210   4.364
 3013SOL     OW 9937   0.475   5.238   5.247
 3013SOL    HW1 9938   0.553   5.227   5.185
 3013SOL    HW2 9939   0.435   5.329   5.236
 3014SOL     OW 9940   4.238   0.664   0.325
 3014SOL    HW1 9941   4.227   0.726   0.247
 3014SOL    HW2 9942   4.212   0.572   0.297
 3015SOL     OW 9943   2.247   6.542   6.487
 3015SOL    HW1 9944   2.213   6.624   6.440
 3015SOL    HW2 9945   2.332   6.564   6.536
 3016SOL     OW 9946   3.438   0.931   4.353
 3016SOL    HW1 9947   3.398   0.843   4.328
 3016SOL    HW2 9948   3.496   0.920   4.434
 3017SOL     OW 9949   1.265   5.999   0.568
 3017SOL    HW1 9950   1.302   5.911   0.538
 3017SOL    HW2 9951   1.165   5.998   0.560
 3018SOL     OW 9952   2.250   2.908   1.843
 3018SOL    HW1 9953   2.164   2.909   1.792
 3018SOL    HW2 9954   2.242   2.968   1.922
 3019SOL     OW 9955   0.950   1.048   5.790
 3019SOL    HW1 9956   1.030   1.030   5.733
 3019SOL    HW2 9957   0.868   1.016   5.743
 3020SOL     OW 9958   5.484   4.450   6.148
 3020SOL    HW1 9959   5.434   4.495   6.074
 3020SOL    HW2 9960   5.420   4.416   6.216
 3021SOL     OW 9961   4.376   6.382   4.349
 3021SOL    HW1 9962   4.438   6.369   4.427
 3021SOL    HW2 9963   4.301   6.316   4.355
 3022SOL     OW 9964   3.761   6.672   2.946
 3022SOL    HW1 9965   3.787   6.580   2.974
 3022SOL    HW2 9966   3.746   6.729   3.026
 3023SOL     OW 9967   5.218   4.421   4.758
 3023SOL    HW1 9968   5.289   4.468   4.809
 3023SOL    HW2 9969   5.245   4.326   4.743
 3024SOL     OW 9970   6.387   1.554   6.412
 3024SOL    HW1 9971   6.448   1.580   6.486
 3024SOL    HW2 9972   6.413   1.464   6.376
 3025SOL     OW 9973   4.040   5.252   0.809
 3025SOL    HW1 9974   3.979   5.232   0.886
 3025SOL    HW2 9975   4.108   5.320   0.837
 3026SOL     OW 9976   0.067   0.001   2.570
 3026SOL    HW1 9977   0.065   6.924   2.593
 3026SOL    HW2 9978   0.023   0.053   2.644
 3027SOL     OW 9979   4.403   0.428   0.663
 3027SOL    HW1 9980   4.411   0.379   0.750
 3027SOL    HW2 9981   4.362   0.368   0.594
 3028SOL     OW 9982   4.115   3.413   3.900
 3028SOL    HW1 9983   4.056   3.465   3.961
 3028SOL    HW2 9984   4.211   3.435   3.919
 3029SOL     OW 9985   6.476   2.587   4.270
 3029SOL    HW1 9986   6.399   2.598   4.208
 3029SOL    HW2 9987   6.521   2.676   4.283
 3030SOL     OW 9988   0.332   3.914   6.596
 3030SOL    HW1 9989   0.278   3.862   6.529
 3030SOL    HW2 9990   0.420   3.939   6.555
 3031SOL     OW 9991   0.281   5.001   6.936
 3031SOL    HW1 9992   0.350   4.949   6.886
 3031SOL    HW2 9993   0.214   5.039   6.872
 3032SOL     OW 9994   3.724   0.035   3.971
 3032SOL    HW1 9995   3.747   0.131   3.953
 3032SOL    HW2 9996   3.797   7.013   4.024
 3033SOL     OW 9997   1.905   0.909   6.632
 3033SOL    HW1 9998   1.942   0.899   6.725
 3033SOL    HW2 9999   1.976   0.888   6.565
 3034SOL     OW10000   5.359   3.257   3.368
 3034SOL    HW110001   5.429   3.185   3.362
 3034SOL    HW210002   5.333   3.287   3.276
 3035SOL     OW10003   6.597   4.202   6.500
 3035SOL    HW110004   6.528   4.131   6.483
 3035SOL    HW210005   6.643   4.185   6.587
 3036SOL     OW10006   3.244   2.295   6.257
 3036SOL    HW110007   3.243   2.196   6.243
 3036SOL    HW210008   3.155   2.333   6.232
 3037SOL     OW10009   0.562   5.585   5.961
 3037SOL    HW110010   0.495   5.519   5.927
 3037SOL    HW210011   0.551   5.672   5.914
 3038SOL     OW10012   5.661   4.752   5.503
 3038SOL    HW110013   5.705   4.700   5.430
 3038SOL    HW210014   5.729   4.776   5.573
 3039SOL     OW10015   6.074   3.270   6.757
 3039SOL    HW110016   6.090   3.255   6.660
 3039SOL    HW210017   5.979   3.248   6.779
 3040SOL     OW10018   4.308   6.513   6.618
 3040SOL    HW110019   4.319   6.449   6.542
 3040SOL    HW210020   4.249   6.589   6.590
 3041SOL     OW10021   2.333   6.022   6.209
 3041SOL    HW110022   2.427   6.026   6.244
 3041SOL    HW210023   2.334   6.037   6.110
 3042SOL     OW10024   0.318   5.345   3.920
 3042SOL    HW110025   0.404   5.308   3.953
 3042SOL    HW210026   0.242   5.295   3.961
 3043SOL     OW10027   2.497   3.654   1.151
 3043SOL    HW110028   2.547   3.626   1.233
 3043SOL    HW210029   2.399   3.651   1.169
 3044SOL     OW10030   3.999   3.622   4.089
 3044SOL    HW110031   4.000   3.659   4.182
 3044SOL    HW210032   3.904   3.606   4.061
 3045SOL     OW10033   5.950   0.072   3.251
 3045SOL    HW110034   5.955   0.151   3.190
 3045SOL    HW210035   5.868   0.019   3.232
 3046SOL     OW10036   6.537   5.705   1.268
 3046SOL    HW110037   6.512   5.784   1.323
 3046SOL    HW210038   6.565   5.630   1.328
 3047SOL     OW10039   4.448   1.800   3.581
 3047SOL    HW110040   4.491   1.871   3.637
 3047SOL    HW210041   4.364   1.770   3.624
 3048SOL     OW10042   4.783   5.170   1.154
 3048SOL    HW110043   4.688   5.198   1.139
 3048SOL    HW210044   4.788   5.070   1.154
 3049SOL     OW10045   0.365   0.699   1.221
 3049SOL    HW110046   0.357   0.735   1.128
 3049SOL    HW210047   0.462   0.684   1.242
 3050SOL     OW10048   3.571   2.536   5.590
 3050SOL    HW110049   3.490   2.545   5.533
 3050SOL    HW210050   3.554   2.467   5.661
 3051SOL     OW10051   1.957   4.137   6.072
 3051SOL    HW110052   2.013   4.079   6.014
 3051SOL    HW210053   2.000   4.227   6.082
 3052SOL     OW10054   6.130   6.028   4.138
 3052SOL    HW110055   6.039   6.014   4.100
 3052SOL    HW210056   6.169   5.940   4.166
 3053SOL     OW10057   0.492   5.882   5.899
 3053SOL    HW110058   0.392   5.875   5.906
 3053SOL    HW210059   0.525   5.955   5.958
 3054SOL     OW10060   5.903   6.443   3.294
 3054SOL    HW110061   5.999   6.462   3.274
 3054SOL    HW210062   5.854   6.529   3.311
 3055SOL     OW10063   5.405   6.850   0.559
 3055SOL    HW110064   5.319   6.846   0.611
 3055SOL    HW210065   5.446   6.759   0.554
 3056SOL     OW10066   4.475   1.964   0.755
 3056SOL    HW110067   4.496   1.867   0.762
 3056SOL    HW210068   4.512   2.012   0.835
 3057SOL     OW10069   6.927   2.925   3.248
 3057SOL    HW110070   6.915   2.937   3.150
 3057SOL    HW210071   6.983   2.844   3.266
 3058SOL     OW10072   5.654   3.646   6.631
 3058SOL    HW110073   5.715   3.567   6.621
 3058SOL    HW210074   5.593   3.651   6.552
 3059SOL     OW10075   1.799   2.498   3.633
 3059SOL    HW110076   1.884   2.515   3.583
 3059SOL    HW210077   1.740   2.578   3.625
 3060SOL     OW10078   5.883   3.066   3.684
 3060SOL    HW110079   5.804   3.122   3.658
 3060SOL    HW210080   5.858   2.970   3.680
 3061SOL     OW10081   5.325   6.234   2.799
 3061SOL    HW110082   5.314   6.162   2.868
 3061SOL    HW210083   5.403   6.292   2.823
 3062SOL     OW10084   3.865   5.172   0.239
 3062SOL    HW110085   3.863   5.153   0.337
 3062SOL    HW210086   3.919   5.254   0.221
 3063SOL     OW10087   6.388   5.256   0.804
 3063SOL    HW110088   6.486   5.263   0.785
 3063SOL    HW210089   6.369   5.288   0.896
 3064SOL     OW10090   5.092   0.928   6.199
 3064SOL    HW110091   5.032   0.972   6.131
 3064SOL    HW210092   5.096   0.984   6.281
 3065SOL     OW10093   5.154   0.692   6.655
 3065SOL    HW110094   5.125   0.598   6.672
 3065SOL    HW210095   5.095   0.733   6.585
 3066SOL     OW10096   5.002   6.686   5.693
 3066SOL    HW110097   4.966   6.658   5.604
 3066SOL    HW210098   4.990   6.785   5.704
 3067SOL     OW10099   1.345   2.646   4.639
 3067SOL    HW110100   1.281   2.711   4.679
 3067SOL    HW210101   1.423   2.633   4.701
 3068SOL     OW10102   5.844   0.174   0.797
 3068SOL    HW110103   5.754   0.142   0.828
 3068SOL    HW210104   5.895   0.210   0.874
 3069SOL     OW10105   5.669   5.752   3.831
 3069SOL    HW110106   5.726   5.673   3.854
 3069SOL    HW210107   5.580   5.720   3.798
 3070SOL     OW10108   2.771   1.613   0.876
 3070SOL    HW110109   2.804   1.648   0.964
 3070SOL    HW210110   2.850   1.592   0.818
 3071SOL     OW10111   5.777   4.549   4.419
 3071SOL    HW110112   5.713   4.555   4.342
 3071SOL    HW210113   5.807   4.454   4.429
 3072SOL     OW10114   2.107   6.473   4.606
 3072SOL    HW110115   2.070   6.387   4.641
 3072SOL    HW210116   2.045   6.510   4.537
 3073SOL     OW10117   0.327   4.951   3.246
 3073SOL    HW110118   0.235   4.979   3.272
 3073SOL    HW210119   0.354   4.998   3.162
 3074SOL     OW10120   3.302   3.331   2.114
 3074SOL    HW110121   3.273   3.320   2.209
 3074SOL    HW210122   3.324   3.241   2.076
 3075SOL     OW10123   3.709   4.552   0.424
 3075SOL    HW110124   3.765   4.591   0.350
 3075SOL    HW210125   3.625   4.513   0.385
 3076SOL     OW10126   1.762   1.436   4.096
 3076SOL    HW110127   1.731   1.505   4.030
 3076SOL    HW210128   1.829   1.376   4.053
 3077SOL     OW10129   6.645   3.323   2.771
 3077SOL    HW110130   6.704   3.396   2.736
 3077SOL    HW210131   6.550   3.353   2.769
 3078SOL     OW10132   6.224   4.287   1.240
 3078SOL    HW110133   6.164   4.319   1.313
 3078SOL    HW210134   6.172   4.279   1.155
 3079SOL     OW10135   0.241   3.984   2.783
 3079SOL    HW110136   0.245   4.074   2.741
 3079SOL    HW210137   0.305   3.923   2.736
 3080SOL     OW10138   3.776   4.670   1.612
 3080SOL    HW110139   3.857   4.622   1.645
 3080SOL    HW210140   3.707   4.674   1.685
 3081SOL     OW10141   1.683   2.845   6.020
 3081SOL    HW110142   1.665   2.767   5.960
 3081SOL    HW210143   1.727   2.918   5.969
 3082SOL     OW10144   5.961   3.949   5.014
 3082SOL    HW110145   5.867   3.984   5.013
 3082SOL    HW210146   6.015   4.002   5.080
 3083SOL     OW10147   3.905   6.001   1.132
 3083SOL    HW110148   3.809   5.987   1.155
 3083SOL    HW210149   3.931   6.095   1.153
 3084SOL     OW10150   0.107   5.320   4.122
 3084SOL    HW110151   0.093   5.234   4.172
 3084SOL    HW210152   0.171   5.378   4.171
 3085SOL     OW10153   6.442   5.639   5.999
 3085SOL    HW110154   6.366   5.606   6.055
 3085SOL    HW210155   6.408   5.678   5.914
 3086SOL     OW10156   6.001   6.113   5.899
 3086SOL    HW110157   6.085   6.123   5.844
 3086SOL    HW210158   5.942   6.193   5.884
 3087SOL     OW10159   3.097   0.080   1.532
 3087SOL    HW110160   3.077   7.003   1.539
 3087SOL    HW210161   3.191   0.093   1.501
 3088SOL     OW10162   2.407   3.214   5.361
 3088SOL    HW110163   2.493   3.235   5.408
 3088SOL    HW210164   2.420   3.134   5.303
 3089SOL     OW10165   4.007   6.769   0.447
 3089SOL    HW110166   4.037   6.679   0.479
 3089SOL    HW210167   3.975   6.823   0.524
 3090SOL     OW10168   1.569   2.450   2.513
 3090SOL    HW110169   1.499   2.490   2.572
 3090SOL    HW210170   1.654   2.440   2.564
 3091SOL     OW10171   1.277   2.523   6.247
 3091SOL    HW110172   1.250   2.459   6.319
 3091SOL    HW210173   1.282   2.474   6.160
 3092SOL     OW10174   5.116   1.939   2.943
 3092SOL    HW110175   5.067   2.023   2.918
 3092SOL    HW210176   5.050   1.867   2.961
 3093SOL     OW10177   6.342   5.643   6.686
 3093SOL    HW110178   6.364   5.552   6.721
 3093SOL    HW210179   6.323   5.704   6.763
 3094SOL     OW10180   2.509   0.643   5.641
 3094SOL    HW110181   2.485   0.701   5.563
 3094SOL    HW210182   2.480   0.688   5.725
 3095SOL     OW10183   1.972   3.733   6.264
 3095SOL    HW110184   2.039   3.661   6.246
 3095SOL    HW210185   1.929   3.716   6.353
 3096SOL     OW10186   2.070   3.353   3.722
 3096SOL    HW110187   2.139   3.285   3.747
 3096SOL    HW210188   1.983   3.307   3.703
 3097SOL     OW10189   5.427   2.566   6.269
 3097SOL    HW110190   5.416   2.580   6.171
 3097SOL    HW210191   5.517   2.526   6.286
 3098SOL     OW10192   1.865   3.778   2.191
 3098SOL    HW110193   1.952   3.746   2.152
 3098SOL    HW210194   1.789   3.738   2.140
 3099SOL     OW10195   0.199   0.302   5.762
 3099SOL    HW110196   0.257   0.223   5.785
 3099SOL    HW210197   0.249   0.386   5.782
 3100SOL     OW10198   6.227   3.795   2.839
 3100SOL    HW110199   6.256   3.741   2.918
 3100SOL    HW210200   6.297   3.791   2.768
 3101SOL     OW10201   5.391   0.588   3.955
 3101SOL    HW110202   5.469   0.641   3.923
 3101SOL    HW210203   5.402   0.493   3.925
 3102SOL     OW10204   5.888   3.867   3.101
 3102SOL    HW110205   5.922   3.824   3.018
 3102SOL    HW210206   5.818   3.809   3.143
 3103SOL     OW10207   1.358   1.147   2.690
 3103SOL    HW110208   1.387   1.242   2.676
 3103SOL    HW210209   1.322   1.111   2.604
 3104SOL     OW10210   5.812   1.678   6.302
 3104SOL    HW110211   5.819   1.594   6.355
 3104SOL    HW210212   5.893   1.688   6.244
 3105SOL     OW10213   5.737   4.194   0.372
 3105SOL    HW110214   5.773   4.245   0.294
 3105SOL    HW210215   5.769   4.099   0.367
 3106SOL     OW10216   5.362   2.107   5.862
 3106SOL    HW110217   5.278   2.053   5.871
 3106SOL    HW210218   5.438   2.046   5.843
 3107SOL     OW10219   4.176   2.266   4.782
 3107SOL    HW110220   4.245   2.309   4.724
 3107SOL    HW210221   4.190   2.295   4.877
 3108SOL     OW10222   1.940   4.223   3.961
 3108SOL    HW110223   1.923   4.169   3.878
 3108SOL    HW210224   2.018   4.283   3.947
 3109SOL     OW10225   0.039   5.179   3.655
 3109SOL    HW110226   7.005   5.220   3.729
 3109SOL    HW210227   0.055   5.246   3.584
 3110SOL     OW10228   1.431   5.901   4.076
 3110SOL    HW110229   1.440   5.806   4.047
 3110SOL    HW210230   1.355   5.909   4.141
 3111SOL     OW10231   6.913   3.657   4.109
 3111SOL    HW110232   6.929   3.734   4.171
 3111SOL    HW210233   6.815   3.637   4.105
 3112SOL     OW10234   4.267   0.747   1.211
 3112SOL    HW110235   4.339   0.736   1.142
 3112SOL    HW210236   4.266   0.842   1.243
 3113SOL     OW10237   1.235   6.907   4.303
 3113SOL    HW110238   1.158   6.845   4.289
 3113SOL    HW210239   1.238   6.974   4.230
 3114SOL     OW10240   4.915   5.380   5.506
 3114SOL    HW110241   4.908   5.401   5.603
 3114SOL    HW210242   5.000   5.418   5.469
 3115SOL     OW10243   4.765   5.705   5.232
 3115SOL    HW110244   4.681   5.734   5.186
 3115SOL    HW210245   4.844   5.747   5.188
 3116SOL     OW10246   0.990   2.384   6.546
 3116SOL    HW110247   1.034   2.472   6.566
 3116SOL    HW210248   1.016   2.354   6.454
 3117SOL     OW10249   4.222   0.312   1.920
 3117SOL    HW110250   4.184   0.224   1.951
 3117SOL    HW210251   4.314   0.297   1.886
 3118SOL     OW10252   0.750   2.232   3.351
 3118SOL    HW110253   0.703   2.257   3.436
 3118SOL    HW210254   0.772   2.134   3.352
 3119SOL     OW10255   4.504   6.424   3.917
 3119SOL    HW110256   4.451   6.341   3.897
 3119SOL    HW210257   4.487   6.492   3.846
 3120SOL     OW10258   3.669   6.257   6.403
 3120SOL    HW110259   3.592   6.319   6.388
 3120SOL    HW210260   3.694   6.259   6.500
 3121SOL     OW10261   3.745   1.830   2.995
 3121SOL    HW110262   3.770   1.747   3.045
 3121SOL    HW210263   3.648   1.826   2.969
 3122SOL     OW10264   5.791   3.691   6.256
 3122SOL    HW110265   5.774   3.592   6.253
 3122SOL    HW210266   5.705   3.740   6.242
 3123SOL     OW10267   2.056   2.838   2.256
 3123SOL    HW110268   2.059   2.880   2.347
 3123SOL    HW210269   2.114   2.891   2.193
 3124SOL     OW10270   4.861   6.663   5.986
 3124SOL    HW110271   4.918   6.608   5.924
 3124SOL    HW210272   4.824   6.605   6.058
 3125SOL     OW10273   1.703   1.804   5.061
 3125SOL    HW110274   1.785   1.832   5.111
 3125SOL    HW210275   1.694   1.704   5.065
 3126SOL     OW10276   4.926   4.389   5.536
 3126SOL    HW110277   4.945   4.320   5.466
 3126SOL    HW210278   4.887   4.344   5.617
 3127SOL     OW10279   6.049   1.955   5.923
 3127SOL    HW110280   6.013   1.997   6.006
 3127SOL    HW210281   6.015   1.861   5.916
 3128SOL     OW10282   4.229   1.378   1.180
 3128SOL    HW110283   4.172   1.376   1.262
 3128SOL    HW210284   4.275   1.467   1.174
 3129SOL     OW10285   4.461   4.698   0.328
 3129SOL    HW110286   4.447   4.720   0.231
 3129SOL    HW210287   4.426   4.772   0.385
 3130SOL     OW10288   6.759   6.013   2.478
 3130SOL    HW110289   6.805   5.957   2.410
 3130SOL    HW210290   6.827   6.059   2.535
 3131SOL     OW10291   0.216   2.529   3.130
 3131SOL    HW110292   0.184   2.620   3.105
 3131SOL    HW210293   0.141   2.476   3.169
 3132SOL     OW10294   4.370   3.760   6.217
 3132SOL    HW110295   4.413   3.723   6.134
 3132SOL    HW210296   4.440   3.777   6.286
 3133SOL     OW10297   6.067   6.265   3.934
 3133SOL    HW110298   6.128   6.344   3.936
 3133SOL    HW210299   6.100   6.196   3.998
 3134SOL     OW10300   4.405   5.232   2.783
 3134SOL    HW110301   4.344   5.298   2.740
 3134SOL    HW210302   4.359   5.190   2.861
 3135SOL     OW10303   3.850   0.675   6.174
 3135SOL    HW110304   3.931   0.711   6.220
 3135SOL    HW210305   3.857   0.576   6.166
 3136SOL     OW10306   6.387   6.593   2.079
 3136SOL    HW110307   6.287   6.595   2.084
 3136SOL    HW210308   6.425   6.649   2.153
 3137SOL     OW10309   5.238   4.182   6.759
 3137SOL    HW110310   5.331   4.177   6.724
 3137SOL    HW210311   5.241   4.204   6.857
 3138SOL     OW10312   6.748   6.591   4.656
 3138SOL    HW110313   6.827   6.603   4.596
 3138SOL    HW210314   6.679   6.660   4.635
 3139SOL     OW10315   1.298   4.897   1.976
 3139SOL    HW110316   1.325   4.880   2.071
 3139SOL    HW210317   1.199   4.903   1.970
 3140SOL     OW10318   5.142   5.800   0.104
 3140SOL    HW110319   5.106   5.814   0.196
 3140SOL    HW210320   5.125   5.706   0.075
 3141SOL     OW10321   5.981   2.234   0.372
 3141SOL    HW110322   5.990   2.332   0.355
 3141SOL    HW210323   5.910   2.219   0.441
 3142SOL     OW10324   4.688   0.538   4.059
 3142SOL    HW110325   4.598   0.511   4.027
 3142SOL    HW210326   4.680   0.583   4.148
 3143SOL     OW10327   6.307   1.638   0.471
 3143SOL    HW110328   6.326   1.678   0.561
 3143SOL    HW210329   6.388   1.589   0.439
 3144SOL     OW10330   3.808   4.937   6.389
 3144SOL    HW110331   3.907   4.931   6.388
 3144SOL    HW210332   3.779   5.029   6.365
 3145SOL     OW10333   0.736   6.175   5.741
 3145SOL    HW110334   0.743   6.274   5.746
 3145SOL    HW210335   0.712   6.138   5.831
 3146SOL     OW10336   6.671   1.685   4.226
 3146SOL    HW110337   6.727   1.654   4.303
 3146SOL    HW210338   6.615   1.610   4.192
 3147SOL     OW10339   4.512   6.973   0.839
 3147SOL    HW110340   4.589   0.014   0.819
 3147SOL    HW210341   4.446   6.977   0.763
 3148SOL     OW10342   5.955   5.022   0.407
 3148SOL    HW110343   5.953   5.078   0.490
 3148SOL    HW210344   6.010   5.068   0.337
 3149SOL     OW10345   4.079   3.131   0.018
 3149SOL    HW110346   4.107   3.218   6.997
 3149SOL    HW210347   3.981   3.134   0.039
 3150SOL     OW10348   0.270   0.241   5.151
 3150SOL    HW110349   0.180   0.207   5.121
 3150SOL    HW210350   0.316   0.285   5.074
 3151SOL     OW10351   0.011   1.516   6.138
 3151SOL    HW110352   6.944   1.535   6.094
 3151SOL    HW210353   7.017   1.449   6.211
 3152SOL     OW10354   2.802   2.002   5.928
 3152SOL    HW110355   2.881   2.039   5.976
 3152SOL    HW210356   2.766   2.071   5.865
 3153SOL     OW10357   6.245   5.812   1.926
 3153SOL    HW110358   6.189   5.808   2.009
 3153SOL    HW210359   6.327   5.756   1.938
 3154SOL     OW10360   3.589   2.194   0.913
 3154SOL    HW110361   3.519   2.123   0.924
 3154SOL    HW210362   3.584   2.231   0.820
 3155SOL     OW10363   0.612   5.883   6.881
 3155SOL    HW110364   0.548   5.810   6.908
 3155SOL    HW210365   0.593   5.910   6.786
 3156SOL     OW10366   3.268   3.809   0.896
 3156SOL    HW110367   3.324   3.878   0.849
 3156SOL    HW210368   3.172   3.833   0.888
 3157SOL     OW10369   1.371   1.405   3.931
 3157SOL    HW110370   1.430   1.471   3.884
 3157SOL    HW210371   1.289   1.390   3.877
 3158SOL     OW10372   2.483   0.201   6.178
 3158SOL    HW110373   2.527   0.163   6.259
 3158SOL    HW210374   2.504   0.298   6.170
 3159SOL     OW10375   4.299   6.213   1.352
 3159SOL    HW110376   4.348   6.156   1.287
 3159SOL    HW210377   4.201   6.191   1.347
 3160SOL     OW10378   2.499   0.835   5.427
 3160SOL    HW110379   2.555   0.817   5.346
 3160SOL    HW210380   2.445   0.918   5.412
 3161SOL     OW10381   1.588   2.673   1.638
 3161SOL    HW110382   1.537   2.633   1.715
 3161SOL    HW210383   1.607   2.769   1.658
 3162SOL     OW10384   1.111   5.744   1.988
 3162SOL    HW110385   1.195   5.725   1.936
 3162SOL    HW210386   1.058   5.814   1.940
 3163SOL     OW10387   5.163   4.530   1.490
 3163SOL    HW110388   5.088   4.549   1.427
 3163SOL    HW210389   5.131   4.540   1.584
 3164SOL     OW10390   2.341   0.324   3.832
 3164SOL    HW110391   2.418   0.323   3.768
 3164SOL    HW210392   2.317   0.230   3.856
 3165SOL     OW10393   0.424   5.658   6.919
 3165SOL    HW110394   0.444   5.561   6.931
 3165SOL    HW210395   0.361   5.670   6.842
 3166SOL     OW10396   3.665   1.827   4.910
 3166SOL    HW110397   3.758   1.858   4.889
 3166SOL    HW210398   3.628   1.778   4.831
 3167SOL     OW10399   6.719   3.461   2.004
 3167SOL    HW110400   6.671   3.466   1.916
 3167SOL    HW210401   6.815   3.487   1.991
 3168SOL     OW10402   5.415   1.661   0.660
 3168SOL    HW110403   5.366   1.703   0.737
 3168SOL    HW210404   5.351   1.608   0.605
 3169SOL     OW10405   0.759   2.750   1.904
 3169SOL    HW110406   0.813   2.758   1.988
 3169SOL    HW210407   0.821   2.746   1.825
 3170SOL     OW10408   2.192   4.375   3.957
 3170SOL    HW110409   2.266   4.369   4.023
 3170SOL    HW210410   2.188   4.468   3.919
 3171SOL     OW10411   5.255   1.573   5.099
 3171SOL    HW110412   5.271   1.589   5.197
 3171SOL    HW210413   5.245   1.660   5.052
 3172SOL     OW10414   6.209   4.016   1.331
 3172SOL    HW110415   6.246   4.091   1.276
 3172SOL    HW210416   6.142   4.053   1.396
 3173SOL     OW10417   4.718   3.810   0.003
 3173SOL    HW110418   4.750   3.720   0.029
 3173SOL    HW210419   4.651   3.843   0.070
 3174SOL     OW10420   2.840   3.073   6.866
 3174SOL    HW110421   2.917   3.099   6.923
 3174SOL    HW210422   2.813   3.151   6.808
 3175SOL     OW10423   6.354   5.812   5.213
 3175SOL    HW110424   6.276   5.763   5.173
 3175SOL    HW210425   6.424   5.747   5.241
 3176SOL     OW10426   0.028   4.715   3.685
 3176SOL    HW110427   0.051   4.783   3.614
 3176SOL    HW210428   0.100   4.713   3.754
 3177SOL     OW10429   5.291   2.354   1.836
 3177SOL    HW110430   5.219   2.421   1.822
 3177SOL    HW210431   5.323   2.320   1.747
 3178SOL     OW10432   1.325   0.753   2.823
 3178SOL    HW110433   1.406   0.811   2.818
 3178SOL    HW210434   1.337   0.685   2.895
 3179SOL     OW10435   0.876   3.737   2.551
 3179SOL    HW110436   0.894   3.772   2.459
 3179SOL    HW210437   0.813   3.659   2.545
 3180SOL     OW10438   6.011   0.132   6.579
 3180SOL    HW110439   6.037   0.216   6.532
 3180SOL    HW210440   5.937   0.087   6.529
 3181SOL     OW10441   0.372   6.602   4.562
 3181SOL    HW110442   0.459   6.612   4.514
 3181SOL    HW210443   0.379   6.529   4.630
 3182SOL     OW10444   1.434   0.136   1.296
 3182SOL    HW110445   1.374   0.059   1.317
 3182SOL    HW210446   1.414   0.170   1.204
 3183SOL     OW10447   4.236   4.050   0.163
 3183SOL    HW110448   4.279   4.076   0.076
 3183SOL    HW210449   4.219   3.951   0.163
 3184SOL     OW10450   6.367   0.892   4.442
 3184SOL    HW110451   6.327   0.896   4.350
 3184SOL    HW210452   6.342   0.806   4.486
 3185SOL     OW10453   1.621   0.163   6.100
 3185SOL    HW110454   1.630   0.064   6.112
 3185SOL    HW210455   1.647   0.187   6.007
 3186SOL     OW10456   0.704   1.998   5.716
 3186SOL    HW110457   0.691   2.023   5.812
 3186SOL    HW210458   0.689   1.900   5.705
 3187SOL     OW10459   4.937   0.251   3.481
 3187SOL    HW110460   4.848   0.239   3.438
 3187SOL    HW210461   4.982   0.332   3.443
 3188SOL     OW10462   1.722   6.278   1.241
 3188SOL    HW110463   1.737   6.281   1.340
 3188SOL    HW210464   1.637   6.326   1.219
 3189SOL     OW10465   2.714   1.548   5.787
 3189SOL    HW110466   2.756   1.628   5.744
 3189SOL    HW210467   2.709   1.473   5.721
 3190SOL     OW10468   6.096   6.154   4.807
 3190SOL    HW110469   5.998   6.169   4.803
 3190SOL    HW210470   6.137   6.174   4.718
 3191SOL     OW10471   4.233   5.168   1.080
 3191SOL    HW110472   4.174   5.117   1.017
 3191SOL    HW210473   4.226   5.266   1.060
 3192SOL     OW10474   5.730   0.475   3.072
 3192SOL    HW110475   5.644   0.424   3.070
 3192SOL    HW210476   5.732   0.535   3.152
 3193SOL     OW10477   3.653   5.468   4.538
 3193SOL    HW110478   3.560   5.499   4.518
 3193SOL    HW210479   3.716   5.503   4.470
 3194SOL     OW10480   2.551   6.665   5.242
 3194SOL    HW110481   2.579   6.748   5.290
 3194SOL    HW210482   2.461   6.636   5.275
 3195SOL     OW10483   0.525   5.467   1.044
 3195SOL    HW110484   0.614   5.492   1.081
 3195SOL    HW210485   0.453   5.500   1.105
 3196SOL     OW10486   6.084   0.144   2.802
 3196SOL    HW110487   6.055   0.085   2.878
 3196SOL    HW210488   6.011   0.209   2.780
 3197SOL     OW10489   3.006   1.019   0.138
 3197SOL    HW110490   3.017   0.953   0.213
 3197SOL    HW210491   3.096   1.050   0.108
 3198SOL     OW10492   5.244   4.358   4.016
 3198SOL    HW110493   5.321   4.376   3.955
 3198SOL    HW210494   5.243   4.261   4.040
 3199SOL     OW10495   5.024   3.693   3.682
 3199SOL    HW110496   4.945   3.741   3.644
 3199SOL    HW210497   5.062   3.631   3.613
 3200SOL     OW10498   6.462   3.509   4.894
 3200SOL    HW110499   6.472   3.455   4.811
 3200SOL    HW210500   6.405   3.460   4.959
 3201SOL     OW10501   6.373   3.393   2.745
 3201SOL    HW110502   6.357   3.474   2.689
 3201SOL    HW210503   6.286   3.351   2.769
 3202SOL     OW10504   2.825   2.759   6.185
 3202SOL    HW110505   2.784   2.713   6.106
 3202SOL    HW210506   2.917   2.723   6.200
 3203SOL     OW10507   3.169   6.280   1.881
 3203SOL    HW110508   3.238   6.321   1.940
 3203SOL    HW210509   3.214   6.237   1.802
 3204SOL     OW10510   5.180   0.595   3.700
 3204SOL    HW110511   5.098   0.651   3.714
 3204SOL    HW210512   5.158   0.499   3.717
 3205SOL     OW10513   4.767   3.191   0.043
 3205SOL    HW110514   4.816   3.239   0.117
 3205SOL    HW210515   4.829   3.125   0.000
 3206SOL     OW10516   3.184   4.793   0.494
 3206SOL    HW110517   3.237   4.863   0.448
 3206SOL    HW210518   3.245   4.723   0.530
 3207SOL     OW10519   1.942   6.464   3.402
 3207SOL    HW110520   1.984   6.460   3.492
 3207SOL    HW210521   1.958   6.554   3.361
 3208SOL     OW10522   0.100   3.904   6.773
 3208SOL    HW110523   0.035   3.861   6.709
 3208SOL    HW210524   0.181   3.933   6.723
 3209SOL     OW10525   4.897   0.238   5.133
 3209SOL    HW110526   4.985   0.276   5.102
 3209SOL    HW210527   4.830   0.312   5.141
 3210SOL     OW10528   5.105   5.033   2.397
 3210SOL    HW110529   5.075   4.985   2.480
 3210SOL    HW210530   5.179   4.981   2.353
 3211SOL     OW10531   2.373   6.793   6.903
 3211SOL    HW110532   2.358   6.746   6.990
 3211SOL    HW210533   2.433   6.871   6.918
 3212SOL     OW10534   3.543   6.701   4.368
 3212SOL    HW110535   3.474   6.675   4.435
 3212SOL    HW210536   3.626   6.730   4.415
 3213SOL     OW10537   1.794   0.418   5.819
 3213SOL    HW110538   1.813   0.410   5.917
 3213SOL    HW210539   1.836   0.501   5.783
 3214SOL     OW10540   3.034   0.405   2.795
 3214SOL    HW110541   3.121   0.399   2.843
 3214SOL    HW210542   3.029   0.492   2.745
 3215SOL     OW10543   2.142   3.005   2.075
 3215SOL    HW110544   2.140   3.092   2.125
 3215SOL    HW210545   2.070   3.005   2.005
 3216SOL     OW10546   5.895   4.592   0.843
 3216SOL    HW110547   5.912   4.667   0.780
 3216SOL    HW210548   5.798   4.567   0.842
 3217SOL     OW10549   6.404   6.015   3.336
 3217SOL    HW110550   6.407   5.927   3.382
 3217SOL    HW210551   6.308   6.040   3.319
 3218SOL     OW10552   5.855   1.308   3.379
 3218SOL    HW110553   5.842   1.225   3.326
 3218SOL    HW210554   5.861   1.285   3.476
 3219SOL     OW10555   5.103   1.908   4.286
 3219SOL    HW110556   5.106   1.822   4.236
 3219SOL    HW210557   5.018   1.956   4.265
 3220SOL     OW10558   0.405   3.425   5.588
 3220SOL    HW110559   0.333   3.361   5.558
 3220SOL    HW210560   0.371   3.480   5.664
 3221SOL     OW10561   4.011   1.383   2.358
 3221SOL    HW110562   4.011   1.395   2.259
 3221SOL    HW210563   3.967   1.461   2.401
 3222SOL     OW10564   3.092   1.414   3.760
 3222SOL    HW110565   3.131   1.324   3.780
 3222SOL    HW210566   3.030   1.406   3.682
 3223SOL     OW10567   1.648   5.624   0.598
 3223SOL    HW110568   1.648   5.672   0.686
 3223SOL    HW210569   1.678   5.529   0.612
 3224SOL     OW10570   4.426   2.478   3.764
 3224SOL    HW110571   4.486   2.401   3.741
 3224SOL    HW210572   4.336   2.443   3.789
 3225SOL     OW10573   4.505   1.110   4.734
 3225SOL    HW110574   4.601   1.103   4.706
 3225SOL    HW210575   4.451   1.145   4.658
 3226SOL     OW10576   5.914   1.110   0.695
 3226SOL    HW110577   5.815   1.099   0.687
 3226SOL    HW210578   5.952   1.034   0.748
 3227SOL     OW10579   5.869   4.173   5.490
 3227SOL    HW110580   5.958   4.143   5.455
 3227SOL    HW210581   5.818   4.094   5.524
 3228SOL     OW10582   2.022   4.470   0.542
 3228SOL    HW110583   2.016   4.372   0.562
 3228SOL    HW210584   1.980   4.522   0.616
 3229SOL     OW10585   1.206   1.138   1.030
 3229SOL    HW110586   1.112   1.168   1.046
 3229SOL    HW210587   1.227   1.145   0.932
 3230SOL     OW10588   3.498   6.504   4.969
 3230SOL    HW110589   3.511   6.595   4.931
 3230SOL    HW210590   3.407   6.497   5.009
 3231SOL     OW10591   2.711   2.349   2.462
 3231SOL    HW110592   2.788   2.306   2.415
 3231SOL    HW210593   2.746   2.410   2.533
 3232SOL     OW10594   2.811   4.768   3.692
 3232SOL    HW110595   2.868   4.737   3.768
 3232SOL    HW210596   2.750   4.841   3.724
 3233SOL     OW10597   2.770   0.150   5.885
 3233SOL    HW110598   2.787   0.163   5.983
 3233SOL    HW210599   2.684   0.193   5.860
 3234SOL     OW10600   3.515   3.584   0.735
 3234SOL    HW110601   3.449   3.583   0.811
 3234SOL    HW210602   3.599   3.629   0.765
 3235SOL     OW10603   0.157   1.614   2.450
 3235SOL    HW110604   0.235   1.588   2.394
 3235SOL    HW210605   0.164   1.710   2.476
 3236SOL     OW10606   5.572   0.053   0.494
 3236SOL    HW110607   5.542   6.981   0.517
 3236SOL    HW210608   5.525   0.119   0.552
 3237SOL     OW10609   6.278   1.361   5.619
 3237SOL    HW110610   6.300   1.271   5.580
 3237SOL    HW210611   6.190   1.355   5.667
 3238SOL     OW10612   6.858   5.197   0.743
 3238SOL    HW110613   6.924   5.162   0.676
 3238SOL    HW210614   6.796   5.124   0.771
 3239SOL     OW10615   6.253   0.697   5.128
 3239SOL    HW110616   6.281   0.605   5.153
 3239SOL    HW210617   6.308   0.764   5.178
 3240SOL     OW10618   1.104   1.810   1.746
 3240SOL    HW110619   1.024   1.825   1.689
 3240SOL    HW210620   1.142   1.720   1.727
 3241SOL     OW10621   0.343   2.933   5.814
 3241SOL    HW110622   0.357   2.904   5.909
 3241SOL    HW210623   0.431   2.934   5.766
 3242SOL     OW10624   0.200   4.841   5.720
 3242SOL    HW110625   0.197   4.810   5.815
 3242SOL    HW210626   0.267   4.915   5.711
 3243SOL     OW10627   5.881   5.535   4.571
 3243SOL    HW110628   5.871   5.580   4.482
 3243SOL    HW210629   5.848   5.598   4.642
 3244SOL     OW10630   4.583   0.288   6.515
 3244SOL    HW110631   4.599   0.370   6.460
 3244SOL    HW210632   4.637   0.212   6.479
 3245SOL     OW10633   2.433   6.136   4.082
 3245SOL    HW110634   2.418   6.168   3.989
 3245SOL    HW210635   2.372   6.185   4.144
 3246SOL     OW10636   6.469   5.487   3.114
 3246SOL    HW110637   6.411   5.563   3.086
 3246SOL    HW210638   6.488   5.494   3.212
 3247SOL     OW10639   2.087   4.363   4.351
 3247SOL    HW110640   2.114   4.450   4.312
 3247SOL    HW210641   2.065   4.375   4.448
 3248SOL     OW10642   6.492   2.592   3.653
 3248SOL    HW110643   6.426   2.519   3.633
 3248SOL    HW210644   6.513   2.641   3.568
 3249SOL     OW10645   3.888   3.972   4.408
 3249SOL    HW110646   3.792   3.953   4.429
 3249SOL    HW210647   3.894   4.053   4.348
 3250SOL     OW10648   4.722   5.918   3.665
 3250SOL    HW110649   4.627   5.888   3.662
 3250SOL    HW210650   4.768   5.889   3.581
 3251SOL     OW10651   2.463   1.979   2.414
 3251SOL    HW110652   2.418   2.000   2.327
 3251SOL    HW210653   2.426   2.038   2.486
 3252SOL     OW10654   1.774   1.901   2.660
 3252SOL    HW110655   1.721   1.941   2.735
 3252SOL    HW210656   1.761   1.802   2.659
 3253SOL     OW10657   6.656   3.942   0.842
 3253SOL    HW110658   6.596   4.022   0.849
 3253SOL    HW210659   6.746   3.971   0.809
 3254SOL     OW10660   6.113   6.574   0.562
 3254SOL    HW110661   6.151   6.593   0.472
 3254SOL    HW210662   6.174   6.611   0.632
 3255SOL     OW10663   3.689   4.902   2.800
 3255SOL    HW110664   3.717   4.933   2.891
 3255SOL    HW210665   3.590   4.916   2.790
 3256SOL     OW10666   5.449   2.641   1.721
 3256SOL    HW110667   5.520   2.584   1.763
 3256SOL    HW210668   5.360   2.618   1.762
 3257SOL     OW10669   2.575   0.958   2.792
 3257SOL    HW110670   2.500   0.959   2.858
 3257SOL    HW210671   2.609   0.864   2.781
 3258SOL     OW10672   0.586   5.261   3.990
 3258SOL    HW110673   0.611   5.280   4.085
 3258SOL    HW210674   0.609   5.340   3.933
 3259SOL     OW10675   5.989   5.211   3.686
 3259SOL    HW110676   6.025   5.296   3.726
 3259SOL    HW210677   5.956   5.152   3.760
 3260SOL     OW10678   1.624   4.602   3.539
 3260SOL    HW110679   1.665   4.693   3.542
 3260SOL    HW210680   1.695   4.535   3.517
 3261SOL     OW10681   6.506   6.773   3.706
 3261SOL    HW110682   6.413   6.769   3.741
 3261SOL    HW210683   6.505   6.755   3.607
 3262SOL     OW10684   2.920   1.933   2.891
 3262SOL    HW110685   2.873   2.021   2.898
 3262SOL    HW210686   2.950   1.904   2.981
 3263SOL     OW10687   5.590   0.017   1.881
 3263SOL    HW110688   5.548   0.105   1.855
 3263SOL    HW210689   5.674   0.004   1.829
 3264SOL     OW10690   1.114   4.803   6.301
 3264SOL    HW110691   1.096   4.886   6.248
 3264SOL    HW210692   1.211   4.779   6.294
 3265SOL     OW10693   7.002   6.242   6.076
 3265SOL    HW110694   6.988   6.333   6.036
 3265SOL    HW210695   0.079   6.222   6.080
 3266SOL     OW10696   3.684   4.524   6.437
 3266SOL    HW110697   3.625   4.595   6.399
 3266SOL    HW210698   3.753   4.565   6.497
 3267SOL     OW10699   3.141   0.284   1.009
 3267SOL    HW110700   3.215   0.352   1.006
 3267SOL    HW210701   3.173   0.203   1.059
 3268SOL     OW10702   5.428   4.150   2.206
 3268SOL    HW110703   5.476   4.064   2.189
 3268SOL    HW210704   5.330   4.131   2.216
 3269SOL     OW10705   2.202   5.195   0.941
 3269SOL    HW110706   2.286   5.152   0.974
 3269SOL    HW210707   2.123   5.139   0.967
 3270SOL     OW10708   1.824   3.096   6.310
 3270SOL    HW110709   1.909   3.114   6.359
 3270SOL    HW210710   1.818   2.999   6.288
 3271SOL     OW10711   0.813   3.863   1.371
 3271SOL    HW110712   0.735   3.884   1.430
 3271SOL    HW210713   0.894   3.910   1.405
 3272SOL     OW10714   3.844   0.264   0.889
 3272SOL    HW110715   3.939   0.275   0.918
 3272SOL    HW210716   3.828   0.317   0.806
 3273SOL     OW10717   4.210   3.776   6.540
 3273SOL    HW110718   4.193   3.679   6.557
 3273SOL    HW210719   4.148   3.808   6.468
 3274SOL     OW10720   4.211   0.457   2.157
 3274SOL    HW110721   4.199   0.390   2.084
 3274SOL    HW210722   4.166   0.543   2.131
 3275SOL     OW10723   5.338   0.489   1.834
 3275SOL    HW110724   5.294   0.528   1.915
 3275SOL    HW210725   5.432   0.523   1.828
 3276SOL     OW10726   5.870   5.430   0.208
 3276SOL    HW110727   5.879   5.344   0.158
 3276SOL    HW210728   5.802   5.488   0.163
 3277SOL     OW10729   3.336   1.340   2.341
 3277SOL    HW110730   3.373   1.423   2.300
 3277SOL    HW210731   3.353   1.341   2.439
 3278SOL     OW10732   5.205   1.403   6.558
 3278SOL    HW110733   5.290   1.418   6.610
 3278SOL    HW210734   5.201   1.469   6.483
 3279SOL     OW10735   4.167   0.513   2.659
 3279SOL    HW110736   4.197   0.428   2.616
 3279SOL    HW210737   4.073   0.501   2.693
 3280SOL     OW10738   6.284   2.895   4.430
 3280SOL    HW110739   6.370   2.926   4.388
 3280SOL    HW210740   6.249   2.816   4.379
 3281SOL     OW10741   5.728   2.928   1.845
 3281SOL    HW110742   5.784   3.010   1.850
 3281SOL    HW210743   5.708   2.908   1.749
 3282SOL     OW10744   6.563   4.602   5.113
 3282SOL    HW110745   6.507   4.649   5.181
 3282SOL    HW210746   6.613   4.528   5.158
 3283SOL     OW10747   3.339   1.568   0.469
 3283SOL    HW110748   3.272   1.642   0.476
 3283SOL    HW210749   3.380   1.552   0.558
 3284SOL     OW10750   1.944   0.734   5.258
 3284SOL    HW110751   2.031   0.721   5.307
 3284SOL    HW210752   1.908   0.825   5.277
 3285SOL     OW10753   3.849   2.110   3.858
 3285SOL    HW110754   3.876   2.170   3.783
 3285SOL    HW210755   3.784   2.042   3.824
 3286SOL     OW10756   1.004   3.630   3.125
 3286SOL    HW110757   1.033   3.672   3.211
 3286SOL    HW210758   1.040   3.682   3.048
 3287SOL     OW10759   2.917   1.439   0.204
 3287SOL    HW110760   2.819   1.454   0.185
 3287SOL    HW210761   2.927   1.375   0.279
 3288SOL     OW10762   3.197   4.949   1.925
 3288SOL    HW110763   3.132   4.873   1.931
 3288SOL    HW210764   3.269   4.927   1.859
 3289SOL     OW10765   4.672   0.466   0.064
 3289SOL    HW110766   4.608   0.402   0.020
 3289SOL    HW210767   4.725   0.514   7.014
 3290SOL     OW10768   0.720   5.219   0.184
 3290SOL    HW110769   0.676   5.129   0.183
 3290SOL    HW210770   0.652   5.290   0.202
 3291SOL     OW10771   5.145   6.469   5.824
 3291SOL    HW110772   5.162   6.384   5.774
 3291SOL    HW210773   5.092   6.532   5.767
 3292SOL     OW10774   0.317   3.198   0.892
 3292SOL    HW110775   0.257   3.211   0.813
 3292SOL    HW210776   0.309   3.277   0.953
 3293SOL     OW10777   6.835   4.375   2.531
 3293SOL    HW110778   6.828   4.428   2.615
 3293SOL    HW210779   6.817   4.434   2.452
 3294SOL     OW10780   3.864   2.849   5.284
 3294SOL    HW110781   3.799   2.799   5.342
 3294SOL    HW210782   3.955   2.809   5.292
 3295SOL     OW10783   1.379   3.042   3.398
 3295SOL    HW110784   1.372   2.945   3.424
 3295SOL    HW210785   1.459   3.054   3.340
 3296SOL     OW10786   2.322   0.745   0.099
 3296SOL    HW110787   2.233   0.743   0.146
 3296SOL    HW210788   2.331   0.665   0.041
 3297SOL     OW10789   3.172   0.624   5.570
 3297SOL    HW110790   3.125   0.538   5.551
 3297SOL    HW210791   3.256   0.605   5.622
 3298SOL     OW10792   3.642   4.295   5.968
 3298SOL    HW110793   3.625   4.204   6.006
 3298SOL    HW210794   3.555   4.336   5.941
 3299SOL     OW10795   2.640   6.943   4.501
 3299SOL    HW110796   2.596   6.945   4.411
 3299SOL    HW210797   2.571   6.923   4.571
 3300SOL     OW10798   1.593   0.925   3.570
 3300SOL    HW110799   1.562   0.965   3.657
 3300SOL    HW210800   1.565   0.983   3.494
 3301SOL     OW10801   1.239   1.225   2.246
 3301SOL    HW110802   1.238   1.312   2.296
 3301SOL    HW210803   1.240   1.149   2.311
 3302SOL     OW10804   1.420   4.443   5.083
 3302SOL    HW110805   1.500   4.428   5.141
 3302SOL    HW210806   1.438   4.405   4.992
 3303SOL     OW10807   4.114   3.700   0.489
 3303SOL    HW110808   4.117   3.780   0.549
 3303SOL    HW210809   4.022   3.660   0.491
 3304SOL     OW10810   2.418   3.419   1.018
 3304SOL    HW110811   2.440   3.508   1.059
 3304SOL    HW210812   2.366   3.434   0.933
 3305SOL     OW10813   3.072   2.836   6.957
 3305SOL    HW110814   3.075   2.910   6.890
 3305SOL    HW210815   3.079   2.748   6.910
 3306SOL     OW10816   2.672   0.540   1.035
 3306SOL    HW110817   2.675   0.639   1.053
 3306SOL    HW210818   2.592   0.519   0.979
 3307SOL     OW10819   2.424   5.645   4.550
 3307SOL    HW110820   2.371   5.567   4.584
 3307SOL    HW210821   2.509   5.612   4.509
 3308SOL     OW10822   5.040   5.522   0.931
 3308SOL    HW110823   5.044   5.592   1.002
 3308SOL    HW210824   4.954   5.472   0.939
 3309SOL     OW10825   5.949   3.666   4.283
 3309SOL    HW110826   5.929   3.758   4.250
 3309SOL    HW210827   5.865   3.612   4.287
 3310SOL     OW10828   6.758   4.399   6.397
 3310SOL    HW110829   6.850   4.366   6.418
 3310SOL    HW210830   6.690   4.341   6.442
 3311SOL     OW10831   2.266   2.729   7.000
 3311SOL    HW110832   2.308   2.689   6.919
 3311SOL    HW210833   2.312   2.693   0.062
 3312SOL     OW10834   4.914   3.706   0.387
 3312SOL    HW110835   4.997   3.759   0.408
 3312SOL    HW210836   4.933   3.609   0.397
 3313SOL     OW10837   0.908   6.819   4.044
 3313SOL    HW110838   0.825   6.814   3.989
 3313SOL    HW210839   0.986   6.840   3.984
 3314SOL     OW10840   3.165   6.357   3.475
 3314SOL    HW110841   3.254   6.397   3.497
 3314SOL    HW210842   3.174   6.293   3.399
 3315SOL     OW10843   0.742   6.408   4.044
 3315SOL    HW110844   0.821   6.387   3.987
 3315SOL    HW210845   0.673   6.337   4.032
 3316SOL     OW10846   3.387   1.925   0.117
 3316SOL    HW110847   3.360   1.986   0.042
 3316SOL    HW210848   3.485   1.930   0.131
 3317SOL     OW10849   5.830   2.468   1.179
 3317SOL    HW110850   5.801   2.431   1.267
 3317SOL    HW210851   5.796   2.561   1.170
 3318SOL     OW10852   4.047   2.757   0.720
 3318SOL    HW110853   4.026   2.754   0.817
 3318SOL    HW210854   3.962   2.750   0.667
 3319SOL     OW10855   6.686   6.699   3.917
 3319SOL    HW110856   6.646   6.769   3.977
 3319SOL    HW210857   6.624   6.683   3.840
 3320SOL     OW10858   6.385   0.639   2.116
 3320SOL    HW110859   6.402   0.552   2.071
 3320SOL    HW210860   6.469   0.670   2.162
 3321SOL     OW10861   5.033   1.908   6.946
 3321SOL    HW110862   5.063   1.934   6.854
 3321SOL    HW210863   4.988   1.986   6.990
 3322SOL     OW10864   5.970   3.419   1.450
 3322SOL    HW110865   5.923   3.476   1.382
 3322SOL    HW210866   6.048   3.470   1.487
 3323SOL     OW10867   1.323   0.840   2.114
 3323SOL    HW110868   1.252   0.907   2.135
 3323SOL    HW210869   1.362   0.860   2.024
 3324SOL     OW10870   6.231   5.479   5.714
 3324SOL    HW110871   6.253   5.534   5.633
 3324SOL    HW210872   6.305   5.414   5.731
 3325SOL     OW10873   3.003   5.365   5.981
 3325SOL    HW110874   2.966   5.375   5.888
 3325SOL    HW210875   3.049   5.276   5.988
 3326SOL     OW10876   3.671   1.920   1.918
 3326SOL    HW110877   3.693   1.912   1.820
 3326SOL    HW210878   3.675   2.017   1.945
 3327SOL     OW10879   1.585   6.313   5.919
 3327SOL    HW110880   1.496   6.278   5.890
 3327SOL    HW210881   1.658   6.255   5.881
 3328SOL     OW10882   4.759   2.932   5.339
 3328SOL    HW110883   4.716   3.014   5.302
 3328SOL    HW210884   4.733   2.852   5.283
 3329SOL     OW10885   6.624   6.633   5.801
 3329SOL    HW110886   6.683   6.669   5.729
 3329SOL    HW210887   6.679   6.582   5.867
 3330SOL     OW10888   6.694   2.341   2.580
 3330SOL    HW110889   6.653   2.250   2.583
 3330SOL    HW210890   6.709   2.374   2.673
 3331SOL     OW10891   1.793   3.126   0.518
 3331SOL    HW110892   1.875   3.103   0.464
 3331SOL    HW210893   1.738   3.193   0.468
 3332SOL     OW10894   0.555   4.044   1.751
 3332SOL    HW110895   0.482   4.093   1.704
 3332SOL    HW210896   0.516   3.982   1.819
 3333SOL     OW10897   3.248   5.726   5.474
 3333SOL    HW110898   3.275   5.671   5.394
 3333SOL    HW210899   3.148   5.722   5.484
 3334SOL     OW10900   1.221   3.202   1.261
 3334SOL    HW110901   1.250   3.227   1.169
 3334SOL    HW210902   1.271   3.257   1.328
 3335SOL     OW10903   5.428   4.221   4.410
 3335SOL    HW110904   5.414   4.141   4.469
 3335SOL    HW210905   5.425   4.304   4.464
 3336SOL     OW10906   3.786   6.455   5.725
 3336SOL    HW110907   3.735   6.424   5.805
 3336SOL    HW210908   3.728   6.447   5.644
 3337SOL     OW10909   3.763   1.748   0.551
 3337SOL    HW110910   3.732   1.676   0.489
 3337SOL    HW210911   3.808   1.707   0.630
 3338SOL     OW10912   6.705   5.219   6.868
 3338SOL    HW110913   6.726   5.305   6.915
 3338SOL    HW210914   6.743   5.222   6.776
 3339SOL     OW10915   0.619   4.948   6.343
 3339SOL    HW110916   0.660   5.013   6.407
 3339SOL    HW210917   0.692   4.898   6.296
 3340SOL     OW10918   4.026   0.431   1.564
 3340SOL    HW110919   4.051   0.462   1.472
 3340SOL    HW210920   4.039   0.505   1.629
 3341SOL     OW10921   0.917   0.583   0.129
 3341SOL    HW110922   0.971   0.499   0.125
 3341SOL    HW210923   0.820   0.559   0.136
 3342SOL     OW10924   2.145   6.886   5.392
 3342SOL    HW110925   2.107   6.966   5.346
 3342SOL    HW210926   2.152   6.904   5.490
 3343SOL     OW10927   6.991   2.555   1.329
 3343SOL    HW110928   6.932   2.486   1.288
 3343SOL    HW210929   0.035   2.512   1.392
 3344SOL     OW10930   1.479   2.956   6.209
 3344SOL    HW110931   1.573   2.928   6.187
 3344SOL    HW210932   1.415   2.885   6.180
 3345SOL     OW10933   2.691   3.222   5.946
 3345SOL    HW110934   2.722   3.207   5.852
 3345SOL    HW210935   2.678   3.134   5.991
 3346SOL     OW10936   2.096   5.842   2.509
 3346SOL    HW110937   2.005   5.881   2.523
 3346SOL    HW210938   2.133   5.876   2.422
 3347SOL     OW10939   6.229   3.584   4.161
 3347SOL    HW110940   6.323   3.599   4.193
 3347SOL    HW210941   6.168   3.650   4.203
 3348SOL     OW10942   3.392   3.799   3.320
 3348SOL    HW110943   3.445   3.785   3.236
 3348SOL    HW210944   3.418   3.886   3.362
 3349SOL     OW10945   4.878   2.572   0.209
 3349SOL    HW110946   4.934   2.653   0.226
 3349SOL    HW210947   4.782   2.592   0.229
 3350SOL     OW10948   2.465   2.768   1.149
 3350SOL    HW110949   2.469   2.684   1.095
 3350SOL    HW210950   2.507   2.751   1.239
 3351SOL     OW10951   5.938   2.843   0.607
 3351SOL    HW110952   5.886   2.904   0.548
 3351SOL    HW210953   5.876   2.794   0.668
 3352SOL     OW10954   0.253   3.575   0.089
 3352SOL    HW110955   0.156   3.584   0.113
 3352SOL    HW210956   0.270   3.484   0.051
 3353SOL     OW10957   1.183   6.667   6.408
 3353SOL    HW110958   1.091   6.630   6.416
 3353SOL    HW210959   1.228   6.664   6.498
 3354SOL     OW10960   0.999   0.235   1.921
 3354SOL    HW110961   1.049   0.321   1.927
 3354SOL    HW210962   0.910   0.251   1.877
 3355SOL     OW10963   5.947   0.989   2.618
 3355SOL    HW110964   5.864   1.044   2.621
 3355SOL    HW210965   5.923   0.892   2.621
 3356SOL     OW10966   1.363   3.938   6.830
 3356SOL    HW110967   1.412   4.025   6.838
 3356SOL    HW210968   1.363   3.892   6.918
 3357SOL     OW10969   2.226   5.573   2.284
 3357SOL    HW110970   2.219   5.485   2.236
 3357SOL    HW210971   2.144   5.588   2.338
 3358SOL     OW10972   6.634   3.842   3.572
 3358SOL    HW110973   6.605   3.860   3.666
 3358SOL    HW210974   6.650   3.929   3.525
 3359SOL     OW10975   2.079   1.564   1.476
 3359SOL    HW110976   2.159   1.506   1.461
 3359SOL    HW210977   2.035   1.539   1.562
 3360SOL     OW10978   2.686   0.770   6.034
 3360SOL    HW110979   2.671   0.859   6.076
 3360SOL    HW210980   2.720   0.706   6.103
 3361SOL     OW10981   2.649   1.294   2.999
 3361SOL    HW110982   2.611   1.214   3.045
 3361SOL    HW210983   2.697   1.352   3.064
 3362SOL     OW10984   3.030   1.851   4.830
 3362SOL    HW110985   3.011   1.876   4.925
 3362SOL    HW210986   2.944   1.832   4.783
 3363SOL     OW10987   6.740   0.660   0.121
 3363SOL    HW110988   6.679   0.656   0.200
 3363SOL    HW210989   6.737   0.753   0.082
 3364SOL     OW10990   1.835   5.565   5.167
 3364SOL    HW110991   1.874   5.530   5.252
 3364SOL    HW210992   1.772   5.498   5.128
 3365SOL     OW10993   6.253   2.514   5.340
 3365SOL    HW110994   6.352   2.506   5.328
 3365SOL    HW210995   6.209   2.517   5.251
 3366SOL     OW10996   5.298   0.782   0.203
 3366SOL    HW110997   5.232   0.854   0.222
 3366SOL    HW210998   5.269   0.697   0.248
 3367SOL     OW10999   2.116   0.160   2.677
 3367SOL    HW111000   2.179   0.085   2.696
 3367SOL    HW211001   2.109   0.174   2.578
 3368SOL     OW11002   6.543   1.315   4.452
 3368SOL    HW111003   6.479   1.299   4.528
 3368SOL    HW211004   6.629   1.267   4.470
 3369SOL     OW11005   4.092   5.615   6.520
 3369SOL    HW111006   4.067   5.697   6.571
 3369SOL    HW211007   4.031   5.606   6.440
 3370SOL     OW11008   6.114   0.088   5.267
 3370SOL    HW111009   6.052   0.019   5.304
 3370SOL    HW211010   6.144   0.060   5.176
 3371SOL     OW11011   6.889   4.765   1.574
 3371SOL    HW111012   6.942   4.842   1.538
 3371SOL    HW211013   6.950   4.702   1.623
 3372SOL     OW11014   1.385   2.502   2.909
 3372SOL    HW111015   1.463   2.563   2.926
 3372SOL    HW211016   1.310   2.555   2.869
 3373SOL     OW11017   0.637   2.687   6.507
 3373SOL    HW111018   0.579   2.764   6.534
 3373SOL    HW211019   0.652   2.690   6.408
 3374SOL     OW11020   3.645   6.403   5.189
 3374SOL    HW111021   3.732   6.451   5.175
 3374SOL    HW211022   3.582   6.425   5.115
 3375SOL     OW11023   3.560   3.675   4.723
 3375SOL    HW111024   3.628   3.606   4.748
 3375SOL    HW211025   3.507   3.700   4.805
 3376SOL     OW11026   3.442   3.063   1.779
 3376SOL    HW111027   3.452   3.058   1.879
 3376SOL    HW211028   3.345   3.066   1.755
 3377SOL     OW11029   2.972   5.652   5.472
 3377SOL    HW111030   2.936   5.641   5.379
 3377SOL    HW211031   2.897   5.678   5.533
 3378SOL     OW11032   6.908   1.134   0.720
 3378SOL    HW111033   6.823   1.170   0.758
 3378SOL    HW211034   6.980   1.203   0.727
 3379SOL     OW11035   5.753   5.107   5.553
 3379SOL    HW111036   5.845   5.079   5.580
 3379SOL    HW211037   5.739   5.089   5.456
 3380SOL     OW11038   0.566   3.771   5.708
 3380SOL    HW111039   0.627   3.839   5.748
 3380SOL    HW211040   0.611   3.727   5.630
 3381SOL     OW11041   3.197   2.519   1.539
 3381SOL    HW111042   3.139   2.567   1.604
 3381SOL    HW211043   3.291   2.519   1.571
 3382SOL     OW11044   0.474   6.597   0.617
 3382SOL    HW111045   0.537   6.553   0.552
 3382SOL    HW211046   0.460   6.692   0.591
 3383SOL     OW11047   0.616   4.198   1.210
 3383SOL    HW111048   0.570   4.287   1.201
 3383SOL    HW211049   0.647   4.186   1.304
 3384SOL     OW11050   3.114   3.516   3.716
 3384SOL    HW111051   3.171   3.574   3.657
 3384SOL    HW211052   3.112   3.554   3.808
 3385SOL     OW11053   0.045   3.933   3.985
 3385SOL    HW111054   0.124   3.873   3.977
 3385SOL    HW211055   0.020   3.944   4.081
 3386SOL     OW11056   5.827   4.290   4.424
 3386SOL    HW111057   5.747   4.257   4.374
 3386SOL    HW211058   5.905   4.297   4.362
 3387SOL     OW11059   3.491   1.874   2.447
 3387SOL    HW111060   3.499   1.935   2.526
 3387SOL    HW211061   3.509   1.926   2.363
 3388SOL     OW11062   5.587   2.029   1.209
 3388SOL    HW111063   5.671   2.069   1.174
 3388SOL    HW211064   5.528   2.004   1.132
 3389SOL     OW11065   4.079   5.680   2.687
 3389SOL    HW111066   4.168   5.713   2.656
 3389SOL    HW211067   4.010   5.703   2.619
 3390SOL     OW11068   4.565   1.309   5.464
 3390SOL    HW111069   4.634   1.381   5.457
 3390SOL    HW211070   4.515   1.302   5.377
 3391SOL     OW11071   3.490   1.985   3.975
 3391SOL    HW111072   3.551   2.029   4.041
 3391SOL    HW211073   3.459   2.054   3.909
 3392SOL     OW11074   5.333   6.482   3.866
 3392SOL    HW111075   5.433   6.487   3.870
 3392SOL    HW211076   5.299   6.553   3.803
 3393SOL     OW11077   0.110   6.828   6.995
 3393SOL    HW111078   0.101   6.837   0.074
 3393SOL    HW211079   0.044   6.760   6.962
 3394SOL     OW11080   5.237   1.104   2.530
 3394SOL    HW111081   5.243   1.203   2.528
 3394SOL    HW211082   5.187   1.075   2.612
 3395SOL     OW11083   1.645   3.677   5.122
 3395SOL    HW111084   1.645   3.733   5.205
 3395SOL    HW211085   1.568   3.614   5.124
 3396SOL     OW11086   6.635   3.637   4.123
 3396SOL    HW111087   6.611   3.715   4.064
 3396SOL    HW211088   6.577   3.637   4.204
 3397SOL     OW11089   3.900   5.635   6.322
 3397SOL    HW111090   3.872   5.556   6.267
 3397SOL    HW211091   3.823   5.697   6.334
 3398SOL     OW11092   0.289   1.149   3.497
 3398SOL    HW111093   0.219   1.163   3.428
 3398SOL    HW211094   0.339   1.235   3.512
 3399SOL     OW11095   4.083   5.915   4.285
 3399SOL    HW111096   4.012   5.847   4.267
 3399SOL    HW211097   4.044   6.007   4.276
 3400SOL     OW11098   5.122   2.442   0.476
 3400SOL    HW111099   5.070   2.387   0.411
 3400SOL    HW211100   5.171   2.514   0.428
 3401SOL     OW11101   6.840   4.126   6.198
 3401SOL    HW111102   6.826   4.182   6.117
 3401SOL    HW211103   6.908   4.169   6.258
 3402SOL     OW11104   4.704   4.709   2.257
 3402SOL    HW111105   4.742   4.654   2.331
 3402SOL    HW211106   4.684   4.650   2.179
 3403SOL     OW11107   3.687   1.296   5.734
 3403SOL    HW111108   3.673   1.240   5.816
 3403SOL    HW211109   3.665   1.243   5.653
 3404SOL     OW11110   4.741   6.195   1.589
 3404SOL    HW111111   4.741   6.193   1.689
 3404SOL    HW211112   4.788   6.278   1.558
 3405SOL     OW11113   6.380   4.613   6.847
 3405SOL    HW111114   6.419   4.705   6.837
 3405SOL    HW211115   6.421   4.553   6.779
 3406SOL     OW11116   1.496   3.826   1.511
 3406SOL    HW111117   1.467   3.871   1.427
 3406SOL    HW211118   1.578   3.771   1.493
 3407SOL     OW11119   1.390   5.236   2.816
 3407SOL    HW111120   1.313   5.196   2.865
 3407SOL    HW211121   1.461   5.168   2.804
 3408SOL     OW11122   5.080   3.512   3.173
 3408SOL    HW111123   5.155   3.543   3.115
 3408SOL    HW211124   5.020   3.452   3.121
 3409SOL     OW11125   2.599   0.914   6.425
 3409SOL    HW111126   2.634   0.827   6.457
 3409SOL    HW211127   2.510   0.900   6.380
 3410SOL     OW11128   6.917   2.298   0.263
 3410SOL    HW111129   6.878   2.206   0.266
 3410SOL    HW211130   6.937   2.322   0.168
 3411SOL     OW11131   4.713   1.956   2.338
 3411SOL    HW111132   4.620   1.923   2.325
 3411SOL    HW211133   4.724   2.045   2.294
 3412SOL     OW11134   4.686   5.280   6.932
 3412SOL    HW111135   4.717   5.189   6.908
 3412SOL    HW211136   4.587   5.279   6.946
 3413SOL     OW11137   5.369   1.483   2.264
 3413SOL    HW111138   5.283   1.531   2.248
 3413SOL    HW211139   5.405   1.449   2.177
 3414SOL     OW11140   4.120   0.631   5.147
 3414SOL    HW111141   4.198   0.693   5.156
 3414SOL    HW211142   4.152   0.537   5.160
 3415SOL     OW11143   1.255   5.518   4.691
 3415SOL    HW111144   1.173   5.475   4.653
 3415SOL    HW211145   1.332   5.455   4.682
 3416SOL     OW11146   2.177   4.396   5.765
 3416SOL    HW111147   2.217   4.329   5.828
 3416SOL    HW211148   2.219   4.385   5.674
 3417SOL     OW11149   5.122   0.961   1.384
 3417SOL    HW111150   5.153   0.867   1.400
 3417SOL    HW211151   5.031   0.959   1.342
 3418SOL     OW11152   3.100   2.772   6.092
 3418SOL    HW111153   3.090   2.708   6.016
 3418SOL    HW211154   3.059   2.860   6.067
 3419SOL     OW11155   5.101   3.613   6.585
 3419SOL    HW111156   5.135   3.538   6.641
 3419SOL    HW211157   5.167   3.689   6.589
 3420SOL     OW11158   4.056   1.524   4.540
 3420SOL    HW111159   4.013   1.578   4.613
 3420SOL    HW211160   3.990   1.509   4.467
 3421SOL     OW11161   0.328   6.365   2.633
 3421SOL    HW111162   0.337   6.273   2.672
 3421SOL    HW211163   0.244   6.370   2.578
 3422SOL     OW11164   3.159   2.144   2.596
 3422SOL    HW111165   3.238   2.083   2.608
 3422SOL    HW211166   3.157   2.177   2.501
 3423SOL     OW11167   3.491   0.816   1.549
 3423SOL    HW111168   3.498   0.753   1.627
 3423SOL    HW211169   3.432   0.776   1.479
 3424SOL     OW11170   4.597   1.458   1.350
 3424SOL    HW111171   4.655   1.537   1.368
 3424SOL    HW211172   4.553   1.429   1.435
 3425SOL     OW11173   4.086   4.148   1.691
 3425SOL    HW111174   4.060   4.061   1.650
 3425SOL    HW211175   4.185   4.150   1.705
 3426SOL     OW11176   4.821   3.976   0.866
 3426SOL    HW111177   4.892   4.045   0.854
 3426SOL    HW211178   4.853   3.889   0.830
 3427SOL     OW11179   0.655   1.738   0.710
 3427SOL    HW111180   0.720   1.728   0.785
 3427SOL    HW211181   0.577   1.792   0.741
 3428SOL     OW11182   4.297   5.136   3.016
 3428SOL    HW111183   4.351   5.187   3.083
 3428SOL    HW211184   4.259   5.054   3.058
 3429SOL     OW11185   0.428   2.850   0.662
 3429SOL    HW111186   0.435   2.922   0.593
 3429SOL    HW211187   0.332   2.822   0.671
 3430SOL     OW11188   1.172   5.246   6.404
 3430SOL    HW111189   1.114   5.325   6.387
 3430SOL    HW211190   1.133   5.191   6.478
 3431SOL     OW11191   1.743   6.222   6.555
 3431SOL    HW111192   1.746   6.288   6.630
 3431SOL    HW211193   1.765   6.131   6.589
 3432SOL     OW11194   3.646   1.710   6.648
 3432SOL    HW111195   3.623   1.794   6.598
 3432SOL    HW211196   3.719   1.730   6.714
 3433SOL     OW11197   4.975   0.980   4.304
 3433SOL    HW111198   4.963   0.999   4.401
 3433SOL    HW211199   5.030   0.897   4.292
 3434SOL     OW11200   4.506   1.790   3.309
 3434SOL    HW111201   4.427   1.828   3.260
 3434SOL    HW211202   4.487   1.790   3.407
 3435SOL     OW11203   0.635   1.537   0.180
 3435SOL    HW111204   0.708   1.598   0.210
 3435SOL    HW211205   0.617   1.552   0.083
 3436SOL     OW11206   4.388   6.908   2.279
 3436SOL    HW111207   4.447   6.929   2.356
 3436SOL    HW211208   4.397   6.812   2.254
 3437SOL     OW11209   4.236   0.758   6.907
 3437SOL    HW111210   4.237   0.858   6.900
 3437SOL    HW211211   4.298   0.729   6.980
 3438SOL     OW11212   1.006   5.450   6.323
 3438SOL    HW111213   1.056   5.510   6.385
 3438SOL    HW211214   1.046   5.456   6.232
 3439SOL     OW11215   2.670   0.671   4.261
 3439SOL    HW111216   2.571   0.686   4.252
 3439SOL    HW211217   2.707   0.735   4.327
 3440SOL     OW11218   3.225   1.734   0.233
 3440SOL    HW111219   3.287   1.804   0.197
 3440SOL    HW211220   3.159   1.708   0.162
 3441SOL     OW11221   5.099   0.506   4.232
 3441SOL    HW111222   5.139   0.415   4.244
 3441SOL    HW211223   5.041   0.506   4.151
 3442SOL     OW11224   1.072   4.957   2.923
 3442SOL    HW111225   1.139   5.019   2.964
 3442SOL    HW211226   0.982   5.000   2.923
 3443SOL     OW11227   5.907   6.569   4.403
 3443SOL    HW111228   5.910   6.511   4.485
 3443SOL    HW211229   5.995   6.563   4.355
 3444SOL     OW11230   4.021   5.401   0.256
 3444SOL    HW111231   4.007   5.426   0.352
 3444SOL    HW211232   4.003   5.480   0.198
 3445SOL     OW11233   5.857   5.086   4.624
 3445SOL    HW111234   5.766   5.044   4.621
 3445SOL    HW211235   5.926   5.013   4.625
 3446SOL     OW11236   2.588   6.512   1.869
 3446SOL    HW111237   2.514   6.467   1.819
 3446SOL    HW211238   2.553   6.547   1.956
 3447SOL     OW11239   6.187   4.824   5.579
 3447SOL    HW111240   6.261   4.891   5.570
 3447SOL    HW211241   6.139   4.817   5.491
 3448SOL     OW11242   3.822   3.410   0.726
 3448SOL    HW111243   3.736   3.363   0.746
 3448SOL    HW211244   3.899   3.351   0.752
 3449SOL     OW11245   6.915   6.313   3.015
 3449SOL    HW111246   6.914   6.402   2.968
 3449SOL    HW211247   7.010   6.290   3.039
 3450SOL     OW11248   0.878   1.854   1.596
 3450SOL    HW111249   0.861   1.802   1.513
 3450SOL    HW211250   0.798   1.850   1.655
 3451SOL     OW11251   1.564   4.697   4.338
 3451SOL    HW111252   1.549   4.640   4.419
 3451SOL    HW211253   1.623   4.648   4.273
 3452SOL     OW11254   6.848   1.741   0.528
 3452SOL    HW111255   6.908   1.784   0.595
 3452SOL    HW211256   6.761   1.715   0.571
 3453SOL     OW11257   5.589   5.950   5.685
 3453SOL    HW111258   5.511   5.892   5.708
 3453SOL    HW211259   5.642   5.970   5.767
 3454SOL     OW11260   0.456   1.211   0.660
 3454SOL    HW111261   0.428   1.307   0.669
 3454SOL    HW211262   0.395   1.153   0.713
 3455SOL     OW11263   1.847   3.220   3.573
 3455SOL    HW111264   1.896   3.144   3.531
 3455SOL    HW211265   1.751   3.196   3.585
 3456SOL     OW11266   0.070   0.261   0.707
 3456SOL    HW111267   0.091   0.208   0.790
 3456SOL    HW211268   0.155   0.291   0.665
 3457SOL     OW11269   2.274   6.469   3.885
 3457SOL    HW111270   2.208   6.460   3.959
 3457SOL    HW211271   2.335   6.546   3.904
 3458SOL     OW11272   5.409   5.179   0.315
 3458SOL    HW111273   5.452   5.141   0.396
 3458SOL    HW211274   5.347   5.252   0.341
 3459SOL     OW11275   6.216   0.071   3.339
 3459SOL    HW111276   6.240   0.168   3.339
 3459SOL    HW211277   6.121   0.060   3.309
 3460SOL     OW11278   4.125   2.506   0.107
 3460SOL    HW111279   4.056   2.554   0.161
 3460SOL    HW211280   4.185   2.574   0.063
 3461SOL     OW11281   2.408   6.022   2.930
 3461SOL    HW111282   2.378   6.117   2.938
 3461SOL    HW211283   2.337   5.969   2.882
 3462SOL     OW11284   5.068   2.853   2.833
 3462SOL    HW111285   5.051   2.800   2.750
 3462SOL    HW211286   5.116   2.937   2.809
 3463SOL     OW11287   1.317   3.226   0.989
 3463SOL    HW111288   1.410   3.192   1.000
 3463SOL    HW211289   1.317   3.305   0.928
 3464SOL     OW11290   5.334   1.637   5.971
 3464SOL    HW111291   5.432   1.636   5.991
 3464SOL    HW211292   5.320   1.649   5.872
 3465SOL     OW11293   1.767   4.914   1.792
 3465SOL    HW111294   1.834   4.976   1.752
 3465SOL    HW211295   1.680   4.961   1.805
 3466SOL     OW11296   6.539   3.870   4.555
 3466SOL    HW111297   6.439   3.875   4.561
 3466SOL    HW211298   6.571   3.929   4.481
 3467SOL     OW11299   3.709   2.958   0.780
 3467SOL    HW111300   3.643   2.883   0.784
 3467SOL    HW211301   3.661   3.045   0.793
 3468SOL     OW11302   3.870   1.424   1.251
 3468SOL    HW111303   3.869   1.382   1.161
 3468SOL    HW211304   3.908   1.516   1.244
 3469SOL     OW11305   3.845   5.515   4.916
 3469SOL    HW111306   3.759   5.464   4.915
 3469SOL    HW211307   3.914   5.464   4.968
 3470SOL     OW11308   1.174   2.521   2.271
 3470SOL    HW111309   1.077   2.546   2.264
 3470SOL    HW211310   1.200   2.512   2.367
 3471SOL     OW11311   4.824   3.102   4.860
 3471SOL    HW111312   4.891   3.153   4.915
 3471SOL    HW211313   4.810   3.149   4.773
 3472SOL     OW11314   4.769   1.600   2.474
 3472SOL    HW111315   4.735   1.584   2.382
 3472SOL    HW211316   4.866   1.625   2.470
 3473SOL     OW11317   6.276   5.067   1.920
 3473SOL    HW111318   6.232   4.987   1.880
 3473SOL    HW211319   6.335   5.110   1.852
 3474SOL     OW11320   4.606   4.479   3.882
 3474SOL    HW111321   4.701   4.496   3.857
 3474SOL    HW211322   4.580   4.539   3.958
 3475SOL     OW11323   0.556   3.935   4.333
 3475SOL    HW111324   0.532   4.029   4.355
 3475SOL    HW211325   0.481   3.874   4.362
 3476SOL     OW11326   1.732   1.775   3.138
 3476SOL    HW111327   1.764   1.775   3.232
 3476SOL    HW211328   1.794   1.830   3.081
 3477SOL     OW11329   0.663   4.223   1.494
 3477SOL    HW111330   0.665   4.156   1.568
 3477SOL    HW211331   0.572   4.266   1.490
 3478SOL     OW11332   2.397   0.565   0.860
 3478SOL    HW111333   2.366   0.535   0.951
 3478SOL    HW211334   2.372   0.495   0.792
 3479SOL     OW11335   0.957   4.367   5.528
 3479SOL    HW111336   1.044   4.331   5.495
 3479SOL    HW211337   0.907   4.295   5.575
 3480SOL     OW11338   1.353   4.431   6.438
 3480SOL    HW111339   1.278   4.372   6.469
 3480SOL    HW211340   1.439   4.380   6.441
 3481SOL     OW11341   6.071   0.349   4.613
 3481SOL    HW111342   6.153   0.313   4.658
 3481SOL    HW211343   6.053   0.442   4.645
 3482SOL     OW11344   6.196   3.513   0.079
 3482SOL    HW111345   6.099   3.492   0.093
 3482SOL    HW211346   6.205   3.597   0.025
 3483SOL     OW11347   5.231   2.414   5.467
 3483SOL    HW111348   5.151   2.393   5.523
 3483SOL    HW211349   5.230   2.510   5.440
 3484SOL     OW11350   1.158   2.941   4.619
 3484SOL    HW111351   1.183   2.881   4.694
 3484SOL    HW211352   1.185   3.035   4.641
 3485SOL     OW11353   0.025   3.045   6.868
 3485SOL    HW111354   7.008   2.966   6.918
 3485SOL    HW211355   0.037   3.122   6.931
 3486SOL     OW11356   1.766   6.439   4.963
 3486SOL    HW111357   1.745   6.527   5.005
 3486SOL    HW211358   1.760   6.448   4.863
 3487SOL     OW11359   4.460   1.691   6.968
 3487SOL    HW111360   4.498   1.703   0.039
 3487SOL    HW211361   4.447   1.594   6.950
 3488SOL     OW11362   5.588   6.494   5.014
 3488SOL    HW111363   5.517   6.564   4.999
 3488SOL    HW211364   5.572   6.449   5.102
 3489SOL     OW11365   3.635   6.016   0.594
 3489SOL    HW111366   3.729   5.987   0.609
 3489SOL    HW211367   3.632   6.116   0.583
 3490SOL     OW11368   3.570   6.663   0.833
 3490SOL    HW111369   3.474   6.639   0.839
 3490SOL    HW211370   3.592   6.732   0.903
 3491SOL     OW11371   4.231   4.761   5.902
 3491SOL    HW111372   4.249   4.664   5.919
 3491SOL    HW211373   4.306   4.800   5.848
 3492SOL     OW11374   6.082   4.387   3.275
 3492SOL    HW111375   6.122   4.468   3.317
 3492SOL    HW211376   6.155   4.330   3.237
 3493SOL     OW11377   6.890   3.369   5.817
 3493SOL    HW111378   6.921   3.321   5.735
 3493SOL    HW211379   6.923   3.463   5.815
 3494SOL     OW11380   4.118   1.737   2.146
 3494SOL    HW111381   4.124   1.788   2.232
 3494SOL    HW211382   4.142   1.797   2.070
 3495SOL     OW11383   1.653   3.741   3.539
 3495SOL    HW111384   1.635   3.757   3.637
 3495SOL    HW211385   1.739   3.784   3.513
 3496SOL     OW11386   6.571   5.090   1.253
 3496SOL    HW111387   6.545   5.012   1.196
 3496SOL    HW211388   6.582   5.171   1.196
 3497SOL     OW11389   3.529   0.403   1.854
 3497SOL    HW111390   3.548   0.419   1.951
 3497SOL    HW211391   3.560   0.311   1.829
 3498SOL     OW11392   2.438   2.721   1.636
 3498SOL    HW111393   2.449   2.622   1.628
 3498SOL    HW211394   2.401   2.744   1.726
 3499SOL     OW11395   5.943   6.385   4.619
 3499SOL    HW111396   6.042   6.394   4.624
 3499SOL    HW211397   5.905   6.382   4.712
 3500SOL     OW11398   2.784   2.221   3.748
 3500SOL    HW111399   2.758   2.263   3.661
 3500SOL    HW211400   2.760   2.283   3.823
 3501SOL     OW11401   1.600   6.912   6.106
 3501SOL    HW111402   1.555   6.858   6.035
 3501SOL    HW211403   1.698   6.890   6.107
 3502SOL     OW11404   5.030   2.229   2.190
 3502SOL    HW111405   5.026   2.153   2.255
 3502SOL    HW211406   5.106   2.290   2.213
 3503SOL     OW11407   0.622   6.026   6.312
 3503SOL    HW111408   0.553   5.954   6.317
 3503SOL    HW211409   0.693   6.009   6.381
 3504SOL     OW11410   1.619   0.576   6.953
 3504SOL    HW111411   1.664   0.654   6.910
 3504SOL    HW211412   1.684   0.528   7.011
 3505SOL     OW11413   4.736   3.193   5.715
 3505SOL    HW111414   4.834   3.186   5.734
 3505SOL    HW211415   4.686   3.133   5.777
 3506SOL     OW11416   4.354   4.784   5.134
 3506SOL    HW111417   4.361   4.765   5.232
 3506SOL    HW211418   4.346   4.698   5.083
 3507SOL     OW11419   3.536   1.069   0.659
 3507SOL    HW111420   3.590   1.026   0.730
 3507SOL    HW211421   3.564   1.034   0.569
 3508SOL     OW11422   3.403   1.367   5.903
 3508SOL    HW111423   3.432   1.372   5.807
 3508SOL    HW211424   3.307   1.392   5.911
 3509SOL     OW11425   4.231   5.427   6.868
 3509SOL    HW111426   4.318   5.378   6.873
 3509SOL    HW211427   4.157   5.363   6.852
 3510SOL     OW11428   2.328   1.835   1.443
 3510SOL    HW111429   2.395   1.885   1.389
 3510SOL    HW211430   2.260   1.794   1.383
 3511SOL     OW11431   2.670   4.348   1.712
 3511SOL    HW111432   2.670   4.249   1.729
 3511SOL    HW211433   2.760   4.385   1.732
 3512SOL     OW11434   7.016   5.206   5.951
 3512SOL    HW111435   0.088   5.198   5.913
 3512SOL    HW211436   6.973   5.116   5.952
 3513SOL     OW11437   5.932   2.027   0.900
 3513SOL    HW111438   5.883   1.974   0.832
 3513SOL    HW211439   5.951   2.118   0.864
 3514SOL     OW11440   3.017   1.639   1.836
 3514SOL    HW111441   2.963   1.679   1.910
 3514SOL    HW211442   3.090   1.583   1.875
 3515SOL     OW11443   0.683   4.708   4.889
 3515SOL    HW111444   0.602   4.695   4.947
 3515SOL    HW211445   0.663   4.675   4.797
 3516SOL     OW11446   4.670   0.525   1.459
 3516SOL    HW111447   4.744   0.458   1.458
 3516SOL    HW211448   4.697   0.604   1.404
 3517SOL     OW11449   5.045   0.933   1.711
 3517SOL    HW111450   4.971   0.934   1.643
 3517SOL    HW211451   5.008   0.953   1.801
 3518SOL     OW11452   5.493   0.868   4.968
 3518SOL    HW111453   5.484   0.811   5.050
 3518SOL    HW211454   5.528   0.958   4.993
 3519SOL     OW11455   3.210   0.975   1.100
 3519SOL    HW111456   3.173   1.047   1.041
 3519SOL    HW211457   3.237   1.013   1.188
 3520SOL     OW11458   2.634   5.984   4.221
 3520SOL    HW111459   2.569   6.029   4.159
 3520SOL    HW211460   2.694   5.924   4.168
 3521SOL     OW11461   2.657   2.962   6.515
 3521SOL    HW111462   2.682   3.045   6.467
 3521SOL    HW211463   2.726   2.942   6.585
 3522SOL     OW11464   0.908   6.405   6.683
 3522SOL    HW111465   1.006   6.405   6.703
 3522SOL    HW211466   0.889   6.473   6.612
 3523SOL     OW11467   3.302   5.715   0.024
 3523SOL    HW111468   3.301   5.815   0.030
 3523SOL    HW211469   3.392   5.685   7.014
 3524SOL     OW11470   4.696   0.969   3.760
 3524SOL    HW111471   4.707   0.877   3.797
 3524SOL    HW211472   4.708   0.967   3.661
 3525SOL     OW11473   0.010   3.203   3.332
 3525SOL    HW111474   0.024   3.112   3.370
 3525SOL    HW211475   6.940   3.236   3.356
 3526SOL     OW11476   0.594   6.686   1.958
 3526SOL    HW111477   0.523   6.640   1.906
 3526SOL    HW211478   0.556   6.767   2.002
 3527SOL     OW11479   6.645   2.811   6.907
 3527SOL    HW111480   6.713   2.861   6.960
 3527SOL    HW211481   6.681   2.793   6.815
 3528SOL     OW11482   2.184   5.446   4.505
 3528SOL    HW111483   2.113   5.496   4.455
 3528SOL    HW211484   2.243   5.398   4.440
 3529SOL     OW11485   4.728   4.779   0.555
 3529SOL    HW111486   4.633   4.766   0.526
 3529SOL    HW211487   4.779   4.695   0.539
 3530SOL     OW11488   6.455   0.022   1.002
 3530SOL    HW111489   6.501   7.011   1.085
 3530SOL    HW211490   6.444   6.965   0.938
 3531SOL     OW11491   4.337   2.240   0.343
 3531SOL    HW111492   4.414   2.303   0.332
 3531SOL    HW211493   4.365   2.163   0.400
 3532SOL     OW11494   2.243   0.778   1.486
 3532SOL    HW111495   2.175   0.819   1.548
 3532SOL    HW211496   2.312   0.846   1.463
 3533SOL     OW11497   0.959   1.916   3.337
 3533SOL    HW111498   0.992   1.884   3.248
 3533SOL    HW211499   0.981   2.013   3.347
 3534SOL     OW11500   0.389   1.073   0.940
 3534SOL    HW111501   0.365   1.170   0.932
 3534SOL    HW211502   0.484   1.064   0.969
 3535SOL     OW11503   3.214   6.331   3.823
 3535SOL    HW111504   3.204   6.424   3.788
 3535SOL    HW211505   3.132   6.278   3.802
 3536SOL     OW11506   3.933   1.652   3.129
 3536SOL    HW111507   4.026   1.649   3.094
 3536SOL    HW211508   3.917   1.573   3.188
 3537SOL     OW11509   1.683   0.036   3.543
 3537SOL    HW111510   1.606   0.007   3.485
 3537SOL    HW211511   1.704   6.985   3.609
 3538SOL     OW11512   2.913   5.267   1.846
 3538SOL    HW111513   2.817   5.279   1.868
 3538SOL    HW211514   2.963   5.238   1.928
 3539SOL     OW11515   3.423   3.715   4.341
 3539SOL    HW111516   3.523   3.717   4.334
 3539SOL    HW211517   3.394   3.625   4.374
 3540SOL     OW11518   1.538   2.090   3.692
 3540SOL    HW111519   1.595   2.013   3.662
 3540SOL    HW211520   1.470   2.059   3.757
 3541SOL     OW11521   4.055   3.625   4.597
 3541SOL    HW111522   3.970   3.573   4.606
 3541SOL    HW211523   4.118   3.599   4.670
 3542SOL     OW11524   6.578   5.326   1.082
 3542SOL    HW111525   6.478   5.331   1.072
 3542SOL    HW211526   6.620   5.387   1.014
 3543SOL     OW11527   5.212   2.370   4.382
 3543SOL    HW111528   5.130   2.333   4.339
 3543SOL    HW211529   5.282   2.388   4.313
 3544SOL     OW11530   2.518   6.408   6.896
 3544SOL    HW111531   2.439   6.431   6.952
 3544SOL    HW211532   2.551   6.317   6.920
 3545SOL     OW11533   3.428   4.917   0.694
 3545SOL    HW111534   3.470   4.860   0.623
 3545SOL    HW211535   3.349   4.966   0.656
 3546SOL     OW11536   0.586   4.810   2.313
 3546SOL    HW111537   0.549   4.768   2.396
 3546SOL    HW211538   0.683   4.827   2.325
 3547SOL     OW11539   5.460   4.753   4.543
 3547SOL    HW111540   5.419   4.804   4.618
 3547SOL    HW211541   5.554   4.786   4.528
 3548SOL     OW11542   4.898   3.482   5.998
 3548SOL    HW111543   4.820   3.498   5.937
 3548SOL    HW211544   4.968   3.551   5.980
 3549SOL     OW11545   4.946   3.608   2.203
 3549SOL    HW111546   4.935   3.557   2.118
 3549SOL    HW211547   4.910   3.553   2.279
 3550SOL     OW11548   4.791   1.518   3.325
 3550SOL    HW111549   4.786   1.586   3.251
 3550SOL    HW211550   4.774   1.564   3.412
 3551SOL     OW11551   1.982   6.426   2.472
 3551SOL    HW111552   1.947   6.383   2.389
 3551SOL    HW211553   1.995   6.357   2.543
 3552SOL     OW11554   6.977   4.323   2.874
 3552SOL    HW111555   6.894   4.369   2.842
 3552SOL    HW211556   6.980   4.230   2.838
 3553SOL     OW11557   5.818   1.849   3.283
 3553SOL    HW111558   5.889   1.919   3.284
 3553SOL    HW211559   5.831   1.788   3.361
 3554SOL     OW11560   4.420   5.667   6.912
 3554SOL    HW111561   4.378   5.583   6.875
 3554SOL    HW211562   4.446   5.651   7.008
 3555SOL     OW11563   1.040   2.346   3.733
 3555SOL    HW111564   1.139   2.333   3.737
 3555SOL    HW211565   0.998   2.269   3.685
 3556SOL     OW11566   4.385   1.614   6.622
 3556SOL    HW111567   4.338   1.679   6.682
 3556SOL    HW211568   4.473   1.652   6.595
 3557SOL     OW11569   0.810   0.354   4.308
 3557SOL    HW111570   0.903   0.340   4.275
 3557SOL    HW211571   0.771   0.267   4.338
 3558SOL     OW11572   0.348   6.604   1.576
 3558SOL    HW111573   0.257   6.646   1.581
 3558SOL    HW211574   0.375   6.572   1.667
 3559SOL     OW11575   1.224   0.450   5.852
 3559SOL    HW111576   1.203   0.528   5.792
 3559SOL    HW211577   1.231   0.482   5.946
 3560SOL     OW11578   6.826   6.795   1.725
 3560SOL    HW111579   6.728   6.777   1.725
 3560SOL    HW211580   6.876   6.711   1.706
 3561SOL     OW11581   5.324   4.650   3.863
 3561SOL    HW111582   5.239   4.645   3.810
 3561SOL    HW211583   5.308   4.614   3.955
 3562SOL     OW11584   4.075   2.090   2.872
 3562SOL    HW111585   4.097   2.053   2.962
 3562SOL    HW211586   4.130   2.045   2.802
 3563SOL     OW11587   4.390   6.465   1.466
 3563SOL    HW111588   4.392   6.435   1.561
 3563SOL    HW211589   4.418   6.390   1.406
 3564SOL     OW11590   6.772   4.169   3.096
 3564SOL    HW111591   6.697   4.114   3.060
 3564SOL    HW211592   6.749   4.266   3.089
 3565SOL     OW11593   1.436   1.013   5.291
 3565SOL    HW111594   1.389   1.002   5.203
 3565SOL    HW211595   1.406   0.941   5.354
 3566SOL     OW11596   0.997   4.108   5.720
 3566SOL    HW111597   0.917   4.049   5.732
 3566SOL    HW211598   1.060   4.094   5.796
 3567SOL     OW11599   0.053   2.229   1.359
 3567SOL    HW111600   0.093   2.213   1.269
 3567SOL    HW211601   0.101   2.303   1.405
 3568SOL     OW11602   4.599   4.393   3.256
 3568SOL    HW111603   4.677   4.450   3.281
 3568SOL    HW211604   4.517   4.424   3.305
 3569SOL     OW11605   4.071   3.704   3.531
 3569SOL    HW111606   3.999   3.736   3.592
 3569SOL    HW211607   4.117   3.625   3.572
 3570SOL     OW11608   0.439   2.178   5.432
 3570SOL    HW111609   0.421   2.275   5.449
 3570SOL    HW211610   0.352   2.129   5.426
 3571SOL     OW11611   2.767   0.162   4.477
 3571SOL    HW111612   2.853   0.143   4.429
 3571SOL    HW211613   2.719   0.075   4.494
 3572SOL     OW11614   5.168   4.161   2.569
 3572SOL    HW111615   5.097   4.110   2.619
 3572SOL    HW211616   5.146   4.258   2.572
 3573SOL     OW11617   6.944   4.719   4.175
 3573SOL    HW111618   0.020   4.721   4.202
 3573SOL    HW211619   6.929   4.646   4.108
 3574SOL     OW11620   2.005   1.775   5.811
 3574SOL    HW111621   2.056   1.693   5.784
 3574SOL    HW211622   1.930   1.748   5.872
 3575SOL     OW11623   5.108   0.416   6.316
 3575SOL    HW111624   5.157   0.390   6.233
 3575SOL    HW211625   5.072   0.509   6.306
 3576SOL     OW11626   1.251   2.912   0.497
 3576SOL    HW111627   1.312   2.957   0.561
 3576SOL    HW211628   1.162   2.895   0.541
 3577SOL     OW11629   1.661   3.245   4.812
 3577SOL    HW111630   1.724   3.171   4.835
 3577SOL    HW211631   1.587   3.208   4.756
 3578SOL     OW11632   3.806   2.851   0.359
 3578SOL    HW111633   3.799   2.939   0.407
 3578SOL    HW211634   3.898   2.841   0.322
 3579SOL     OW11635   1.326   3.699   1.681
 3579SOL    HW111636   1.393   3.742   1.620
 3579SOL    HW211637   1.362   3.611   1.712
 3580SOL     OW11638   0.190   4.049   1.800
 3580SOL    HW111639   0.224   4.058   1.894
 3580SOL    HW211640   0.097   4.086   1.795
 3581SOL     OW11641   1.708   0.517   2.443
 3581SOL    HW111642   1.624   0.463   2.435
 3581SOL    HW211643   1.692   0.593   2.507
 3582SOL     OW11644   4.352   5.897   0.176
 3582SOL    HW111645   4.261   5.907   0.135
 3582SOL    HW211646   4.418   5.949   0.122
 3583SOL     OW11647   1.658   5.624   1.266
 3583SOL    HW111648   1.712   5.708   1.256
 3583SOL    HW211649   1.562   5.648   1.280
 3584SOL     OW11650   5.973   4.699   5.004
 3584SOL    HW111651   6.037   4.758   4.954
 3584SOL    HW211652   6.022   4.649   5.075
 3585SOL     OW11653   3.920   2.162   3.572
 3585SOL    HW111654   3.873   2.170   3.484
 3585SOL    HW211655   3.960   2.071   3.581
 3586SOL     OW11656   6.383   2.522   5.652
 3586SOL    HW111657   6.475   2.529   5.615
 3586SOL    HW211658   6.316   2.547   5.581
 3587SOL     OW11659   2.653   0.443   6.192
 3587SOL    HW111660   2.569   0.491   6.165
 3587SOL    HW211661   2.725   0.509   6.211
 3588SOL     OW11662   5.620   4.222   4.225
 3588SOL    HW111663   5.608   4.313   4.186
 3588SOL    HW211664   5.539   4.197   4.278
 3589SOL     OW11665   0.803   0.931   6.161
 3589SOL    HW111666   0.777   0.993   6.087
 3589SOL    HW211667   0.721   0.899   6.208
 3590SOL     OW11668   6.136   4.978   5.100
 3590SOL    HW111669   6.179   4.929   5.025
 3590SOL    HW211670   6.130   5.075   5.077
 3591SOL     OW11671   4.830   1.851   0.813
 3591SOL    HW111672   4.925   1.869   0.841
 3591SOL    HW211673   4.829   1.824   0.717
 3592SOL     OW11674   1.464   6.403   1.199
 3592SOL    HW111675   1.490   6.469   1.128
 3592SOL    HW211676   1.364   6.395   1.201
 3593SOL     OW11677   4.334   3.135   5.736
 3593SOL    HW111678   4.342   3.203   5.663
 3593SOL    HW211679   4.424   3.096   5.755
 3594SOL     OW11680   4.554   4.498   5.197
 3594SOL    HW111681   4.577   4.573   5.259
 3594SOL    HW211682   4.475   4.523   5.141
 3595SOL     OW11683   4.708   6.633   5.107
 3595SOL    HW111684   4.634   6.691   5.141
 3595SOL    HW211685   4.796   6.677   5.126
 3596SOL     OW11686   3.775   2.022   2.333
 3596SOL    HW111687   3.808   1.947   2.275
 3596SOL    HW211688   3.687   2.054   2.298
 3597SOL     OW11689   3.864   4.457   5.413
 3597SOL    HW111690   3.947   4.471   5.359
 3597SOL    HW211691   3.871   4.507   5.499
 3598SOL     OW11692   6.836   5.524   5.034
 3598SOL    HW111693   6.825   5.622   5.049
 3598SOL    HW211694   6.872   5.509   4.942
 3599SOL     OW11695   2.491   1.074   5.094
 3599SOL    HW111696   2.438   0.993   5.069
 3599SOL    HW211697   2.491   1.085   5.193
 3600SOL     OW11698   2.630   4.191   0.648
 3600SOL    HW111699   2.535   4.221   0.664
 3600SOL    HW211700   2.653   4.203   0.552
 3601SOL     OW11701   3.877   0.730   5.216
 3601SOL    HW111702   3.975   0.712   5.216
 3601SOL    HW211703   3.860   0.827   5.199
 3602SOL     OW11704   1.514   2.352   1.276
 3602SOL    HW111705   1.487   2.370   1.181
 3602SOL    HW211706   1.441   2.303   1.323
 3603SOL     OW11707   1.904   6.968   6.245
 3603SOL    HW111708   1.845   7.016   6.309
 3603SOL    HW211709   1.871   6.874   6.234
 3604SOL     OW11710   6.455   0.792   3.670
 3604SOL    HW111711   6.507   0.737   3.736
 3604SOL    HW211712   6.507   0.875   3.649
 3605SOL     OW11713   1.477   0.187   4.929
 3605SOL    HW111714   1.454   0.197   4.832
 3605SOL    HW211715   1.536   0.107   4.941
 3606SOL     OW11716   2.333   6.959   2.861
 3606SOL    HW111717   2.320   0.006   2.933
 3606SOL    HW211718   2.372   6.876   2.900
 3607SOL     OW11719   6.123   1.295   3.505
 3607SOL    HW111720   6.150   1.389   3.524
 3607SOL    HW211721   6.102   1.286   3.407
 3608SOL     OW11722   3.884   2.161   5.690
 3608SOL    HW111723   3.966   2.116   5.658
 3608SOL    HW211724   3.865   2.135   5.785
 3609SOL     OW11725   3.053   0.128   5.158
 3609SOL    HW111726   2.959   0.162   5.154
 3609SOL    HW211727   3.063   0.065   5.235
 3610SOL     OW11728   1.701   0.333   5.448
 3610SOL    HW111729   1.773   0.298   5.508
 3610SOL    HW211730   1.737   0.404   5.388
 3611SOL     OW11731   5.249   3.843   3.442
 3611SOL    HW111732   5.207   3.868   3.354
 3611SOL    HW211733   5.251   3.923   3.502
 3612SOL     OW11734   4.851   1.570   0.382
 3612SOL    HW111735   4.825   1.479   0.415
 3612SOL    HW211736   4.920   1.561   0.311
 3613SOL     OW11737   3.840   0.436   2.589
 3613SOL    HW111738   3.814   0.341   2.610
 3613SOL    HW211739   3.847   0.488   2.675
 3614SOL     OW11740   4.003   5.703   0.162
 3614SOL    HW111741   4.063   5.733   0.236
 3614SOL    HW211742   3.924   5.654   0.201
 3615SOL     OW11743   5.590   2.766   4.984
 3615SOL    HW111744   5.588   2.718   5.072
 3615SOL    HW211745   5.572   2.863   4.999
 3616SOL     OW11746   1.327   1.724   0.869
 3616SOL    HW111747   1.302   1.771   0.953
 3616SOL    HW211748   1.381   1.785   0.811
 3617SOL     OW11749   4.235   5.156   4.843
 3617SOL    HW111750   4.275   5.210   4.917
 3617SOL    HW211751   4.214   5.064   4.876
 3618SOL     OW11752   0.814   5.467   4.363
 3618SOL    HW111753   0.755   5.464   4.444
 3618SOL    HW211754   0.879   5.391   4.366
 3619SOL     OW11755   6.691   1.900   2.571
 3619SOL    HW111756   6.714   1.883   2.476
 3619SOL    HW211757   6.764   1.954   2.614
 3620SOL     OW11758   4.892   6.116   5.473
 3620SOL    HW111759   4.970   6.136   5.413
 3620SOL    HW211760   4.924   6.110   5.568
 3621SOL     OW11761   3.388   2.925   3.800
 3621SOL    HW111762   3.350   2.891   3.714
 3621SOL    HW211763   3.432   2.849   3.848
 3622SOL     OW11764   2.561   5.629   6.138
 3622SOL    HW111765   2.629   5.669   6.199
 3622SOL    HW211766   2.490   5.697   6.119
 3623SOL     OW11767   1.876   6.136   5.932
 3623SOL    HW111768   1.838   6.099   6.016
 3623SOL    HW211769   1.970   6.166   5.949
 3624SOL     OW11770   2.694   1.434   2.777
 3624SOL    HW111771   2.632   1.386   2.838
 3624SOL    HW211772   2.774   1.466   2.828
 3625SOL     OW11773   5.884   2.584   1.576
 3625SOL    HW111774   5.911   2.541   1.663
 3625SOL    HW211775   5.805   2.644   1.593
 3626SOL     OW11776   0.885   3.025   6.014
 3626SOL    HW111777   0.901   3.061   6.106
 3626SOL    HW211778   0.928   2.936   6.006
 3627SOL     OW11779   3.330   1.314   2.629
 3627SOL    HW111780   3.349   1.395   2.685
 3627SOL    HW211781   3.258   1.259   2.672
 3628SOL     OW11782   6.723   1.201   1.509
 3628SOL    HW111783   6.672   1.128   1.556
 3628SOL    HW211784   6.683   1.289   1.533
 3629SOL     OW11785   1.591   1.142   4.420
 3629SOL    HW111786   1.575   1.046   4.444
 3629SOL    HW211787   1.552   1.201   4.490
 3630SOL     OW11788   6.593   2.004   2.193
 3630SOL    HW111789   6.605   2.078   2.259
 3630SOL    HW211790   6.497   1.976   2.191
 3631SOL     OW11791   2.088   5.587   2.637
 3631SOL    HW111792   2.009   5.542   2.596
 3631SOL    HW211793   2.106   5.673   2.589
 3632SOL     OW11794   4.916   3.400   2.368
 3632SOL    HW111795   4.977   3.335   2.412
 3632SOL    HW211796   4.863   3.354   2.297
 3633SOL     OW11797   4.572   4.889   6.369
 3633SOL    HW111798   4.603   4.863   6.278
 3633SOL    HW211799   4.475   4.867   6.380
 3634SOL     OW11800   3.349   5.498   6.295
 3634SOL    HW111801   3.321   5.584   6.339
 3634SOL    HW211802   3.301   5.489   6.208
 3635SOL     OW11803   1.723   0.084   2.835
 3635SOL    HW111804   1.719   0.030   2.751
 3635SOL    HW211805   1.816   0.086   2.869
 3636SOL     OW11806   6.756   5.920   4.592
 3636SOL    HW111807   6.701   5.890   4.514
 3636SOL    HW211808   6.720   5.878   4.675
 3637SOL     OW11809   5.376   2.593   6.686
 3637SOL    HW111810   5.455   2.570   6.629
 3637SOL    HW211811   5.295   2.605   6.627
 3638SOL     OW11812   0.804   2.805   3.711
 3638SOL    HW111813   0.883   2.836   3.763
 3638SOL    HW211814   0.805   2.705   3.707
 3639SOL     OW11815   4.117   3.323   4.386
 3639SOL    HW111816   4.151   3.416   4.373
 3639SOL    HW211817   4.116   3.274   4.299
 3640SOL     OW11818   4.781   1.294   2.419
 3640SOL    HW111819   4.750   1.382   2.457
 3640SOL    HW211820   4.725   1.270   2.340
 3641SOL     OW11821   0.367   3.540   1.777
 3641SOL    HW111822   0.277   3.539   1.733
 3641SOL    HW211823   0.430   3.480   1.726
 3642SOL     OW11824   4.797   4.384   6.390
 3642SOL    HW111825   4.803   4.478   6.422
 3642SOL    HW211826   4.779   4.323   6.467
 3643SOL     OW11827   4.261   5.878   4.775
 3643SOL    HW111828   4.216   5.907   4.691
 3643SOL    HW211829   4.242   5.945   4.847
 3644SOL     OW11830   3.171   1.060   2.205
 3644SOL    HW111831   3.117   1.083   2.124
 3644SOL    HW211832   3.141   1.117   2.282
 3645SOL     OW11833   2.186   4.042   3.286
 3645SOL    HW111834   2.128   4.015   3.209
 3645SOL    HW211835   2.263   4.096   3.252
 3646SOL     OW11836   2.217   5.112   5.206
 3646SOL    HW111837   2.140   5.153   5.159
 3646SOL    HW211838   2.184   5.054   5.281
 3647SOL     OW11839   3.506   0.040   0.778
 3647SOL    HW111840   3.489   6.971   0.735
 3647SOL    HW211841   3.522   0.109   0.707
 3648SOL     OW11842   5.357   4.857   3.109
 3648SOL    HW111843   5.355   4.810   3.021
 3648SOL    HW211844   5.425   4.930   3.106
 3649SOL     OW11845   5.453   2.451   0.442
 3649SOL    HW111846   5.431   2.356   0.418
 3649SOL    HW211847   5.373   2.509   0.425
 3650SOL     OW11848   5.549   6.816   6.829
 3650SOL    HW111849   5.490   6.750   6.783
 3650SOL    HW211850   5.628   6.769   6.869
 3651SOL     OW11851   1.045   1.681   6.320
 3651SOL    HW111852   1.020   1.602   6.264
 3651SOL    HW211853   1.002   1.763   6.283
 3652SOL     OW11854   5.699   2.125   2.303
 3652SOL    HW111855   5.747   2.184   2.239
 3652SOL    HW211856   5.639   2.180   2.361
 3653SOL     OW11857   2.432   1.819   0.597
 3653SOL    HW111858   2.477   1.841   0.684
 3653SOL    HW211859   2.334   1.837   0.605
 3654SOL     OW11860   3.961   6.245   1.224
 3654SOL    HW111861   4.023   6.317   1.254
 3654SOL    HW211862   3.875   6.285   1.194
 3655SOL     OW11863   1.484   0.610   4.236
 3655SOL    HW111864   1.400   0.657   4.209
 3655SOL    HW211865   1.562   0.671   4.223
 3656SOL     OW11866   0.527   0.719   0.785
 3656SOL    HW111867   0.507   0.760   0.874
 3656SOL    HW211868   0.449   0.732   0.723
 3657SOL     OW11869   6.166   5.055   6.191
 3657SOL    HW111870   6.147   4.965   6.151
 3657SOL    HW211871   6.237   5.046   6.260
 3658SOL     OW11872   1.635   4.741   5.571
 3658SOL    HW111873   1.676   4.675   5.634
 3658SOL    HW211874   1.624   4.829   5.618
 3659SOL     OW11875   0.515   1.946   0.035
 3659SOL    HW111876   0.480   1.863   0.079
 3659SOL    HW211877   0.450   2.020   0.049
 3660SOL     OW11878   4.264   4.760   4.771
 3660SOL    HW111879   4.285   4.670   4.809
 3660SOL    HW211880   4.224   4.818   4.842
 3661SOL     OW11881   1.241   1.336   5.178
 3661SOL    HW111882   1.258   1.392   5.259
 3661SOL    HW211883   1.316   1.347   5.113
 3662SOL     OW11884   3.905   2.413   5.614
 3662SOL    HW111885   3.855   2.412   5.527
 3662SOL    HW211886   3.908   2.320   5.651
 3663SOL     OW11887   1.716   2.268   5.690
 3663SOL    HW111888   1.712   2.362   5.656
 3663SOL    HW211889   1.713   2.204   5.614
 3664SOL     OW11890   2.529   1.519   0.625
 3664SOL    HW111891   2.590   1.534   0.703
 3664SOL    HW211892   2.455   1.586   0.627
 3665SOL     OW11893   0.078   6.518   4.579
 3665SOL    HW111894   0.104   6.428   4.544
 3665SOL    HW211895   0.056   6.578   4.502
 3666SOL     OW11896   2.159   3.698   4.937
 3666SOL    HW111897   2.203   3.688   4.848
 3666SOL    HW211898   2.200   3.774   4.987
 3667SOL     OW11899   2.007   6.612   1.565
 3667SOL    HW111900   2.097   6.645   1.540
 3667SOL    HW211901   2.002   6.600   1.664
 3668SOL     OW11902   5.006   1.398   0.681
 3668SOL    HW111903   5.045   1.326   0.740
 3668SOL    HW211904   4.945   1.357   0.614
 3669SOL     OW11905   6.672   0.662   1.986
 3669SOL    HW111906   6.754   0.622   1.945
 3669SOL    HW211907   6.639   0.737   1.929
 3670SOL     OW11908   2.047   6.869   2.552
 3670SOL    HW111909   2.140   6.905   2.558
 3670SOL    HW211910   1.982   6.945   2.543
 3671SOL     OW11911   0.760   0.349   5.752
 3671SOL    HW111912   0.824   0.279   5.721
 3671SOL    HW211913   0.734   0.406   5.674
 3672SOL     OW11914   3.437   0.665   3.720
 3672SOL    HW111915   3.340   0.643   3.706
 3672SOL    HW211916   3.449   0.764   3.716
 3673SOL     OW11917   3.135   1.249   1.513
 3673SOL    HW111918   3.050   1.216   1.472
 3673SOL    HW211919   3.213   1.201   1.472
 3674SOL     OW11920   7.000   4.711   6.114
 3674SOL    HW111921   6.943   4.774   6.166
 3674SOL    HW211922   0.020   4.643   6.176
 3675SOL     OW11923   6.572   0.601   4.918
 3675SOL    HW111924   6.584   0.560   5.009
 3675SOL    HW211925   6.654   0.653   4.894
 3676SOL     OW11926   2.249   0.854   5.653
 3676SOL    HW111927   2.189   0.783   5.616
 3676SOL    HW211928   2.315   0.882   5.583
 3677SOL     OW11929   1.101   0.852   4.765
 3677SOL    HW111930   1.060   0.929   4.814
 3677SOL    HW211931   1.200   0.863   4.763
 3678SOL     OW11932   2.702   0.433   3.534
 3678SOL    HW111933   2.670   0.448   3.440
 3678SOL    HW211934   2.788   0.483   3.548
 3679SOL     OW11935   3.100   0.856   1.783
 3679SOL    HW111936   3.068   0.947   1.756
 3679SOL    HW211937   3.185   0.865   1.836
 3680SOL     OW11938   4.319   1.732   3.985
 3680SOL    HW111939   4.417   1.746   3.971
 3680SOL    HW211940   4.295   1.757   4.079
 3681SOL     OW11941   0.995   5.381   3.587
 3681SOL    HW111942   0.988   5.467   3.537
 3681SOL    HW211943   0.968   5.395   3.682
 3682SOL     OW11944   5.256   1.358   1.880
 3682SOL    HW111945   5.311   1.393   1.803
 3682SOL    HW211946   5.246   1.259   1.872
 3683SOL     OW11947   6.537   2.100   1.104
 3683SOL    HW111948   6.586   2.107   1.191
 3683SOL    HW211949   6.589   2.040   1.042
 3684SOL     OW11950   2.878   6.029   5.264
 3684SOL    HW111951   2.850   5.972   5.187
 3684SOL    HW211952   2.978   6.025   5.275
 3685SOL     OW11953   1.900   0.324   3.014
 3685SOL    HW111954   1.816   0.373   2.988
 3685SOL    HW211955   1.927   0.351   3.107
 3686SOL     OW11956   1.220   5.212   0.145
 3686SOL    HW111957   1.129   5.200   0.186
 3686SOL    HW211958   1.222   5.166   0.056
 3687SOL     OW11959   0.251   4.707   4.943
 3687SOL    HW111960   0.233   4.769   4.867
 3687SOL    HW211961   0.186   4.725   5.017
 3688SOL     OW11962   6.889   2.976   1.667
 3688SOL    HW111963   6.965   3.039   1.683
 3688SOL    HW211964   6.804   3.020   1.696
 3689SOL     OW11965   1.941   1.661   4.830
 3689SOL    HW111966   1.915   1.674   4.734
 3689SOL    HW211967   2.041   1.661   4.837
 3690SOL     OW11968   0.221   5.343   2.193
 3690SOL    HW111969   0.136   5.382   2.159
 3690SOL    HW211970   0.279   5.316   2.116
 3691SOL     OW11971   2.015   2.145   0.356
 3691SOL    HW111972   2.111   2.127   0.335
 3691SOL    HW211973   2.006   2.236   0.395
 3692SOL     OW11974   0.852   3.126   5.594
 3692SOL    HW111975   0.946   3.150   5.568
 3692SOL    HW211976   0.792   3.135   5.515
 3693SOL     OW11977   0.427   1.618   2.784
 3693SOL    HW111978   0.328   1.629   2.797
 3693SOL    HW211979   0.475   1.693   2.829
 3694SOL     OW11980   0.112   6.491   2.065
 3694SOL    HW111981   0.088   6.394   2.073
 3694SOL    HW211982   0.205   6.504   2.100
 3695SOL     OW11983   6.119   3.370   4.059
 3695SOL    HW111984   6.162   3.459   4.070
 3695SOL    HW211985   6.023   3.382   4.035
 3696SOL     OW11986   4.622   0.180   4.044
 3696SOL    HW111987   4.575   0.240   3.979
 3696SOL    HW211988   4.580   0.090   4.042
 3697SOL     OW11989   6.451   4.804   3.183
 3697SOL    HW111990   6.436   4.829   3.087
 3697SOL    HW211991   6.387   4.732   3.209
 3698SOL     OW11992   1.137   0.307   4.285
 3698SOL    HW111993   1.140   0.246   4.365
 3698SOL    HW211994   1.150   0.401   4.315
 3699SOL     OW11995   3.077   1.946   3.263
 3699SOL    HW111996   3.169   1.913   3.284
 3699SOL    HW211997   3.083   2.036   3.221
 3700SOL     OW11998   0.620   5.043   4.528
 3700SOL    HW111999   0.697   4.983   4.508
 3700SOL    HW212000   0.650   5.138   4.531
 3701SOL     OW12001   6.401   0.378   2.004
 3701SOL    HW112002   6.382   0.328   2.089
 3701SOL    HW212003   6.327   0.361   1.939
 3702SOL     OW12004   6.554   4.538   3.775
 3702SOL    HW112005   6.455   4.543   3.762
 3702SOL    HW212006   6.577   4.560   3.870
 3703SOL     OW12007   0.673   2.221   3.611
 3703SOL    HW112008   0.629   2.241   3.699
 3703SOL    HW212009   0.770   2.245   3.615
 3704SOL     OW12010   6.385   6.661   1.056
 3704SOL    HW112011   6.295   6.622   1.039
 3704SOL    HW212012   6.392   6.690   1.151
 3705SOL     OW12013   6.409   3.993   3.758
 3705SOL    HW112014   6.360   4.071   3.796
 3705SOL    HW212015   6.414   3.920   3.826
 3706SOL     OW12016   0.854   5.897   6.630
 3706SOL    HW112017   0.785   5.838   6.587
 3706SOL    HW212018   0.816   5.988   6.645
 3707SOL     OW12019   0.148   4.116   3.217
 3707SOL    HW112020   0.207   4.105   3.297
 3707SOL    HW212021   0.204   4.125   3.135
 3708SOL     OW12022   1.490   5.813   0.461
 3708SOL    HW112023   1.556   5.850   0.396
 3708SOL    HW212024   1.523   5.725   0.496
 3709SOL     OW12025   0.823   1.672   1.384
 3709SOL    HW112026   0.767   1.596   1.352
 3709SOL    HW212027   0.895   1.692   1.317
 3710SOL     OW12028   2.249   3.707   5.648
 3710SOL    HW112029   2.154   3.735   5.637
 3710SOL    HW212030   2.283   3.667   5.563
 3711SOL     OW12031   1.774   4.845   5.140
 3711SOL    HW112032   1.692   4.842   5.198
 3711SOL    HW212033   1.823   4.758   5.146
 3712SOL     OW12034   2.882   4.730   3.947
 3712SOL    HW112035   2.926   4.765   4.030
 3712SOL    HW212036   2.784   4.718   3.963
 3713SOL     OW12037   6.129   0.340   5.891
 3713SOL    HW112038   6.225   0.352   5.914
 3713SOL    HW212039   6.120   0.273   5.817
 3714SOL     OW12040   0.376   5.194   0.575
 3714SOL    HW112041   0.327   5.141   0.506
 3714SOL    HW212042   0.373   5.146   0.662
 3715SOL     OW12043   6.167   4.512   2.513
 3715SOL    HW112044   6.227   4.434   2.496
 3715SOL    HW212045   6.109   4.493   2.593
 3716SOL     OW12046   5.446   5.552   5.443
 3716SOL    HW112047   5.408   5.644   5.453
 3716SOL    HW212048   5.523   5.540   5.505
 3717SOL     OW12049   4.487   0.207   1.346
 3717SOL    HW112050   4.402   0.158   1.333
 3717SOL    HW212051   4.472   0.283   1.410
 3718SOL     OW12052   5.384   6.626   6.696
 3718SOL    HW112053   5.444   6.547   6.684
 3718SOL    HW212054   5.289   6.599   6.682
 3719SOL     OW12055   2.499   4.316   0.257
 3719SOL    HW112056   2.503   4.366   0.170
 3719SOL    HW212057   2.482   4.381   0.331
 3720SOL     OW12058   0.444   2.246   0.620
 3720SOL    HW112059   0.399   2.237   0.709
 3720SOL    HW212060   0.415   2.331   0.577
 3721SOL     OW12061   6.449   6.987   5.892
 3721SOL    HW112062   6.375   6.924   5.917
 3721SOL    HW212063   6.463   0.032   5.965
 3722SOL     OW12064   5.486   6.521   1.311
 3722SOL    HW112065   5.497   6.578   1.392
 3722SOL    HW212066   5.509   6.426   1.333
 3723SOL     OW12067   4.723   4.117   6.195
 3723SOL    HW112068   4.682   4.063   6.121
 3723SOL    HW212069   4.650   4.162   6.247
 3724SOL     OW12070   6.097   4.504   5.138
 3724SOL    HW112071   6.150   4.454   5.070
 3724SOL    HW212072   6.156   4.531   5.214
 3725SOL     OW12073   0.138   6.226   0.745
 3725SOL    HW112074   0.096   6.165   0.678
 3725SOL    HW212075   0.081   6.232   0.826
 3726SOL     OW12076   6.284   3.443   5.109
 3726SOL    HW112077   6.190   3.432   5.076
 3726SOL    HW212078   6.296   3.535   5.146
 3727SOL     OW12079   6.600   1.928   4.341
 3727SOL    HW112080   6.622   1.843   4.295
 3727SOL    HW212081   6.603   1.914   4.440
 3728SOL     OW12082   1.927   4.738   0.313
 3728SOL    HW112083   1.883   4.827   0.325
 3728SOL    HW212084   2.021   4.743   0.346
 3729SOL     OW12085   7.011   0.315   6.200
 3729SOL    HW112086   6.991   0.395   6.257
 3729SOL    HW212087   0.088   0.292   6.208
 3730SOL     OW12088   5.462   4.490   4.876
 3730SOL    HW112089   5.527   4.415   4.876
 3730SOL    HW212090   5.484   4.554   4.950
 3731SOL     OW12091   6.641   1.734   1.595
 3731SOL    HW112092   6.660   1.745   1.693
 3731SOL    HW212093   6.671   1.816   1.546
 3732SOL     OW12094   3.927   2.617   0.272
 3732SOL    HW112095   3.866   2.636   0.195
 3732SOL    HW212096   3.876   2.625   0.357
 3733SOL     OW12097   1.625   1.274   3.183
 3733SOL    HW112098   1.571   1.214   3.242
 3733SOL    HW212099   1.597   1.262   3.088
 3734SOL     OW12100   3.724   0.740   1.420
 3734SOL    HW112101   3.782   0.781   1.491
 3734SOL    HW212102   3.630   0.773   1.431
 3735SOL     OW12103   4.173   1.084   2.680
 3735SOL    HW112104   4.121   1.168   2.693
 3735SOL    HW212105   4.132   1.010   2.733
 3736SOL     OW12106   0.930   1.764   0.120
 3736SOL    HW112107   1.019   1.733   0.155
 3736SOL    HW212108   0.875   1.799   0.195
 3737SOL     OW12109   5.340   1.668   4.017
 3737SOL    HW112110   5.418   1.663   3.954
 3737SOL    HW212111   5.361   1.619   4.101
 3738SOL     OW12112   0.639   0.864   0.349
 3738SOL    HW112113   0.674   0.944   0.398
 3738SOL    HW212114   0.674   0.781   0.393
 3739SOL     OW12115   3.175   4.588   6.966
 3739SOL    HW112116   3.163   4.578   0.044
 3739SOL    HW212117   3.136   4.508   6.920
 3740SOL     OW12118   6.110   6.441   6.872
 3740SOL    HW112119   6.171   6.436   6.793
 3740SOL    HW212120   6.128   6.524   6.924
 3741SOL     OW12121   6.713   4.503   6.865
 3741SOL    HW112122   6.689   4.433   6.933
 3741SOL    HW212123   6.771   4.573   6.909
 3742SOL     OW12124   5.004   5.053   1.930
 3742SOL    HW112125   4.955   5.012   2.006
 3742SOL    HW212126   5.001   4.991   1.851
 3743SOL     OW12127   2.644   3.799   0.979
 3743SOL    HW112128   2.601   3.727   1.033
 3743SOL    HW212129   2.656   3.881   1.035
 3744SOL     OW12130   6.677   6.048   2.829
 3744SOL    HW112131   6.659   6.097   2.914
 3744SOL    HW212132   6.678   6.112   2.753
 3745SOL     OW12133   5.986   1.454   2.428
 3745SOL    HW112134   5.974   1.551   2.448
 3745SOL    HW212135   5.967   1.401   2.511
 3746SOL     OW12136   4.973   7.008   5.454
 3746SOL    HW112137   4.952   7.001   5.552
 3746SOL    HW212138   5.033   0.066   5.439
 3747SOL     OW12139   2.161   5.499   5.552
 3747SOL    HW112140   2.186   5.507   5.455
 3747SOL    HW212141   2.216   5.564   5.606
 3748SOL     OW12142   5.078   2.097   3.246
 3748SOL    HW112143   5.140   2.113   3.323
 3748SOL    HW212144   5.101   2.009   3.203
 3749SOL     OW12145   5.864   6.060   1.769
 3749SOL    HW112146   5.870   6.146   1.720
 3749SOL    HW212147   5.874   5.984   1.705
 3750SOL     OW12148   6.012   4.065   1.513
 3750SOL    HW112149   5.975   4.137   1.572
 3750SOL    HW212150   5.959   3.981   1.527
 3751SOL     OW12151   1.811   4.964   0.797
 3751SOL    HW112152   1.868   4.882   0.804
 3751SOL    HW212153   1.740   4.950   0.729
 3752SOL     OW12154   1.136   6.906   6.261
 3752SOL    HW112155   1.178   6.842   6.326
 3752SOL    HW212156   1.206   6.968   6.226
 3753SOL     OW12157   0.766   1.147   5.972
 3753SOL    HW112158   0.723   1.237   5.960
 3753SOL    HW212159   0.845   1.140   5.910
 3754SOL     OW12160   6.841   6.367   1.824
 3754SOL    HW112161   6.834   6.336   1.919
 3754SOL    HW212162   6.751   6.396   1.792
 3755SOL     OW12163   4.783   2.224   2.946
 3755SOL    HW112164   4.726   2.155   2.903
 3755SOL    HW212165   4.758   2.315   2.912
 3756SOL     OW12166   3.330   0.235   0.508
 3756SOL    HW112167   3.379   0.305   0.559
 3756SOL    HW212168   3.236   0.266   0.491
 3757SOL     OW12169   3.251   4.352   5.645
 3757SOL    HW112170   3.200   4.432   5.616
 3757SOL    HW212171   3.196   4.270   5.631
 3758SOL     OW12172   6.878   0.643   1.756
 3758SOL    HW112173   6.900   0.719   1.817
 3758SOL    HW212174   6.815   0.674   1.685
 3759SOL     OW12175   4.876   4.150   0.539
 3759SOL    HW112176   4.971   4.142   0.508
 3759SOL    HW212177   4.871   4.128   0.636
 3760SOL     OW12178   1.801   1.652   5.940
 3760SOL    HW112179   1.731   1.720   5.960
 3760SOL    HW212180   1.864   1.645   6.017
 3761SOL     OW12181   6.690   6.184   4.120
 3761SOL    HW112182   6.697   6.237   4.204
 3761SOL    HW212183   6.606   6.130   4.121
 3762SOL     OW12184   0.434   3.645   0.762
 3762SOL    HW112185   0.386   3.724   0.724
 3762SOL    HW212186   0.380   3.606   0.836
 3763SOL     OW12187   7.016   2.902   4.795
 3763SOL    HW112188   6.994   2.951   4.879
 3763SOL    HW212189   6.932   2.870   4.751
 3764SOL     OW12190   1.932   0.120   3.680
 3764SOL    HW112191   1.969   0.211   3.661
 3764SOL    HW212192   1.836   0.116   3.652
 3765SOL     OW12193   6.183   1.081   3.664
 3765SOL    HW112194   6.251   1.039   3.604
 3765SOL    HW212195   6.128   1.147   3.612
 3766SOL     OW12196   2.387   1.232   4.691
 3766SOL    HW112197   2.443   1.308   4.656
 3766SOL    HW212198   2.446   1.168   4.741
 3767SOL     OW12199   6.993   4.461   1.058
 3767SOL    HW112200   6.968   4.527   1.129
 3767SOL    HW212201   0.058   4.416   1.083
 3768SOL     OW12202   4.557   6.747   1.221
 3768SOL    HW112203   4.546   6.655   1.183
 3768SOL    HW212204   4.648   6.782   1.197
 3769SOL     OW12205   4.003   6.621   4.595
 3769SOL    HW112206   3.995   6.665   4.684
 3769SOL    HW212207   4.090   6.646   4.553
 3770SOL     OW12208   1.677   2.835   0.306
 3770SOL    HW112209   1.579   2.849   0.293
 3770SOL    HW212210   1.721   2.823   0.217
 3771SOL     OW12211   4.751   1.515   5.859
 3771SOL    HW112212   4.700   1.540   5.777
 3771SOL    HW212213   4.822   1.583   5.877
 3772SOL     OW12214   5.369   0.850   2.580
 3772SOL    HW112215   5.329   0.929   2.535
 3772SOL    HW212216   5.308   0.771   2.570
 3773SOL     OW12217   6.582   2.489   0.947
 3773SOL    HW112218   6.518   2.465   1.021
 3773SOL    HW212219   6.530   2.508   0.864
 3774SOL     OW12220   1.302   1.614   1.657
 3774SOL    HW112221   1.382   1.668   1.632
 3774SOL    HW212222   1.330   1.520   1.675
 3775SOL     OW12223   5.041   2.388   3.192
 3775SOL    HW112224   5.128   2.360   3.232
 3775SOL    HW212225   4.978   2.310   3.192
 3776SOL     OW12226   3.039   2.093   6.531
 3776SOL    HW112227   2.961   2.093   6.468
 3776SOL    HW212228   3.039   2.009   6.585
 3777SOL     OW12229   1.099   4.046   3.280
 3777SOL    HW112230   1.176   4.069   3.220
 3777SOL    HW212231   1.067   4.129   3.325
 3778SOL     OW12232   2.108   0.577   1.950
 3778SOL    HW112233   2.060   0.490   1.949
 3778SOL    HW212234   2.045   0.650   1.923
 3779SOL     OW12235   1.769   5.203   6.670
 3779SOL    HW112236   1.767   5.116   6.619
 3779SOL    HW212237   1.819   5.271   6.617
 3780SOL     OW12238   1.810   6.814   4.123
 3780SOL    HW112239   1.844   6.893   4.073
 3780SOL    HW212240   1.767   6.750   4.059
 3781SOL     OW12241   2.826   5.220   4.747
 3781SOL    HW112242   2.744   5.240   4.802
 3781SOL    HW212243   2.906   5.263   4.789
 3782SOL     OW12244   2.634   1.334   2.149
 3782SOL    HW112245   2.591   1.244   2.148
 3782SOL    HW212246   2.733   1.323   2.161
 3783SOL     OW12247   5.388   4.853   4.784
 3783SOL    HW112248   5.312   4.914   4.761
 3783SOL    HW212249   5.372   4.812   4.874
 3784SOL     OW12250   4.972   2.556   4.453
 3784SOL    HW112251   4.911   2.554   4.532
 3784SOL    HW212252   4.932   2.503   4.379
 3785SOL     OW12253   0.618   0.400   2.009
 3785SOL    HW112254   0.556   0.437   1.939
 3785SOL    HW212255   0.663   0.476   2.056
 3786SOL     OW12256   2.609   6.249   1.363
 3786SOL    HW112257   2.681   6.187   1.390
 3786SOL    HW212258   2.616   6.334   1.417
 3787SOL     OW12259   4.861   0.652   3.608
 3787SOL    HW112260   4.812   0.711   3.672
 3787SOL    HW212261   4.796   0.592   3.561
 3788SOL     OW12262   6.643   3.487   2.244
 3788SOL    HW112263   6.649   3.586   2.260
 3788SOL    HW212264   6.680   3.466   2.154
 3789SOL     OW12265   1.769   5.318   2.132
 3789SOL    HW112266   1.824   5.342   2.052
 3789SOL    HW212267   1.722   5.400   2.165
 3790SOL     OW12268   1.653   3.468   2.344
 3790SOL    HW112269   1.629   3.385   2.293
 3790SOL    HW212270   1.570   3.517   2.369
 3791SOL     OW12271   6.859   0.555   2.776
 3791SOL    HW112272   6.903   0.622   2.836
 3791SOL    HW212273   6.770   0.590   2.746
 3792SOL     OW12274   1.204   5.786   6.329
 3792SOL    HW112275   1.183   5.881   6.351
 3792SOL    HW212276   1.158   5.726   6.394
 3793SOL     OW12277   0.114   5.771   2.861
 3793SOL    HW112278   0.131   5.683   2.816
 3793SOL    HW212279   0.111   5.844   2.793
 3794SOL     OW12280   4.081   0.057   3.781
 3794SOL    HW112281   4.088   0.140   3.836
 3794SOL    HW212282   4.127   7.001   3.828
 3795SOL     OW12283   5.687   0.286   1.082
 3795SOL    HW112284   5.787   0.288   1.078
 3795SOL    HW212285   5.655   0.193   1.063
 3796SOL     OW12286   0.053   2.780   1.170
 3796SOL    HW112287   0.082   2.851   1.235
 3796SOL    HW212288   0.050   2.692   1.217
 3797SOL     OW12289   0.172   5.492   2.814
 3797SOL    HW112290   0.148   5.397   2.798
 3797SOL    HW212291   0.260   5.512   2.772
 3798SOL     OW12292   1.353   4.424   0.046
 3798SOL    HW112293   1.341   4.477   0.130
 3798SOL    HW212294   1.264   4.399   0.008
 3799SOL     OW12295   1.301   0.573   5.435
 3799SOL    HW112296   1.295   0.592   5.337
 3799SOL    HW212297   1.224   0.514   5.461
 3800SOL     OW12298   5.084   2.410   4.681
 3800SOL    HW112299   5.109   2.449   4.592
 3800SOL    HW212300   5.072   2.484   4.747
 3801SOL     OW12301   6.756   0.435   5.826
 3801SOL    HW112302   6.704   0.350   5.824
 3801SOL    HW212303   6.846   0.418   5.865
 3802SOL     OW12304   1.819   2.359   5.135
 3802SOL    HW112305   1.882   2.365   5.058
 3802SOL    HW212306   1.844   2.426   5.204
 3803SOL     OW12307   4.211   1.542   1.539
 3803SOL    HW112308   4.182   1.460   1.490
 3803SOL    HW212309   4.218   1.522   1.637
 3804SOL     OW12310   5.087   3.662   5.042
 3804SOL    HW112311   5.106   3.753   5.005
 3804SOL    HW212312   4.990   3.641   5.031
 3805SOL     OW12313   1.921   3.589   1.476
 3805SOL    HW112314   1.915   3.548   1.567
 3805SOL    HW212315   2.012   3.575   1.439
 3806SOL     OW12316   3.421   0.678   6.978
 3806SOL    HW112317   3.342   0.725   7.017
 3806SOL    HW212318   3.397   0.642   6.888
 3807SOL     OW12319   1.646   6.832   2.935
 3807SOL    HW112320   1.685   6.880   3.013
 3807SOL    HW212321   1.554   6.867   2.917
 3808SOL     OW12322   3.800   1.037   0.451
 3808SOL    HW112323   3.706   1.041   0.416
 3808SOL    HW212324   3.864   1.038   0.374
 3809SOL     OW12325   4.226   1.074   0.269
 3809SOL    HW112326   4.232   1.070   0.369
 3809SOL    HW212327   4.287   1.146   0.235
 3810SOL     OW12328   1.982   3.892   6.947
 3810SOL    HW112329   1.901   3.900   7.005
 3810SOL    HW212330   1.971   3.950   6.866
 3811SOL     OW12331   6.700   0.591   6.273
 3811SOL    HW112332   6.654   0.667   6.319
 3811SOL    HW212333   6.795   0.586   6.304
 3812SOL     OW12334   4.370   0.645   5.677
 3812SOL    HW112335   4.374   0.674   5.772
 3812SOL    HW212336   4.353   0.725   5.619
 3813SOL     OW12337   3.797   4.867   2.285
 3813SOL    HW112338   3.814   4.825   2.374
 3813SOL    HW212339   3.730   4.812   2.235
 3814SOL     OW12340   2.000   0.560   1.574
 3814SOL    HW112341   2.061   0.602   1.641
 3814SOL    HW212342   1.906   0.587   1.592
 3815SOL     OW12343   5.663   1.927   2.100
 3815SOL    HW112344   5.677   1.994   2.173
 3815SOL    HW212345   5.667   1.835   2.138
 3816SOL     OW12346   0.204   6.450   0.576
 3816SOL    HW112347   0.190   6.380   0.646
 3816SOL    HW212348   0.290   6.498   0.594
 3817SOL     OW12349   5.477   2.052   5.402
 3817SOL    HW112350   5.507   1.964   5.365
 3817SOL    HW212351   5.423   2.036   5.485
 3818SOL     OW12352   3.328   5.679   2.983
 3818SOL    HW112353   3.314   5.663   2.886
 3818SOL    HW212354   3.298   5.771   3.007
 3819SOL     OW12355   5.486   3.603   6.403
 3819SOL    HW112356   5.474   3.676   6.336
 3819SOL    HW212357   5.439   3.521   6.371
 3820SOL     OW12358   4.202   6.173   3.309
 3820SOL    HW112359   4.107   6.158   3.337
 3820SOL    HW212360   4.225   6.109   3.236
 3821SOL     OW12361   0.101   4.600   1.484
 3821SOL    HW112362   0.125   4.534   1.413
 3821SOL    HW212363   0.048   4.675   1.443
 3822SOL     OW12364   0.636   3.940   1.154
 3822SOL    HW112365   0.709   3.895   1.205
 3822SOL    HW212366   0.619   4.030   1.193
 3823SOL     OW12367   2.622   3.681   5.558
 3823SOL    HW112368   2.712   3.666   5.518
 3823SOL    HW212369   2.555   3.694   5.485
 3824SOL     OW12370   0.546   2.386   6.117
 3824SOL    HW112371   0.480   2.324   6.076
 3824SOL    HW212372   0.510   2.422   6.203
 3825SOL     OW12373   0.404   6.546   6.059
 3825SOL    HW112374   0.421   6.566   6.155
 3825SOL    HW212375   0.355   6.622   6.017
 3826SOL     OW12376   6.545   2.025   1.746
 3826SOL    HW112377   6.487   2.044   1.825
 3826SOL    HW212378   6.598   1.941   1.763
 3827SOL     OW12379   5.403   1.833   2.285
 3827SOL    HW112380   5.322   1.829   2.228
 3827SOL    HW212381   5.468   1.763   2.255
 3828SOL     OW12382   3.483   1.298   1.645
 3828SOL    HW112383   3.566   1.319   1.696
 3828SOL    HW212384   3.440   1.383   1.615
 3829SOL     OW12385   0.781   4.860   3.348
 3829SOL    HW112386   0.689   4.880   3.382
 3829SOL    HW212387   0.845   4.928   3.382
 3830SOL     OW12388   2.395   0.373   5.446
 3830SOL    HW112389   2.382   0.450   5.385
 3830SOL    HW212390   2.421   0.406   5.537
 3831SOL     OW12391   4.659   1.642   2.214
 3831SOL    HW112392   4.610   1.728   2.200
 3831SOL    HW212393   4.709   1.617   2.131
 3832SOL     OW12394   6.065   6.947   2.604
 3832SOL    HW112395   6.049   7.014   2.677
 3832SOL    HW212396   6.155   6.961   2.565
 3833SOL     OW12397   1.501   6.529   2.495
 3833SOL    HW112398   1.422   6.542   2.436
 3833SOL    HW212399   1.555   6.614   2.497
 3834SOL     OW12400   3.290   3.022   0.661
 3834SOL    HW112401   3.196   3.001   0.636
 3834SOL    HW212402   3.317   2.967   0.740
 3835SOL     OW12403   2.962   4.849   3.138
 3835SOL    HW112404   3.052   4.852   3.182
 3835SOL    HW212405   2.891   4.854   3.208
 3836SOL     OW12406   1.167   3.101   5.938
 3836SOL    HW112407   1.148   3.041   6.016
 3836SOL    HW212408   1.086   3.108   5.880
 3837SOL     OW12409   3.045   4.366   6.483
 3837SOL    HW112410   2.980   4.338   6.554
 3837SOL    HW212411   3.137   4.336   6.507
 3838SOL     OW12412   6.899   3.521   4.529
 3838SOL    HW112413   6.984   3.499   4.481
 3838SOL    HW212414   6.848   3.590   4.477
 3839SOL     OW12415   0.778   6.281   7.010
 3839SOL    HW112416   0.742   6.369   0.020
 3839SOL    HW212417   0.702   6.224   6.978
 3840SOL     OW12418   2.832   2.293   3.167
 3840SOL    HW112419   2.926   2.272   3.195
 3840SOL    HW212420   2.829   2.307   3.068
 3841SOL     OW12421   1.110   2.923   3.565
 3841SOL    HW112422   1.094   3.005   3.510
 3841SOL    HW212423   1.073   2.938   3.657
 3842SOL     OW12424   1.152   4.902   6.547
 3842SOL    HW112425   1.108   4.878   6.460
 3842SOL    HW212426   1.220   4.832   6.571
 3843SOL     OW12427   7.001   4.560   6.984
 3843SOL    HW112428   0.042   4.595   6.913
 3843SOL    HW212429   7.017   4.462   6.995
 3844SOL     OW12430   2.795   4.410   5.661
 3844SOL    HW112431   2.741   4.472   5.604
 3844SOL    HW212432   2.750   4.321   5.664
 3845SOL     OW12433   3.203   3.151   4.534
 3845SOL    HW112434   3.230   3.074   4.477
 3845SOL    HW212435   3.141   3.211   4.483
 3846SOL     OW12436   6.887   4.730   5.146
 3846SOL    HW112437   6.819   4.798   5.118
 3846SOL    HW212438   6.977   4.773   5.149
 3847SOL     OW12439   1.347   6.670   0.843
 3847SOL    HW112440   1.311   6.578   0.857
 3847SOL    HW212441   1.272   6.737   0.849
 3848SOL     OW12442   2.948   6.166   1.984
 3848SOL    HW112443   3.021   6.180   1.918
 3848SOL    HW212444   2.862   6.146   1.936
 3849SOL     OW12445   2.685   1.535   5.339
 3849SOL    HW112446   2.634   1.596   5.399
 3849SOL    HW212447   2.693   1.445   5.382
 3850SOL     OW12448   1.312   3.360   1.462
 3850SOL    HW112449   1.372   3.429   1.421
 3850SOL    HW212450   1.367   3.290   1.507
 3851SOL     OW12451   2.684   2.893   0.801
 3851SOL    HW112452   2.644   2.807   0.830
 3851SOL    HW212453   2.688   2.956   0.878
 3852SOL     OW12454   4.769   0.956   5.338
 3852SOL    HW112455   4.685   0.985   5.294
 3852SOL    HW212456   4.823   0.900   5.274
 3853SOL     OW12457   0.264   3.794   2.113
 3853SOL    HW112458   0.169   3.773   2.136
 3853SOL    HW212459   0.277   3.893   2.109
 3854SOL     OW12460   1.527   3.497   4.112
 3854SOL    HW112461   1.618   3.508   4.152
 3854SOL    HW212462   1.532   3.432   4.036
 3855SOL     OW12463   6.983   1.643   4.926
 3855SOL    HW112464   0.041   1.693   4.888
 3855SOL    HW212465   7.012   1.592   5.007
 3856SOL     OW12466   0.969   6.148   6.315
 3856SOL    HW112467   0.959   6.100   6.228
 3856SOL    HW212468   0.899   6.219   6.323
 3857SOL     OW12469   6.989   0.346   6.617
 3857SOL    HW112470   6.925   0.283   6.572
 3857SOL    HW212471   6.990   0.327   6.715
 3858SOL     OW12472   3.772   4.857   6.910
 3858SOL    HW112473   3.683   4.896   6.886
 3858SOL    HW212474   3.837   4.875   6.836
 3859SOL     OW12475   6.540   2.772   2.170
 3859SOL    HW112476   6.628   2.734   2.142
 3859SOL    HW212477   6.555   2.847   2.234
 3860SOL     OW12478   2.584   5.748   4.787
 3860SOL    HW112479   2.563   5.843   4.807
 3860SOL    HW212480   2.534   5.719   4.705
 3861SOL     OW12481   2.967   4.359   6.906
 3861SOL    HW112482   2.922   4.362   6.995
 3861SOL    HW212483   2.900   4.338   6.835
 3862SOL     OW12484   0.968   6.127   5.596
 3862SOL    HW112485   1.024   6.180   5.532
 3862SOL    HW212486   0.889   6.181   5.624
 3863SOL     OW12487   2.600   2.748   0.166
 3863SOL    HW112488   2.569   2.795   0.084
 3863SOL    HW212489   2.678   2.798   0.205
 3864SOL     OW12490   3.481   2.186   1.256
 3864SOL    HW112491   3.503   2.174   1.352
 3864SOL    HW212492   3.546   2.134   1.200
 3865SOL     OW12493   3.848   1.031   2.265
 3865SOL    HW112494   3.809   1.104   2.320
 3865SOL    HW212495   3.806   1.031   2.174
 3866SOL     OW12496   4.299   6.272   0.158
 3866SOL    HW112497   4.335   6.357   0.120
 3866SOL    HW212498   4.353   6.195   0.124
 3867SOL     OW12499   1.810   4.956   2.996
 3867SOL    HW112500   1.871   5.005   2.933
 3867SOL    HW212501   1.774   4.875   2.950
 3868SOL     OW12502   1.828   5.140   3.182
 3868SOL    HW112503   1.925   5.141   3.204
 3868SOL    HW212504   1.811   5.079   3.105
 3869SOL     OW12505   0.860   1.671   3.959
 3869SOL    HW112506   0.826   1.648   4.050
 3869SOL    HW212507   0.948   1.718   3.967
 3870SOL     OW12508   3.867   3.887   0.188
 3870SOL    HW112509   3.923   3.924   0.262
 3870SOL    HW212510   3.775   3.867   0.223
 3871SOL     OW12511   3.344   0.671   4.280
 3871SOL    HW112512   3.256   0.630   4.257
 3871SOL    HW212513   3.373   0.640   4.371
 3872SOL     OW12514   4.555   4.025   0.862
 3872SOL    HW112515   4.654   4.014   0.860
 3872SOL    HW212516   4.523   4.056   0.772
 3873SOL     OW12517   6.564   4.744   1.943
 3873SOL    HW112518   6.589   4.814   1.877
 3873SOL    HW212519   6.635   4.673   1.945
 3874SOL     OW12520   5.413   6.213   5.834
 3874SOL    HW112521   5.405   6.174   5.925
 3874SOL    HW212522   5.483   6.284   5.834
 3875SOL     OW12523   3.163   3.262   0.241
 3875SOL    HW112524   3.108   3.186   0.275
 3875SOL    HW212525   3.191   3.320   0.318
 3876SOL     OW12526   5.571   3.742   2.550
 3876SOL    HW112527   5.487   3.774   2.593
 3876SOL    HW212528   5.568   3.761   2.452
 3877SOL     OW12529   4.434   1.908   1.961
 3877SOL    HW112530   4.452   1.943   2.053
 3877SOL    HW212531   4.478   1.967   1.893
 3878SOL     OW12532   5.037   5.730   4.650
 3878SOL    HW112533   5.113   5.714   4.713
 3878SOL    HW212534   5.056   5.812   4.595
 3879SOL     OW12535   2.284   5.854   0.830
 3879SOL    HW112536   2.309   5.920   0.759
 3879SOL    HW212537   2.365   5.801   0.855
 3880SOL     OW12538   6.271   1.195   4.546
 3880SOL    HW112539   6.327   1.125   4.502
 3880SOL    HW212540   6.176   1.164   4.551
 3881SOL     OW12541   0.115   5.890   5.575
 3881SOL    HW112542   0.211   5.879   5.548
 3881SOL    HW212543   0.059   5.822   5.528
 3882SOL     OW12544   0.285   5.996   0.134
 3882SOL    HW112545   0.216   5.978   0.064
 3882SOL    HW212546   0.298   6.095   0.142
 3883SOL     OW12547   3.921   2.316   0.196
 3883SOL    HW112548   3.992   2.302   0.127
 3883SOL    HW212549   3.939   2.401   0.245
 3884SOL     OW12550   3.152   5.772   5.815
 3884SOL    HW112551   3.152   5.802   5.720
 3884SOL    HW212552   3.215   5.695   5.826
 3885SOL     OW12553   0.014   1.047   3.724
 3885SOL    HW112554   7.011   1.109   3.649
 3885SOL    HW212555   0.089   1.086   3.778
 3886SOL     OW12556   6.872   6.149   4.479
 3886SOL    HW112557   6.792   6.205   4.459
 3886SOL    HW212558   6.843   6.055   4.499
 3887SOL     OW12559   6.820   2.990   5.141
 3887SOL    HW112560   6.728   3.005   5.178
 3887SOL    HW212561   6.830   2.894   5.114
 3888SOL     OW12562   5.180   1.630   3.019
 3888SOL    HW112563   5.230   1.702   2.971
 3888SOL    HW212564   5.128   1.576   2.953
 3889SOL     OW12565   6.569   5.793   0.269
 3889SOL    HW112566   6.592   5.803   0.366
 3889SOL    HW212567   6.649   5.758   0.220
 3890SOL     OW12568   6.144   3.119   3.274
 3890SOL    HW112569   6.120   3.131   3.178
 3890SOL    HW212570   6.061   3.115   3.329
 3891SOL     OW12571   3.949   4.327   5.800
 3891SOL    HW112572   4.022   4.395   5.809
 3891SOL    HW212573   3.940   4.277   5.886
 3892SOL     OW12574   5.401   5.564   4.039
 3892SOL    HW112575   5.438   5.478   4.005
 3892SOL    HW212576   5.441   5.585   4.128
 3893SOL     OW12577   2.317   6.079   4.565
 3893SOL    HW112578   2.239   6.078   4.502
 3893SOL    HW212579   2.313   5.999   4.625
 3894SOL     OW12580   5.563   5.505   6.103
 3894SOL    HW112581   5.540   5.421   6.053
 3894SOL    HW212582   5.653   5.537   6.076
 3895SOL     OW12583   1.551   1.708   5.499
 3895SOL    HW112584   1.619   1.636   5.514
 3895SOL    HW212585   1.575   1.760   5.417
 3896SOL     OW12586   6.521   3.017   0.417
 3896SOL    HW112587   6.552   3.018   0.322
 3896SOL    HW212588   6.553   2.933   0.461
 3897SOL     OW12589   2.910   0.107   3.612
 3897SOL    HW112590   2.972   0.186   3.622
 3897SOL    HW212591   2.928   0.062   3.525
 3898SOL     OW12592   3.155   3.957   3.283
 3898SOL    HW112593   3.116   3.986   3.371
 3898SOL    HW212594   3.240   3.906   3.299
 3899SOL     OW12595   4.791   1.981   6.197
 3899SOL    HW112596   4.828   1.896   6.236
 3899SOL    HW212597   4.728   2.022   6.262
 3900SOL     OW12598   1.244   2.629   3.767
 3900SOL    HW112599   1.170   2.696   3.771
 3900SOL    HW212600   1.331   2.673   3.788
 3901SOL     OW12601   3.823   6.118   4.598
 3901SOL    HW112602   3.842   6.216   4.609
 3901SOL    HW212603   3.808   6.098   4.501
 3902SOL     OW12604   2.986   5.106   3.063
 3902SOL    HW112605   2.992   5.006   3.061
 3902SOL    HW212606   2.907   5.134   3.116
 3903SOL     OW12607   2.786   3.536   6.502
 3903SOL    HW112608   2.757   3.625   6.536
 3903SOL    HW212609   2.885   3.534   6.492
 3904SOL     OW12610   2.806   6.054   0.810
 3904SOL    HW112611   2.872   6.129   0.804
 3904SOL    HW212612   2.717   6.091   0.837
 3905SOL     OW12613   4.121   6.622   5.459
 3905SOL    HW112614   4.121   6.537   5.407
 3905SOL    HW212615   4.167   6.607   5.547
 3906SOL     OW12616   6.511   5.745   4.116
 3906SOL    HW112617   6.609   5.729   4.100
 3906SOL    HW212618   6.479   5.686   4.190
 3907SOL     OW12619   1.008   1.665   4.887
 3907SOL    HW112620   0.953   1.619   4.956
 3907SOL    HW212621   1.015   1.607   4.805
 3908SOL     OW12622   2.208   1.692   4.844
 3908SOL    HW112623   2.230   1.618   4.780
 3908SOL    HW212624   2.290   1.745   4.864
 3909SOL     OW12625   6.408   3.381   2.362
 3909SOL    HW112626   6.487   3.399   2.304
 3909SOL    HW212627   6.394   3.457   2.425
 3910SOL     OW12628   2.251   2.329   0.443
 3910SOL    HW112629   2.313   2.405   0.460
 3910SOL    HW212630   2.280   2.279   0.361
 3911SOL     OW12631   6.220   1.092   1.801
 3911SOL    HW112632   6.214   1.037   1.718
 3911SOL    HW212633   6.225   1.031   1.881
 3912SOL     OW12634   5.017   4.649   0.202
 3912SOL    HW112635   5.027   4.620   0.107
 3912SOL    HW212636   4.920   4.656   0.225
 3913SOL     OW12637   4.211   4.470   1.200
 3913SOL    HW112638   4.261   4.476   1.113
 3913SOL    HW212639   4.180   4.376   1.214
 3914SOL     OW12640   0.386   1.128   0.359
 3914SOL    HW112641   0.410   1.158   0.452
 3914SOL    HW212642   0.400   1.030   0.351
 3915SOL     OW12643   5.208   0.235   4.799
 3915SOL    HW112644   5.306   0.231   4.817
 3915SOL    HW212645   5.191   0.214   4.703
 3916SOL     OW12646   1.934   2.664   1.891
 3916SOL    HW112647   1.962   2.643   1.984
 3916SOL    HW212648   1.869   2.740   1.892
 3917SOL     OW12649   3.919   5.719   2.481
 3917SOL    HW112650   3.844   5.698   2.419
 3917SOL    HW212651   3.981   5.786   2.438
 3918SOL     OW12652   4.032   0.231   0.550
 3918SOL    HW112653   4.131   0.229   0.536
 3918SOL    HW212654   4.011   0.198   0.642
 3919SOL     OW12655   4.860   4.769   3.301
 3919SOL    HW112656   4.788   4.724   3.249
 3919SOL    HW212657   4.905   4.702   3.361
 3920SOL     OW12658   4.480   1.148   5.950
 3920SOL    HW112659   4.404   1.119   6.007
 3920SOL    HW212660   4.536   1.069   5.926
 3921SOL     OW12661   0.820   3.255   5.864
 3921SOL    HW112662   0.843   3.243   5.767
 3921SOL    HW212663   0.843   3.171   5.914
 3922SOL     OW12664   5.521   2.258   4.003
 3922SOL    HW112665   5.493   2.299   4.090
 3922SOL    HW212666   5.620   2.246   4.002
 3923SOL     OW12667   5.864   1.158   1.303
 3923SOL    HW112668   5.940   1.157   1.237
 3923SOL    HW212669   5.867   1.244   1.355
 3924SOL     OW12670   5.527   5.170   3.762
 3924SOL    HW112671   5.560   5.184   3.669
 3924SOL    HW212672   5.429   5.153   3.761
 3925SOL     OW12673   3.628   4.341   1.769
 3925SOL    HW112674   3.673   4.381   1.849
 3925SOL    HW212675   3.593   4.414   1.711
 3926SOL     OW12676   1.313   5.818   5.368
 3926SOL    HW112677   1.309   5.917   5.378
 3926SOL    HW212678   1.393   5.783   5.417
 3927SOL     OW12679   6.347   6.153   4.939
 3927SOL    HW112680   6.348   6.231   5.001
 3927SOL    HW212681   6.266   6.158   4.881
 3928SOL     OW12682   4.339   5.421   2.423
 3928SOL    HW112683   4.298   5.400   2.512
 3928SOL    HW212684   4.267   5.442   2.357
 3929SOL     OW12685   2.335   0.863   4.968
 3929SOL    HW112686   2.357   0.826   4.878
 3929SOL    HW212687   2.239   0.843   4.990
 3930SOL     OW12688   1.996   5.632   4.387
 3930SOL    HW112689   1.941   5.707   4.350
 3930SOL    HW212690   2.088   5.664   4.406
 3931SOL     OW12691   0.394   2.444   0.415
 3931SOL    HW112692   0.449   2.447   0.332
 3931SOL    HW212693   0.305   2.404   0.395
 3932SOL     OW12694   1.912   4.546   2.251
 3932SOL    HW112695   1.971   4.472   2.219
 3932SOL    HW212696   1.858   4.581   2.175
 3933SOL     OW12697   1.407   6.802   1.167
 3933SOL    HW112698   1.459   6.799   1.252
 3933SOL    HW212699   1.361   6.715   1.152
 3934SOL     OW12700   1.724   6.964   2.045
 3934SOL    HW112701   1.709   6.866   2.026
 3934SOL    HW212702   1.642   7.015   2.018
 3935SOL     OW12703   0.403   1.227   5.024
 3935SOL    HW112704   0.463   1.151   5.000
 3935SOL    HW212705   0.315   1.190   5.055
 3936SOL     OW12706   6.398   4.723   4.055
 3936SOL    HW112707   6.440   4.787   4.120
 3936SOL    HW212708   6.457   4.643   4.046
 3937SOL     OW12709   1.417   6.204   0.459
 3937SOL    HW112710   1.415   6.223   0.360
 3937SOL    HW212711   1.379   6.114   0.476
 3938SOL     OW12712   0.598   5.001   6.927
 3938SOL    HW112713   0.578   5.066   6.854
 3938SOL    HW212714   0.695   4.978   6.927
 3939SOL     OW12715   2.242   6.276   4.255
 3939SOL    HW112716   2.184   6.293   4.175
 3939SOL    HW212717   2.197   6.209   4.314
 3940SOL     OW12718   2.646   5.950   6.836
 3940SOL    HW112719   2.681   5.984   6.923
 3940SOL    HW212720   2.716   5.894   6.791
 3941SOL     OW12721   5.700   5.538   2.420
 3941SOL    HW112722   5.729   5.523   2.325
 3941SOL    HW212723   5.624   5.477   2.442
 3942SOL     OW12724   0.583   6.455   0.157
 3942SOL    HW112725   0.609   6.546   0.124
 3942SOL    HW212726   0.566   6.459   0.255
 3943SOL     OW12727   0.271   4.988   0.418
 3943SOL    HW112728   0.369   4.973   0.425
 3943SOL    HW212729   0.240   4.966   0.326
 3944SOL     OW12730   5.272   3.157   0.620
 3944SOL    HW112731   5.221   3.081   0.581
 3944SOL    HW212732   5.296   3.136   0.715
 3945SOL     OW12733   0.136   0.759   2.502
 3945SOL    HW112734   0.130   0.845   2.554
 3945SOL    HW212735   0.083   0.768   2.418
 3946SOL     OW12736   5.231   1.361   0.968
 3946SOL    HW112737   5.249   1.358   0.869
 3946SOL    HW212738   5.231   1.456   0.998
 3947SOL     OW12739   5.143   0.494   1.273
 3947SOL    HW112740   5.240   0.470   1.264
 3947SOL    HW212741   5.121   0.566   1.207
 3948SOL     OW12742   1.561   1.955   4.465
 3948SOL    HW112743   1.593   1.888   4.398
 3948SOL    HW212744   1.632   2.023   4.480
 3949SOL     OW12745   6.019   6.989   2.995
 3949SOL    HW112746   6.059   6.899   2.985
 3949SOL    HW212747   6.011   7.012   3.092
 3950SOL     OW12748   2.559   4.667   1.632
 3950SOL    HW112749   2.544   4.603   1.556
 3950SOL    HW212750   2.657   4.683   1.642
 3951SOL     OW12751   6.582   2.727   3.417
 3951SOL    HW112752   6.545   2.803   3.364
 3951SOL    HW212753   6.674   2.751   3.450
 3952SOL     OW12754   6.007   5.300   7.000
 3952SOL    HW112755   6.054   5.237   6.938
 3952SOL    HW212756   6.035   5.281   0.074
 3953SOL     OW12757   3.564   2.926   5.128
 3953SOL    HW112758   3.547   2.860   5.202
 3953SOL    HW212759   3.486   2.927   5.066
 3954SOL     OW12760   1.082   4.458   5.809
 3954SOL    HW112761   1.120   4.488   5.722
 3954SOL    HW212762   0.983   4.449   5.801
 3955SOL     OW12763   5.715   3.379   7.010
 3955SOL    HW112764   5.703   3.459   6.952
 3955SOL    HW212765   5.635   3.368   0.049
 3956SOL     OW12766   6.786   2.695   5.014
 3956SOL    HW112767   6.844   2.637   5.071
 3956SOL    HW212768   6.812   2.684   4.918
 3957SOL     OW12769   1.668   2.927   1.676
 3957SOL    HW112770   1.735   2.972   1.617
 3957SOL    HW212771   1.701   2.929   1.771
 3958SOL     OW12772   5.520   5.702   1.103
 3958SOL    HW112773   5.494   5.633   1.171
 3958SOL    HW212774   5.437   5.740   1.062
 3959SOL     OW12775   3.434   4.795   0.941
 3959SOL    HW112776   3.399   4.836   0.856
 3959SOL    HW212777   3.515   4.740   0.920
 3960SOL     OW12778   5.708   3.067   1.022
 3960SOL    HW112779   5.699   3.165   1.006
 3960SOL    HW212780   5.804   3.043   1.031
 3961SOL     OW12781   6.690   1.235   1.082
 3961SOL    HW112782   6.648   1.234   0.992
 3961SOL    HW212783   6.758   1.161   1.088
 3962SOL     OW12784   0.219   6.539   6.558
 3962SOL    HW112785   0.158   6.603   6.512
 3962SOL    HW212786   0.298   6.520   6.499
 3963SOL     OW12787   5.377   3.293   4.754
 3963SOL    HW112788   5.363   3.205   4.798
 3963SOL    HW212789   5.352   3.286   4.657
 3964SOL     OW12790   5.960   4.435   6.811
 3964SOL    HW112791   5.958   4.528   6.848
 3964SOL    HW212792   5.967   4.439   6.711
 3965SOL     OW12793   2.592   4.441   1.450
 3965SOL    HW112794   2.634   4.422   1.538
 3965SOL    HW212795   2.506   4.390   1.443
 3966SOL     OW12796   0.201   3.430   5.941
 3966SOL    HW112797   0.231   3.508   5.886
 3966SOL    HW212798   0.214   3.345   5.888
 3967SOL     OW12799   2.060   0.457   0.686
 3967SOL    HW112800   2.064   0.366   0.727
 3967SOL    HW212801   1.977   0.504   0.718
 3968SOL     OW12802   4.753   3.082   0.583
 3968SOL    HW112803   4.721   3.026   0.659
 3968SOL    HW212804   4.816   3.151   0.616
 3969SOL     OW12805   6.558   6.036   1.357
 3969SOL    HW112806   6.594   6.092   1.282
 3969SOL    HW212807   6.467   6.003   1.332
 3970SOL     OW12808   5.846   4.157   4.090
 3970SOL    HW112809   5.763   4.198   4.128
 3970SOL    HW212810   5.857   4.187   3.995
 3971SOL     OW12811   0.271   5.935   4.091
 3971SOL    HW112812   0.199   5.888   4.041
 3971SOL    HW212813   0.325   5.868   4.142
 3972SOL     OW12814   0.868   1.028   6.560
 3972SOL    HW112815   0.793   0.977   6.604
 3972SOL    HW212816   0.928   0.963   6.512
 3973SOL     OW12817   3.949   3.068   1.873
 3973SOL    HW112818   3.954   3.167   1.883
 3973SOL    HW212819   4.011   3.038   1.801
 3974SOL     OW12820   5.176   1.177   6.879
 3974SOL    HW112821   5.154   1.089   6.920
 3974SOL    HW212822   5.242   1.164   6.805
 3975SOL     OW12823   6.716   6.175   3.643
 3975SOL    HW112824   6.791   6.113   3.618
 3975SOL    HW212825   6.753   6.263   3.671
 3976SOL     OW12826   0.276   3.035   5.548
 3976SOL    HW112827   0.295   2.957   5.608
 3976SOL    HW212828   0.190   3.020   5.500
 3977SOL     OW12829   2.043   4.739   5.606
 3977SOL    HW112830   2.118   4.720   5.670
 3977SOL    HW212831   1.961   4.764   5.658
 3978SOL     OW12832   4.494   3.142   6.040
 3978SOL    HW112833   4.558   3.219   6.045
 3978SOL    HW212834   4.416   3.160   6.100
 3979SOL     OW12835   0.279   5.538   3.138
 3979SOL    HW112836   0.335   5.518   3.057
 3979SOL    HW212837   0.248   5.633   3.135
 3980SOL     OW12838   4.888   4.483   3.869
 3980SOL    HW112839   4.907   4.427   3.949
 3980SOL    HW212840   4.975   4.514   3.829
 3981SOL     OW12841   6.940   0.857   6.547
 3981SOL    HW112842   6.881   0.787   6.586
 3981SOL    HW212843   0.006   0.815   6.519
 3982SOL     OW12844   2.113   3.166   4.342
 3982SOL    HW112845   2.100   3.156   4.441
 3982SOL    HW212846   2.055   3.241   4.309
 3983SOL     OW12847   2.338   0.819   3.227
 3983SOL    HW112848   2.340   0.720   3.211
 3983SOL    HW212849   2.345   0.867   3.140
 3984SOL     OW12850   1.218   5.962   2.347
 3984SOL    HW112851   1.255   5.986   2.257
 3984SOL    HW212852   1.291   5.925   2.405
 3985SOL     OW12853   1.627   2.588   1.370
 3985SOL    HW112854   1.604   2.610   1.464
 3985SOL    HW212855   1.571   2.510   1.340
 3986SOL     OW12856   0.792   1.533   3.256
 3986SOL    HW112857   0.707   1.583   3.242
 3986SOL    HW212858   0.771   1.442   3.292
 3987SOL     OW12859   1.471   4.267   5.447
 3987SOL    HW112860   1.489   4.365   5.444
 3987SOL    HW212861   1.516   4.227   5.526
 3988SOL     OW12862   5.129   6.385   2.018
 3988SOL    HW112863   5.158   6.479   2.037
 3988SOL    HW212864   5.034   6.374   2.044
 3989SOL     OW12865   4.380   0.698   5.940
 3989SOL    HW112866   4.466   0.694   5.991
 3989SOL    HW212867   4.310   0.646   5.990
 3990SOL     OW12868   6.126   0.104   4.011
 3990SOL    HW112869   6.218   0.126   3.978
 3990SOL    HW212870   6.073   0.064   3.936
 3991SOL     OW12871   6.384   2.239   3.970
 3991SOL    HW112872   6.372   2.181   4.050
 3991SOL    HW212873   6.330   2.203   3.894
 3992SOL     OW12874   5.947   3.349   5.816
 3992SOL    HW112875   5.848   3.337   5.825
 3992SOL    HW212876   5.993   3.313   5.898
 3993SOL     OW12877   1.422   0.979   4.201
 3993SOL    HW112878   1.468   1.066   4.215
 3993SOL    HW212879   1.381   0.949   4.287
 3994SOL     OW12880   3.050   2.107   3.745
 3994SOL    HW112881   2.974   2.170   3.758
 3994SOL    HW212882   3.033   2.050   3.665
 3995SOL     OW12883   1.506   3.175   1.871
 3995SOL    HW112884   1.438   3.246   1.855
 3995SOL    HW212885   1.594   3.203   1.833
 3996SOL     OW12886   0.228   6.347   4.989
 3996SOL    HW112887   0.145   6.378   4.943
 3996SOL    HW212888   0.295   6.318   4.921
 3997SOL     OW12889   6.043   3.345   4.959
 3997SOL    HW112890   5.962   3.382   4.914
 3997SOL    HW212891   6.017   3.272   5.022
 3998SOL     OW12892   4.141   2.287   3.183
 3998SOL    HW112893   4.124   2.192   3.156
 3998SOL    HW212894   4.059   2.325   3.226
 3999SOL     OW12895   4.817   3.548   1.116
 3999SOL    HW112896   4.913   3.558   1.089
 3999SOL    HW212897   4.777   3.638   1.128
 4000SOL     OW12898   2.448   4.879   2.631
 4000SOL    HW112899   2.352   4.901   2.612
 4000SOL    HW212900   2.505   4.960   2.615
 4001SOL     OW12901   0.821   5.977   4.352
 4001SOL    HW112902   0.754   5.987   4.279
 4001SOL    HW212903   0.780   6.003   4.439
 4002SOL     OW12904   3.934   4.063   4.935
 4002SOL    HW112905   3.838   4.088   4.924
 4002SOL    HW212906   3.964   4.010   4.855
 4003SOL     OW12907   2.728   1.382   4.618
 4003SOL    HW112908   2.631   1.404   4.603
 4003SOL    HW212909   2.755   1.308   4.557
 4004SOL     OW12910   1.860   3.786   4.962
 4004SOL    HW112911   1.939   3.773   5.022
 4004SOL    HW212912   1.778   3.751   5.006
 4005SOL     OW12913   5.642   2.681   1.234
 4005SOL    HW112914   5.595   2.765   1.208
 4005SOL    HW212915   5.596   2.603   1.192
 4006SOL     OW12916   0.237   5.823   2.129
 4006SOL    HW112917   0.263   5.774   2.046
 4006SOL    HW212918   0.299   5.799   2.203
 4007SOL     OW12919   0.627   1.526   1.262
 4007SOL    HW112920   0.583   1.455   1.317
 4007SOL    HW212921   0.557   1.579   1.215
 4008SOL     OW12922   3.929   1.011   1.363
 4008SOL    HW112923   3.961   0.924   1.399
 4008SOL    HW212924   3.916   1.076   1.439
 4009SOL     OW12925   3.623   2.601   1.402
 4009SOL    HW112926   3.609   2.675   1.336
 4009SOL    HW212927   3.611   2.637   1.495
 4010SOL     OW12928   1.541   4.718   1.014
 4010SOL    HW112929   1.576   4.772   1.091
 4010SOL    HW212930   1.521   4.780   0.938
 4011SOL     OW12931   5.699   6.834   6.503
 4011SOL    HW112932   5.638   6.914   6.508
 4011SOL    HW212933   5.644   6.751   6.502
 4012SOL     OW12934   5.177   5.220   1.406
 4012SOL    HW112935   5.222   5.237   1.318
 4012SOL    HW212936   5.085   5.185   1.389
 4013SOL     OW12937   6.895   1.804   6.692
 4013SOL    HW112938   6.809   1.792   6.742
 4013SOL    HW212939   6.911   1.902   6.675
 4014SOL     OW12940   3.156   6.429   2.371
 4014SOL    HW112941   3.073   6.404   2.421
 4014SOL    HW212942   3.132   6.449   2.276
 4015SOL     OW12943   3.857   6.378   4.648
 4015SOL    HW112944   3.911   6.452   4.606
 4015SOL    HW212945   3.883   6.369   4.744
 4016SOL     OW12946   4.666   5.106   4.288
 4016SOL    HW112947   4.583   5.129   4.339
 4016SOL    HW212948   4.719   5.038   4.339
 4017SOL     OW12949   2.151   6.261   5.908
 4017SOL    HW112950   2.250   6.247   5.913
 4017SOL    HW212951   2.131   6.325   5.833
 4018SOL     OW12952   5.127   5.143   0.494
 4018SOL    HW112953   5.092   5.198   0.418
 4018SOL    HW212954   5.077   5.056   0.497
 4019SOL     OW12955   0.508   2.258   3.145
 4019SOL    HW112956   0.571   2.261   3.223
 4019SOL    HW212957   0.416   2.284   3.176
 4020SOL     OW12958   0.044   5.808   3.991
 4020SOL    HW112959   0.073   5.713   3.994
 4020SOL    HW212960   6.977   5.815   3.943
 4021SOL     OW12961   4.946   5.116   5.809
 4021SOL    HW112962   4.936   5.069   5.896
 4021SOL    HW212963   4.946   5.050   5.734
 4022SOL     OW12964   3.468   6.890   1.543
 4022SOL    HW112965   3.432   6.840   1.622
 4022SOL    HW212966   3.417   6.976   1.532
 4023SOL     OW12967   0.744   1.739   4.406
 4023SOL    HW112968   0.807   1.808   4.369
 4023SOL    HW212969   0.668   1.785   4.452
 4024SOL     OW12970   0.644   6.686   6.369
 4024SOL    HW112971   0.641   6.784   6.348
 4024SOL    HW212972   0.657   6.634   6.285
 4025SOL     OW12973   0.819   3.962   4.736
 4025SOL    HW112974   0.788   4.057   4.729
 4025SOL    HW212975   0.853   3.931   4.647
 4026SOL     OW12976   0.642   6.738   4.413
 4026SOL    HW112977   0.705   6.661   4.422
 4026SOL    HW212978   0.629   6.759   4.317
 4027SOL     OW12979   2.668   5.491   5.128
 4027SOL    HW112980   2.572   5.494   5.155
 4027SOL    HW212981   2.697   5.396   5.117
 4028SOL     OW12982   4.838   1.483   4.724
 4028SOL    HW112983   4.754   1.431   4.735
 4028SOL    HW212984   4.881   1.497   4.813
 4029SOL     OW12985   1.804   6.610   0.516
 4029SOL    HW112986   1.742   6.535   0.540
 4029SOL    HW212987   1.794   6.684   0.582
 4030SOL     OW12988   0.892   1.302   1.779
 4030SOL    HW112989   0.866   1.393   1.746
 4030SOL    HW212990   0.833   1.277   1.856
 4031SOL     OW12991   5.846   5.705   0.779
 4031SOL    HW112992   5.754   5.681   0.747
 4031SOL    HW212993   5.857   5.675   0.874
 4032SOL     OW12994   4.740   2.001   1.993
 4032SOL    HW112995   4.671   2.049   1.939
 4032SOL    HW212996   4.768   2.058   2.070
 4033SOL     OW12997   1.694   3.712   2.783
 4033SOL    HW112998   1.760   3.699   2.709
 4033SOL    HW212999   1.743   3.715   2.870
 4034SOL     OW13000   2.158   2.142   4.702
 4034SOL    HW113001   2.184   2.234   4.670
 4034SOL    HW213002   2.182   2.075   4.632
 4035SOL     OW13003   3.814   2.463   1.691
 4035SOL    HW113004   3.751   2.417   1.754
 4035SOL    HW213005   3.802   2.562   1.700
 4036SOL     OW13006   4.014   6.081   3.614
 4036SOL    HW113007   3.991   6.091   3.517
 4036SOL    HW213008   4.034   5.985   3.633
 4037SOL     OW13009   1.937   1.203   6.072
 4037SOL    HW113010   1.874   1.261   6.125
 4037SOL    HW213011   2.015   1.258   6.042
 4038SOL     OW13012   4.041   4.904   5.759
 4038SOL    HW113013   4.080   4.846   5.831
 4038SOL    HW213014   3.979   4.971   5.801
 4039SOL     OW13015   6.268   4.627   1.469
 4039SOL    HW113016   6.283   4.592   1.562
 4039SOL    HW213017   6.200   4.570   1.423
 4040SOL     OW13018   2.305   6.880   5.009
 4040SOL    HW113019   2.345   6.919   5.092
 4040SOL    HW213020   2.210   6.908   5.001
 4041SOL     OW13021   1.355   6.189   1.819
 4041SOL    HW113022   1.306   6.105   1.795
 4041SOL    HW213023   1.392   6.230   1.736
 4042SOL     OW13024   0.651   1.509   3.878
 4042SOL    HW113025   0.650   1.416   3.916
 4042SOL    HW213026   0.744   1.546   3.883
 4043SOL     OW13027   3.810   2.417   5.881
 4043SOL    HW113028   3.721   2.381   5.911
 4043SOL    HW213029   3.801   2.454   5.789
 4044SOL     OW13030   4.462   4.540   2.946
 4044SOL    HW113031   4.387   4.591   2.988
 4044SOL    HW213032   4.541   4.540   3.007
 4045SOL     OW13033   4.630   1.295   5.067
 4045SOL    HW113034   4.718   1.259   5.037
 4045SOL    HW213035   4.558   1.267   5.004
 4046SOL     OW13036   4.957   1.108   3.821
 4046SOL    HW113037   4.948   1.182   3.754
 4046SOL    HW213038   4.868   1.091   3.864
 4047SOL     OW13039   3.038   2.488   6.198
 4047SOL    HW113040   2.961   2.451   6.146
 4047SOL    HW213041   3.084   2.558   6.143
 4048SOL     OW13042   4.857   2.244   3.611
 4048SOL    HW113043   4.853   2.273   3.515
 4048SOL    HW213044   4.953   2.241   3.640
 4049SOL     OW13045   4.092   3.890   1.626
 4049SOL    HW113046   4.050   3.817   1.573
 4049SOL    HW213047   4.166   3.853   1.682
 4050SOL     OW13048   6.853   4.879   3.355
 4050SOL    HW113049   6.796   4.797   3.366
 4050SOL    HW213050   6.826   4.948   3.421
 4051SOL     OW13051   6.033   1.179   4.329
 4051SOL    HW113052   5.961   1.111   4.342
 4051SOL    HW213053   5.997   1.270   4.350
 4052SOL     OW13054   4.720   1.529   4.212
 4052SOL    HW113055   4.761   1.588   4.282
 4052SOL    HW213056   4.729   1.573   4.123
 4053SOL     OW13057   0.452   4.533   3.494
 4053SOL    HW113058   0.544   4.543   3.532
 4053SOL    HW213059   0.458   4.520   3.395
 4054SOL     OW13060   5.130   4.135   1.482
 4054SOL    HW113061   5.130   4.172   1.389
 4054SOL    HW213062   5.046   4.163   1.529
 4055SOL     OW13063   0.148   4.612   0.184
 4055SOL    HW113064   0.224   4.551   0.162
 4055SOL    HW213065   0.077   4.603   0.114
 4056SOL     OW13066   4.529   3.858   0.222
 4056SOL    HW113067   4.439   3.819   0.201
 4056SOL    HW213068   4.519   3.955   0.242
 4057SOL     OW13069   0.266   4.449   5.993
 4057SOL    HW113070   0.169   4.434   6.015
 4057SOL    HW213071   0.296   4.535   6.035
 4058SOL     OW13072   3.796   1.093   4.189
 4058SOL    HW113073   3.742   1.142   4.120
 4058SOL    HW213074   3.781   1.136   4.279
 4059SOL     OW13075   1.351   1.525   4.177
 4059SOL    HW113076   1.254   1.545   4.163
 4059SOL    HW213077   1.385   1.468   4.102
 4060SOL     OW13078   0.005   6.564   4.314
 4060SOL    HW113079   6.943   6.541   4.261
 4060SOL    HW213080   0.072   6.491   4.304
 4061SOL     OW13081   1.546   4.217   2.152
 4061SOL    HW113082   1.572   4.129   2.111
 4061SOL    HW213083   1.535   4.206   2.251
 4062SOL     OW13084   2.414   4.478   0.477
 4062SOL    HW113085   2.487   4.538   0.508
 4062SOL    HW213086   2.398   4.407   0.547
 4063SOL     OW13087   3.694   0.975   0.874
 4063SOL    HW113088   3.671   0.878   0.874
 4063SOL    HW213089   3.690   1.010   0.968
 4064SOL     OW13090   2.493   0.529   5.079
 4064SOL    HW113091   2.477   0.438   5.042
 4064SOL    HW213092   2.534   0.587   5.008
 4065SOL     OW13093   2.482   1.524   1.369
 4065SOL    HW113094   2.425   1.539   1.288
 4065SOL    HW213095   2.562   1.583   1.365
 4066SOL     OW13096   0.422   3.325   4.435
 4066SOL    HW113097   0.356   3.257   4.466
 4066SOL    HW213098   0.492   3.281   4.379
 4067SOL     OW13099   6.314   4.356   0.711
 4067SOL    HW113100   6.323   4.338   0.613
 4067SOL    HW213101   6.223   4.393   0.730
 4068SOL     OW13102   1.854   2.822   5.571
 4068SOL    HW113103   1.931   2.759   5.573
 4068SOL    HW213104   1.853   2.871   5.484
 4069SOL     OW13105   4.101   0.287   5.577
 4069SOL    HW113106   4.089   0.300   5.478
 4069SOL    HW213107   4.159   0.207   5.593
 4070SOL     OW13108   1.751   3.614   4.239
 4070SOL    HW113109   1.769   3.702   4.196
 4070SOL    HW213110   1.762   3.621   4.338
 4071SOL     OW13111   1.734   0.335   5.029
 4071SOL    HW113112   1.720   0.241   5.060
 4071SOL    HW213113   1.649   0.370   4.991
 4072SOL     OW13114   3.007   6.705   2.592
 4072SOL    HW113115   2.936   6.661   2.537
 4072SOL    HW213116   2.981   6.799   2.611
 4073SOL     OW13117   4.124   5.207   6.518
 4073SOL    HW113118   4.032   5.240   6.535
 4073SOL    HW213119   4.190   5.279   6.540
 4074SOL     OW13120   1.526   5.880   2.340
 4074SOL    HW113121   1.527   5.783   2.361
 4074SOL    HW213122   1.527   5.893   2.241
 4075SOL     OW13123   6.097   0.854   0.064
 4075SOL    HW113124   6.005   0.846   0.102
 4075SOL    HW213125   6.138   0.939   0.095
 4076SOL     OW13126   1.952   6.153   3.724
 4076SOL    HW113127   1.991   6.117   3.639
 4076SOL    HW213128   1.941   6.079   3.790
 4077SOL     OW13129   2.555   1.993   1.404
 4077SOL    HW113130   2.598   2.063   1.347
 4077SOL    HW213131   2.576   2.010   1.500
 4078SOL     OW13132   4.293   5.337   2.103
 4078SOL    HW113133   4.366   5.342   2.170
 4078SOL    HW213134   4.328   5.366   2.013
 4079SOL     OW13135   0.411   1.945   4.254
 4079SOL    HW113136   0.324   1.895   4.255
 4079SOL    HW213137   0.472   1.905   4.186
 4080SOL     OW13138   5.942   1.818   4.360
 4080SOL    HW113139   5.956   1.870   4.276
 4080SOL    HW213140   5.857   1.766   4.354
 4081SOL     OW13141   6.749   3.580   2.729
 4081SOL    HW113142   6.699   3.622   2.804
 4081SOL    HW213143   6.836   3.544   2.763
 4082SOL     OW13144   0.302   3.324   0.011
 4082SOL    HW113145   0.213   3.279   0.016
 4082SOL    HW213146   0.362   3.287   0.082
 4083SOL     OW13147   6.896   3.416   5.286
 4083SOL    HW113148   6.927   3.328   5.250
 4083SOL    HW213149   6.815   3.403   5.343
 4084SOL     OW13150   5.319   1.009   4.513
 4084SOL    HW113151   5.274   1.051   4.434
 4084SOL    HW213152   5.328   0.910   4.497
 4085SOL     OW13153   3.243   5.229   0.005
 4085SOL    HW113154   3.292   5.309   0.037
 4085SOL    HW213155   3.305   5.150   0.003
 4086SOL     OW13156   0.781   2.810   1.446
 4086SOL    HW113157   0.845   2.810   1.522
 4086SOL    HW213158   0.777   2.902   1.406
 4087SOL     OW13159   1.987   1.324   3.154
 4087SOL    HW113160   2.085   1.303   3.145
 4087SOL    HW213161   1.963   1.397   3.090
 4088SOL     OW13162   6.939   2.352   6.949
 4088SOL    HW113163   6.963   2.345   6.852
 4088SOL    HW213164   6.844   2.324   6.962
 4089SOL     OW13165   0.349   1.326   5.838
 4089SOL    HW113166   0.377   1.367   5.752
 4089SOL    HW213167   0.364   1.227   5.835
 4090SOL     OW13168   3.503   5.315   6.461
 4090SOL    HW113169   3.424   5.349   6.411
 4090SOL    HW213170   3.474   5.283   6.552
 4091SOL     OW13171   4.366   6.681   1.892
 4091SOL    HW113172   4.426   6.740   1.839
 4091SOL    HW213173   4.365   6.590   1.851
 4092SOL     OW13174   1.092   1.580   4.217
 4092SOL    HW113175   1.100   1.673   4.180
 4092SOL    HW213176   1.024   1.578   4.290
 4093SOL     OW13177   5.182   6.753   4.321
 4093SOL    HW113178   5.173   6.685   4.248
 4093SOL    HW213179   5.093   6.767   4.364
 4094SOL     OW13180   3.305   3.619   6.418
 4094SOL    HW113181   3.323   3.697   6.477
 4094SOL    HW213182   3.326   3.644   6.323
 4095SOL     OW13183   1.641   3.559   5.882
 4095SOL    HW113184   1.727   3.512   5.899
 4095SOL    HW213185   1.658   3.642   5.828
 4096SOL     OW13186   4.442   4.879   1.783
 4096SOL    HW113187   4.491   4.905   1.700
 4096SOL    HW213188   4.349   4.917   1.779
 4097SOL     OW13189   3.426   4.040   3.465
 4097SOL    HW113190   3.348   4.051   3.527
 4097SOL    HW213191   3.505   4.089   3.502
 4098SOL     OW13192   1.129   3.206   2.001
 4098SOL    HW113193   1.129   3.277   1.930
 4098SOL    HW213194   1.135   3.116   1.958
 4099SOL     OW13195   2.593   6.241   1.684
 4099SOL    HW113196   2.494   6.231   1.670
 4099SOL    HW213197   2.628   6.311   1.622
 4100SOL     OW13198   3.577   0.156   2.845
 4100SOL    HW113199   3.549   0.062   2.864
 4100SOL    HW213200   3.503   0.218   2.871
 4101SOL     OW13201   4.606   1.757   6.499
 4101SOL    HW113202   4.619   1.697   6.419
 4101SOL    HW213203   4.695   1.778   6.538
 4102SOL     OW13204   4.340   1.463   6.108
 4102SOL    HW113205   4.430   1.499   6.083
 4102SOL    HW213206   4.342   1.430   6.202
 4103SOL     OW13207   0.083   0.507   1.761
 4103SOL    HW113208   7.008   0.537   1.751
 4103SOL    HW213209   0.133   0.529   1.677
 4104SOL     OW13210   2.456   4.454   2.430
 4104SOL    HW113211   2.369   4.425   2.389
 4104SOL    HW213212   2.503   4.517   2.368
 4105SOL     OW13213   6.134   5.558   0.273
 4105SOL    HW113214   6.115   5.617   0.351
 4105SOL    HW213215   6.052   5.507   0.249
 4106SOL     OW13216   0.030   3.979   4.510
 4106SOL    HW113217   6.994   4.002   4.590
 4106SOL    HW213218   0.061   3.885   4.516
 4107SOL     OW13219   0.318   0.804   0.982
 4107SOL    HW113220   0.324   0.903   0.990
 4107SOL    HW213221   0.258   0.781   0.905
 4108SOL     OW13222   5.956   2.346   5.040
 4108SOL    HW113223   5.967   2.246   5.045
 4108SOL    HW213224   5.920   2.370   4.949
 4109SOL     OW13225   2.535   6.620   3.686
 4109SOL    HW113226   2.527   6.636   3.784
 4109SOL    HW213227   2.476   6.685   3.637
 4110SOL     OW13228   4.650   3.160   5.265
 4110SOL    HW113229   4.678   3.202   5.351
 4110SOL    HW213230   4.651   3.228   5.192
 4111SOL     OW13231   4.113   2.664   6.287
 4111SOL    HW113232   4.070   2.603   6.221
 4111SOL    HW213233   4.045   2.690   6.356
 4112SOL     OW13234   4.365   0.349   6.003
 4112SOL    HW113235   4.287   0.369   5.944
 4112SOL    HW213236   4.417   0.434   6.018
 4113SOL     OW13237   3.795   5.253   4.660
 4113SOL    HW113238   3.801   5.352   4.646
 4113SOL    HW213239   3.886   5.215   4.674
 4114SOL     OW13240   3.886   1.894   3.300
 4114SOL    HW113241   3.800   1.864   3.339
 4114SOL    HW213242   3.932   1.817   3.256
 4115SOL     OW13243   4.798   4.034   2.934
 4115SOL    HW113244   4.704   4.005   2.915
 4115SOL    HW213245   4.862   3.983   2.875
 4116SOL     OW13246   3.166   0.789   2.255
 4116SOL    HW113247   3.190   0.789   2.352
 4116SOL    HW213248   3.193   0.876   2.214
 4117SOL     OW13249   0.878   5.950   1.391
 4117SOL    HW113250   0.883   5.881   1.464
 4117SOL    HW213251   0.924   5.915   1.309
 4118SOL     OW13252   1.500   0.146   6.841
 4118SOL    HW113253   1.438   0.224   6.839
 4118SOL    HW213254   1.464   0.075   6.901
 4119SOL     OW13255   5.468   1.836   2.978
 4119SOL    HW113256   5.524   1.917   2.997
 4119SOL    HW213257   5.511   1.756   3.019
 4120SOL     OW13258   5.587   1.279   2.321
 4120SOL    HW113259   5.521   1.354   2.328
 4120SOL    HW213260   5.671   1.313   2.280
 4121SOL     OW13261   6.041   2.133   4.254
 4121SOL    HW113262   6.085   2.150   4.341
 4121SOL    HW213263   5.990   2.215   4.226
 4122SOL     OW13264   2.164   5.194   6.931
 4122SOL    HW113265   2.214   5.163   7.011
 4122SOL    HW213266   2.180   5.291   6.917
 4123SOL     OW13267   3.883   3.655   5.260
 4123SOL    HW113268   3.964   3.599   5.242
 4123SOL    HW213269   3.890   3.741   5.210
 4124SOL     OW13270   4.396   6.187   3.514
 4124SOL    HW113271   4.422   6.104   3.564
 4124SOL    HW213272   4.335   6.162   3.439
 4125SOL     OW13273   4.501   1.316   1.866
 4125SOL    HW113274   4.467   1.275   1.951
 4125SOL    HW213275   4.598   1.338   1.877
 4126SOL     OW13276   1.775   4.012   4.784
 4126SOL    HW113277   1.787   3.946   4.859
 4126SOL    HW213278   1.737   4.097   4.820
 4127SOL     OW13279   5.394   4.503   4.414
 4127SOL    HW113280   5.389   4.597   4.449
 4127SOL    HW213281   5.475   4.493   4.356
 4128SOL     OW13282   0.011   1.716   1.782
 4128SOL    HW113283   0.031   1.680   1.691
 4128SOL    HW213284   7.013   1.815   1.775
 4129SOL     OW13285   6.697   2.832   6.636
 4129SOL    HW113286   6.715   2.928   6.659
 4129SOL    HW213287   6.709   2.818   6.538
 4130SOL     OW13288   6.330   2.092   1.586
 4130SOL    HW113289   6.360   2.170   1.531
 4130SOL    HW213290   6.402   2.068   1.651
 4131SOL     OW13291   6.758   3.250   3.045
 4131SOL    HW113292   6.792   3.309   3.117
 4131SOL    HW213293   6.729   3.305   2.967
 4132SOL     OW13294   4.749   1.753   4.689
 4132SOL    HW113295   4.663   1.792   4.721
 4132SOL    HW213296   4.754   1.657   4.716
 4133SOL     OW13297   2.539   2.492   1.101
 4133SOL    HW113298   2.537   2.411   1.158
 4133SOL    HW213299   2.627   2.497   1.053
 4134SOL     OW13300   1.993   0.872   6.909
 4134SOL    HW113301   1.973   0.817   6.989
 4134SOL    HW213302   1.991   0.969   6.933
 4135SOL     OW13303   1.637   0.417   0.733
 4135SOL    HW113304   1.686   0.330   0.734
 4135SOL    HW213305   1.577   0.423   0.813
 4136SOL     OW13306   0.865   1.880   3.688
 4136SOL    HW113307   0.892   1.826   3.608
 4136SOL    HW213308   0.771   1.859   3.713
 4137SOL     OW13309   4.073   3.229   5.328
 4137SOL    HW113310   4.014   3.291   5.379
 4137SOL    HW213311   4.166   3.234   5.364
 4138SOL     OW13312   5.006   5.726   1.492
 4138SOL    HW113313   4.990   5.661   1.417
 4138SOL    HW213314   5.103   5.749   1.496
 4139SOL     OW13315   3.198   1.826   0.487
 4139SOL    HW113316   3.202   1.781   0.398
 4139SOL    HW213317   3.233   1.919   0.480
 4140SOL     OW13318   4.687   1.942   5.269
 4140SOL    HW113319   4.738   1.933   5.183
 4140SOL    HW213320   4.600   1.895   5.261
 4141SOL     OW13321   5.543   6.172   1.165
 4141SOL    HW113322   5.630   6.126   1.145
 4141SOL    HW213323   5.557   6.240   1.237
 4142SOL     OW13324   6.067   3.111   1.581
 4142SOL    HW113325   5.999   3.100   1.653
 4142SOL    HW213326   6.111   3.201   1.591
 4143SOL     OW13327   0.476   3.053   1.680
 4143SOL    HW113328   0.409   3.070   1.608
 4143SOL    HW213329   0.566   3.087   1.650
 4144SOL     OW13330   3.750   1.063   1.995
 4144SOL    HW113331   3.705   1.136   1.944
 4144SOL    HW213332   3.712   0.975   1.969
 4145SOL     OW13333   2.950   7.008   3.368
 4145SOL    HW113334   2.982   6.930   3.315
 4145SOL    HW213335   2.978   0.073   3.324
 4146SOL     OW13336   4.679   4.325   0.518
 4146SOL    HW113337   4.585   4.298   0.539
 4146SOL    HW213338   4.741   4.247   0.532
 4147SOL     OW13339   2.530   1.740   5.911
 4147SOL    HW113340   2.485   1.764   5.824
 4147SOL    HW213341   2.570   1.649   5.903
 4148SOL     OW13342   0.224   0.088   2.333
 4148SOL    HW113343   0.155   0.158   2.315
 4148SOL    HW213344   0.198   0.036   2.414
 4149SOL     OW13345   4.744   4.174   2.176
 4149SOL    HW113346   4.674   4.239   2.145
 4149SOL    HW213347   4.705   4.114   2.245
 4150SOL     OW13348   4.101   0.272   5.303
 4150SOL    HW113349   4.020   0.285   5.245
 4150SOL    HW213350   4.165   0.348   5.289
 4151SOL     OW13351   0.427   5.622   0.379
 4151SOL    HW113352   0.349   5.673   0.342
 4151SOL    HW213353   0.490   5.686   0.423
 4152SOL     OW13354   3.340   3.948   1.146
 4152SOL    HW113355   3.293   3.904   1.222
 4152SOL    HW213356   3.311   3.906   1.060
 4153SOL     OW13357   6.277   5.949   5.950
 4153SOL    HW113358   6.183   5.984   5.955
 4153SOL    HW213359   6.275   5.849   5.955
 4154SOL     OW13360   4.746   2.656   4.662
 4154SOL    HW113361   4.778   2.700   4.745
 4154SOL    HW213362   4.679   2.585   4.685
 4155SOL     OW13363   1.605   2.880   0.634
 4155SOL    HW113364   1.535   2.945   0.663
 4155SOL    HW213365   1.673   2.928   0.579
 4156SOL     OW13366   5.982   0.604   5.029
 4156SOL    HW113367   5.901   0.635   5.079
 4156SOL    HW213368   6.064   0.638   5.075
 4157SOL     OW13369   3.466   0.925   3.336
 4157SOL    HW113370   3.372   0.946   3.308
 4157SOL    HW213371   3.523   0.911   3.254
 4158SOL     OW13372   1.244   0.747   3.609
 4158SOL    HW113373   1.198   0.696   3.681
 4158SOL    HW213374   1.195   0.733   3.522
 4159SOL     OW13375   0.141   4.458   5.457
 4159SOL    HW113376   0.190   4.517   5.521
 4159SOL    HW213377   0.057   4.503   5.428
 4160SOL     OW13378   0.178   0.789   0.739
 4160SOL    HW113379   0.211   0.878   0.708
 4160SOL    HW213380   0.079   0.793   0.754
 4161SOL     OW13381   6.055   2.173   1.344
 4161SOL    HW113382   6.087   2.247   1.285
 4161SOL    HW213383   6.047   2.089   1.290
 4162SOL     OW13384   0.951   6.872   5.591
 4162SOL    HW113385   1.038   6.869   5.543
 4162SOL    HW213386   0.959   6.823   5.678
 4163SOL     OW13387   6.797   1.564   5.333
 4163SOL    HW113388   6.814   1.596   5.426
 4163SOL    HW213389   6.812   1.639   5.269
 4164SOL     OW13390   3.129   6.596   5.593
 4164SOL    HW113391   3.115   6.533   5.517
 4164SOL    HW213392   3.226   6.601   5.615
 4165SOL     OW13393   2.040   6.206   1.800
 4165SOL    HW113394   2.106   6.208   1.875
 4165SOL    HW213395   2.036   6.114   1.762
 4166SOL     OW13396   6.114   2.130   2.235
 4166SOL    HW113397   6.067   2.105   2.320
 4166SOL    HW213398   6.052   2.122   2.158
 4167SOL     OW13399   1.835   2.599   1.219
 4167SOL    HW113400   1.761   2.581   1.285
 4167SOL    HW213401   1.900   2.524   1.220
 4168SOL     OW13402   2.227   5.692   1.097
 4168SOL    HW113403   2.225   5.699   0.997
 4168SOL    HW213404   2.138   5.660   1.129
 4169SOL     OW13405   6.412   3.435   6.822
 4169SOL    HW113406   6.475   3.405   6.750
 4169SOL    HW213407   6.318   3.433   6.787
 4170SOL     OW13408   3.232   0.910   5.534
 4170SOL    HW113409   3.219   0.938   5.629
 4170SOL    HW213410   3.224   0.810   5.528
 4171SOL     OW13411   6.206   3.356   1.618
 4171SOL    HW113412   6.193   3.340   1.716
 4171SOL    HW213413   6.212   3.454   1.600
 4172SOL     OW13414   2.877   0.982   1.073
 4172SOL    HW113415   2.926   0.895   1.072
 4172SOL    HW213416   2.941   1.056   1.094
 4173SOL     OW13417   4.106   3.627   5.584
 4173SOL    HW113418   4.167   3.703   5.559
 4173SOL    HW213419   4.062   3.647   5.671
 4174SOL     OW13420   5.152   0.821   3.191
 4174SOL    HW113421   5.181   0.856   3.280
 4174SOL    HW213422   5.170   0.723   3.187
 4175SOL     OW13423   2.241   1.497   2.482
 4175SOL    HW113424   2.227   1.416   2.538
 4175SOL    HW213425   2.326   1.487   2.429
 4176SOL     OW13426   6.006   4.445   2.700
 4176SOL    HW113427   5.941   4.515   2.729
 4176SOL    HW213428   5.968   4.354   2.716
 4177SOL     OW13429   6.756   5.568   3.211
 4177SOL    HW113430   6.747   5.488   3.270
 4177SOL    HW213431   6.815   5.546   3.133
 4178SOL     OW13432   4.380   2.404   5.410
 4178SOL    HW113433   4.429   2.487   5.436
 4178SOL    HW213434   4.293   2.400   5.461
 4179SOL     OW13435   6.447   1.969   0.513
 4179SOL    HW113436   6.535   2.003   0.478
 4179SOL    HW213437   6.432   2.004   0.605
 4180SOL     OW13438   5.210   3.733   1.731
 4180SOL    HW113439   5.236   3.638   1.747
 4180SOL    HW213440   5.123   3.753   1.777
 4181SOL     OW13441   6.350   1.080   0.921
 4181SOL    HW113442   6.283   1.076   0.847
 4181SOL    HW213443   6.395   0.992   0.930
 4182SOL     OW13444   6.000   0.815   3.518
 4182SOL    HW113445   6.067   0.773   3.579
 4182SOL    HW213446   6.043   0.889   3.467
 4183SOL     OW13447   1.055   0.910   1.912
 4183SOL    HW113448   1.085   0.841   1.846
 4183SOL    HW213449   1.048   0.999   1.867
 4184SOL     OW13450   4.447   4.579   6.211
 4184SOL    HW113451   4.492   4.563   6.299
 4184SOL    HW213452   4.380   4.506   6.194
 4185SOL     OW13453   0.515   0.482   3.953
 4185SOL    HW113454   0.582   0.446   4.018
 4185SOL    HW213455   0.538   0.449   3.861
 4186SOL     OW13456   3.468   4.148   1.865
 4186SOL    HW113457   3.512   4.231   1.830
 4186SOL    HW213458   3.478   4.145   1.965
 4187SOL     OW13459   4.251   5.105   6.253
 4187SOL    HW113460   4.269   5.174   6.182
 4187SOL    HW213461   4.284   5.139   6.341
 4188SOL     OW13462   4.824   5.816   3.451
 4188SOL    HW113463   4.909   5.847   3.409
 4188SOL    HW213464   4.786   5.739   3.398
 4189SOL     OW13465   1.588   3.385   3.173
 4189SOL    HW113466   1.681   3.374   3.139
 4189SOL    HW213467   1.523   3.373   3.097
 4190SOL     OW13468   2.315   0.049   1.671
 4190SOL    HW113469   2.252   0.069   1.596
 4190SOL    HW213470   2.373   6.992   1.644
 4191SOL     OW13471   0.436   2.302   3.838
 4191SOL    HW113472   0.466   2.376   3.777
 4191SOL    HW213473   0.492   2.303   3.921
 4192SOL     OW13474   6.142   6.495   3.781
 4192SOL    HW113475   6.062   6.459   3.733
 4192SOL    HW213476   6.222   6.442   3.756
 4193SOL     OW13477   1.416   6.701   4.249
 4193SOL    HW113478   1.357   6.780   4.264
 4193SOL    HW213479   1.413   6.676   4.152
 4194SOL     OW13480   5.285   6.967   3.135
 4194SOL    HW113481   5.262   6.871   3.121
 4194SOL    HW213482   5.348   6.976   3.211
 4195SOL     OW13483   4.683   0.352   3.756
 4195SOL    HW113484   4.650   0.349   3.662
 4195SOL    HW213485   4.622   0.408   3.812
 4196SOL     OW13486   4.822   2.189   3.214
 4196SOL    HW113487   4.911   2.146   3.231
 4196SOL    HW213488   4.792   2.169   3.120
 4197SOL     OW13489   5.182   4.180   4.640
 4197SOL    HW113490   5.116   4.109   4.663
 4197SOL    HW213491   5.274   4.140   4.638
 4198SOL     OW13492   6.319   3.350   5.935
 4198SOL    HW113493   6.290   3.255   5.921
 4198SOL    HW213494   6.419   3.356   5.929
 4199SOL     OW13495   2.770   4.005   6.181
 4199SOL    HW113496   2.735   4.098   6.166
 4199SOL    HW213497   2.864   4.010   6.213
 4200SOL     OW13498   3.230   0.331   6.967
 4200SOL    HW113499   3.262   0.408   0.001
 4200SOL    HW213500   3.201   0.257   0.008
 4201SOL     OW13501   6.553   0.145   4.735
 4201SOL    HW113502   6.573   0.176   4.828
 4201SOL    HW213503   6.615   0.189   4.670
 4202SOL     OW13504   5.580   3.027   5.032
 4202SOL    HW113505   5.676   3.053   5.047
 4202SOL    HW213506   5.523   3.071   5.100
 4203SOL     OW13507   3.962   5.556   4.677
 4203SOL    HW113508   3.934   5.635   4.624
 4203SOL    HW213509   3.922   5.561   4.769
 4204SOL     OW13510   1.982   4.112   0.213
 4204SOL    HW113511   2.000   4.203   0.252
 4204SOL    HW213512   1.968   4.047   0.288
 4205SOL     OW13513   2.423   5.993   3.473
 4205SOL    HW113514   2.449   5.987   3.569
 4205SOL    HW213515   2.501   5.969   3.416
 4206SOL     OW13516   4.946   6.198   3.781
 4206SOL    HW113517   4.898   6.136   3.843
 4206SOL    HW213518   5.023   6.240   3.829
 4207SOL     OW13519   1.441   6.212   0.196
 4207SOL    HW113520   1.455   6.133   0.136
 4207SOL    HW213521   1.434   6.295   0.140
 4208SOL     OW13522   0.201   2.286   1.788
 4208SOL    HW113523   0.264   2.332   1.851
 4208SOL    HW213524   0.107   2.298   1.820
 4209SOL     OW13525   2.993   6.981   5.377
 4209SOL    HW113526   2.985   6.909   5.446
 4209SOL    HW213527   2.908   0.014   5.375
 4210SOL     OW13528   3.463   3.029   0.437
 4210SOL    HW113529   3.421   3.004   0.524
 4210SOL    HW213530   3.393   3.031   0.365
 4211SOL     OW13531   5.581   3.395   4.417
 4211SOL    HW113532   5.618   3.308   4.447
 4211SOL    HW213533   5.597   3.465   4.487
 4212SOL     OW13534   6.077   6.946   2.005
 4212SOL    HW113535   6.029   6.883   2.066
 4212SOL    HW213536   6.166   6.968   2.043
 4213SOL     OW13537   0.746   6.753   0.962
 4213SOL    HW113538   0.657   6.789   0.933
 4213SOL    HW213539   0.783   6.809   1.035
 4214SOL     OW13540   2.546   5.724   3.527
 4214SOL    HW113541   2.555   5.762   3.619
 4214SOL    HW213542   2.583   5.789   3.460
 4215SOL     OW13543   1.605   5.859   6.754
 4215SOL    HW113544   1.532   5.893   6.696
 4215SOL    HW213545   1.693   5.894   6.722
 4216SOL     OW13546   2.658   2.719   5.495
 4216SOL    HW113547   2.737   2.782   5.491
 4216SOL    HW213548   2.580   2.761   5.448
 4217SOL     OW13549   6.617   0.993   4.335
 4217SOL    HW113550   6.532   0.991   4.387
 4217SOL    HW213551   6.666   1.078   4.354
 4218SOL     OW13552   3.139   5.438   2.409
 4218SOL    HW113553   3.226   5.412   2.451
 4218SOL    HW213554   3.142   5.415   2.312
 4219SOL     OW13555   4.937   6.981   2.913
 4219SOL    HW113556   4.952   0.042   2.857
 4219SOL    HW213557   4.924   7.008   3.008
 4220SOL     OW13558   0.165   4.485   2.737
 4220SOL    HW113559   0.127   4.508   2.647
 4220SOL    HW213560   0.102   4.423   2.784
 4221SOL     OW13561   5.274   6.453   6.304
 4221SOL    HW113562   5.234   6.436   6.214
 4221SOL    HW213563   5.301   6.366   6.346
 4222SOL     OW13564   2.653   2.532   6.992
 4222SOL    HW113565   2.643   2.608   0.036
 4222SOL    HW213566   2.746   2.531   6.955
 4223SOL     OW13567   3.820   4.043   3.199
 4223SOL    HW113568   3.903   3.996   3.229
 4223SOL    HW213569   3.836   4.142   3.201
 4224SOL     OW13570   3.657   2.162   5.547
 4224SOL    HW113571   3.744   2.158   5.597
 4224SOL    HW213572   3.675   2.172   5.449
 4225SOL     OW13573   5.190   6.958   4.626
 4225SOL    HW113574   5.114   6.926   4.570
 4225SOL    HW213575   5.241   0.008   4.575
 4226SOL     OW13576   2.418   2.062   2.163
 4226SOL    HW113577   2.375   2.152   2.175
 4226SOL    HW213578   2.507   2.073   2.120
 4227SOL     OW13579   5.375   4.191   7.017
 4227SOL    HW113580   5.443   4.143   0.052
 4227SOL    HW213581   5.298   4.217   0.054
 4228SOL     OW13582   4.218   5.544   3.274
 4228SOL    HW113583   4.304   5.571   3.230
 4228SOL    HW213584   4.177   5.624   3.318
 4229SOL     OW13585   3.814   4.908   4.864
 4229SOL    HW113586   3.849   4.817   4.845
 4229SOL    HW213587   3.782   4.912   4.959
 4230SOL     OW13588   2.428   0.862   6.197
 4230SOL    HW113589   2.473   0.930   6.139
 4230SOL    HW213590   2.331   0.884   6.205
 4231SOL     OW13591   3.985   6.328   6.494
 4231SOL    HW113592   3.899   6.330   6.545
 4231SOL    HW213593   3.986   6.249   6.433
 4232SOL     OW13594   1.325   3.989   1.370
 4232SOL    HW113595   1.248   3.929   1.395
 4232SOL    HW213596   1.291   4.064   1.313
 4233SOL     OW13597   5.465   5.477   1.279
 4233SOL    HW113598   5.441   5.491   1.375
 4233SOL    HW213599   5.409   5.404   1.240
 4234SOL     OW13600   3.893   3.538   5.801
 4234SOL    HW113601   3.932   3.628   5.818
 4234SOL    HW213602   3.814   3.547   5.739
 4235SOL     OW13603   0.354   4.190   4.787
 4235SOL    HW113604   0.436   4.239   4.816
 4235SOL    HW213605   0.377   4.094   4.771
 4236SOL     OW13606   1.124   4.065   4.663
 4236SOL    HW113607   1.126   4.098   4.757
 4236SOL    HW213608   1.098   4.139   4.601
 4237SOL     OW13609   5.624   3.589   5.492
 4237SOL    HW113610   5.707   3.540   5.521
 4237SOL    HW213611   5.559   3.524   5.454
 4238SOL     OW13612   4.888   4.667   5.114
 4238SOL    HW113613   4.899   4.726   5.194
 4238SOL    HW213614   4.959   4.596   5.115
 4239SOL     OW13615   5.100   5.529   5.379
 4239SOL    HW113616   5.055   5.575   5.303
 4239SOL    HW213617   5.173   5.470   5.344
 4240SOL     OW13618   2.454   4.828   6.101
 4240SOL    HW113619   2.506   4.912   6.110
 4240SOL    HW213620   2.505   4.752   6.142
 4241SOL     OW13621   3.211   2.218   1.234
 4241SOL    HW113622   3.303   2.210   1.272
 4241SOL    HW213623   3.150   2.154   1.279
 4242SOL     OW13624   2.348   0.411   1.854
 4242SOL    HW113625   2.423   0.475   1.874
 4242SOL    HW213626   2.262   0.449   1.888
 4243SOL     OW13627   1.760   2.135   1.988
 4243SOL    HW113628   1.670   2.178   1.978
 4243SOL    HW213629   1.810   2.141   1.902
 4244SOL     OW13630   2.878   7.005   0.801
 4244SOL    HW113631   2.786   6.974   0.777
 4244SOL    HW213632   2.943   6.930   0.786
 4245SOL     OW13633   0.159   1.569   1.153
 4245SOL    HW113634   0.240   1.629   1.157
 4245SOL    HW213635   0.095   1.604   1.085
 4246SOL     OW13636   4.257   1.996   3.784
 4246SOL    HW113637   4.231   1.904   3.754
 4246SOL    HW213638   4.248   2.060   3.708
 4247SOL     OW13639   2.661   5.384   6.490
 4247SOL    HW113640   2.701   5.347   6.574
 4247SOL    HW213641   2.629   5.478   6.507
 4248SOL     OW13642   2.748   0.053   2.804
 4248SOL    HW113643   2.735   0.119   2.730
 4248SOL    HW213644   2.795   0.097   2.880
 4249SOL     OW13645   5.767   0.931   5.197
 4249SOL    HW113646   5.862   0.940   5.167
 4249SOL    HW213647   5.709   0.990   5.139
 4250SOL     OW13648   0.944   5.737   4.378
 4250SOL    HW113649   0.897   5.825   4.384
 4250SOL    HW213650   0.876   5.663   4.377
 4251SOL     OW13651   4.804   1.903   5.005
 4251SOL    HW113652   4.735   1.866   4.942
 4251SOL    HW213653   4.832   1.993   4.974
 4252SOL     OW13654   0.666   6.955   6.288
 4252SOL    HW113655   0.759   6.988   6.304
 4252SOL    HW213656   0.602   7.004   6.346
 4253SOL     OW13657   4.318   6.761   3.002
 4253SOL    HW113658   4.228   6.758   2.957
 4253SOL    HW213659   4.377   6.826   2.954
 4254SOL     OW13660   1.080   1.236   5.384
 4254SOL    HW113661   0.982   1.255   5.390
 4254SOL    HW213662   1.114   1.267   5.295
 4255SOL     OW13663   1.266   3.105   4.103
 4255SOL    HW113664   1.227   3.072   4.018
 4255SOL    HW213665   1.349   3.054   4.124
 4256SOL     OW13666   6.158   6.329   1.035
 4256SOL    HW113667   6.159   6.326   0.935
 4256SOL    HW213668   6.122   6.243   1.070
 4257SOL     OW13669   0.220   0.963   1.987
 4257SOL    HW113670   0.188   1.056   2.001
 4257SOL    HW213671   0.263   0.929   2.071
 4258SOL     OW13672   2.594   5.761   1.195
 4258SOL    HW113673   2.593   5.672   1.240
 4258SOL    HW213674   2.648   5.825   1.248
 4259SOL     OW13675   0.685   6.469   0.474
 4259SOL    HW113676   0.758   6.508   0.530
 4259SOL    HW213677   0.700   6.370   0.464
 4260SOL     OW13678   0.536   0.566   5.322
 4260SOL    HW113679   0.528   0.592   5.226
 4260SOL    HW213680   0.489   0.478   5.337
 4261SOL     OW13681   2.380   6.850   3.564
 4261SOL    HW113682   2.311   6.917   3.591
 4261SOL    HW213683   2.351   6.805   3.479
 4262SOL     OW13684   1.423   3.904   4.941
 4262SOL    HW113685   1.391   3.883   4.849
 4262SOL    HW213686   1.500   3.845   4.965
 4263SOL     OW13687   3.493   0.573   2.693
 4263SOL    HW113688   3.560   0.587   2.765
 4263SOL    HW213689   3.494   0.651   2.631
 4264SOL     OW13690   4.479   1.966   6.683
 4264SOL    HW113691   4.490   1.917   6.597
 4264SOL    HW213692   4.406   2.034   6.675
 4265SOL     OW13693   3.210   6.626   6.912
 4265SOL    HW113694   3.186   6.577   6.828
 4265SOL    HW213695   3.152   6.595   6.987
 4266SOL     OW13696   1.391   4.598   2.284
 4266SOL    HW113697   1.316   4.628   2.344
 4266SOL    HW213698   1.478   4.605   2.333
 4267SOL     OW13699   2.161   3.580   3.874
 4267SOL    HW113700   2.203   3.651   3.816
 4267SOL    HW213701   2.105   3.520   3.817
 4268SOL     OW13702   1.555   3.897   6.033
 4268SOL    HW113703   1.630   3.890   6.098
 4268SOL    HW213704   1.472   3.859   6.073
 4269SOL     OW13705   2.030   1.434   4.334
 4269SOL    HW113706   2.027   1.374   4.254
 4269SOL    HW213707   2.011   1.528   4.305
 4270SOL     OW13708   4.086   4.203   1.210
 4270SOL    HW113709   4.020   4.135   1.241
 4270SOL    HW213710   4.178   4.176   1.238
 4271SOL     OW13711   6.422   0.318   0.438
 4271SOL    HW113712   6.448   0.241   0.380
 4271SOL    HW213713   6.504   0.363   0.474
 4272SOL     OW13714   6.316   1.594   5.438
 4272SOL    HW113715   6.329   1.509   5.491
 4272SOL    HW213716   6.344   1.579   5.343
 4273SOL     OW13717   3.495   5.498   3.445
 4273SOL    HW113718   3.467   5.421   3.387
 4273SOL    HW213719   3.452   5.582   3.411
 4274SOL     OW13720   6.819   0.466   1.344
 4274SOL    HW113721   6.813   0.431   1.437
 4274SOL    HW213722   6.730   0.457   1.299
 4275SOL     OW13723   5.980   1.451   4.426
 4275SOL    HW113724   5.899   1.485   4.474
 4275SOL    HW213725   6.059   1.507   4.450
 4276SOL     OW13726   1.533   0.916   2.796
 4276SOL    HW113727   1.496   0.982   2.730
 4276SOL    HW213728   1.605   0.960   2.850
 4277SOL     OW13729   6.003   5.537   2.705
 4277SOL    HW113730   6.050   5.624   2.719
 4277SOL    HW213731   6.031   5.472   2.776
 4278SOL     OW13732   0.488   0.144   1.245
 4278SOL    HW113733   0.437   0.215   1.194
 4278SOL    HW213734   0.424   0.073   1.275
 4279SOL     OW13735   1.036   3.391   2.988
 4279SOL    HW113736   1.084   3.424   2.906
 4279SOL    HW213737   1.003   3.470   3.041
 4280SOL     OW13738   3.134   6.082   6.588
 4280SOL    HW113739   3.212   6.140   6.609
 4280SOL    HW213740   3.084   6.061   6.672
 4281SOL     OW13741   6.900   6.713   2.641
 4281SOL    HW113742   6.806   6.677   2.638
 4281SOL    HW213743   6.944   6.682   2.725
 4282SOL     OW13744   5.139   4.721   2.224
 4282SOL    HW113745   5.169   4.679   2.138
 4282SOL    HW213746   5.212   4.779   2.260
 4283SOL     OW13747   6.152   1.286   5.015
 4283SOL    HW113748   6.080   1.321   4.954
 4283SOL    HW213749   6.162   1.188   5.000
 4284SOL     OW13750   5.040   6.113   0.085
 4284SOL    HW113751   4.978   6.117   0.163
 4284SOL    HW213752   5.103   6.036   0.096
 4285SOL     OW13753   2.873   1.108   6.235
 4285SOL    HW113754   2.820   1.188   6.266
 4285SOL    HW213755   2.951   1.139   6.181
 4286SOL     OW13756   5.585   6.201   7.001
 4286SOL    HW113757   5.541   6.162   0.061
 4286SOL    HW213758   5.659   6.142   6.971
 4287SOL     OW13759   4.481   0.531   1.113
 4287SOL    HW113760   4.447   0.438   1.098
 4287SOL    HW213761   4.541   0.557   1.037
 4288SOL     OW13762   0.268   6.787   2.313
 4288SOL    HW113763   0.349   6.729   2.322
 4288SOL    HW213764   0.191   6.745   2.363
 4289SOL     OW13765   0.301   4.217   5.855
 4289SOL    HW113766   0.282   4.234   5.758
 4289SOL    HW213767   0.297   4.303   5.906
 4290SOL     OW13768   0.251   0.870   2.891
 4290SOL    HW113769   0.242   0.955   2.840
 4290SOL    HW213770   0.160   0.829   2.904
 4291SOL     OW13771   4.488   4.872   6.051
 4291SOL    HW113772   4.542   4.945   6.008
 4291SOL    HW213773   4.542   4.788   6.055
 4292SOL     OW13774   6.475   0.037   0.356
 4292SOL    HW113775   6.399   6.999   0.385
 4292SOL    HW213776   6.560   0.002   0.396
 4293SOL     OW13777   4.030   2.865   5.897
 4293SOL    HW113778   4.092   2.934   5.933
 4293SOL    HW213779   3.976   2.905   5.823
 4294SOL     OW13780   3.406   2.212   0.184
 4294SOL    HW113781   3.414   2.160   0.269
 4294SOL    HW213782   3.482   2.277   0.178
 4295SOL     OW13783   3.920   6.545   2.567
 4295SOL    HW113784   4.019   6.530   2.571
 4295SOL    HW213785   3.894   6.570   2.473
 4296SOL     OW13786   2.332   5.408   1.753
 4296SOL    HW113787   2.387   5.486   1.722
 4296SOL    HW213788   2.306   5.422   1.849
 4297SOL     OW13789   4.964   4.645   6.894
 4297SOL    HW113790   4.865   4.662   6.886
 4297SOL    HW213791   5.008   4.726   6.933
 4298SOL     OW13792   2.476   6.238   0.341
 4298SOL    HW113793   2.422   6.154   0.346
 4298SOL    HW213794   2.423   6.314   0.378
 4299SOL     OW13795   0.126   3.416   6.360
 4299SOL    HW113796   0.204   3.473   6.385
 4299SOL    HW213797   0.082   3.453   6.279
 4300SOL     OW13798   3.678   0.815   1.955
 4300SOL    HW113799   3.600   0.810   2.017
 4300SOL    HW213800   3.684   0.730   1.902
 4301SOL     OW13801   1.851   6.150   4.504
 4301SOL    HW113802   1.896   6.191   4.583
 4301SOL    HW213803   1.807   6.064   4.531
 4302SOL     OW13804   4.234   4.979   0.257
 4302SOL    HW113805   4.210   5.015   0.347
 4302SOL    HW213806   4.188   4.892   0.242
 4303SOL     OW13807   4.639   4.658   3.169
 4303SOL    HW113808   4.576   4.622   3.236
 4303SOL    HW213809   4.608   4.749   3.139
 4304SOL     OW13810   3.245   4.327   1.583
 4304SOL    HW113811   3.322   4.389   1.598
 4304SOL    HW213812   3.278   4.242   1.544
 4305SOL     OW13813   0.960   6.751   5.845
 4305SOL    HW113814   1.008   6.794   5.921
 4305SOL    HW213815   0.865   6.735   5.870
 4306SOL     OW13816   6.240   3.707   5.210
 4306SOL    HW113817   6.326   3.743   5.246
 4306SOL    HW213818   6.177   3.782   5.193
 4307SOL     OW13819   6.773   1.633   4.477
 4307SOL    HW113820   6.802   1.578   4.556
 4307SOL    HW213821   6.688   1.680   4.499
 4308SOL     OW13822   4.451   5.721   5.982
 4308SOL    HW113823   4.487   5.663   5.909
 4308SOL    HW213824   4.437   5.813   5.947
 4309SOL     OW13825   3.154   1.963   0.921
 4309SOL    HW113826   3.124   2.037   0.862
 4309SOL    HW213827   3.134   1.875   0.877
 4310SOL     OW13828   6.469   1.416   4.226
 4310SOL    HW113829   6.499   1.375   4.311
 4310SOL    HW213830   6.396   1.360   4.186
 4311SOL     OW13831   1.097   6.765   1.444
 4311SOL    HW113832   1.037   6.813   1.508
 4311SOL    HW213833   1.063   6.672   1.429
 4312SOL     OW13834   0.617   3.107   2.644
 4312SOL    HW113835   0.569   3.131   2.729
 4312SOL    HW213836   0.551   3.107   2.568
 4313SOL     OW13837   0.913   3.289   0.699
 4313SOL    HW113838   0.896   3.387   0.706
 4313SOL    HW213839   0.924   3.250   0.791
 4314SOL     OW13840   2.116   1.430   6.051
 4314SOL    HW113841   2.056   1.509   6.064
 4314SOL    HW213842   2.155   1.432   5.960
 4315SOL     OW13843   2.739   2.268   5.446
 4315SOL    HW113844   2.792   2.263   5.362
 4315SOL    HW213845   2.791   2.317   5.516
 4316SOL     OW13846   4.622   4.519   1.215
 4316SOL    HW113847   4.570   4.439   1.186
 4316SOL    HW213848   4.649   4.509   1.310
 4317SOL     OW13849   5.434   0.349   3.870
 4317SOL    HW113850   5.503   0.297   3.920
 4317SOL    HW213851   5.345   0.304   3.878
 4318SOL     OW13852   1.836   6.136   4.032
 4318SOL    HW113853   1.897   6.077   3.979
 4318SOL    HW213854   1.748   6.142   3.985
 4319SOL     OW13855   2.389   4.749   1.407
 4319SOL    HW113856   2.349   4.820   1.350
 4319SOL    HW213857   2.316   4.704   1.460
 4320SOL     OW13858   4.026   1.481   2.065
 4320SOL    HW113859   4.020   1.573   2.104
 4320SOL    HW213860   4.080   1.484   1.980
 4321SOL     OW13861   6.427   6.046   3.060
 4321SOL    HW113862   6.399   6.036   3.156
 4321SOL    HW213863   6.510   6.102   3.055
 4322SOL     OW13864   2.845   2.003   4.529
 4322SOL    HW113865   2.861   2.094   4.568
 4322SOL    HW213866   2.803   1.944   4.598
 4323SOL     OW13867   5.223   4.102   1.744
 4323SOL    HW113868   5.246   4.121   1.648
 4323SOL    HW213869   5.291   4.040   1.783
 4324SOL     OW13870   6.419   4.070   5.334
 4324SOL    HW113871   6.432   3.974   5.306
 4324SOL    HW213872   6.404   4.074   5.433
 4325SOL     OW13873   1.503   0.862   0.994
 4325SOL    HW113874   1.559   0.934   0.953
 4325SOL    HW213875   1.550   0.825   1.074
 4326SOL     OW13876   4.960   2.552   2.228
 4326SOL    HW113877   5.058   2.565   2.211
 4326SOL    HW213878   4.947   2.519   2.322
 4327SOL     OW13879   2.904   6.796   4.074
 4327SOL    HW113880   2.868   6.835   3.989
 4327SOL    HW213881   2.873   6.702   4.083
 4328SOL     OW13882   6.071   0.321   2.266
 4328SOL    HW113883   6.018   0.273   2.196
 4328SOL    HW213884   6.082   0.417   2.241
 4329SOL     OW13885   5.752   3.920   0.144
 4329SOL    HW113886   5.723   3.860   0.069
 4329SOL    HW213887   5.835   3.970   0.116
 4330SOL     OW13888   2.887   5.867   5.048
 4330SOL    HW113889   2.981   5.882   5.016
 4330SOL    HW213890   2.832   5.833   4.972
 4331SOL     OW13891   6.158   1.499   2.826
 4331SOL    HW113892   6.164   1.484   2.925
 4331SOL    HW213893   6.193   1.418   2.778
 4332SOL     OW13894   0.010   5.526   1.394
 4332SOL    HW113895   6.935   5.530   1.423
 4332SOL    HW213896   0.020   5.568   1.303
 4333SOL     OW13897   3.734   3.046   5.959
 4333SOL    HW113898   3.766   3.079   5.870
 4333SOL    HW213899   3.807   3.055   6.026
 4334SOL     OW13900   0.332   2.227   3.384
 4334SOL    HW113901   0.394   2.152   3.360
 4334SOL    HW213902   0.240   2.190   3.398
 4335SOL     OW13903   1.905   3.460   1.722
 4335SOL    HW113904   1.938   3.366   1.735
 4335SOL    HW213905   1.962   3.523   1.775
 4336SOL     OW13906   2.139   4.917   5.422
 4336SOL    HW113907   2.239   4.911   5.421
 4336SOL    HW213908   2.105   4.900   5.514
 4337SOL     OW13909   0.224   4.447   4.390
 4337SOL    HW113910   0.141   4.495   4.364
 4337SOL    HW213911   0.219   4.352   4.358
 4338SOL     OW13912   3.523   2.990   5.467
 4338SOL    HW113913   3.496   2.921   5.399
 4338SOL    HW213914   3.589   3.053   5.426
 4339SOL     OW13915   3.667   3.945   5.303
 4339SOL    HW113916   3.656   3.885   5.382
 4339SOL    HW213917   3.706   4.032   5.332
 4340SOL     OW13918   0.013   4.246   0.034
 4340SOL    HW113919   0.098   4.230   0.085
 4340SOL    HW213920   6.982   4.160   0.027
 4341SOL     OW13921   6.087   6.403   1.629
 4341SOL    HW113922   6.168   6.399   1.570
 4341SOL    HW213923   6.093   6.485   1.687
 4342SOL     OW13924   4.930   3.412   1.989
 4342SOL    HW113925   4.865   3.417   1.912
 4342SOL    HW213926   4.914   3.329   2.041
 4343SOL     OW13927   4.568   6.905   6.270
 4343SOL    HW113928   4.665   6.882   6.276
 4343SOL    HW213929   4.548   6.947   6.182
 4344SOL     OW13930   1.401   3.812   1.931
 4344SOL    HW113931   1.487   3.857   1.907
 4344SOL    HW213932   1.354   3.785   1.847
 4345SOL     OW13933   4.107   3.376   2.628
 4345SOL    HW113934   4.097   3.465   2.584
 4345SOL    HW213935   4.094   3.303   2.561
 4346SOL     OW13936   0.755   3.501   2.477
 4346SOL    HW113937   0.792   3.473   2.389
 4346SOL    HW213938   0.812   3.465   2.551
 4347SOL     OW13939   6.003   6.005   1.553
 4347SOL    HW113940   5.978   6.096   1.518
 4347SOL    HW213941   5.981   5.936   1.485
 4348SOL     OW13942   6.577   4.335   6.193
 4348SOL    HW113943   6.618   4.414   6.239
 4348SOL    HW213944   6.534   4.275   6.260
 4349SOL     OW13945   0.780   3.467   3.967
 4349SOL    HW113946   0.824   3.518   3.893
 4349SOL    HW213947   0.850   3.422   4.023
 4350SOL     OW13948   5.313   0.055   3.730
 4350SOL    HW113949   5.309   6.978   3.752
 4350SOL    HW213950   5.261   0.107   3.798
 4351SOL     OW13951   0.194   6.345   1.034
 4351SOL    HW113952   0.239   6.355   0.945
 4351SOL    HW213953   0.263   6.329   1.104
 4352SOL     OW13954   3.531   4.188   1.056
 4352SOL    HW113955   3.565   4.246   1.130
 4352SOL    HW213956   3.608   4.146   1.008
 4353SOL     OW13957   2.232   4.084   0.513
 4353SOL    HW113958   2.267   3.992   0.529
 4353SOL    HW213959   2.225   4.101   0.415
 4354SOL     OW13960   5.519   5.058   2.054
 4354SOL    HW113961   5.523   4.982   1.989
 4354SOL    HW213962   5.609   5.100   2.063
 4355SOL     OW13963   1.867   4.853   3.756
 4355SOL    HW113964   1.846   4.951   3.755
 4355SOL    HW213965   1.865   4.817   3.663
 4356SOL     OW13966   5.913   1.528   5.688
 4356SOL    HW113967   5.882   1.501   5.597
 4356SOL    HW213968   5.836   1.523   5.752
 4357SOL     OW13969   4.785   5.750   3.028
 4357SOL    HW113970   4.873   5.784   3.059
 4357SOL    HW213971   4.717   5.823   3.034
 4358SOL     OW13972   2.596   0.727   1.462
 4358SOL    HW113973   2.553   0.729   1.371
 4358SOL    HW213974   2.563   0.648   1.513
 4359SOL     OW13975   2.614   3.061   1.642
 4359SOL    HW113976   2.556   3.025   1.569
 4359SOL    HW213977   2.567   3.053   1.729
 4360SOL     OW13978   2.862   6.166   4.034
 4360SOL    HW113979   2.855   6.069   4.058
 4360SOL    HW213980   2.789   6.189   3.969
 4361SOL     OW13981   1.883   1.169   6.598
 4361SOL    HW113982   1.980   1.181   6.577
 4361SOL    HW213983   1.866   1.074   6.623
 4362SOL     OW13984   6.930   6.125   2.775
 4362SOL    HW113985   6.845   6.084   2.808
 4362SOL    HW213986   6.945   6.213   2.820
 4363SOL     OW13987   3.997   0.163   2.457
 4363SOL    HW113988   3.901   0.192   2.457
 4363SOL    HW213989   4.011   0.094   2.528
 4364SOL     OW13990   2.950   3.725   3.036
 4364SOL    HW113991   2.940   3.717   3.136
 4364SOL    HW213992   3.006   3.804   3.014
 4365SOL     OW13993   2.670   1.347   1.076
 4365SOL    HW113994   2.665   1.405   0.995
 4365SOL    HW213995   2.763   1.311   1.086
 4366SOL     OW13996   4.855   5.561   4.798
 4366SOL    HW113997   4.926   5.631   4.797
 4366SOL    HW213998   4.796   5.573   4.718
 4367SOL     OW13999   1.662   6.972   1.722
 4367SOL    HW114000   1.709   0.022   1.668
 4367SOL    HW214001   1.609   7.015   1.794
 4368SOL     OW14002   4.834   4.879   4.647
 4368SOL    HW114003   4.841   4.780   4.663
 4368SOL    HW214004   4.881   4.928   4.719
 4369SOL     OW14005   6.672   3.981   4.276
 4369SOL    HW114006   6.603   3.986   4.204
 4369SOL    HW214007   6.705   4.073   4.297
 4370SOL     OW14008   5.108   4.565   0.924
 4370SOL    HW114009   5.076   4.657   0.902
 4370SOL    HW214010   5.030   4.502   0.926
 4371SOL     OW14011   3.517   0.657   3.364
 4371SOL    HW114012   3.454   0.735   3.359
 4371SOL    HW214013   3.477   0.586   3.422
 4372SOL     OW14014   1.787   4.377   5.446
 4372SOL    HW114015   1.883   4.404   5.436
 4372SOL    HW214016   1.753   4.406   5.536
 4373SOL     OW14017   4.610   0.479   0.352
 4373SOL    HW114018   4.606   0.454   0.256
 4373SOL    HW214019   4.519   0.472   0.392
 4374SOL     OW14020   2.273   6.068   0.430
 4374SOL    HW114021   2.319   6.076   0.519
 4374SOL    HW214022   2.189   6.123   0.431
 4375SOL     OW14023   4.964   0.725   5.977
 4375SOL    HW114024   4.946   0.823   5.984
 4375SOL    HW214025   4.984   0.687   6.068
 4376SOL     OW14026   3.022   4.830   6.932
 4376SOL    HW114027   3.061   4.887   6.860
 4376SOL    HW214028   3.070   4.743   6.935
 4377SOL     OW14029   5.551   6.451   0.046
 4377SOL    HW114030   5.599   6.510   7.002
 4377SOL    HW214031   5.564   6.355   0.020
 4378SOL     OW14032   3.427   4.720   1.399
 4378SOL    HW114033   3.338   4.686   1.371
 4378SOL    HW214034   3.415   4.793   1.466
 4379SOL     OW14035   6.518   6.165   0.416
 4379SOL    HW114036   6.551   6.099   0.348
 4379SOL    HW214037   6.560   6.254   0.399
 4380SOL     OW14038   1.758   6.081   4.789
 4380SOL    HW114039   1.778   6.052   4.883
 4380SOL    HW214040   1.660   6.071   4.772
 4381SOL     OW14041   3.502   6.136   4.131
 4381SOL    HW114042   3.462   6.069   4.193
 4381SOL    HW214043   3.430   6.195   4.095
 4382SOL     OW14044   5.431   4.360   3.790
 4382SOL    HW114045   5.336   4.345   3.762
 4382SOL    HW214046   5.468   4.439   3.741
 4383SOL     OW14047   1.268   0.297   6.885
 4383SOL    HW114048   1.216   0.223   6.842
 4383SOL    HW214049   1.256   0.381   6.833
 4384SOL     OW14050   3.725   6.828   2.024
 4384SOL    HW114051   3.653   6.898   2.031
 4384SOL    HW214052   3.808   6.861   2.068
 4385SOL     OW14053   6.184   2.500   4.448
 4385SOL    HW114054   6.117   2.427   4.435
 4385SOL    HW214055   6.276   2.462   4.450
 4386SOL     OW14056   1.928   5.599   6.848
 4386SOL    HW114057   1.887   5.624   6.760
 4386SOL    HW214058   1.965   5.680   6.893
 4387SOL     OW14059   6.020   2.500   0.967
 4387SOL    HW114060   5.957   2.482   1.042
 4387SOL    HW214061   6.029   2.599   0.953
 4388SOL     OW14062   3.949   1.272   5.912
 4388SOL    HW114063   4.002   1.338   5.858
 4388SOL    HW214064   3.921   1.315   5.998
 4389SOL     OW14065   0.728   2.285   2.693
 4389SOL    HW114066   0.678   2.204   2.662
 4389SOL    HW214067   0.686   2.321   2.776
 4390SOL     OW14068   4.730   4.083   1.120
 4390SOL    HW114069   4.642   4.130   1.113
 4390SOL    HW214070   4.752   4.040   1.033
 4391SOL     OW14071   0.527   5.431   0.772
 4391SOL    HW114072   0.442   5.387   0.742
 4391SOL    HW214073   0.521   5.450   0.870
 4392SOL     OW14074   5.161   5.009   4.746
 4392SOL    HW114075   5.078   4.983   4.796
 4392SOL    HW214076   5.137   5.067   4.669
 4393SOL     OW14077   4.648   6.509   3.051
 4393SOL    HW114078   4.568   6.523   2.994
 4393SOL    HW214079   4.709   6.442   3.008
 4394SOL     OW14080   4.709   0.765   2.560
 4394SOL    HW114081   4.614   0.795   2.547
 4394SOL    HW214082   4.714   0.665   2.556
 4395SOL     OW14083   4.412   2.856   0.619
 4395SOL    HW114084   4.333   2.880   0.562
 4395SOL    HW214085   4.383   2.792   0.690
 4396SOL     OW14086   1.852   1.376   2.514
 4396SOL    HW114087   1.881   1.424   2.432
 4396SOL    HW214088   1.752   1.378   2.521
 4397SOL     OW14089   4.095   1.343   0.026
 4397SOL    HW114090   4.187   1.383   0.029
 4397SOL    HW214091   4.082   1.298   6.958
 4398SOL     OW14092   0.853   4.857   4.570
 4398SOL    HW114093   0.893   4.800   4.499
 4398SOL    HW214094   0.897   4.838   4.658
 4399SOL     OW14095   2.701   0.457   1.514
 4399SOL    HW114096   2.644   0.402   1.451
 4399SOL    HW214097   2.775   0.400   1.549
 4400SOL     OW14098   3.177   4.942   2.833
 4400SOL    HW114099   3.213   5.032   2.857
 4400SOL    HW214100   3.115   4.950   2.755
 4401SOL     OW14101   5.099   6.523   4.574
 4401SOL    HW114102   5.157   6.566   4.504
 4401SOL    HW214103   5.125   6.428   4.585
 4402SOL     OW14104   0.102   6.287   1.798
 4402SOL    HW114105   0.044   6.238   1.733
 4402SOL    HW214106   0.050   6.307   1.881
 4403SOL     OW14107   6.226   1.731   3.376
 4403SOL    HW114108   6.194   1.649   3.329
 4403SOL    HW214109   6.235   1.806   3.311
 4404SOL     OW14110   1.769   3.687   2.463
 4404SOL    HW114111   1.722   3.604   2.434
 4404SOL    HW214112   1.822   3.725   2.387
 4405SOL     OW14113   2.530   3.445   6.561
 4405SOL    HW114114   2.617   3.492   6.546
 4405SOL    HW214115   2.529   3.359   6.511
 4406SOL     OW14116   5.620   2.531   2.096
 4406SOL    HW114117   5.578   2.472   2.165
 4406SOL    HW214118   5.592   2.501   2.005
 4407SOL     OW14119   1.096   0.794   0.392
 4407SOL    HW114120   1.075   0.747   0.478
 4407SOL    HW214121   1.152   0.734   0.334
 4408SOL     OW14122   4.059   6.092   1.436
 4408SOL    HW114123   4.000   6.123   1.362
 4408SOL    HW214124   4.006   6.087   1.521
 4409SOL     OW14125   3.683   2.114   3.033
 4409SOL    HW114126   3.717   2.022   3.017
 4409SOL    HW214127   3.584   2.112   3.045
 4410SOL     OW14128   2.112   5.657   0.636
 4410SOL    HW114129   2.177   5.639   0.562
 4410SOL    HW214130   2.158   5.647   0.724
 4411SOL     OW14131   3.456   3.050   2.308
 4411SOL    HW114132   3.472   3.090   2.399
 4411SOL    HW214133   3.534   2.992   2.283
 4412SOL     OW14134   3.520   1.450   6.125
 4412SOL    HW114135   3.466   1.431   6.044
 4412SOL    HW214136   3.592   1.381   6.135
 4413SOL     OW14137   3.667   5.349   3.772
 4413SOL    HW114138   3.659   5.306   3.862
 4413SOL    HW214139   3.609   5.430   3.769
 4414SOL     OW14140   3.457   4.916   1.772
 4414SOL    HW114141   3.489   4.851   1.840
 4414SOL    HW214142   3.535   4.966   1.734
 4415SOL     OW14143   4.079   1.227   1.799
 4415SOL    HW114144   3.996   1.226   1.742
 4415SOL    HW214145   4.067   1.162   1.875
 4416SOL     OW14146   2.870   2.289   4.657
 4416SOL    HW114147   2.939   2.247   4.716
 4416SOL    HW214148   2.814   2.352   4.711
 4417SOL     OW14149   5.734   6.836   1.389
 4417SOL    HW114150   5.712   6.811   1.294
 4417SOL    HW214151   5.744   6.935   1.396
 4418SOL     OW14152   4.398   0.139   3.256
 4418SOL    HW114153   4.412   0.197   3.176
 4418SOL    HW214154   4.315   0.167   3.304
 4419SOL     OW14155   6.264   5.512   6.189
 4419SOL    HW114156   6.267   5.432   6.129
 4419SOL    HW214157   6.181   5.508   6.245
 4420SOL     OW14158   5.230   0.924   0.820
 4420SOL    HW114159   5.259   0.979   0.898
 4420SOL    HW214160   5.310   0.879   0.779
 4421SOL     OW14161   0.430   1.398   3.240
 4421SOL    HW114162   0.477   1.377   3.326
 4421SOL    HW214163   0.371   1.478   3.253
 4422SOL     OW14164   1.599   4.111   5.633
 4422SOL    HW114165   1.651   4.106   5.718
 4422SOL    HW214166   1.522   4.048   5.637
 4423SOL     OW14167   6.828   1.637   5.589
 4423SOL    HW114168   6.869   1.660   5.678
 4423SOL    HW214169   6.768   1.558   5.599
 4424SOL     OW14170   1.410   5.381   3.398
 4424SOL    HW114171   1.509   5.372   3.391
 4424SOL    HW214172   1.368   5.291   3.401
 4425SOL     OW14173   5.026   3.909   1.820
 4425SOL    HW114174   5.095   3.972   1.784
 4425SOL    HW214175   4.977   3.953   1.895
 4426SOL     OW14176   0.250   6.922   6.555
 4426SOL    HW114177   0.209   6.836   6.523
 4426SOL    HW214178   0.247   6.926   6.655
 4427SOL     OW14179   0.798   5.623   3.550
 4427SOL    HW114180   0.819   5.717   3.523
 4427SOL    HW214181   0.753   5.623   3.639
 4428SOL     OW14182   1.475   0.100   2.925
 4428SOL    HW114183   1.418   0.150   2.860
 4428SOL    HW214184   1.566   0.086   2.886
 4429SOL     OW14185   2.742   0.119   2.174
 4429SOL    HW114186   2.650   0.100   2.207
 4429SOL    HW214187   2.783   0.192   2.230
 4430SOL     OW14188   2.022   0.313   1.891
 4430SOL    HW114189   2.101   0.262   1.856
 4430SOL    HW214190   1.939   0.259   1.874
 4431SOL     OW14191   1.769   2.466   2.719
 4431SOL    HW114192   1.705   2.460   2.795
 4431SOL    HW214193   1.825   2.383   2.716
 4432SOL     OW14194   3.508   4.094   4.469
 4432SOL    HW114195   3.477   4.072   4.376
 4432SOL    HW214196   3.541   4.011   4.514
 4433SOL     OW14197   6.665   0.094   1.635
 4433SOL    HW114198   6.708   0.184   1.640
 4433SOL    HW214199   6.568   0.104   1.611
 4434SOL     OW14200   5.663   1.785   5.662
 4434SOL    HW114201   5.714   1.849   5.604
 4434SOL    HW214202   5.650   1.825   5.752
 4435SOL     OW14203   3.724   2.934   1.944
 4435SOL    HW114204   3.715   2.843   1.905
 4435SOL    HW214205   3.798   2.983   1.898
 4436SOL     OW14206   5.760   0.470   0.427
 4436SOL    HW114207   5.719   0.394   0.376
 4436SOL    HW214208   5.697   0.548   0.427
 4437SOL     OW14209   3.593   6.931   5.914
 4437SOL    HW114210   3.656   6.993   5.960
 4437SOL    HW214211   3.501   6.971   5.911
 4438SOL     OW14212   3.599   2.555   6.921
 4438SOL    HW114213   3.607   2.604   6.835
 4438SOL    HW214214   3.575   2.460   6.903
 4439SOL     OW14215   1.399   4.250   2.825
 4439SOL    HW114216   1.365   4.269   2.733
 4439SOL    HW214217   1.396   4.333   2.880
 4440SOL     OW14218   6.208   0.960   0.746
 4440SOL    HW114219   6.144   0.971   0.670
 4440SOL    HW214220   6.205   0.865   0.778
 4441SOL     OW14221   6.846   0.533   4.173
 4441SOL    HW114222   6.772   0.467   4.185
 4441SOL    HW214223   6.851   0.593   4.253
 4442SOL     OW14224   1.952   5.496   2.394
 4442SOL    HW114225   1.935   5.553   2.313
 4442SOL    HW214226   1.864   5.466   2.432
 4443SOL     OW14227   2.060   1.362   0.893
 4443SOL    HW114228   2.083   1.329   0.985
 4443SOL    HW214229   2.108   1.306   0.825
 4444SOL     OW14230   4.878   1.659   3.081
 4444SOL    HW114231   4.864   1.623   2.989
 4444SOL    HW214232   4.957   1.613   3.123
 4445SOL     OW14233   0.748   2.096   6.169
 4445SOL    HW114234   0.680   2.111   6.098
 4445SOL    HW214235   0.735   2.164   6.242
 4446SOL     OW14236   6.693   4.857   4.483
 4446SOL    HW114237   6.661   4.878   4.576
 4446SOL    HW214238   6.737   4.768   4.482
 4447SOL     OW14239   4.854   3.841   5.096
 4447SOL    HW114240   4.833   3.764   5.036
 4447SOL    HW214241   4.784   3.848   5.167
 4448SOL     OW14242   2.553   3.381   6.873
 4448SOL    HW114243   2.608   3.454   6.833
 4448SOL    HW214244   2.471   3.368   6.817
 4449SOL     OW14245   6.933   1.302   5.405
 4449SOL    HW114246   6.900   1.394   5.384
 4449SOL    HW214247   6.857   1.237   5.403
 4450SOL     OW14248   3.822   3.406   3.255
 4450SOL    HW114249   3.770   3.360   3.327
 4450SOL    HW214250   3.917   3.377   3.259
 4451SOL     OW14251   0.718   5.005   1.240
 4451SOL    HW114252   0.715   5.045   1.148
 4451SOL    HW214253   0.789   5.051   1.294
 4452SOL     OW14254   0.458   3.575   6.700
 4452SOL    HW114255   0.391   3.635   6.742
 4452SOL    HW214256   0.498   3.515   6.769
 4453SOL     OW14257   5.952   0.495   1.575
 4453SOL    HW114258   5.861   0.486   1.616
 4453SOL    HW214259   5.986   0.588   1.588
 4454SOL     OW14260   5.827   3.428   1.715
 4454SOL    HW114261   5.884   3.421   1.632
 4454SOL    HW214262   5.744   3.373   1.703
 4455SOL     OW14263   4.755   2.476   2.805
 4455SOL    HW114264   4.668   2.480   2.756
 4455SOL    HW214265   4.829   2.501   2.743
 4456SOL     OW14266   0.445   5.810   2.447
 4456SOL    HW114267   0.349   5.782   2.445
 4456SOL    HW214268   0.503   5.731   2.424
 4457SOL     OW14269   4.299   2.521   6.486
 4457SOL    HW114270   4.399   2.519   6.490
 4457SOL    HW214271   4.270   2.549   6.395
 4458SOL     OW14272   4.654   1.859   1.017
 4458SOL    HW114273   4.612   1.769   1.025
 4458SOL    HW214274   4.714   1.861   0.937
 4459SOL     OW14275   5.819   5.618   6.123
 4459SOL    HW114276   5.870   5.683   6.178
 4459SOL    HW214277   5.818   5.648   6.028
 4460SOL     OW14278   1.637   1.463   0.380
 4460SOL    HW114279   1.576   1.442   0.457
 4460SOL    HW214280   1.727   1.488   0.415
 4461SOL     OW14281   1.891   0.817   2.919
 4461SOL    HW114282   1.847   0.902   2.948
 4461SOL    HW214283   1.949   0.835   2.839
 4462SOL     OW14284   6.889   3.724   0.619
 4462SOL    HW114285   6.904   3.727   0.717
 4462SOL    HW214286   6.814   3.662   0.598
 4463SOL     OW14287   0.609   4.658   6.911
 4463SOL    HW114288   0.638   4.597   6.837
 4463SOL    HW214289   0.683   4.722   6.933
 4464SOL     OW14290   6.754   3.072   7.009
 4464SOL    HW114291   6.702   3.114   6.934
 4464SOL    HW214292   6.776   3.142   0.056
 4465SOL     OW14293   6.286   5.370   1.041
 4465SOL    HW114294   6.262   5.461   1.005
 4465SOL    HW214295   6.266   5.367   1.139
 4466SOL     OW14296   6.667   3.009   3.868
 4466SOL    HW114297   6.628   3.037   3.781
 4466SOL    HW214298   6.604   2.947   3.914
 4467SOL     OW14299   1.021   0.619   4.658
 4467SOL    HW114300   1.046   0.544   4.720
 4467SOL    HW214301   1.064   0.703   4.690
 4468SOL     OW14302   1.217   1.133   0.697
 4468SOL    HW114303   1.263   1.152   0.610
 4468SOL    HW214304   1.134   1.189   0.704
 4469SOL     OW14305   5.027   6.977   0.310
 4469SOL    HW114306   4.988   7.012   0.224
 4469SOL    HW214307   5.097   6.909   0.289
 4470SOL     OW14308   4.783   4.646   1.492
 4470SOL    HW114309   4.757   4.549   1.492
 4470SOL    HW214310   4.866   4.658   1.439
 4471SOL     OW14311   5.678   2.464   1.829
 4471SOL    HW114312   5.637   2.383   1.871
 4471SOL    HW214313   5.773   2.445   1.804
 4472SOL     OW14314   2.418   5.216   1.373
 4472SOL    HW114315   2.379   5.287   1.314
 4472SOL    HW214316   2.356   5.200   1.450
 4473SOL     OW14317   5.958   0.289   1.036
 4473SOL    HW114318   6.015   0.207   1.044
 4473SOL    HW214319   6.011   0.369   1.065
 4474SOL     OW14320   6.210   0.953   4.957
 4474SOL    HW114321   6.174   0.993   4.873
 4474SOL    HW214322   6.250   0.863   4.937
 4475SOL     OW14323   1.423   3.470   0.354
 4475SOL    HW114324   1.451   3.509   0.442
 4475SOL    HW214325   1.468   3.521   0.280
 4476SOL     OW14326   3.767   6.047   2.596
 4476SOL    HW114327   3.699   5.997   2.649
 4476SOL    HW214328   3.857   6.035   2.637
 4477SOL     OW14329   1.881   2.215   0.981
 4477SOL    HW114330   1.893   2.189   1.077
 4477SOL    HW214331   1.785   2.235   0.964
 4478SOL     OW14332   1.222   4.803   0.862
 4478SOL    HW114333   1.309   4.849   0.846
 4478SOL    HW214334   1.212   4.783   0.959
 4479SOL     OW14335   1.768   6.717   6.144
 4479SOL    HW114336   1.850   6.668   6.115
 4479SOL    HW214337   1.689   6.655   6.143
 4480SOL     OW14338   6.795   3.743   3.307
 4480SOL    HW114339   6.856   3.813   3.270
 4480SOL    HW214340   6.712   3.787   3.342
 4481SOL     OW14341   0.935   1.009   4.577
 4481SOL    HW114342   0.986   0.924   4.589
 4481SOL    HW214343   0.995   1.087   4.597
 4482SOL     OW14344   0.537   3.864   2.873
 4482SOL    HW114345   0.465   3.882   2.940
 4482SOL    HW214346   0.498   3.819   2.794
 4483SOL     OW14347   5.870   3.792   0.992
 4483SOL    HW114348   5.961   3.820   0.961
 4483SOL    HW214349   5.802   3.816   0.922
 4484SOL     OW14350   3.265   3.699   6.808
 4484SOL    HW114351   3.166   3.685   6.815
 4484SOL    HW214352   3.313   3.618   6.842
 4485SOL     OW14353   4.408   0.102   5.805
 4485SOL    HW114354   4.395   0.193   5.843
 4485SOL    HW214355   4.348   0.090   5.726
 4486SOL     OW14356   6.174   3.130   4.164
 4486SOL    HW114357   6.098   3.087   4.213
 4486SOL    HW214358   6.143   3.218   4.125
 4487SOL     OW14359   2.960   3.216   6.143
 4487SOL    HW114360   2.920   3.141   6.092
 4487SOL    HW214361   2.924   3.303   6.108
 4488SOL     OW14362   6.669   2.234   6.932
 4488SOL    HW114363   6.625   2.148   6.959
 4488SOL    HW214364   6.655   2.250   6.835
 4489SOL     OW14365   0.775   1.090   2.983
 4489SOL    HW114366   0.849   1.133   2.931
 4489SOL    HW214367   0.808   1.005   3.024
 4490SOL     OW14368   6.669   2.166   4.185
 4490SOL    HW114369   6.648   2.088   4.244
 4490SOL    HW214370   6.747   2.144   4.127
 4491SOL     OW14371   1.922   4.276   1.807
 4491SOL    HW114372   1.853   4.278   1.880
 4491SOL    HW214373   1.887   4.224   1.729
 4492SOL     OW14374   5.149   3.849   5.910
 4492SOL    HW114375   5.188   3.818   5.823
 4492SOL    HW214376   5.206   3.815   5.985
 4493SOL     OW14377   6.039   4.221   2.964
 4493SOL    HW114378   5.945   4.226   2.930
 4493SOL    HW214379   6.076   4.313   2.973
 4494SOL     OW14380   5.059   2.465   1.954
 4494SOL    HW114381   5.052   2.385   2.013
 4494SOL    HW214382   4.997   2.454   1.876
 4495SOL     OW14383   5.663   5.246   1.681
 4495SOL    HW114384   5.654   5.344   1.663
 4495SOL    HW214385   5.585   5.214   1.734
 4496SOL     OW14386   6.069   3.595   5.913
 4496SOL    HW114387   6.008   3.531   5.867
 4496SOL    HW214388   6.015   3.672   5.949
 4497SOL     OW14389   6.763   6.254   1.304
 4497SOL    HW114390   6.776   6.244   1.402
 4497SOL    HW214391   6.774   6.350   1.278
 4498SOL     OW14392   1.248   3.981   6.170
 4498SOL    HW114393   1.203   3.965   6.258
 4498SOL    HW214394   1.286   3.895   6.136
 4499SOL     OW14395   5.698   3.912   0.760
 4499SOL    HW114396   5.721   3.838   0.696
 4499SOL    HW214397   5.760   3.989   0.746
 4500SOL     OW14398   3.803   4.048   2.158
 4500SOL    HW114399   3.873   3.982   2.184
 4500SOL    HW214400   3.816   4.074   2.062
 4501SOL     OW14401   1.599   5.432   4.877
 4501SOL    HW114402   1.606   5.392   4.969
 4501SOL    HW214403   1.654   5.515   4.873
 4502SOL     OW14404   5.617   2.446   0.652
 4502SOL    HW114405   5.576   2.426   0.741
 4502SOL    HW214406   5.546   2.473   0.587
 4503SOL     OW14407   0.887   3.036   2.697
 4503SOL    HW114408   0.955   3.104   2.726
 4503SOL    HW214409   0.802   3.082   2.675
 4504SOL     OW14410   4.433   2.345   4.104
 4504SOL    HW114411   4.359   2.347   4.037
 4504SOL    HW214412   4.395   2.320   4.193
 4505SOL     OW14413   2.603   5.447   0.415
 4505SOL    HW114414   2.590   5.498   0.330
 4505SOL    HW214415   2.658   5.365   0.396
 4506SOL     OW14416   3.706   6.889   5.623
 4506SOL    HW114417   3.651   6.903   5.706
 4506SOL    HW214418   3.787   6.948   5.626
 4507SOL     OW14419   6.352   3.602   2.512
 4507SOL    HW114420   6.399   3.650   2.586
 4507SOL    HW214421   6.264   3.644   2.495
 4508SOL     OW14422   2.013   4.211   0.607
 4508SOL    HW114423   2.077   4.142   0.574
 4508SOL    HW214424   2.027   4.226   0.704
 4509SOL     OW14425   0.848   2.720   3.416
 4509SOL    HW114426   0.849   2.750   3.512
 4509SOL    HW214427   0.842   2.800   3.357
 4510SOL     OW14428   2.746   6.425   6.583
 4510SOL    HW114429   2.771   6.449   6.489
 4510SOL    HW214430   2.646   6.419   6.589
 4511SOL     OW14431   0.557   2.407   0.201
 4511SOL    HW114432   0.629   2.465   0.164
 4511SOL    HW214433   0.501   2.371   0.126
 4512SOL     OW14434   2.421   4.040   0.294
 4512SOL    HW114435   2.474   3.974   0.347
 4512SOL    HW214436   2.452   4.132   0.315
 4513SOL     OW14437   6.622   1.724   3.183
 4513SOL    HW114438   6.593   1.816   3.155
 4513SOL    HW214439   6.701   1.696   3.129
 4514SOL     OW14440   2.414   0.268   4.977
 4514SOL    HW114441   2.411   0.183   4.924
 4514SOL    HW214442   2.328   0.318   4.965
 4515SOL     OW14443   6.988   4.900   0.488
 4515SOL    HW114444   0.060   4.929   0.466
 4515SOL    HW214445   6.991   4.824   0.554
 4516SOL     OW14446   0.667   6.828   3.899
 4516SOL    HW114447   0.574   6.861   3.908
 4516SOL    HW214448   0.684   6.798   3.805
 4517SOL     OW14449   2.410   0.685   6.695
 4517SOL    HW114450   2.457   0.755   6.749
 4517SOL    HW214451   2.478   0.621   6.657
 4518SOL     OW14452   1.472   0.572   3.573
 4518SOL    HW114453   1.432   0.519   3.498
 4518SOL    HW214454   1.429   0.661   3.577
 4519SOL     OW14455   6.831   2.140   4.609
 4519SOL    HW114456   6.929   2.158   4.623
 4519SOL    HW214457   6.798   2.194   4.532
 4520SOL     OW14458   6.967   3.419   2.886
 4520SOL    HW114459   7.014   3.357   2.948
 4520SOL    HW214460   0.000   3.430   2.802
 4521SOL     OW14461   5.194   1.791   6.324
 4521SOL    HW114462   5.198   1.825   6.230
 4521SOL    HW214463   5.179   1.868   6.386
 4522SOL     OW14464   5.262   6.819   3.440
 4522SOL    HW114465   5.254   6.720   3.436
 4522SOL    HW214466   5.176   6.859   3.472
 4523SOL     OW14467   4.796   1.889   5.793
 4523SOL    HW114468   4.775   1.986   5.799
 4523SOL    HW214469   4.724   1.842   5.741
 4524SOL     OW14470   5.762   0.832   5.547
 4524SOL    HW114471   5.800   0.811   5.457
 4524SOL    HW214472   5.807   0.913   5.584
 4525SOL     OW14473   6.687   1.515   3.791
 4525SOL    HW114474   6.593   1.539   3.815
 4525SOL    HW214475   6.709   1.423   3.824
 4526SOL     OW14476   2.868   1.784   1.599
 4526SOL    HW114477   2.806   1.848   1.643
 4526SOL    HW214478   2.961   1.819   1.604
 4527SOL     OW14479   4.344   6.210   3.883
 4527SOL    HW114480   4.375   6.116   3.872
 4527SOL    HW214481   4.244   6.213   3.887
 4528SOL     OW14482   4.682   0.191   6.136
 4528SOL    HW114483   4.715   0.191   6.230
 4528SOL    HW214484   4.597   0.138   6.130
 4529SOL     OW14485   3.297   0.341   4.268
 4529SOL    HW114486   3.356   0.265   4.298
 4529SOL    HW214487   3.283   0.404   4.345
 4530SOL     OW14488   6.330   2.535   4.031
 4530SOL    HW114489   6.383   2.596   3.972
 4530SOL    HW214490   6.365   2.442   4.024
 4531SOL     OW14491   0.288   3.792   3.926
 4531SOL    HW114492   0.280   3.715   3.989
 4531SOL    HW214493   0.366   3.849   3.953
 4532SOL     OW14494   0.609   2.531   0.608
 4532SOL    HW114495   0.530   2.532   0.546
 4532SOL    HW214496   0.581   2.563   0.699
 4533SOL     OW14497   3.432   6.391   1.995
 4533SOL    HW114498   3.453   6.477   2.042
 4533SOL    HW214499   3.487   6.384   1.912
 4534SOL     OW14500   6.484   3.921   6.094
 4534SOL    HW114501   6.541   3.849   6.054
 4534SOL    HW214502   6.529   3.957   6.176
 4535SOL     OW14503   5.145   2.225   2.559
 4535SOL    HW114504   5.237   2.240   2.596
 4535SOL    HW214505   5.117   2.131   2.577
 4536SOL     OW14506   0.042   0.168   3.654
 4536SOL    HW114507   0.066   0.250   3.706
 4536SOL    HW214508   0.099   0.162   3.572
 4537SOL     OW14509   4.540   2.912   5.501
 4537SOL    HW114510   4.620   2.956   5.460
 4537SOL    HW214511   4.550   2.911   5.600
 4538SOL     OW14512   3.454   2.136   1.803
 4538SOL    HW114513   3.388   2.207   1.780
 4538SOL    HW214514   3.524   2.175   1.863
 4539SOL     OW14515   2.445   3.048   1.425
 4539SOL    HW114516   2.347   3.060   1.412
 4539SOL    HW214517   2.490   3.137   1.428
 4540SOL     OW14518   3.460   2.871   4.639
 4540SOL    HW114519   3.398   2.860   4.717
 4540SOL    HW214520   3.413   2.920   4.566
 4541SOL     OW14521   6.190   1.417   1.615
 4541SOL    HW114522   6.275   1.457   1.649
 4541SOL    HW214523   6.168   1.335   1.668
 4542SOL     OW14524   5.182   6.592   3.633
 4542SOL    HW114525   5.227   6.545   3.557
 4542SOL    HW214526   5.084   6.596   3.616
 4543SOL     OW14527   5.506   2.531   2.594
 4543SOL    HW114528   5.515   2.447   2.542
 4543SOL    HW214529   5.462   2.601   2.538
 4544SOL     OW14530   5.715   4.843   6.504
 4544SOL    HW114531   5.727   4.771   6.573
 4544SOL    HW214532   5.622   4.880   6.511
 4545SOL     OW14533   3.780   3.920   6.685
 4545SOL    HW114534   3.873   3.926   6.720
 4545SOL    HW214535   3.778   3.866   6.601
 4546SOL     OW14536   0.681   6.085   0.535
 4546SOL    HW114537   0.741   6.005   0.544
 4546SOL    HW214538   0.627   6.077   0.451
 4547SOL     OW14539   4.422   1.181   2.754
 4547SOL    HW114540   4.344   1.136   2.710
 4547SOL    HW214541   4.491   1.112   2.778
 4548SOL     OW14542   0.868   3.222   4.283
 4548SOL    HW114543   0.920   3.304   4.260
 4548SOL    HW214544   0.927   3.157   4.330
 4549SOL     OW14545   5.829   1.421   2.183
 4549SOL    HW114546   5.893   1.459   2.250
 4549SOL    HW214547   5.857   1.327   2.161
 4550SOL     OW14548   2.267   5.187   4.828
 4550SOL    HW114549   2.219   5.148   4.906
 4550SOL    HW214550   2.330   5.120   4.791
 4551SOL     OW14551   6.514   3.777   0.655
 4551SOL    HW114552   6.534   3.854   0.715
 4551SOL    HW214553   6.583   3.705   0.670
 4552SOL     OW14554   6.963   3.210   5.115
 4552SOL    HW114555   6.915   3.124   5.135
 4552SOL    HW214556   0.037   3.190   5.090
 4553SOL     OW14557   5.499   5.017   6.645
 4553SOL    HW114558   5.404   5.010   6.674
 4553SOL    HW214559   5.551   5.066   6.715
 4554SOL     OW14560   6.375   6.317   3.772
 4554SOL    HW114561   6.385   6.319   3.673
 4554SOL    HW214562   6.464   6.332   3.815
 4555SOL     OW14563   4.039   3.302   0.458
 4555SOL    HW114564   3.975   3.238   0.501
 4555SOL    HW214565   4.088   3.255   0.384
 4556SOL     OW14566   4.339   0.445   5.235
 4556SOL    HW114567   4.385   0.533   5.226
 4556SOL    HW214568   4.378   0.380   5.171
 4557SOL     OW14569   5.253   1.138   4.286
 4557SOL    HW114570   5.333   1.143   4.225
 4557SOL    HW214571   5.231   1.229   4.319
 4558SOL     OW14572   0.106   2.917   6.432
 4558SOL    HW114573   0.136   2.828   6.397
 4558SOL    HW214574   0.156   2.938   6.515
 4559SOL     OW14575   1.413   6.307   1.550
 4559SOL    HW114576   1.375   6.235   1.492
 4559SOL    HW214577   1.400   6.396   1.506
 4560SOL     OW14578   5.724   2.965   2.751
 4560SOL    HW114579   5.701   2.900   2.679
 4560SOL    HW214580   5.787   2.923   2.815
 4561SOL     OW14581   3.350   6.174   6.222
 4561SOL    HW114582   3.324   6.252   6.278
 4561SOL    HW214583   3.279   6.156   6.154
 4562SOL     OW14584   2.644   4.290   5.995
 4562SOL    HW114585   2.579   4.366   6.001
 4562SOL    HW214586   2.603   4.214   5.944
 4563SOL     OW14587   5.955   2.770   0.093
 4563SOL    HW114588   5.983   2.791   7.020
 4563SOL    HW214589   6.003   2.830   0.157
 4564SOL     OW14590   6.953   5.122   6.997
 4564SOL    HW114591   6.978   5.193   0.042
 4564SOL    HW214592   6.969   5.032   0.017
 4565SOL     OW14593   3.433   1.329   3.935
 4565SOL    HW114594   3.407   1.249   3.988
 4565SOL    HW214595   3.432   1.306   3.837
 4566SOL     OW14596   1.728   0.859   0.708
 4566SOL    HW114597   1.690   0.917   0.780
 4566SOL    HW214598   1.680   0.878   0.622
 4567SOL     OW14599   5.509   1.839   0.445
 4567SOL    HW114600   5.434   1.863   0.383
 4567SOL    HW214601   5.475   1.778   0.516
 4568SOL     OW14602   4.646   4.667   4.081
 4568SOL    HW114603   4.618   4.763   4.092
 4568SOL    HW214604   4.633   4.619   4.168
 4569SOL     OW14605   1.463   2.047   4.072
 4569SOL    HW114606   1.407   2.069   3.992
 4569SOL    HW214607   1.460   1.949   4.090
 4570SOL     OW14608   5.404   5.867   4.963
 4570SOL    HW114609   5.340   5.937   4.931
 4570SOL    HW214610   5.487   5.869   4.907
 4571SOL     OW14611   4.079   3.180   4.160
 4571SOL    HW114612   4.099   3.083   4.173
 4571SOL    HW214613   4.032   3.193   4.073
 4572SOL     OW14614   2.506   5.437   1.005
 4572SOL    HW114615   2.573   5.362   1.003
 4572SOL    HW214616   2.456   5.433   1.091
 4573SOL     OW14617   4.910   0.182   1.608
 4573SOL    HW114618   4.920   0.274   1.570
 4573SOL    HW214619   4.820   0.174   1.651
 4574SOL     OW14620   0.213   4.649   1.951
 4574SOL    HW114621   0.225   4.552   1.926
 4574SOL    HW214622   0.178   4.699   1.872
 4575SOL     OW14623   0.024   5.890   1.722
 4575SOL    HW114624   0.067   5.938   1.798
 4575SOL    HW214625   6.954   5.856   1.750
 4576SOL     OW14626   3.310   6.403   4.084
 4576SOL    HW114627   3.391   6.455   4.059
 4576SOL    HW214628   3.267   6.366   4.002
 4577SOL     OW14629   2.080   3.840   3.766
 4577SOL    HW114630   2.152   3.876   3.706
 4577SOL    HW214631   2.103   3.859   3.861
 4578SOL     OW14632   6.399   5.746   3.435
 4578SOL    HW114633   6.429   5.703   3.520
 4578SOL    HW214634   6.433   5.694   3.357
 4579SOL     OW14635   4.757   1.562   3.601
 4579SOL    HW114636   4.797   1.636   3.656
 4579SOL    HW214637   4.657   1.566   3.607
 4580SOL     OW14638   0.404   5.366   6.903
 4580SOL    HW114639   0.383   5.327   6.993
 4580SOL    HW214640   0.334   5.338   6.837
 4581SOL     OW14641   3.453   5.869   4.585
 4581SOL    HW114642   3.518   5.806   4.627
 4581SOL    HW214643   3.360   5.839   4.605
 4582SOL     OW14644   4.778   6.567   3.332
 4582SOL    HW114645   4.732   6.566   3.421
 4582SOL    HW214646   4.710   6.563   3.259
 4583SOL     OW14647   3.309   0.229   5.639
 4583SOL    HW114648   3.392   0.271   5.676
 4583SOL    HW214649   3.316   0.223   5.539
 4584SOL     OW14650   6.966   5.334   5.396
 4584SOL    HW114651   0.005   5.356   5.473
 4584SOL    HW214652   7.016   5.346   5.311
 4585SOL     OW14653   3.030   6.404   2.115
 4585SOL    HW114654   2.953   6.468   2.121
 4585SOL    HW214655   3.002   6.325   2.060
 4586SOL     OW14656   2.176   6.285   1.551
 4586SOL    HW114657   2.252   6.348   1.565
 4586SOL    HW214658   2.132   6.264   1.638
 4587SOL     OW14659   2.729   4.911   0.543
 4587SOL    HW114660   2.631   4.926   0.546
 4587SOL    HW214661   2.776   4.985   0.590
 4588SOL     OW14662   3.616   4.274   5.157
 4588SOL    HW114663   3.638   4.372   5.150
 4588SOL    HW214664   3.663   4.236   5.237
 4589SOL     OW14665   1.959   2.030   3.669
 4589SOL    HW114666   2.026   2.009   3.740
 4589SOL    HW214667   1.983   2.116   3.624
 4590SOL     OW14668   3.732   6.401   2.724
 4590SOL    HW114669   3.762   6.330   2.789
 4590SOL    HW214670   3.812   6.445   2.684
 4591SOL     OW14671   4.972   5.928   4.858
 4591SOL    HW114672   5.012   5.994   4.793
 4591SOL    HW214673   4.876   5.912   4.833
 4592SOL     OW14674   3.462   1.725   5.944
 4592SOL    HW114675   3.556   1.696   5.923
 4592SOL    HW214676   3.401   1.701   5.869
 4593SOL     OW14677   4.432   6.432   1.806
 4593SOL    HW114678   4.530   6.419   1.790
 4593SOL    HW214679   4.405   6.382   1.888
 4594SOL     OW14680   4.373   2.135   2.740
 4594SOL    HW114681   4.323   2.125   2.654
 4594SOL    HW214682   4.313   2.176   2.808
 4595SOL     OW14683   4.325   3.391   5.608
 4595SOL    HW114684   4.340   3.426   5.701
 4595SOL    HW214685   4.259   3.450   5.561
 4596SOL     OW14686   4.942   0.600   2.829
 4596SOL    HW114687   5.034   0.584   2.865
 4596SOL    HW214688   4.928   0.542   2.748
 4597SOL     OW14689   6.548   3.709   5.682
 4597SOL    HW114690   6.510   3.616   5.682
 4597SOL    HW214691   6.578   3.733   5.774
 4598SOL     OW14692   2.413   3.913   6.516
 4598SOL    HW114693   2.326   3.931   6.470
 4598SOL    HW214694   2.396   3.875   6.607
 4599SOL     OW14695   3.377   5.321   0.726
 4599SOL    HW114696   3.318   5.372   0.788
 4599SOL    HW214697   3.333   5.316   0.636
 4600SOL     OW14698   2.791   3.778   0.742
 4600SOL    HW114699   2.741   3.698   0.708
 4600SOL    HW214700   2.746   3.813   0.824
 4601SOL     OW14701   1.992   5.234   3.709
 4601SOL    HW114702   1.935   5.311   3.681
 4601SOL    HW214703   1.940   5.174   3.770
 4602SOL     OW14704   1.533   6.840   1.410
 4602SOL    HW114705   1.573   6.831   1.501
 4602SOL    HW214706   1.582   6.909   1.358
 4603SOL     OW14707   2.996   1.133   2.017
 4603SOL    HW114708   2.912   1.083   1.994
 4603SOL    HW214709   3.020   1.195   1.941
 4604SOL     OW14710   1.494   7.006   3.308
 4604SOL    HW114711   1.567   6.999   3.240
 4604SOL    HW214712   1.435   6.925   3.301
 4605SOL     OW14713   5.252   6.313   5.592
 4605SOL    HW114714   5.325   6.287   5.655
 4605SOL    HW214715   5.269   6.406   5.557
 4606SOL     OW14716   6.591   6.552   4.299
 4606SOL    HW114717   6.564   6.580   4.391
 4606SOL    HW214718   6.520   6.579   4.234
 4607SOL     OW14719   3.189   3.524   0.766
 4607SOL    HW114720   3.201   3.450   0.831
 4607SOL    HW214721   3.212   3.611   0.810
 4608SOL     OW14722   1.257   3.356   6.065
 4608SOL    HW114723   1.310   3.407   5.997
 4608SOL    HW214724   1.234   3.266   6.029
 4609SOL     OW14725   3.043   0.229   0.398
 4609SOL    HW114726   3.010   0.272   0.482
 4609SOL    HW214727   3.005   0.136   0.391
 4610SOL     OW14728   6.900   3.714   0.131
 4610SOL    HW114729   6.880   3.804   0.169
 4610SOL    HW214730   6.851   3.703   0.045
 4611SOL     OW14731   1.957   5.106   6.323
 4611SOL    HW114732   1.879   5.074   6.376
 4611SOL    HW214733   2.037   5.051   6.346
 4612SOL     OW14734   1.814   0.569   6.534
 4612SOL    HW114735   1.899   0.563   6.481
 4612SOL    HW214736   1.756   0.642   6.496
 4613SOL     OW14737   3.965   5.095   1.354
 4613SOL    HW114738   4.037   5.050   1.302
 4613SOL    HW214739   3.876   5.069   1.316
 4614SOL     OW14740   2.158   4.793   6.781
 4614SOL    HW114741   2.082   4.856   6.762
 4614SOL    HW214742   2.216   4.832   6.852
 4615SOL     OW14743   6.128   3.146   6.353
 4615SOL    HW114744   6.105   3.228   6.406
 4615SOL    HW214745   6.044   3.106   6.315
 4616SOL     OW14746   5.456   0.931   6.931
 4616SOL    HW114747   5.479   0.901   0.004
 4616SOL    HW214748   5.461   0.852   6.869
 4617SOL     OW14749   0.243   4.106   1.444
 4617SOL    HW114750   0.181   4.040   1.484
 4617SOL    HW214751   0.254   4.087   1.346
 4618SOL     OW14752   0.998   3.328   6.637
 4618SOL    HW114753   1.087   3.320   6.591
 4618SOL    HW214754   1.013   3.348   6.734
 4619SOL     OW14755   4.025   1.025   3.810
 4619SOL    HW114756   3.996   0.982   3.896
 4619SOL    HW214757   4.123   1.009   3.797
 4620SOL     OW14758   1.720   5.911   0.328
 4620SOL    HW114759   1.750   6.001   0.359
 4620SOL    HW214760   1.779   5.841   0.367
 4621SOL     OW14761   6.559   0.281   6.519
 4621SOL    HW114762   6.472   0.234   6.508
 4621SOL    HW214763   6.621   0.254   6.445
 4622SOL     OW14764   1.768   4.260   0.455
 4622SOL    HW114765   1.861   4.284   0.480
 4622SOL    HW214766   1.738   4.181   0.508
 4623SOL     OW14767   5.414   3.511   3.739
 4623SOL    HW114768   5.408   3.610   3.756
 4623SOL    HW214769   5.371   3.462   3.815
 4624SOL     OW14770   4.493   6.606   6.098
 4624SOL    HW114771   4.461   6.695   6.066
 4624SOL    HW214772   4.471   6.596   6.195
 4625SOL     OW14773   1.264   3.982   6.536
 4625SOL    HW114774   1.211   3.905   6.502
 4625SOL    HW214775   1.316   3.953   6.617
 4626SOL     OW14776   5.834   4.380   2.086
 4626SOL    HW114777   5.869   4.337   2.003
 4626SOL    HW214778   5.890   4.459   2.110
 4627SOL     OW14779   1.974   6.933   4.641
 4627SOL    HW114780   1.987   6.867   4.715
 4627SOL    HW214781   1.993   6.890   4.553
 4628SOL     OW14782   6.529   2.828   1.804
 4628SOL    HW114783   6.600   2.757   1.806
 4628SOL    HW214784   6.571   2.917   1.821
 4629SOL     OW14785   3.813   5.220   4.257
 4629SOL    HW114786   3.837   5.136   4.208
 4629SOL    HW214787   3.792   5.199   4.352
 4630SOL     OW14788   2.610   6.247   2.515
 4630SOL    HW114789   2.543   6.242   2.441
 4630SOL    HW214790   2.588   6.324   2.574
 4631SOL     OW14791   2.063   1.344   2.699
 4631SOL    HW114792   1.994   1.348   2.627
 4631SOL    HW214793   2.095   1.250   2.710
 4632SOL     OW14794   5.539   6.117   3.914
 4632SOL    HW114795   5.525   6.156   4.005
 4632SOL    HW214796   5.631   6.078   3.909
 4633SOL     OW14797   5.239   3.038   6.016
 4633SOL    HW114798   5.290   3.124   6.020
 4633SOL    HW214799   5.145   3.054   6.046
 4634SOL     OW14800   2.751   4.195   0.375
 4634SOL    HW114801   2.735   4.099   0.352
 4634SOL    HW214802   2.680   4.252   0.332
 4635SOL     OW14803   5.000   3.469   1.645
 4635SOL    HW114804   4.932   3.442   1.713
 4635SOL    HW214805   4.981   3.563   1.616
 4636SOL     OW14806   0.726   5.043   1.888
 4636SOL    HW114807   0.821   5.064   1.865
 4636SOL    HW214808   0.679   5.010   1.806
 4637SOL     OW14809   1.056   0.658   5.662
 4637SOL    HW114810   1.064   0.563   5.632
 4637SOL    HW214811   1.039   0.717   5.583
 4638SOL     OW14812   4.297   5.111   5.941
 4638SOL    HW114813   4.215   5.156   5.905
 4638SOL    HW214814   4.375   5.131   5.881
 4639SOL     OW14815   6.734   1.983   5.196
 4639SOL    HW114816   6.695   2.073   5.214
 4639SOL    HW214817   6.660   1.916   5.190
 4640SOL     OW14818   6.276   5.252   3.043
 4640SOL    HW114819   6.374   5.245   3.065
 4640SOL    HW214820   6.262   5.326   2.977
 4641SOL     OW14821   2.443   3.723   5.339
 4641SOL    HW114822   2.364   3.668   5.312
 4641SOL    HW214823   2.456   3.797   5.273
 4642SOL     OW14824   5.752   5.617   4.137
 4642SOL    HW114825   5.695   5.569   4.204
 4642SOL    HW214826   5.767   5.558   4.058
 4643SOL     OW14827   4.584   3.650   1.324
 4643SOL    HW114828   4.643   3.721   1.284
 4643SOL    HW214829   4.630   3.610   1.404
 4644SOL     OW14830   3.608   4.955   5.482
 4644SOL    HW114831   3.638   5.033   5.538
 4644SOL    HW214832   3.511   4.967   5.459
 4645SOL     OW14833   1.421   6.158   4.702
 4645SOL    HW114834   1.441   6.062   4.684
 4645SOL    HW214835   1.325   6.167   4.729
 4646SOL     OW14836   3.393   0.740   1.074
 4646SOL    HW114837   3.486   0.775   1.082
 4646SOL    HW214838   3.329   0.817   1.071
 4647SOL     OW14839   6.596   0.319   5.017
 4647SOL    HW114840   6.679   0.351   4.973
 4647SOL    HW214841   6.610   0.225   5.049
 4648SOL     OW14842   2.292   6.243   3.482
 4648SOL    HW114843   2.200   6.209   3.498
 4648SOL    HW214844   2.355   6.166   3.470
 4649SOL     OW14845   5.786   5.727   5.860
 4649SOL    HW114846   5.730   5.794   5.910
 4649SOL    HW214847   5.815   5.767   5.773
 4650SOL     OW14848   6.502   4.738   1.243
 4650SOL    HW114849   6.437   4.676   1.287
 4650SOL    HW214850   6.567   4.772   1.311
 4651SOL     OW14851   5.876   2.309   2.096
 4651SOL    HW114852   5.926   2.382   2.049
 4651SOL    HW214853   5.818   2.261   2.031
 4652SOL     OW14854   0.155   6.147   5.571
 4652SOL    HW114855   0.162   6.047   5.568
 4652SOL    HW214856   0.235   6.188   5.528
 4653SOL     OW14857   1.275   4.804   0.075
 4653SOL    HW114858   1.194   4.847   0.035
 4653SOL    HW214859   1.354   4.864   0.062
 4654SOL     OW14860   1.364   1.846   0.150
 4654SOL    HW114861   1.388   1.846   0.053
 4654SOL    HW214862   1.438   1.803   0.202
 4655SOL     OW14863   0.557   4.987   4.005
 4655SOL    HW114864   0.610   4.936   3.938
 4655SOL    HW214865   0.578   5.085   3.998
 4656SOL     OW14866   2.723   0.288   3.144
 4656SOL    HW114867   2.721   0.188   3.141
 4656SOL    HW214868   2.759   0.323   3.057
 4657SOL     OW14869   6.312   0.804   6.155
 4657SOL    HW114870   6.229   0.748   6.163
 4657SOL    HW214871   6.354   0.813   6.246
 4658SOL     OW14872   5.395   0.198   3.527
 4658SOL    HW114873   5.403   0.294   3.553
 4658SOL    HW214874   5.360   0.145   3.605
 4659SOL     OW14875   2.113   3.463   4.604
 4659SOL    HW114876   2.073   3.459   4.695
 4659SOL    HW214877   2.141   3.557   4.583
 4660SOL     OW14878   6.524   1.179   5.208
 4660SOL    HW114879   6.567   1.269   5.203
 4660SOL    HW214880   6.578   1.114   5.156
 4661SOL     OW14881   3.985   3.158   3.871
 4661SOL    HW114882   4.076   3.194   3.849
 4661SOL    HW214883   3.957   3.093   3.801
 4662SOL     OW14884   6.245   6.263   4.278
 4662SOL    HW114885   6.309   6.314   4.221
 4662SOL    HW214886   6.233   6.171   4.240
 4663SOL     OW14887   0.856   2.401   2.439
 4663SOL    HW114888   0.829   2.373   2.347
 4663SOL    HW214889   0.806   2.348   2.507
 4664SOL     OW14890   3.601   4.154   0.013
 4664SOL    HW114891   3.602   4.069   6.980
 4664SOL    HW214892   3.539   4.219   6.989
 4665SOL     OW14893   5.780   0.161   5.737
 4665SOL    HW114894   5.778   0.246   5.790
 4665SOL    HW214895   5.687   0.132   5.717
 4666SOL     OW14896   1.902   1.427   0.448
 4666SOL    HW114897   1.913   1.330   0.425
 4666SOL    HW214898   1.987   1.476   0.426
 4667SOL     OW14899   0.408   6.065   3.911
 4667SOL    HW114900   0.365   6.014   3.986
 4667SOL    HW214901   0.352   6.056   3.829
 4668SOL     OW14902   5.274   0.732   4.876
 4668SOL    HW114903   5.348   0.796   4.900
 4668SOL    HW214904   5.226   0.704   4.959
 4669SOL     OW14905   2.059   1.835   2.273
 4669SOL    HW114906   2.035   1.929   2.250
 4669SOL    HW214907   2.112   1.795   2.198
 4670SOL     OW14908   2.235   1.812   4.272
 4670SOL    HW114909   2.197   1.788   4.182
 4670SOL    HW214910   2.171   1.783   4.344
 4671SOL     OW14911   5.995   1.900   2.782
 4671SOL    HW114912   5.959   1.979   2.732
 4671SOL    HW214913   5.948   1.817   2.752
 4672SOL     OW14914   2.869   2.311   5.212
 4672SOL    HW114915   2.854   2.220   5.173
 4672SOL    HW214916   2.965   2.337   5.200
 4673SOL     OW14917   5.357   0.531   2.159
 4673SOL    HW114918   5.264   0.497   2.147
 4673SOL    HW214919   5.354   0.623   2.198
 4674SOL     OW14920   4.711   6.369   5.127
 4674SOL    HW114921   4.708   6.468   5.111
 4674SOL    HW214922   4.701   6.321   5.040
 4675SOL     OW14923   0.703   4.424   6.736
 4675SOL    HW114924   0.720   4.417   6.638
 4675SOL    HW214925   0.780   4.384   6.786
 4676SOL     OW14926   1.105   4.350   3.891
 4676SOL    HW114927   1.191   4.305   3.868
 4676SOL    HW214928   1.038   4.282   3.921
 4677SOL     OW14929   1.303   3.388   0.765
 4677SOL    HW114930   1.244   3.317   0.725
 4677SOL    HW214931   1.398   3.371   0.738
 4678SOL     OW14932   1.134   2.939   1.341
 4678SOL    HW114933   1.184   3.016   1.301
 4678SOL    HW214934   1.042   2.970   1.368
 4679SOL     OW14935   4.561   0.512   2.562
 4679SOL    HW114936   4.510   0.499   2.648
 4679SOL    HW214937   4.498   0.546   2.492
 4680SOL     OW14938   2.125   0.842   6.438
 4680SOL    HW114939   2.089   0.917   6.382
 4680SOL    HW214940   2.215   0.868   6.474
 4681SOL     OW14941   4.492   5.671   2.441
 4681SOL    HW114942   4.440   5.585   2.438
 4681SOL    HW214943   4.556   5.674   2.364
 4682SOL     OW14944   3.519   3.241   6.068
 4682SOL    HW114945   3.567   3.169   6.019
 4682SOL    HW214946   3.441   3.203   6.117
 4683SOL     OW14947   6.732   4.291   4.022
 4683SOL    HW114948   6.813   4.267   4.076
 4683SOL    HW214949   6.692   4.208   3.983
 4684SOL     OW14950   5.599   0.159   5.484
 4684SOL    HW114951   5.683   0.192   5.440
 4684SOL    HW214952   5.597   0.060   5.481
 4685SOL     OW14953   3.126   4.081   4.387
 4685SOL    HW114954   3.220   4.049   4.390
 4685SOL    HW214955   3.098   4.112   4.478
 4686SOL     OW14956   1.410   6.948   6.998
 4686SOL    HW114957   1.465   6.910   0.052
 4686SOL    HW214958   1.322   6.980   0.015
 4687SOL     OW14959   1.602   0.715   2.593
 4687SOL    HW114960   1.668   0.783   2.622
 4687SOL    HW214961   1.536   0.757   2.531
 4688SOL     OW14962   4.796   2.830   4.893
 4688SOL    HW114963   4.793   2.930   4.892
 4688SOL    HW214964   4.748   2.796   4.974
 4689SOL     OW14965   6.766   0.954   1.305
 4689SOL    HW114966   6.739   1.048   1.322
 4689SOL    HW214967   6.865   0.949   1.291
 4690SOL     OW14968   3.651   2.514   0.958
 4690SOL    HW114969   3.694   2.428   0.929
 4690SOL    HW214970   3.602   2.498   1.044
 4691SOL     OW14971   6.424   3.639   1.935
 4691SOL    HW114972   6.505   3.661   1.990
 4691SOL    HW214973   6.364   3.579   1.987
 4692SOL     OW14974   5.358   3.014   2.461
 4692SOL    HW114975   5.397   3.024   2.369
 4692SOL    HW214976   5.428   3.033   2.529
 4693SOL     OW14977   0.373   0.339   3.616
 4693SOL    HW114978   0.414   0.349   3.525
 4693SOL    HW214979   0.424   0.270   3.668
 4694SOL     OW14980   2.236   6.615   6.034
 4694SOL    HW114981   2.323   6.596   6.078
 4694SOL    HW214982   2.250   6.669   5.951
 4695SOL     OW14983   2.111   4.781   2.076
 4695SOL    HW114984   2.204   4.808   2.051
 4695SOL    HW214985   2.068   4.733   1.999
 4696SOL     OW14986   1.882   6.479   5.957
 4696SOL    HW114987   1.851   6.408   5.893
 4696SOL    HW214988   1.926   6.435   6.036
 4697SOL     OW14989   4.558   5.607   0.721
 4697SOL    HW114990   4.482   5.672   0.715
 4697SOL    HW214991   4.582   5.591   0.817
 4698SOL     OW14992   5.294   1.345   4.506
 4698SOL    HW114993   5.215   1.302   4.550
 4698SOL    HW214994   5.272   1.439   4.482
 4699SOL     OW14995   0.931   1.501   2.544
 4699SOL    HW114996   1.012   1.559   2.553
 4699SOL    HW214997   0.873   1.511   2.625
 4700SOL     OW14998   6.317   1.925   3.207
 4700SOL    HW114999   6.298   1.997   3.273
 4700SOL    HW215000   6.284   1.952   3.117
 4701SOL     OW15001   3.019   2.639   1.738
 4701SOL    HW115002   3.018   2.555   1.791
 4701SOL    HW215003   2.926   2.673   1.727
 4702SOL     OW15004   6.462   4.951   1.055
 4702SOL    HW115005   6.391   4.985   0.993
 4702SOL    HW215006   6.425   4.878   1.111
 4703SOL     OW15007   0.142   4.936   3.572
 4703SOL    HW115008   0.133   4.954   3.474
 4703SOL    HW215009   0.097   5.008   3.624
 4704SOL     OW15010   1.737   4.727   4.836
 4704SOL    HW115011   1.654   4.754   4.885
 4704SOL    HW215012   1.815   4.735   4.898
 4705SOL     OW15013   3.193   2.008   1.912
 4705SOL    HW115014   3.248   2.092   1.907
 4705SOL    HW215015   3.232   1.939   1.851
 4706SOL     OW15016   1.949   2.097   1.250
 4706SOL    HW115017   1.941   1.998   1.253
 4706SOL    HW215018   1.866   2.139   1.286
 4707SOL     OW15019   1.929   5.387   1.887
 4707SOL    HW115020   1.982   5.471   1.891
 4707SOL    HW215021   1.883   5.380   1.799
 4708SOL     OW15022   2.102   2.841   6.456
 4708SOL    HW115023   2.030   2.772   6.443
 4708SOL    HW215024   2.065   2.918   6.507
 4709SOL     OW15025   5.594   3.691   4.921
 4709SOL    HW115026   5.631   3.696   5.013
 4709SOL    HW215027   5.614   3.777   4.873
 4710SOL     OW15028   5.795   5.656   5.421
 4710SOL    HW115029   5.790   5.663   5.322
 4710SOL    HW215030   5.797   5.559   5.447
 4711SOL     OW15031   5.146   4.566   3.004
 4711SOL    HW115032   5.246   4.564   3.008
 4711SOL    HW215033   5.108   4.538   3.092
 4712SOL     OW15034   3.899   4.688   5.620
 4712SOL    HW115035   3.975   4.738   5.661
 4712SOL    HW215036   3.860   4.742   5.545
 4713SOL     OW15037   5.623   4.548   0.832
 4713SOL    HW115038   5.534   4.558   0.875
 4713SOL    HW215039   5.613   4.553   0.733
 4714SOL     OW15040   4.353   1.808   5.887
 4714SOL    HW115041   4.302   1.724   5.871
 4714SOL    HW215042   4.396   1.805   5.978
 4715SOL     OW15043   6.722   1.767   2.207
 4715SOL    HW115044   6.687   1.857   2.179
 4715SOL    HW215045   6.806   1.779   2.259
 4716SOL     OW15046   3.550   4.288   5.625
 4716SOL    HW115047   3.462   4.300   5.670
 4716SOL    HW215048   3.622   4.333   5.678
 4717SOL     OW15049   2.040   5.043   5.876
 4717SOL    HW115050   2.106   5.076   5.808
 4717SOL    HW215051   1.980   4.975   5.833
 4718SOL     OW15052   4.885   3.998   2.524
 4718SOL    HW115053   4.935   4.004   2.438
 4718SOL    HW215054   4.816   4.071   2.527
 4719SOL     OW15055   6.037   3.917   3.884
 4719SOL    HW115056   6.002   4.009   3.869
 4719SOL    HW215057   6.005   3.857   3.811
 4720SOL     OW15058   1.143   2.110   6.396
 4720SOL    HW115059   1.178   2.169   6.469
 4720SOL    HW215060   1.220   2.066   6.350
 4721SOL     OW15061   0.313   2.774   2.607
 4721SOL    HW115062   0.379   2.702   2.587
 4721SOL    HW215063   0.343   2.827   2.686
 4722SOL     OW15064   1.352   5.512   5.736
 4722SOL    HW115065   1.418   5.586   5.724
 4722SOL    HW215066   1.319   5.512   5.831
 4723SOL     OW15067   2.720   5.031   6.542
 4723SOL    HW115068   2.663   4.956   6.576
 4723SOL    HW215069   2.671   5.081   6.471
 4724SOL     OW15070   0.264   0.027   4.201
 4724SOL    HW115071   0.230   0.099   4.263
 4724SOL    HW215072   0.273   6.962   4.251
 4725SOL     OW15073   6.400   5.088   1.458
 4725SOL    HW115074   6.326   5.023   1.441
 4725SOL    HW215075   6.479   5.064   1.402
 4726SOL     OW15076   1.578   2.824   5.527
 4726SOL    HW115077   1.558   2.753   5.460
 4726SOL    HW215078   1.676   2.823   5.548
 4727SOL     OW15079   6.272   5.615   1.520
 4727SOL    HW115080   6.197   5.667   1.563
 4727SOL    HW215081   6.347   5.677   1.499
 4728SOL     OW15082   5.016   0.508   3.421
 4728SOL    HW115083   4.929   0.525   3.376
 4728SOL    HW215084   5.012   0.540   3.516
 4729SOL     OW15085   0.110   1.013   2.618
 4729SOL    HW115086   0.165   1.093   2.644
 4729SOL    HW215087   0.021   1.019   2.662
 4730SOL     OW15088   3.183   0.755   3.722
 4730SOL    HW115089   3.150   0.788   3.811
 4730SOL    HW215090   3.146   0.812   3.649
 4731SOL     OW15091   3.412   6.670   1.987
 4731SOL    HW115092   3.408   6.752   2.044
 4731SOL    HW215093   3.388   6.693   1.893
 4732SOL     OW15094   0.206   4.967   4.807
 4732SOL    HW115095   0.243   5.014   4.887
 4732SOL    HW215096   0.266   4.984   4.729
 4733SOL     OW15097   1.297   4.098   3.071
 4733SOL    HW115098   1.286   4.198   3.065
 4733SOL    HW215099   1.337   4.064   2.986
 4734SOL     OW15100   4.579   4.057   6.545
 4734SOL    HW115101   4.525   3.973   6.532
 4734SOL    HW215102   4.669   4.033   6.583
 4735SOL     OW15103   6.786   0.481   5.190
 4735SOL    HW115104   6.775   0.571   5.231
 4735SOL    HW215105   6.881   0.468   5.161
 4736SOL     OW15106   6.303   0.639   4.546
 4736SOL    HW115107   6.331   0.579   4.621
 4736SOL    HW215108   6.362   0.624   4.466
 4737SOL     OW15109   2.399   5.234   0.119
 4737SOL    HW115110   2.358   5.308   0.172
 4737SOL    HW215111   2.401   5.150   0.173
 4738SOL     OW15112   0.361   5.398   3.615
 4738SOL    HW115113   0.363   5.388   3.715
 4738SOL    HW215114   0.297   5.331   3.577
 4739SOL     OW15115   5.738   3.588   3.494
 4739SOL    HW115116   5.674   3.524   3.536
 4739SOL    HW215117   5.690   3.674   3.473
 4740SOL     OW15118   2.061   6.727   0.913
 4740SOL    HW115119   2.077   6.712   0.815
 4740SOL    HW215120   2.112   6.809   0.942
 4741SOL     OW15121   5.472   4.625   1.662
 4741SOL    HW115122   5.543   4.668   1.606
 4741SOL    HW215123   5.422   4.558   1.608
 4742SOL     OW15124   2.088   5.659   1.905
 4742SOL    HW115125   2.072   5.726   1.977
 4742SOL    HW215126   2.184   5.663   1.876
 4743SOL     OW15127   2.736   3.934   0.362
 4743SOL    HW115128   2.751   3.866   0.291
 4743SOL    HW215129   2.821   3.948   0.414
 4744SOL     OW15130   2.805   1.802   5.718
 4744SOL    HW115131   2.882   1.850   5.678
 4744SOL    HW215132   2.788   1.836   5.811
 4745SOL     OW15133   4.527   5.649   4.339
 4745SOL    HW115134   4.510   5.729   4.396
 4745SOL    HW215135   4.444   5.628   4.286
 4746SOL     OW15136   5.658   1.384   0.961
 4746SOL    HW115137   5.603   1.359   1.042
 4746SOL    HW215138   5.703   1.472   0.976
 4747SOL     OW15139   0.680   2.844   2.388
 4747SOL    HW115140   0.762   2.897   2.408
 4747SOL    HW215141   0.622   2.896   2.325
 4748SOL     OW15142   2.296   6.428   0.404
 4748SOL    HW115143   2.226   6.390   0.465
 4748SOL    HW215144   2.340   6.505   0.448
 4749SOL     OW15145   3.631   0.994   6.876
 4749SOL    HW115146   3.594   0.969   6.787
 4749SOL    HW215147   3.594   0.932   6.946
 4750SOL     OW15148   0.554   2.022   5.140
 4750SOL    HW115149   0.549   2.118   5.167
 4750SOL    HW215150   0.599   1.969   5.211
 4751SOL     OW15151   1.542   4.264   6.932
 4751SOL    HW115152   1.628   4.256   6.982
 4751SOL    HW215153   1.479   4.322   6.982
 4752SOL     OW15154   2.063   5.935   1.244
 4752SOL    HW115155   2.061   5.994   1.325
 4752SOL    HW215156   1.994   5.966   1.179
 4753SOL     OW15157   0.306   0.927   6.288
 4753SOL    HW115158   0.399   0.892   6.297
 4753SOL    HW215159   0.308   1.025   6.266
 4754SOL     OW15160   1.545   1.398   6.123
 4754SOL    HW115161   1.472   1.344   6.165
 4754SOL    HW215162   1.507   1.454   6.050
 4755SOL     OW15163   3.108   6.740   2.851
 4755SOL    HW115164   3.069   6.707   2.765
 4755SOL    HW215165   3.148   6.831   2.837
 4756SOL     OW15166   5.558   2.241   1.435
 4756SOL    HW115167   5.630   2.297   1.395
 4756SOL    HW215168   5.495   2.211   1.362
 4757SOL     OW15169   2.437   2.501   0.581
 4757SOL    HW115170   2.529   2.536   0.600
 4757SOL    HW215171   2.411   2.436   0.653
 4758SOL     OW15172   6.334   4.026   6.419
 4758SOL    HW115173   6.301   4.118   6.397
 4758SOL    HW215174   6.325   3.967   6.339
 4759SOL     OW15175   7.003   4.234   6.394
 4759SOL    HW115176   0.059   4.293   6.368
 4759SOL    HW215177   7.007   4.216   6.493
 4760SOL     OW15178   1.285   2.663   0.306
 4760SOL    HW115179   1.274   2.733   0.377
 4760SOL    HW215180   1.231   2.689   0.225
 4761SOL     OW15181   2.782   6.033   6.298
 4761SOL    HW115182   2.867   6.083   6.314
 4761SOL    HW215183   2.714   6.060   6.366
 4762SOL     OW15184   3.758   0.171   2.623
 4762SOL    HW115185   3.743   0.166   2.721
 4762SOL    HW215186   3.735   0.084   2.580
 4763SOL     OW15187   4.932   4.943   5.219
 4763SOL    HW115188   5.001   4.992   5.271
 4763SOL    HW215189   4.850   4.999   5.211
 4764SOL     OW15190   3.523   3.804   3.683
 4764SOL    HW115191   3.557   3.847   3.600
 4764SOL    HW215192   3.585   3.731   3.711
 4765SOL     OW15193   5.700   5.503   6.375
 4765SOL    HW115194   5.713   5.602   6.373
 4765SOL    HW215195   5.709   5.466   6.282
 4766SOL     OW15196   2.794   1.399   3.201
 4766SOL    HW115197   2.782   1.447   3.288
 4766SOL    HW215198   2.871   1.335   3.209
 4767SOL     OW15199   4.529   0.641   6.752
 4767SOL    HW115200   4.446   0.586   6.742
 4767SOL    HW215201   4.514   0.731   6.711
 4768SOL     OW15202   1.769   0.529   5.262
 4768SOL    HW115203   1.833   0.606   5.257
 4768SOL    HW215204   1.745   0.500   5.169
 4769SOL     OW15205   4.705   0.716   1.782
 4769SOL    HW115206   4.655   0.798   1.754
 4769SOL    HW215207   4.670   0.685   1.871
 4770SOL     OW15208   2.171   1.015   4.167
 4770SOL    HW115209   2.080   0.972   4.163
 4770SOL    HW215210   2.226   0.984   4.089
 4771SOL     OW15211   3.720   4.462   5.739
 4771SOL    HW115212   3.718   4.424   5.831
 4771SOL    HW215213   3.813   4.494   5.717
 4772SOL     OW15214   3.281   2.700   0.101
 4772SOL    HW115215   3.290   2.653   0.013
 4772SOL    HW215216   3.219   2.778   0.090
 4773SOL     OW15217   6.827   5.081   5.081
 4773SOL    HW115218   6.887   5.077   5.161
 4773SOL    HW215219   6.768   5.000   5.080
 4774SOL     OW15220   1.856   4.426   7.013
 4774SOL    HW115221   1.898   4.335   7.009
 4774SOL    HW215222   1.827   4.445   0.086
 4775SOL     OW15223   2.049   2.594   2.134
 4775SOL    HW115224   2.131   2.538   2.117
 4775SOL    HW215225   2.074   2.674   2.187
 4776SOL     OW15226   4.151   5.152   1.857
 4776SOL    HW115227   4.127   5.237   1.810
 4776SOL    HW215228   4.172   5.081   1.789
 4777SOL     OW15229   2.411   4.252   1.521
 4777SOL    HW115230   2.438   4.291   1.609
 4777SOL    HW215231   2.395   4.154   1.531
 4778SOL     OW15232   5.594   3.481   2.661
 4778SOL    HW115233   5.663   3.481   2.733
 4778SOL    HW215234   5.561   3.574   2.646
 4779SOL     OW15235   5.284   1.283   2.909
 4779SOL    HW115236   5.215   1.225   2.865
 4779SOL    HW215237   5.331   1.337   2.839
 4780SOL     OW15238   2.029   1.275   5.787
 4780SOL    HW115239   2.028   1.189   5.736
 4780SOL    HW215240   1.936   1.297   5.817
 4781SOL     OW15241   1.978   5.544   2.893
 4781SOL    HW115242   2.038   5.491   2.953
 4781SOL    HW215243   2.028   5.569   2.810
 4782SOL     OW15244   6.089   6.214   7.017
 4782SOL    HW115245   6.081   6.303   6.973
 4782SOL    HW215246   6.101   6.144   6.946
 4783SOL     OW15247   6.085   3.817   2.486
 4783SOL    HW115248   6.078   3.857   2.395
 4783SOL    HW215249   5.993   3.792   2.519
 4784SOL     OW15250   5.504   4.706   5.060
 4784SOL    HW115251   5.568   4.757   5.001
 4784SOL    HW215252   5.478   4.763   5.138
 4785SOL     OW15253   5.641   6.593   0.753
 4785SOL    HW115254   5.596   6.508   0.724
 4785SOL    HW215255   5.740   6.581   0.749
 4786SOL     OW15256   1.016   4.032   2.167
 4786SOL    HW115257   1.090   3.979   2.125
 4786SOL    HW215258   1.051   4.122   2.195
 4787SOL     OW15259   4.076   2.024   3.127
 4787SOL    HW115260   3.989   1.975   3.120
 4787SOL    HW215261   4.147   1.960   3.156
 4788SOL     OW15262   2.158   0.097   4.541
 4788SOL    HW115263   2.104   0.035   4.597
 4788SOL    HW215264   2.151   0.190   4.577
 4789SOL     OW15265   5.378   6.138   0.153
 4789SOL    HW115266   5.407   6.166   0.244
 4789SOL    HW215267   5.297   6.190   0.126
 4790SOL     OW15268   5.209   0.140   6.705
 4790SOL    HW115269   5.202   0.042   6.686
 4790SOL    HW215270   5.209   0.154   6.804
 4791SOL     OW15271   4.379   2.181   3.421
 4791SOL    HW115272   4.467   2.141   3.397
 4791SOL    HW215273   4.314   2.165   3.347
 4792SOL     OW15274   3.197   3.279   0.884
 4792SOL    HW115275   3.152   3.191   0.868
 4792SOL    HW215276   3.277   3.266   0.943
 4793SOL     OW15277   0.096   0.755   6.924
 4793SOL    HW115278   0.074   0.850   6.946
 4793SOL    HW215279   0.192   0.737   6.945
 4794SOL     OW15280   5.561   1.688   1.814
 4794SOL    HW115281   5.524   1.774   1.848
 4794SOL    HW215282   5.605   1.639   1.889
 4795SOL     OW15283   5.811   2.577   4.120
 4795SOL    HW115284   5.866   2.653   4.085
 4795SOL    HW215285   5.725   2.571   4.068
 4796SOL     OW15286   5.141   3.825   0.416
 4796SOL    HW115287   5.163   3.840   0.512
 4796SOL    HW215288   5.119   3.913   0.373
 4797SOL     OW15289   1.046   5.965   4.630
 4797SOL    HW115290   1.033   5.941   4.534
 4797SOL    HW215291   1.106   5.898   4.673
 4798SOL     OW15292   6.860   4.992   5.927
 4798SOL    HW115293   6.815   4.922   5.872
 4798SOL    HW215294   6.798   5.021   6.000
 4799SOL     OW15295   4.955   1.588   4.047
 4799SOL    HW115296   4.976   1.539   4.132
 4799SOL    HW215297   4.895   1.532   3.991
 4800SOL     OW15298   1.912   3.006   3.787
 4800SOL    HW115299   1.938   2.992   3.692
 4800SOL    HW215300   1.975   3.070   3.831
 4801SOL     OW15301   6.893   2.094   0.542
 4801SOL    HW115302   6.827   2.044   0.598
 4801SOL    HW215303   6.949   2.030   0.491
 4802SOL     OW15304   1.385   0.567   1.852
 4802SOL    HW115305   1.437   0.515   1.785
 4802SOL    HW215306   1.440   0.643   1.885
 4803SOL     OW15307   1.012   7.009   0.849
 4803SOL    HW115308   0.976   0.069   0.897
 4803SOL    HW215309   1.072   6.958   0.912
 4804SOL     OW15310   4.596   5.568   0.382
 4804SOL    HW115311   4.652   5.622   0.446
 4804SOL    HW215312   4.650   5.492   0.346
 4805SOL     OW15313   0.371   6.918   1.870
 4805SOL    HW115314   0.289   6.862   1.868
 4805SOL    HW215315   0.354   7.000   1.925
 4806SOL     OW15316   0.175   2.238   3.896
 4806SOL    HW115317   0.177   2.144   3.861
 4806SOL    HW215318   0.255   2.288   3.862
 4807SOL     OW15319   0.916   0.355   2.655
 4807SOL    HW115320   0.982   0.280   2.653
 4807SOL    HW215321   0.880   0.371   2.564
 4808SOL     OW15322   6.516   2.309   0.390
 4808SOL    HW115323   6.431   2.342   0.432
 4808SOL    HW215324   6.580   2.386   0.380
 4809SOL     OW15325   4.752   0.103   0.772
 4809SOL    HW115326   4.736   0.199   0.748
 4809SOL    HW215327   4.811   0.061   0.704
 4810SOL     OW15328   1.973   6.239   0.023
 4810SOL    HW115329   1.881   6.215   7.014
 4810SOL    HW215330   1.969   6.283   0.113
 4811SOL     OW15331   5.216   4.087   4.087
 4811SOL    HW115332   5.301   4.046   4.121
 4811SOL    HW215333   5.141   4.021   4.096
 4812SOL     OW15334   6.382   5.127   4.184
 4812SOL    HW115335   6.340   5.113   4.095
 4812SOL    HW215336   6.356   5.216   4.220
 4813SOL     OW15337   5.632   3.271   3.091
 4813SOL    HW115338   5.550   3.223   3.059
 4813SOL    HW215339   5.700   3.204   3.119
 4814SOL     OW15340   6.934   2.932   1.401
 4814SOL    HW115341   6.876   2.986   1.340
 4814SOL    HW215342   6.912   2.955   1.496
 4815SOL     OW15343   4.950   0.365   3.732
 4815SOL    HW115344   4.851   0.375   3.743
 4815SOL    HW215345   4.969   0.305   3.654
 4816SOL     OW15346   5.580   4.604   3.740
 4816SOL    HW115347   5.623   4.679   3.690
 4816SOL    HW215348   5.490   4.632   3.773
 4817SOL     OW15349   6.144   1.806   6.839
 4817SOL    HW115350   6.114   1.901   6.852
 4817SOL    HW215351   6.180   1.771   6.926
 4818SOL     OW15352   6.918   5.996   3.602
 4818SOL    HW115353   6.954   6.023   3.513
 4818SOL    HW215354   6.978   6.029   3.675
 4819SOL     OW15355   1.757   3.151   0.787
 4819SOL    HW115356   1.758   3.142   0.687
 4819SOL    HW215357   1.810   3.076   0.827
 4820SOL     OW15358   6.834   3.808   1.920
 4820SOL    HW115359   6.764   3.805   1.991
 4820SOL    HW215360   6.906   3.872   1.948
 4821SOL     OW15361   0.551   5.584   3.970
 4821SOL    HW115362   0.645   5.618   3.971
 4821SOL    HW215363   0.503   5.620   3.890
 4822SOL     OW15364   2.521   4.590   4.412
 4822SOL    HW115365   2.583   4.649   4.361
 4822SOL    HW215366   2.427   4.608   4.384
 4823SOL     OW15367   1.323   2.333   0.654
 4823SOL    HW115368   1.355   2.419   0.615
 4823SOL    HW215369   1.333   2.260   0.586
 4824SOL     OW15370   6.547   1.988   6.997
 4824SOL    HW115371   6.485   2.047   0.028
 4824SOL    HW215372   6.604   1.936   0.041
 4825SOL     OW15373   1.036   6.405   3.605
 4825SOL    HW115374   0.996   6.318   3.578
 4825SOL    HW215375   0.980   6.480   3.569
 4826SOL     OW15376   4.380   6.700   0.593
 4826SOL    HW115377   4.475   6.715   0.567
 4826SOL    HW215378   4.363   6.602   0.603
 4827SOL     OW15379   5.853   1.406   1.486
 4827SOL    HW115380   5.925   1.423   1.553
 4827SOL    HW215381   5.764   1.424   1.528
 4828SOL     OW15382   5.134   0.990   6.597
 4828SOL    HW115383   5.096   0.911   6.645
 4828SOL    HW215384   5.232   0.999   6.619
 4829SOL     OW15385   4.304   5.809   5.090
 4829SOL    HW115386   4.381   5.857   5.047
 4829SOL    HW215387   4.335   5.763   5.173
 4830SOL     OW15388   1.809   6.830   3.342
 4830SOL    HW115389   1.811   6.863   3.436
 4830SOL    HW215390   1.899   6.795   3.317
 4831SOL     OW15391   3.061   4.946   5.433
 4831SOL    HW115392   3.049   4.902   5.344
 4831SOL    HW215393   3.155   4.978   5.441
 4832SOL     OW15394   3.958   3.232   4.585
 4832SOL    HW115395   4.022   3.235   4.508
 4832SOL    HW215396   3.926   3.139   4.599
 4833SOL     OW15397   5.739   2.343   5.234
 4833SOL    HW115398   5.824   2.366   5.186
 4833SOL    HW215399   5.753   2.354   5.333
 4834SOL     OW15400   0.745   5.112   0.971
 4834SOL    HW115401   0.837   5.077   0.992
 4834SOL    HW215402   0.749   5.166   0.887
 4835SOL     OW15403   6.787   3.517   6.092
 4835SOL    HW115404   6.751   3.534   6.184
 4835SOL    HW215405   6.875   3.471   6.098
 4836SOL     OW15406   4.674   0.962   5.863
 4836SOL    HW115407   4.679   0.964   5.763
 4836SOL    HW215408   4.763   0.986   5.902
 4837SOL     OW15409   1.220   3.643   4.907
 4837SOL    HW115410   1.239   3.707   4.833
 4837SOL    HW215411   1.234   3.549   4.875
 4838SOL     OW15412   2.292   4.201   5.930
 4838SOL    HW115413   2.279   4.176   6.025
 4838SOL    HW215414   2.361   4.141   5.889
 4839SOL     OW15415   2.508   1.099   2.103
 4839SOL    HW115416   2.524   1.024   2.167
 4839SOL    HW215417   2.516   1.065   2.009
 4840SOL     OW15418   4.730   2.382   3.398
 4840SOL    HW115419   4.760   2.348   3.309
 4840SOL    HW215420   4.663   2.455   3.384
 4841SOL     OW15421   2.981   5.437   2.988
 4841SOL    HW115422   2.937   5.369   3.047
 4841SOL    HW215423   3.051   5.486   3.041
 4842SOL     OW15424   4.261   5.418   3.500
 4842SOL    HW115425   4.217   5.433   3.411
 4842SOL    HW215426   4.337   5.482   3.511
 4843SOL     OW15427   5.428   2.132   0.394
 4843SOL    HW115428   5.493   2.177   0.333
 4843SOL    HW215429   5.378   2.061   0.344
 4844SOL     OW15430   1.021   5.123   6.611
 4844SOL    HW115431   0.937   5.112   6.558
 4844SOL    HW215432   1.062   5.033   6.627
 4845SOL     OW15433   5.443   4.062   5.180
 4845SOL    HW115434   5.365   4.040   5.122
 4845SOL    HW215435   5.421   4.142   5.236
 4846SOL     OW15436   6.615   4.371   4.490
 4846SOL    HW115437   6.548   4.299   4.507
 4846SOL    HW215438   6.688   4.335   4.432
 4847SOL     OW15439   2.893   7.010   0.330
 4847SOL    HW115440   2.914   6.979   0.237
 4847SOL    HW215441   2.879   6.931   0.389
 4848SOL     OW15442   4.672   1.190   3.900
 4848SOL    HW115443   4.675   1.113   3.836
 4848SOL    HW215444   4.665   1.155   3.993
 4849SOL     OW15445   1.629   5.542   2.185
 4849SOL    HW115446   1.542   5.558   2.139
 4849SOL    HW215447   1.620   5.562   2.283
 4850SOL     OW15448   3.549   6.819   2.274
 4850SOL    HW115449   3.596   6.894   2.229
 4850SOL    HW215450   3.601   6.735   2.262
 4851SOL     OW15451   4.491   4.729   6.827
 4851SOL    HW115452   4.557   4.733   6.902
 4851SOL    HW215453   4.536   4.757   6.742
 4852SOL     OW15454   5.003   4.027   5.562
 4852SOL    HW115455   4.963   4.086   5.491
 4852SOL    HW215456   5.053   3.953   5.518
 4853SOL     OW15457   3.934   0.503   2.849
 4853SOL    HW115458   3.925   0.603   2.847
 4853SOL    HW215459   4.015   0.478   2.902
 4854SOL     OW15460   4.148   6.775   2.389
 4854SOL    HW115461   4.231   6.825   2.365
 4854SOL    HW215462   4.172   6.691   2.438
 4855SOL     OW15463   4.264   4.998   5.579
 4855SOL    HW115464   4.354   4.968   5.612
 4855SOL    HW215465   4.195   4.976   5.648
 4856SOL     OW15466   0.961   2.680   2.367
 4856SOL    HW115467   1.032   2.677   2.437
 4856SOL    HW215468   0.895   2.606   2.383
 4857SOL     OW15469   2.559   1.956   6.040
 4857SOL    HW115470   2.541   1.858   6.034
 4857SOL    HW215471   2.642   1.978   5.989
 4858SOL     OW15472   1.868   4.853   4.650
 4858SOL    HW115473   1.819   4.790   4.710
 4858SOL    HW215474   1.846   4.832   4.555
 4859SOL     OW15475   6.487   5.472   3.382
 4859SOL    HW115476   6.477   5.373   3.397
 4859SOL    HW215477   6.485   5.519   3.470
 4860SOL     OW15478   4.198   5.434   1.104
 4860SOL    HW115479   4.148   5.401   1.184
 4860SOL    HW215480   4.162   5.523   1.076
 4861SOL     OW15481   5.994   4.860   4.612
 4861SOL    HW115482   6.074   4.818   4.568
 4861SOL    HW215483   5.912   4.839   4.559
 4862SOL     OW15484   1.773   5.491   4.458
 4862SOL    HW115485   1.848   5.536   4.410
 4862SOL    HW215486   1.804   5.459   4.547
 4863SOL     OW15487   5.837   1.322   1.809
 4863SOL    HW115488   5.880   1.411   1.791
 4863SOL    HW215489   5.738   1.331   1.803
 4864SOL     OW15490   2.070   3.003   1.423
 4864SOL    HW115491   2.097   2.909   1.443
 4864SOL    HW215492   1.991   3.002   1.362
 4865SOL     OW15493   3.770   6.657   5.082
 4865SOL    HW115494   3.678   6.695   5.091
 4865SOL    HW215495   3.802   6.668   4.987
 4866SOL     OW15496   0.615   4.909   1.620
 4866SOL    HW115497   0.643   4.827   1.571
 4866SOL    HW215498   0.576   4.975   1.556
 4867SOL     OW15499   5.774   4.883   5.932
 4867SOL    HW115500   5.826   4.847   5.855
 4867SOL    HW215501   5.768   4.813   6.003
 4868SOL     OW15502   2.073   5.930   1.789
 4868SOL    HW115503   2.146   5.957   1.726
 4868SOL    HW215504   2.009   5.870   1.742
 4869SOL     OW15505   0.650   1.898   1.766
 4869SOL    HW115506   0.604   1.985   1.785
 4869SOL    HW215507   0.626   1.831   1.836
 4870SOL     OW15508   5.910   1.288   0.957
 4870SOL    HW115509   5.908   1.216   0.887
 4870SOL    HW215510   5.817   1.305   0.991
 4871SOL     OW15511   2.039   2.626   5.537
 4871SOL    HW115512   2.129   2.598   5.503
 4871SOL    HW215513   2.021   2.579   5.624
 4872SOL     OW15514   1.888   2.659   2.547
 4872SOL    HW115515   1.847   2.736   2.498
 4872SOL    HW215516   1.823   2.624   2.615
 4873SOL     OW15517   0.634   6.688   5.846
 4873SOL    HW115518   0.609   6.734   5.930
 4873SOL    HW215519   0.556   6.685   5.784
 4874SOL     OW15520   5.641   1.919   3.846
 4874SOL    HW115521   5.585   1.837   3.849
 4874SOL    HW215522   5.641   1.962   3.937
 4875SOL     OW15523   0.083   3.037   0.262
 4875SOL    HW115524   0.150   3.012   0.332
 4875SOL    HW215525   0.060   2.957   0.207
 4876SOL     OW15526   6.595   1.153   6.935
 4876SOL    HW115527   6.502   1.187   6.926
 4876SOL    HW215528   6.605   1.106   0.003
 4877SOL     OW15529   4.703   1.999   1.262
 4877SOL    HW115530   4.694   1.966   1.356
 4877SOL    HW215531   4.685   1.924   1.198
 4878SOL     OW15532   1.179   2.935   2.216
 4878SOL    HW115533   1.211   3.014   2.267
 4878SOL    HW215534   1.251   2.865   2.215
 4879SOL     OW15535   3.497   6.094   3.449
 4879SOL    HW115536   3.466   6.141   3.531
 4879SOL    HW215537   3.581   6.043   3.470
 4880SOL     OW15538   6.330   2.012   5.953
 4880SOL    HW115539   6.379   1.932   5.987
 4880SOL    HW215540   6.232   2.002   5.970
 4881SOL     OW15541   2.876   6.144   5.785
 4881SOL    HW115542   2.905   6.141   5.689
 4881SOL    HW215543   2.952   6.173   5.842
 4882SOL     OW15544   5.862   5.751   6.718
 4882SOL    HW115545   5.915   5.825   6.758
 4882SOL    HW215546   5.802   5.711   6.787
 4883SOL     OW15547   6.092   5.867   0.223
 4883SOL    HW115548   6.095   5.967   0.217
 4883SOL    HW215549   6.177   5.833   0.264
 4884SOL     OW15550   3.535   6.259   1.447
 4884SOL    HW115551   3.463   6.326   1.465
 4884SOL    HW215552   3.624   6.305   1.447
 4885SOL     OW15553   1.691   0.545   2.063
 4885SOL    HW115554   1.642   0.624   2.028
 4885SOL    HW215555   1.735   0.570   2.149
 4886SOL     OW15556   5.972   1.015   5.631
 4886SOL    HW115557   6.059   0.976   5.662
 4886SOL    HW215558   5.980   1.115   5.629
 4887SOL     OW15559   0.176   2.054   5.434
 4887SOL    HW115560   0.230   1.994   5.493
 4887SOL    HW215561   0.101   2.002   5.393
 4888SOL     OW15562   4.362   6.081   0.913
 4888SOL    HW115563   4.267   6.049   0.915
 4888SOL    HW215564   4.366   6.173   0.874
 4889SOL     OW15565   1.471   3.414   6.438
 4889SOL    HW115566   1.480   3.322   6.476
 4889SOL    HW215567   1.493   3.413   6.341
 4890SOL     OW15568   0.010   0.562   4.509
 4890SOL    HW115569   6.960   0.592   4.445
 4890SOL    HW215570   0.085   0.628   4.510
 4891SOL     OW15571   1.264   5.148   0.860
 4891SOL    HW115572   1.216   5.109   0.782
 4891SOL    HW215573   1.352   5.102   0.872
 4892SOL     OW15574   1.887   5.669   2.165
 4892SOL    HW115575   1.920   5.757   2.131
 4892SOL    HW215576   1.792   5.656   2.136
 4893SOL     OW15577   0.336   4.533   6.438
 4893SOL    HW115578   0.307   4.495   6.527
 4893SOL    HW215579   0.405   4.604   6.453
 4894SOL     OW15580   0.645   6.822   3.505
 4894SOL    HW115581   0.652   6.920   3.525
 4894SOL    HW215582   0.548   6.796   3.501
 4895SOL     OW15583   6.529   4.446   6.701
 4895SOL    HW115584   6.551   4.366   6.646
 4895SOL    HW215585   6.602   4.462   6.768
 4896SOL     OW15586   3.970   0.724   4.381
 4896SOL    HW115587   4.026   0.712   4.463
 4896SOL    HW215588   4.024   0.770   4.310
 4897SOL     OW15589   2.556   5.331   6.928
 4897SOL    HW115590   2.521   5.414   6.885
 4897SOL    HW215591   2.508   5.315   7.015
 4898SOL     OW15592   4.944   2.919   4.272
 4898SOL    HW115593   4.895   2.850   4.218
 4898SOL    HW215594   5.029   2.879   4.308
 4899SOL     OW15595   6.750   3.732   4.412
 4899SOL    HW115596   6.683   3.793   4.454
 4899SOL    HW215597   6.794   3.779   4.335
 4900SOL     OW15598   0.408   6.645   5.709
 4900SOL    HW115599   0.365   6.692   5.632
 4900SOL    HW215600   0.346   6.647   5.787
 4901SOL     OW15601   5.783   6.158   3.432
 4901SOL    HW115602   5.804   6.219   3.356
 4901SOL    HW215603   5.707   6.197   3.485
 4902SOL     OW15604   3.698   5.029   0.751
 4902SOL    HW115605   3.738   4.994   0.836
 4902SOL    HW215606   3.601   5.005   0.747
 4903SOL     OW15607   5.928   5.070   6.330
 4903SOL    HW115608   6.022   5.077   6.297
 4903SOL    HW215609   5.887   4.985   6.298
 4904SOL     OW15610   3.018   1.087   3.458
 4904SOL    HW115611   2.974   1.172   3.484
 4904SOL    HW215612   3.000   1.017   3.528
 4905SOL     OW15613   5.872   3.661   2.579
 4905SOL    HW115614   5.772   3.661   2.581
 4905SOL    HW215615   5.907   3.625   2.665
 4906SOL     OW15616   4.718   0.287   2.082
 4906SOL    HW115617   4.653   0.278   2.157
 4906SOL    HW215618   4.750   0.197   2.053
 4907SOL     OW15619   2.768   2.692   1.545
 4907SOL    HW115620   2.685   2.715   1.495
 4907SOL    HW215621   2.761   2.599   1.582
 4908SOL     OW15622   5.185   5.074   6.407
 4908SOL    HW115623   5.281   5.051   6.388
 4908SOL    HW215624   5.173   5.173   6.400
 4909SOL     OW15625   5.832   6.322   5.873
 4909SOL    HW115626   5.744   6.370   5.874
 4909SOL    HW215627   5.864   6.311   5.779
 4910SOL     OW15628   5.272   6.524   5.365
 4910SOL    HW115629   5.199   6.511   5.297
 4910SOL    HW215630   5.265   6.616   5.403
 4911SOL     OW15631   0.252   4.394   6.665
 4911SOL    HW115632   0.182   4.330   6.694
 4911SOL    HW215633   0.342   4.365   6.699
 4912SOL     OW15634   1.891   2.894   1.249
 4912SOL    HW115635   1.871   2.958   1.174
 4912SOL    HW215636   1.883   2.800   1.215
 4913SOL     OW15637   2.966   3.275   2.001
 4913SOL    HW115638   3.001   3.187   1.971
 4913SOL    HW215639   2.971   3.281   2.101
 4914SOL     OW15640   1.320   0.081   2.701
 4914SOL    HW115641   1.353   7.011   2.730
 4914SOL    HW215642   1.397   0.135   2.668
 4915SOL     OW15643   3.618   6.696   3.875
 4915SOL    HW115644   3.629   6.622   3.809
 4915SOL    HW215645   3.633   6.784   3.829
 4916SOL     OW15646   1.330   1.303   1.986
 4916SOL    HW115647   1.299   1.273   2.076
 4916SOL    HW215648   1.397   1.377   1.997
 4917SOL     OW15649   0.956   4.669   6.505
 4917SOL    HW115650   1.031   4.674   6.439
 4917SOL    HW215651   0.979   4.603   6.577
 4918SOL     OW15652   2.426   6.677   4.206
 4918SOL    HW115653   2.429   6.610   4.280
 4918SOL    HW215654   2.470   6.762   4.236
 4919SOL     OW15655   1.879   2.918   0.875
 4919SOL    HW115656   1.928   2.904   0.789
 4919SOL    HW215657   1.852   2.830   0.913
 4920SOL     OW15658   3.632   2.004   6.578
 4920SOL    HW115659   3.588   2.016   6.489
 4920SOL    HW215660   3.573   2.038   6.650
 4921SOL     OW15661   6.713   4.784   2.432
 4921SOL    HW115662   6.792   4.807   2.489
 4921SOL    HW215663   6.654   4.864   2.423
 4922SOL     OW15664   0.640   3.080   6.384
 4922SOL    HW115665   0.570   3.059   6.316
 4922SOL    HW215666   0.724   3.109   6.339
 4923SOL     OW15667   3.275   2.235   6.536
 4923SOL    HW115668   3.293   2.313   6.477
 4923SOL    HW215669   3.191   2.189   6.506
 4924SOL     OW15670   0.073   2.813   4.284
 4924SOL    HW115671   0.085   2.905   4.321
 4924SOL    HW215672   0.144   2.795   4.216
 4925SOL     OW15673   4.460   5.047   5.080
 4925SOL    HW115674   4.405   4.984   5.134
 4925SOL    HW215675   4.550   5.058   5.122
 4926SOL     OW15676   4.249   3.468   0.554
 4926SOL    HW115677   4.223   3.564   0.545
 4926SOL    HW215678   4.175   3.410   0.521
 4927SOL     OW15679   2.992   3.868   1.918
 4927SOL    HW115680   3.008   3.914   2.005
 4927SOL    HW215681   2.923   3.796   1.931
 4928SOL     OW15682   0.033   1.714   6.921
 4928SOL    HW115683   7.005   1.740   6.838
 4928SOL    HW215684   0.132   1.725   6.907
 4929SOL     OW15685   0.727   4.228   4.654
 4929SOL    HW115686   0.683   4.277   4.730
 4929SOL    HW215687   0.773   4.293   4.594
 4930SOL     OW15688   0.247   3.670   6.845
 4930SOL    HW115689   0.208   3.739   6.784
 4930SOL    HW215690   0.249   3.706   6.938
 4931SOL     OW15691   5.291   6.972   1.064
 4931SOL    HW115692   5.380   6.972   1.109
 4931SOL    HW215693   5.297   0.005   0.979
 4932SOL     OW15694   3.580   1.602   0.929
 4932SOL    HW115695   3.549   1.689   0.889
 4932SOL    HW215696   3.565   1.604   1.028
 4933SOL     OW15697   2.792   0.184   5.208
 4933SOL    HW115698   2.770   0.128   5.128
 4933SOL    HW215699   2.713   0.189   5.268
 4934SOL     OW15700   2.119   6.121   4.942
 4934SOL    HW115701   2.172   6.175   5.007
 4934SOL    HW215702   2.042   6.078   4.989
 4935SOL     OW15703   1.967   2.426   0.460
 4935SOL    HW115704   1.937   2.495   0.526
 4935SOL    HW215705   2.067   2.418   0.464
 4936SOL     OW15706   6.586   4.174   1.508
 4936SOL    HW115707   6.539   4.104   1.563
 4936SOL    HW215708   6.679   4.143   1.487
 4937SOL     OW15709   0.739   3.855   5.079
 4937SOL    HW115710   0.823   3.909   5.075
 4937SOL    HW215711   0.743   3.782   5.011
 4938SOL     OW15712   3.764   4.153   0.867
 4938SOL    HW115713   3.734   4.192   0.780
 4938SOL    HW215714   3.765   4.053   0.860
 4939SOL     OW15715   0.919   1.344   1.255
 4939SOL    HW115716   0.914   1.391   1.167
 4939SOL    HW215717   0.925   1.412   1.329
 4940SOL     OW15718   1.754   1.562   5.165
 4940SOL    HW115719   1.822   1.500   5.126
 4940SOL    HW215720   1.750   1.549   5.264
 4941SOL     OW15721   3.943   1.977   5.987
 4941SOL    HW115722   4.009   2.021   6.048
 4941SOL    HW215723   3.856   1.965   6.036
 4942SOL     OW15724   0.562   1.097   2.294
 4942SOL    HW115725   0.654   1.074   2.328
 4942SOL    HW215726   0.497   1.093   2.369
 4943SOL     OW15727   4.969   2.671   6.353
 4943SOL    HW115728   4.922   2.691   6.267
 4943SOL    HW215729   4.987   2.756   6.401
 4944SOL     OW15730   0.840   5.115   0.536
 4944SOL    HW115731   0.834   5.157   0.626
 4944SOL    HW215732   0.756   5.065   0.516
 4945SOL     OW15733   2.411   6.920   6.265
 4945SOL    HW115734   2.388   6.917   6.168
 4945SOL    HW215735   2.343   6.974   6.314
 4946SOL     OW15736   2.859   5.576   6.886
 4946SOL    HW115737   2.926   5.540   6.821
 4946SOL    HW215738   2.877   5.538   6.977
 4947SOL     OW15739   1.126   0.256   1.317
 4947SOL    HW115740   1.069   0.186   1.360
 4947SOL    HW215741   1.143   0.329   1.383
 4948SOL     OW15742   1.608   3.009   2.253
 4948SOL    HW115743   1.575   3.006   2.158
 4948SOL    HW215744   1.563   3.085   2.301
 4949SOL     OW15745   6.397   5.042   6.372
 4949SOL    HW115746   6.476   5.058   6.431
 4949SOL    HW215747   6.403   4.951   6.331
 4950SOL     OW15748   3.953   4.194   6.017
 4950SOL    HW115749   3.873   4.231   6.065
 4950SOL    HW215750   4.009   4.142   6.081
 4951SOL     OW15751   4.999   5.208   3.473
 4951SOL    HW115752   4.956   5.221   3.384
 4951SOL    HW215753   4.929   5.191   3.542
 4952SOL     OW15754   0.907   1.256   6.778
 4952SOL    HW115755   0.888   1.184   6.711
 4952SOL    HW215756   0.990   1.305   6.753
 4953SOL     OW15757   1.521   1.243   5.827
 4953SOL    HW115758   1.467   1.190   5.761
 4953SOL    HW215759   1.459   1.292   5.889
 4954SOL     OW15760   3.390   3.623   5.217
 4954SOL    HW115761   3.461   3.658   5.156
 4954SOL    HW215762   3.313   3.589   5.164
 4955SOL     OW15763   3.889   6.365   0.078
 4955SOL    HW115764   3.961   6.297   0.096
 4955SOL    HW215765   3.829   6.370   0.158
 4956SOL     OW15766   2.470   0.436   4.403
 4956SOL    HW115767   2.508   0.390   4.483
 4956SOL    HW215768   2.545   0.472   4.347
 4957SOL     OW15769   5.852   5.479   6.839
 4957SOL    HW115770   5.920   5.506   6.771
 4957SOL    HW215771   5.894   5.416   6.904
 4958SOL     OW15772   3.564   5.133   0.243
 4958SOL    HW115773   3.512   5.111   0.161
 4958SOL    HW215774   3.652   5.174   0.216
 4959SOL     OW15775   0.863   1.670   3.465
 4959SOL    HW115776   0.843   1.604   3.392
 4959SOL    HW215777   0.869   1.762   3.426
 4960SOL     OW15778   4.916   4.103   4.489
 4960SOL    HW115779   4.939   4.053   4.406
 4960SOL    HW215780   4.934   4.046   4.569
 4961SOL     OW15781   3.656   2.841   2.213
 4961SOL    HW115782   3.592   2.769   2.186
 4961SOL    HW215783   3.698   2.880   2.132
 4962SOL     OW15784   1.673   2.433   0.456
 4962SOL    HW115785   1.754   2.405   0.405
 4962SOL    HW215786   1.601   2.365   0.444
 4963SOL     OW15787   0.632   3.799   6.649
 4963SOL    HW115788   0.627   3.847   6.736
 4963SOL    HW215789   0.571   3.720   6.650
 4964SOL     OW15790   1.300   5.032   4.168
 4964SOL    HW115791   1.246   5.096   4.114
 4964SOL    HW215792   1.295   5.056   4.264
 4965SOL     OW15793   2.255   0.395   3.225
 4965SOL    HW115794   2.313   0.385   3.306
 4965SOL    HW215795   2.187   0.466   3.242
 4966SOL     OW15796   4.256   6.803   5.174
 4966SOL    HW115797   4.243   6.729   5.239
 4966SOL    HW215798   4.193   6.878   5.194
 4967SOL     OW15799   4.434   4.600   3.379
 4967SOL    HW115800   4.419   4.544   3.460
 4967SOL    HW215801   4.406   4.694   3.397
 4968SOL     OW15802   6.524   3.026   3.630
 4968SOL    HW115803   6.462   2.947   3.636
 4968SOL    HW215804   6.591   3.010   3.558
 4969SOL     OW15805   1.116   6.181   4.046
 4969SOL    HW115806   1.138   6.084   4.033
 4969SOL    HW215807   1.058   6.191   4.126
 4970SOL     OW15808   2.108   1.313   1.149
 4970SOL    HW115809   2.108   1.227   1.199
 4970SOL    HW215810   2.034   1.372   1.183
 4971SOL     OW15811   0.631   5.850   1.961
 4971SOL    HW115812   0.620   5.938   2.006
 4971SOL    HW215813   0.607   5.777   2.025
 4972SOL     OW15814   0.493   3.627   0.221
 4972SOL    HW115815   0.399   3.613   0.189
 4972SOL    HW215816   0.544   3.677   0.151
 4973SOL     OW15817   5.071   2.545   6.662
 4973SOL    HW115818   5.135   2.552   6.585
 4973SOL    HW215819   5.005   2.472   6.643
 4974SOL     OW15820   3.344   0.045   5.873
 4974SOL    HW115821   3.286   0.066   5.952
 4974SOL    HW215822   3.298   0.075   5.790
 4975SOL     OW15823   5.617   4.397   1.341
 4975SOL    HW115824   5.650   4.486   1.309
 4975SOL    HW215825   5.538   4.411   1.402
 4976SOL     OW15826   1.151   0.569   3.790
 4976SOL    HW115827   1.091   0.558   3.869
 4976SOL    HW215828   1.202   0.484   3.774
 4977SOL     OW15829   0.969   3.470   5.016
 4977SOL    HW115830   0.907   3.545   4.990
 4977SOL    HW215831   1.052   3.475   4.960
 4978SOL     OW15832   6.154   5.466   4.536
 4978SOL    HW115833   6.056   5.467   4.556
 4978SOL    HW215834   6.200   5.538   4.588
 4979SOL     OW15835   4.009   6.642   6.321
 4979SOL    HW115836   3.981   6.547   6.335
 4979SOL    HW215837   4.017   6.660   6.223
 4980SOL     OW15838   5.602   2.596   3.919
 4980SOL    HW115839   5.701   2.600   3.905
 4980SOL    HW215840   5.557   2.571   3.833
 4981SOL     OW15841   3.284   6.134   3.312
 4981SOL    HW115842   3.377   6.130   3.349
 4981SOL    HW215843   3.287   6.121   3.213
 4982SOL     OW15844   4.334   2.018   4.806
 4982SOL    HW115845   4.293   1.958   4.875
 4982SOL    HW215846   4.269   2.090   4.781
 4983SOL     OW15847   5.838   3.474   3.117
 4983SOL    HW115848   5.807   3.534   3.190
 4983SOL    HW215849   5.774   3.397   3.109
 4984SOL     OW15850   4.953   3.575   5.286
 4984SOL    HW115851   4.855   3.584   5.269
 4984SOL    HW215852   5.003   3.594   5.201
 4985SOL     OW15853   5.283   0.390   2.482
 4985SOL    HW115854   5.207   0.454   2.474
 4985SOL    HW215855   5.365   0.438   2.512
 4986SOL     OW15856   1.582   5.449   1.019
 4986SOL    HW115857   1.517   5.375   1.035
 4986SOL    HW215858   1.571   5.519   1.090
 4987SOL     OW15859   2.259   4.033   2.043
 4987SOL    HW115860   2.262   4.130   2.023
 4987SOL    HW215861   2.255   4.019   2.142
 4988SOL     OW15862   6.357   5.346   3.946
 4988SOL    HW115863   6.383   5.333   3.850
 4988SOL    HW215864   6.321   5.438   3.960
 4989SOL     OW15865   0.028   6.913   3.785
 4989SOL    HW115866   7.008   6.853   3.716
 4989SOL    HW215867   0.088   6.980   3.741
 4990SOL     OW15868   5.276   1.946   5.596
 4990SOL    HW115869   5.213   1.970   5.669
 4990SOL    HW215870   5.230   1.887   5.530
 4991SOL     OW15871   2.341   5.668   5.376
 4991SOL    HW115872   2.429   5.640   5.414
 4991SOL    HW215873   2.351   5.757   5.331
 4992SOL     OW15874   2.648   3.108   5.580
 4992SOL    HW115875   2.574   3.061   5.628
 4992SOL    HW215876   2.704   3.158   5.646
 4993SOL     OW15877   2.347   5.473   4.171
 4993SOL    HW115878   2.307   5.399   4.117
 4993SOL    HW215879   2.402   5.434   4.245
 4994SOL     OW15880   2.964   4.817   5.672
 4994SOL    HW115881   2.972   4.869   5.587
 4994SOL    HW215882   2.867   4.796   5.688
 4995SOL     OW15883   0.500   1.692   5.489
 4995SOL    HW115884   0.466   1.611   5.536
 4995SOL    HW215885   0.490   1.680   5.390
 4996SOL     OW15886   6.762   0.706   4.716
 4996SOL    HW115887   6.818   0.788   4.718
 4996SOL    HW215888   6.670   0.729   4.683
 4997SOL     OW15889   3.853   1.422   0.650
 4997SOL    HW115890   3.760   1.448   0.674
 4997SOL    HW215891   3.878   1.339   0.701
 4998SOL     OW15892   0.737   3.762   3.121
 4998SOL    HW115893   0.811   3.716   3.073
 4998SOL    HW215894   0.650   3.741   3.077
 4999SOL     OW15895   0.153   3.024   3.491
 4999SOL    HW115896   0.140   2.934   3.532
 4999SOL    HW215897   0.183   3.088   3.562
 5000SOL     OW15898   2.851   6.417   2.997
 5000SOL    HW115899   2.852   6.382   2.904
 5000SOL    HW215900   2.758   6.415   3.033
 5001SOL     OW15901   0.147   5.689   3.535
 5001SOL    HW115902   0.187   5.776   3.564
 5001SOL    HW215903   0.089   5.704   3.455
 5002SOL     OW15904   0.760   4.765   3.892
 5002SOL    HW115905   0.812   4.687   3.927
 5002SOL    HW215906   0.823   4.841   3.872
 5003SOL     OW15907   3.352   1.145   1.277
 5003SOL    HW115908   3.430   1.138   1.340
 5003SOL    HW215909   3.385   1.169   1.186
 5004SOL     OW15910   4.537   6.410   0.448
 5004SOL    HW115911   4.566   6.324   0.490
 5004SOL    HW215912   4.599   6.483   0.477
 5005SOL     OW15913   4.183   2.900   1.053
 5005SOL    HW115914   4.215   2.990   1.082
 5005SOL    HW215915   4.089   2.906   1.020
 5006SOL     OW15916   4.752   0.515   3.059
 5006SOL    HW115917   4.830   0.472   3.102
 5006SOL    HW215918   4.777   0.546   2.967
 5007SOL     OW15919   6.286   5.339   2.270
 5007SOL    HW115920   6.370   5.324   2.322
 5007SOL    HW215921   6.211   5.362   2.332
 5008SOL     OW15922   4.909   6.689   3.612
 5008SOL    HW115923   4.827   6.743   3.632
 5008SOL    HW215924   4.883   6.598   3.582
 5009SOL     OW15925   0.613   1.755   6.713
 5009SOL    HW115926   0.638   1.843   6.753
 5009SOL    HW215927   0.617   1.760   6.613
 5010SOL     OW15928   4.906   4.373   1.002
 5010SOL    HW115929   4.836   4.416   0.945
 5010SOL    HW215930   4.863   4.332   1.082
 5011SOL     OW15931   1.762   2.271   6.078
 5011SOL    HW115932   1.761   2.335   6.155
 5011SOL    HW215933   1.841   2.210   6.085
 5012SOL     OW15934   6.263   2.492   6.127
 5012SOL    HW115935   6.297   2.484   6.221
 5012SOL    HW215936   6.286   2.409   6.076
 5013SOL     OW15937   5.888   6.282   4.993
 5013SOL    HW115938   5.895   6.382   4.982
 5013SOL    HW215939   5.795   6.253   4.972
 5014SOL     OW15940   6.205   4.051   0.704
 5014SOL    HW115941   6.232   4.040   0.608
 5014SOL    HW215942   6.286   4.068   0.759
 5015SOL     OW15943   6.466   5.151   4.686
 5015SOL    HW115944   6.484   5.182   4.593
 5015SOL    HW215945   6.537   5.087   4.714
 5016SOL     OW15946   1.280   2.401   6.500
 5016SOL    HW115947   1.239   2.493   6.498
 5016SOL    HW215948   1.270   2.363   6.592
 5017SOL     OW15949   0.958   2.762   2.117
 5017SOL    HW115950   1.036   2.824   2.124
 5017SOL    HW215951   0.937   2.725   2.208
 5018SOL     OW15952   0.921   0.986   0.218
 5018SOL    HW115953   0.827   0.955   0.232
 5018SOL    HW215954   0.984   0.928   0.271
 5019SOL     OW15955   1.773   4.021   3.711
 5019SOL    HW115956   1.827   3.945   3.675
 5019SOL    HW215957   1.694   3.984   3.760
 5020SOL     OW15958   1.832   6.860   3.655
 5020SOL    HW115959   1.891   6.938   3.677
 5020SOL    HW215960   1.873   6.776   3.689
 5021SOL     OW15961   2.389   0.524   1.571
 5021SOL    HW115962   2.314   0.498   1.632
 5021SOL    HW215963   2.358   0.598   1.510
 5022SOL     OW15964   6.839   2.830   0.986
 5022SOL    HW115965   6.872   2.755   0.928
 5022SOL    HW215966   6.904   2.844   1.061
 5023SOL     OW15967   0.548   2.543   2.696
 5023SOL    HW115968   0.575   2.516   2.788
 5023SOL    HW215969   0.629   2.567   2.643
 5024SOL     OW15970   4.722   4.542   6.685
 5024SOL    HW115971   4.803   4.484   6.687
 5024SOL    HW215972   4.680   4.546   6.776
 5025SOL     OW15973   4.975   1.900   4.707
 5025SOL    HW115974   4.971   1.976   4.642
 5025SOL    HW215975   4.891   1.846   4.702
 5026SOL     OW15976   4.982   5.794   5.104
 5026SOL    HW115977   4.982   5.823   5.008
 5026SOL    HW215978   5.048   5.849   5.155
 5027SOL     OW15979   5.234   6.805   0.788
 5027SOL    HW115980   5.196   6.865   0.858
 5027SOL    HW215981   5.160   6.765   0.734
 5028SOL     OW15982   6.504   1.461   2.623
 5028SOL    HW115983   6.487   1.559   2.633
 5028SOL    HW215984   6.528   1.423   2.712
 5029SOL     OW15985   5.505   2.673   2.342
 5029SOL    HW115986   5.540   2.686   2.250
 5029SOL    HW215987   5.405   2.670   2.340
 5030SOL     OW15988   0.325   2.989   1.063
 5030SOL    HW115989   0.319   3.064   0.998
 5030SOL    HW215990   0.255   3.000   1.134
 5031SOL     OW15991   6.607   0.207   5.807
 5031SOL    HW115992   6.537   0.149   5.848
 5031SOL    HW215993   6.692   0.155   5.799
 5032SOL     OW15994   2.667   4.314   6.351
 5032SOL    HW115995   2.745   4.364   6.312
 5032SOL    HW215996   2.583   4.340   6.303
 5033SOL     OW15997   1.714   6.453   4.688
 5033SOL    HW115998   1.619   6.436   4.661
 5033SOL    HW215999   1.765   6.485   4.608
 5034SOL     OW16000   4.158   5.589   3.722
 5034SOL    HW116001   4.243   5.613   3.769
 5034SOL    HW216002   4.176   5.516   3.656
 5035SOL     OW16003   2.053   3.325   3.263
 5035SOL    HW116004   2.129   3.347   3.201
 5035SOL    HW216005   2.065   3.233   3.300
 5036SOL     OW16006   1.225   3.391   4.803
 5036SOL    HW116007   1.257   3.299   4.828
 5036SOL    HW216008   1.246   3.408   4.707
 5037SOL     OW16009   5.249   4.786   1.144
 5037SOL    HW116010   5.245   4.874   1.097
 5037SOL    HW216011   5.286   4.717   1.082
 5038SOL     OW16012   3.310   3.830   4.574
 5038SOL    HW116013   3.352   3.824   4.483
 5038SOL    HW216014   3.292   3.925   4.597
 5039SOL     OW16015   0.694   3.749   0.082
 5039SOL    HW116016   0.768   3.778   0.143
 5039SOL    HW216017   0.722   3.667   0.031
 5040SOL     OW16018   0.694   1.915   5.343
 5040SOL    HW116019   0.620   1.857   5.378
 5040SOL    HW216020   0.697   2.000   5.396
 5041SOL     OW16021   6.916   2.318   1.572
 5041SOL    HW116022   6.975   2.297   1.494
 5041SOL    HW216023   6.821   2.298   1.548
 5042SOL     OW16024   1.159   1.904   5.970
 5042SOL    HW116025   1.199   1.951   5.891
 5042SOL    HW216026   1.077   1.854   5.942
 5043SOL     OW16027   2.694   6.734   1.748
 5043SOL    HW116028   2.670   6.640   1.771
 5043SOL    HW216029   2.760   6.768   1.815
 5044SOL     OW16030   0.466   5.917   0.648
 5044SOL    HW116031   0.559   5.939   0.619
 5044SOL    HW216032   0.464   5.827   0.690
 5045SOL     OW16033   5.650   2.700   1.508
 5045SOL    HW116034   5.642   2.692   1.409
 5045SOL    HW216035   5.565   2.667   1.550
 5046SOL     OW16036   3.963   3.079   2.247
 5046SOL    HW116037   3.979   2.986   2.213
 5046SOL    HW216038   3.884   3.119   2.199
 5047SOL     OW16039   1.690   4.175   3.488
 5047SOL    HW116040   1.697   4.118   3.570
 5047SOL    HW216041   1.610   4.148   3.435
 5048SOL     OW16042   2.476   0.247   5.836
 5048SOL    HW116043   2.423   0.328   5.863
 5048SOL    HW216044   2.432   0.165   5.871
 5049SOL     OW16045   3.822   1.550   6.862
 5049SOL    HW116046   3.794   1.517   6.772
 5049SOL    HW216047   3.778   1.494   6.933
 5050SOL     OW16048   1.285   0.555   0.697
 5050SOL    HW116049   1.311   0.557   0.794
 5050SOL    HW216050   1.347   0.615   0.646
 5051SOL     OW16051   4.412   4.562   0.799
 5051SOL    HW116052   4.320   4.527   0.813
 5051SOL    HW216053   4.423   4.647   0.850
 5052SOL     OW16054   2.026   3.426   4.316
 5052SOL    HW116055   2.080   3.409   4.399
 5052SOL    HW216056   2.074   3.491   4.258
 5053SOL     OW16057   6.375   0.479   0.910
 5053SOL    HW116058   6.469   0.449   0.891
 5053SOL    HW216059   6.373   0.531   0.995
 5054SOL     OW16060   4.451   5.571   3.538
 5054SOL    HW116061   4.449   5.543   3.634
 5054SOL    HW216062   4.544   5.563   3.502
 5055SOL     OW16063   0.166   4.210   5.560
 5055SOL    HW116064   0.175   4.305   5.533
 5055SOL    HW216065   0.129   4.156   5.484
 5056SOL     OW16066   6.771   4.596   3.118
 5056SOL    HW116067   6.707   4.520   3.120
 5056SOL    HW216068   6.800   4.617   3.211
 5057SOL     OW16069   0.102   6.150   2.268
 5057SOL    HW116070   0.174   6.193   2.322
 5057SOL    HW216071   0.092   6.055   2.296
 5058SOL     OW16072   2.592   5.834   5.615
 5058SOL    HW116073   2.582   5.851   5.517
 5058SOL    HW216074   2.511   5.787   5.650
 5059SOL     OW16075   6.822   0.325   1.603
 5059SOL    HW116076   6.800   0.382   1.683
 5059SOL    HW216077   6.896   0.262   1.627
 5060SOL     OW16078   0.350   2.669   6.279
 5060SOL    HW116079   0.366   2.597   6.348
 5060SOL    HW216080   0.253   2.675   6.259
 5061SOL     OW16081   5.816   3.144   0.689
 5061SOL    HW116082   5.752   3.116   0.760
 5061SOL    HW216083   5.785   3.108   0.601
 5062SOL     OW16084   6.284   0.106   6.956
 5062SOL    HW116085   6.359   0.117   0.001
 5062SOL    HW216086   6.214   0.047   6.996
 5063SOL     OW16087   0.990   6.533   2.706
 5063SOL    HW116088   1.085   6.535   2.736
 5063SOL    HW216089   0.930   6.527   2.786
 5064SOL     OW16090   5.081   3.954   6.980
 5064SOL    HW116091   5.178   3.955   6.957
 5064SOL    HW216092   5.027   3.931   6.900
 5065SOL     OW16093   2.933   6.381   6.220
 5065SOL    HW116094   2.867   6.369   6.146
 5065SOL    HW216095   2.985   6.297   6.233
 5066SOL     OW16096   4.853   4.534   0.497
 5066SOL    HW116097   4.773   4.475   0.496
 5066SOL    HW216098   4.898   4.532   0.408
 5067SOL     OW16099   5.420   1.130   6.717
 5067SOL    HW116100   5.415   1.067   6.794
 5067SOL    HW216101   5.507   1.118   6.669
 5068SOL     OW16102   3.755   4.937   1.027
 5068SOL    HW116103   3.661   4.949   1.059
 5068SOL    HW216104   3.782   4.842   1.039
 5069SOL     OW16105   6.598   5.261   3.020
 5069SOL    HW116106   6.564   5.350   3.052
 5069SOL    HW216107   6.576   5.249   2.924
 5070SOL     OW16108   5.116   2.232   3.698
 5070SOL    HW116109   5.123   2.326   3.730
 5070SOL    HW216110   5.130   2.169   3.774
 5071SOL     OW16111   5.389   0.993   1.289
 5071SOL    HW116112   5.386   1.012   1.191
 5071SOL    HW216113   5.296   0.994   1.326
 5072SOL     OW16114   0.589   3.913   1.518
 5072SOL    HW116115   0.521   3.879   1.453
 5072SOL    HW216116   0.544   3.930   1.606
 5073SOL     OW16117   3.810   2.166   3.297
 5073SOL    HW116118   3.805   2.217   3.211
 5073SOL    HW216119   3.841   2.073   3.278
 5074SOL     OW16120   4.231   4.241   5.298
 5074SOL    HW116121   4.152   4.184   5.278
 5074SOL    HW216122   4.227   4.325   5.244
 5075SOL     OW16123   0.073   0.351   4.157
 5075SOL    HW116124   6.999   0.382   4.144
 5075SOL    HW216125   0.131   0.390   4.086
 5076SOL     OW16126   5.026   0.739   1.143
 5076SOL    HW116127   4.960   0.664   1.137
 5076SOL    HW216128   4.981   0.819   1.181
 5077SOL     OW16129   6.519   2.500   2.762
 5077SOL    HW116130   6.560   2.562   2.830
 5077SOL    HW216131   6.514   2.547   2.674
 5078SOL     OW16132   0.409   1.473   4.686
 5078SOL    HW116133   0.359   1.491   4.770
 5078SOL    HW216134   0.489   1.533   4.680
 5079SOL     OW16135   4.921   4.992   4.892
 5079SOL    HW116136   4.949   4.933   4.968
 5079SOL    HW216137   4.926   5.087   4.921
 5080SOL     OW16138   5.922   0.793   6.515
 5080SOL    HW116139   5.971   0.795   6.428
 5080SOL    HW216140   5.947   0.710   6.566
 5081SOL     OW16141   3.118   3.147   3.267
 5081SOL    HW116142   3.039   3.208   3.276
 5081SOL    HW216143   3.134   3.100   3.353
 5082SOL     OW16144   0.838   1.532   5.612
 5082SOL    HW116145   0.786   1.596   5.669
 5082SOL    HW216146   0.806   1.439   5.629
 5083SOL     OW16147   0.836   4.101   1.824
 5083SOL    HW116148   0.750   4.086   1.774
 5083SOL    HW216149   0.879   4.012   1.842
 5084SOL     OW16150   1.307   5.685   2.192
 5084SOL    HW116151   1.286   5.733   2.277
 5084SOL    HW216152   1.248   5.719   2.119
 5085SOL     OW16153   6.156   3.854   0.173
 5085SOL    HW116154   6.130   3.818   0.083
 5085SOL    HW216155   6.253   3.878   0.173
 5086SOL     OW16156   6.159   5.477   4.876
 5086SOL    HW116157   6.257   5.460   4.883
 5086SOL    HW216158   6.142   5.549   4.808
 5087SOL     OW16159   5.298   5.302   5.391
 5087SOL    HW116160   5.311   5.389   5.439
 5087SOL    HW216161   5.385   5.274   5.350
 5088SOL     OW16162   6.066   0.917   6.787
 5088SOL    HW116163   6.073   0.849   6.714
 5088SOL    HW216164   5.973   0.919   6.823
 5089SOL     OW16165   5.402   2.610   4.088
 5089SOL    HW116166   5.400   2.517   4.053
 5089SOL    HW216167   5.497   2.642   4.094
 5090SOL     OW16168   1.450   5.329   0.237
 5090SOL    HW116169   1.432   5.426   0.253
 5090SOL    HW216170   1.363   5.281   0.225
 5091SOL     OW16171   0.702   6.129   3.577
 5091SOL    HW116172   0.687   6.217   3.531
 5091SOL    HW216173   0.796   6.124   3.610
 5092SOL     OW16174   3.298   2.836   1.499
 5092SOL    HW116175   3.269   2.743   1.478
 5092SOL    HW216176   3.218   2.891   1.525
 5093SOL     OW16177   0.656   0.913   1.849
 5093SOL    HW116178   0.735   0.855   1.834
 5093SOL    HW216179   0.613   0.889   1.936
 5094SOL     OW16180   0.086   0.091   6.426
 5094SOL    HW116181   0.155   0.037   6.474
 5094SOL    HW216182   0.127   0.130   6.343
 5095SOL     OW16183   3.059   0.358   5.619
 5095SOL    HW116184   3.143   0.310   5.645
 5095SOL    HW216185   3.010   0.304   5.550
 5096SOL     OW16186   3.507   6.072   2.318
 5096SOL    HW116187   3.458   6.104   2.236
 5096SOL    HW216188   3.594   6.032   2.291
 5097SOL     OW16189   1.296   2.164   6.690
 5097SOL    HW116190   1.258   2.102   6.759
 5097SOL    HW216191   1.354   2.113   6.627
 5098SOL     OW16192   0.654   2.391   2.928
 5098SOL    HW116193   0.599   2.337   2.991
 5098SOL    HW216194   0.747   2.398   2.962
 5099SOL     OW16195   0.518   1.412   4.151
 5099SOL    HW116196   0.514   1.362   4.064
 5099SOL    HW216197   0.436   1.470   4.159
 5100SOL     OW16198   4.420   4.813   5.719
 5100SOL    HW116199   4.496   4.863   5.760
 5100SOL    HW216200   4.450   4.723   5.689
 5101SOL     OW16201   5.551   6.300   0.802
 5101SOL    HW116202   5.603   6.218   0.779
 5101SOL    HW216203   5.471   6.275   0.856
 5102SOL     OW16204   3.218   5.954   3.684
 5102SOL    HW116205   3.218   5.866   3.638
 5102SOL    HW216206   3.275   5.949   3.767
 5103SOL     OW16207   1.353   1.700   3.734
 5103SOL    HW116208   1.391   1.617   3.694
 5103SOL    HW216209   1.289   1.742   3.670
 5104SOL     OW16210   0.834   0.677   0.415
 5104SOL    HW116211   0.883   0.682   0.328
 5104SOL    HW216212   0.899   0.668   0.490
 5105SOL     OW16213   1.704   2.961   6.579
 5105SOL    HW116214   1.757   3.009   6.509
 5105SOL    HW216215   1.694   2.865   6.554
 5106SOL     OW16216   2.289   6.751   2.108
 5106SOL    HW116217   2.340   6.758   2.194
 5106SOL    HW216218   2.222   6.826   2.102
 5107SOL     OW16219   1.909   6.742   6.460
 5107SOL    HW116220   1.821   6.790   6.464
 5107SOL    HW216221   1.893   6.645   6.440
 5108SOL     OW16222   3.625   3.881   4.563
 5108SOL    HW116223   3.579   3.807   4.613
 5108SOL    HW216224   3.683   3.933   4.626
 5109SOL     OW16225   0.257   2.019   2.892
 5109SOL    HW116226   0.354   2.004   2.872
 5109SOL    HW216227   0.205   2.021   2.806
 5110SOL     OW16228   2.414   6.404   5.429
 5110SOL    HW116229   2.323   6.433   5.400
 5110SOL    HW216230   2.428   6.308   5.402
 5111SOL     OW16231   1.421   0.419   6.511
 5111SOL    HW116232   1.468   0.410   6.598
 5111SOL    HW216233   1.332   0.372   6.515
 5112SOL     OW16234   0.300   0.112   2.851
 5112SOL    HW116235   0.374   0.131   2.916
 5112SOL    HW216236   0.286   0.193   2.793
 5113SOL     OW16237   0.606   1.286   6.760
 5113SOL    HW116238   0.573   1.286   6.666
 5113SOL    HW216239   0.705   1.294   6.761
 5114SOL     OW16240   4.956   5.583   6.545
 5114SOL    HW116241   5.043   5.560   6.589
 5114SOL    HW216242   4.973   5.643   6.467
 5115SOL     OW16243   2.639   3.991   5.277
 5115SOL    HW116244   2.696   3.947   5.208
 5115SOL    HW216245   2.543   3.981   5.252
 5116SOL     OW16246   6.844   3.932   1.148
 5116SOL    HW116247   6.868   4.029   1.136
 5116SOL    HW216248   6.754   3.925   1.191
 5117SOL     OW16249   2.517   5.269   3.137
 5117SOL    HW116250   2.499   5.308   3.228
 5117SOL    HW216251   2.613   5.283   3.114
 5118SOL     OW16252   4.051   0.244   1.240
 5118SOL    HW116253   4.073   0.337   1.269
 5118SOL    HW216254   4.118   0.180   1.278
 5119SOL     OW16255   5.991   0.818   2.392
 5119SOL    HW116256   6.001   0.907   2.438
 5119SOL    HW216257   5.972   0.748   2.461
 5120SOL     OW16258   3.284   1.474   1.861
 5120SOL    HW116259   3.345   1.511   1.790
 5120SOL    HW216260   3.283   1.375   1.854
 5121SOL     OW16261   0.533   3.932   4.042
 5121SOL    HW116262   0.588   3.849   4.035
 5121SOL    HW216263   0.550   3.977   4.129
 5122SOL     OW16264   2.294   5.493   3.009
 5122SOL    HW116265   2.312   5.493   2.911
 5122SOL    HW216266   2.377   5.466   3.059
 5123SOL     OW16267   6.112   3.301   2.800
 5123SOL    HW116268   6.103   3.371   2.871
 5123SOL    HW216269   6.020   3.275   2.768
 5124SOL     OW16270   3.236   6.005   0.833
 5124SOL    HW116271   3.321   6.056   0.817
 5124SOL    HW216272   3.212   6.012   0.930
 5125SOL     OW16273   0.677   1.807   5.989
 5125SOL    HW116274   0.599   1.848   6.036
 5125SOL    HW216275   0.651   1.718   5.952
 5126SOL     OW16276   4.528   1.782   0.521
 5126SOL    HW116277   4.530   1.745   0.614
 5126SOL    HW216278   4.470   1.723   0.463
 5127SOL     OW16279   4.720   3.750   6.423
 5127SOL    HW116280   4.631   3.766   6.465
 5127SOL    HW216281   4.771   3.836   6.419
 5128SOL     OW16282   0.258   0.423   6.570
 5128SOL    HW116283   0.162   0.411   6.596
 5128SOL    HW216284   0.300   0.492   6.629
 5129SOL     OW16285   4.794   2.853   3.871
 5129SOL    HW116286   4.770   2.851   3.968
 5129SOL    HW216287   4.800   2.947   3.840
 5130SOL     OW16288   2.671   6.614   4.824
 5130SOL    HW116289   2.651   6.539   4.886
 5130SOL    HW216290   2.620   6.695   4.852
 5131SOL     OW16291   3.213   5.212   2.943
 5131SOL    HW116292   3.251   5.175   3.028
 5131SOL    HW216293   3.114   5.196   2.940
 5132SOL     OW16294   3.538   2.060   6.333
 5132SOL    HW116295   3.513   2.005   6.254
 5132SOL    HW216296   3.511   2.155   6.317
 5133SOL     OW16297   4.228   4.410   6.067
 5133SOL    HW116298   4.150   4.469   6.089
 5133SOL    HW216299   4.239   4.405   5.968
 5134SOL     OW16300   5.938   6.221   0.623
 5134SOL    HW116301   5.959   6.195   0.529
 5134SOL    HW216302   5.920   6.138   0.677
 5135SOL     OW16303   0.503   2.989   2.214
 5135SOL    HW116304   0.420   3.045   2.221
 5135SOL    HW216305   0.505   2.942   2.125
 5136SOL     OW16306   0.140   0.197   4.359
 5136SOL    HW116307   0.103   0.237   4.443
 5136SOL    HW216308   0.108   0.249   4.280
 5137SOL     OW16309   5.635   0.747   2.734
 5137SOL    HW116310   5.624   0.701   2.822
 5137SOL    HW216311   5.595   0.838   2.739
 5138SOL     OW16312   3.224   3.460   2.955
 5138SOL    HW116313   3.206   3.466   2.857
 5138SOL    HW216314   3.313   3.417   2.970
 5139SOL     OW16315   5.069   0.740   4.718
 5139SOL    HW116316   5.064   0.646   4.685
 5139SOL    HW216317   5.154   0.754   4.767
 5140SOL     OW16318   2.700   3.773   5.971
 5140SOL    HW116319   2.722   3.829   5.891
 5140SOL    HW216320   2.725   3.823   6.054
 5141SOL     OW16321   0.983   3.203   0.984
 5141SOL    HW116322   1.062   3.231   1.038
 5141SOL    HW216323   0.980   3.103   0.976
 5142SOL     OW16324   0.345   6.861   2.817
 5142SOL    HW116325   0.427   6.845   2.762
 5142SOL    HW216326   0.329   6.959   2.826
 5143SOL     OW16327   6.278   6.476   2.699
 5143SOL    HW116328   6.375   6.478   2.721
 5143SOL    HW216329   6.266   6.441   2.606
 5144SOL     OW16330   2.133   3.007   5.234
 5144SOL    HW116331   2.105   3.095   5.273
 5144SOL    HW216332   2.213   3.020   5.176
 5145SOL     OW16333   1.243   5.390   5.517
 5145SOL    HW116334   1.264   5.430   5.606
 5145SOL    HW216335   1.241   5.291   5.525
 5146SOL     OW16336   5.422   6.233   6.759
 5146SOL    HW116337   5.480   6.299   6.710
 5146SOL    HW216338   5.458   6.218   6.850
 5147SOL     OW16339   4.947   1.297   3.243
 5147SOL    HW116340   5.039   1.333   3.232
 5147SOL    HW216341   4.884   1.372   3.265
 5148SOL     OW16342   6.047   1.509   0.832
 5148SOL    HW116343   5.972   1.455   0.871
 5148SOL    HW216344   6.023   1.606   0.837
 5149SOL     OW16345   2.940   6.346   3.645
 5149SOL    HW116346   3.018   6.345   3.583
 5149SOL    HW216347   2.932   6.436   3.688
 5150SOL     OW16348   6.863   0.784   4.017
 5150SOL    HW116349   6.856   0.719   4.092
 5150SOL    HW216350   6.956   0.820   4.011
 5151SOL     OW16351   5.251   4.569   2.009
 5151SOL    HW116352   5.200   4.488   1.978
 5151SOL    HW216353   5.330   4.540   2.063
 5152SOL     OW16354   2.285   1.651   0.170
 5152SOL    HW116355   2.367   1.665   0.227
 5152SOL    HW216356   2.217   1.721   0.193
 5153SOL     OW16357   2.568   2.262   0.167
 5153SOL    HW116358   2.561   2.337   0.101
 5153SOL    HW216359   2.477   2.240   0.203
 5154SOL     OW16360   0.710   2.679   0.075
 5154SOL    HW116361   0.640   2.722   0.132
 5154SOL    HW216362   0.668   2.645   7.011
 5155SOL     OW16363   1.471   0.763   0.204
 5155SOL    HW116364   1.480   0.768   0.304
 5155SOL    HW216365   1.482   0.854   0.165
 5156SOL     OW16366   5.488   5.115   6.136
 5156SOL    HW116367   5.585   5.108   6.116
 5156SOL    HW216368   5.474   5.108   6.235
 5157SOL     OW16369   3.324   1.205   1.822
 5157SOL    HW116370   3.335   1.112   1.855
 5157SOL    HW216371   3.383   1.220   1.743
 5158SOL     OW16372   1.641   2.825   2.777
 5158SOL    HW116373   1.576   2.822   2.701
 5158SOL    HW216374   1.608   2.767   2.851
 5159SOL     OW16375   6.579   2.760   5.395
 5159SOL    HW116376   6.580   2.842   5.337
 5159SOL    HW216377   6.572   2.787   5.491
 5160SOL     OW16378   6.955   0.335   2.923
 5160SOL    HW116379   6.908   0.342   3.011
 5160SOL    HW216380   6.917   0.402   2.859
 5161SOL     OW16381   0.917   2.057   6.526
 5161SOL    HW116382   0.896   1.963   6.500
 5161SOL    HW216383   1.007   2.082   6.489
 5162SOL     OW16384   0.246   6.922   5.654
 5162SOL    HW116385   0.298   6.931   5.739
 5162SOL    HW216386   0.302   6.875   5.586
 5163SOL     OW16387   2.908   0.878   1.537
 5163SOL    HW116388   2.959   0.924   1.610
 5163SOL    HW216389   2.813   0.910   1.537
 5164SOL     OW16390   2.454   2.958   0.453
 5164SOL    HW116391   2.389   2.884   0.470
 5164SOL    HW216392   2.546   2.921   0.445
 5165SOL     OW16393   1.017   5.041   5.498
 5165SOL    HW116394   1.111   5.072   5.482
 5165SOL    HW216395   0.960   5.120   5.520
 5166SOL     OW16396   6.912   6.037   5.428
 5166SOL    HW116397   6.965   6.099   5.486
 5166SOL    HW216398   6.814   6.052   5.444
 5167SOL     OW16399   6.490   3.597   6.227
 5167SOL    HW116400   6.432   3.635   6.299
 5167SOL    HW216401   6.496   3.498   6.237
 5168SOL     OW16402   5.312   1.666   3.275
 5168SOL    HW116403   5.296   1.667   3.177
 5168SOL    HW216404   5.332   1.759   3.306
 5169SOL     OW16405   5.095   5.508   4.472
 5169SOL    HW116406   5.062   5.579   4.533
 5169SOL    HW216407   5.022   5.443   4.453
 5170SOL     OW16408   2.251   3.432   6.085
 5170SOL    HW116409   2.342   3.417   6.046
 5170SOL    HW216410   2.208   3.511   6.040
 5171SOL     OW16411   2.120   6.509   5.750
 5171SOL    HW116412   2.046   6.529   5.814
 5171SOL    HW216413   2.083   6.503   5.657
 5172SOL     OW16414   5.155   5.334   5.812
 5172SOL    HW116415   5.088   5.260   5.809
 5172SOL    HW216416   5.202   5.333   5.901
 5173SOL     OW16417   3.659   6.153   3.897
 5173SOL    HW116418   3.708   6.237   3.922
 5173SOL    HW216419   3.599   6.126   3.972
 5174SOL     OW16420   0.567   5.734   3.196
 5174SOL    HW116421   0.516   5.797   3.138
 5174SOL    HW216422   0.523   5.728   3.286
 5175SOL     OW16423   3.019   1.227   6.583
 5175SOL    HW116424   3.011   1.280   6.668
 5175SOL    HW216425   2.981   1.280   6.507
 5176SOL     OW16426   5.702   6.556   6.387
 5176SOL    HW116427   5.671   6.584   6.296
 5176SOL    HW216428   5.784   6.609   6.410
 5177SOL     OW16429   5.606   5.746   0.654
 5177SOL    HW116430   5.636   5.730   0.560
 5177SOL    HW216431   5.532   5.683   0.677
 5178SOL     OW16432   1.008   4.414   0.748
 5178SOL    HW116433   0.932   4.422   0.813
 5178SOL    HW216434   1.020   4.319   0.723
 5179SOL     OW16435   3.915   5.337   2.911
 5179SOL    HW116436   3.959   5.260   2.864
 5179SOL    HW216437   3.892   5.407   2.844
 5180SOL     OW16438   2.719   5.034   2.107
 5180SOL    HW116439   2.736   4.989   2.019
 5180SOL    HW216440   2.805   5.048   2.155
 5181SOL     OW16441   6.690   1.405   5.617
 5181SOL    HW116442   6.727   1.345   5.687
 5181SOL    HW216443   6.687   1.357   5.530
 5182SOL     OW16444   1.947   6.171   2.128
 5182SOL    HW116445   1.907   6.129   2.210
 5182SOL    HW216446   1.876   6.185   2.059
 5183SOL     OW16447   5.407   1.902   3.384
 5183SOL    HW116448   5.478   1.939   3.323
 5183SOL    HW216449   5.451   1.851   3.458
 5184SOL     OW16450   3.053   1.241   2.398
 5184SOL    HW116451   3.000   1.278   2.475
 5184SOL    HW216452   3.149   1.264   2.410
 5185SOL     OW16453   6.386   0.152   1.662
 5185SOL    HW116454   6.386   0.220   1.736
 5185SOL    HW216455   6.310   0.089   1.675
 5186SOL     OW16456   5.810   2.473   6.831
 5186SOL    HW116457   5.864   2.545   6.787
 5186SOL    HW216458   5.872   2.403   6.866
 5187SOL     OW16459   1.367   4.674   4.789
 5187SOL    HW116460   1.414   4.716   4.868
 5187SOL    HW216461   1.433   4.623   4.735
 5188SOL     OW16462   0.162   0.146   1.597
 5188SOL    HW116463   0.117   0.218   1.543
 5188SOL    HW216464   0.253   0.129   1.561
 5189SOL     OW16465   5.559   6.024   6.548
 5189SOL    HW116466   5.643   6.061   6.586
 5189SOL    HW216467   5.483   6.042   6.610
 5190SOL     OW16468   1.493   4.928   0.833
 5190SOL    HW116469   1.535   4.927   0.743
 5190SOL    HW216470   1.549   4.982   0.895
 5191SOL     OW16471   2.847   4.075   1.727
 5191SOL    HW116472   2.881   3.982   1.736
 5191SOL    HW216473   2.903   4.137   1.782
 5192SOL     OW16474   0.653   4.491   2.881
 5192SOL    HW116475   0.643   4.409   2.824
 5192SOL    HW216476   0.588   4.561   2.851
 5193SOL     OW16477   3.909   0.364   4.672
 5193SOL    HW116478   3.973   0.414   4.731
 5193SOL    HW216479   3.958   0.326   4.594
 5194SOL     OW16480   4.754   1.488   5.328
 5194SOL    HW116481   4.723   1.513   5.236
 5194SOL    HW216482   4.786   1.570   5.375
 5195SOL     OW16483   2.077   1.286   5.408
 5195SOL    HW116484   2.107   1.374   5.372
 5195SOL    HW216485   2.127   1.266   5.492
 5196SOL     OW16486   5.639   6.267   3.159
 5196SOL    HW116487   5.597   6.180   3.184
 5196SOL    HW216488   5.711   6.251   3.091
 5197SOL     OW16489   1.930   4.000   5.251
 5197SOL    HW116490   1.921   4.059   5.170
 5197SOL    HW216491   2.018   3.952   5.246
 5198SOL     OW16492   6.311   5.594   3.952
 5198SOL    HW116493   6.365   5.642   4.021
 5198SOL    HW216494   6.285   5.658   3.880
 5199SOL     OW16495   1.072   5.372   1.393
 5199SOL    HW116496   1.026   5.445   1.442
 5199SOL    HW216497   1.005   5.322   1.337
 5200SOL     OW16498   6.716   4.227   4.974
 5200SOL    HW116499   6.757   4.140   5.002
 5200SOL    HW216500   6.620   4.213   4.951
 5201SOL     OW16501   0.639   6.040   4.557
 5201SOL    HW116502   0.540   6.027   4.556
 5201SOL    HW216503   0.673   6.030   4.651
 5202SOL     OW16504   0.041   4.423   1.695
 5202SOL    HW116505   0.089   4.423   1.608
 5202SOL    HW216506   0.012   4.516   1.718
 5203SOL     OW16507   6.667   3.240   6.383
 5203SOL    HW116508   6.634   3.182   6.308
 5203SOL    HW216509   6.765   3.223   6.396
 5204SOL     OW16510   5.181   5.346   6.360
 5204SOL    HW116511   5.107   5.379   6.419
 5204SOL    HW216512   5.269   5.364   6.404
 5205SOL     OW16513   2.617   5.875   0.330
 5205SOL    HW116514   2.624   5.947   0.261
 5205SOL    HW216515   2.680   5.894   0.405
 5206SOL     OW16516   0.942   4.454   5.031
 5206SOL    HW116517   0.869   4.424   5.092
 5206SOL    HW216518   0.919   4.543   4.992
 5207SOL     OW16519   1.576   5.987   2.036
 5207SOL    HW116520   1.630   5.905   2.019
 5207SOL    HW216521   1.636   6.066   2.047
 5208SOL     OW16522   4.732   1.533   0.102
 5208SOL    HW116523   4.806   1.599   0.114
 5208SOL    HW216524   4.764   1.457   0.046
 5209SOL     OW16525   6.197   5.012   3.159
 5209SOL    HW116526   6.273   4.950   3.142
 5209SOL    HW216527   6.209   5.095   3.104
 5210SOL     OW16528   5.140   3.956   3.242
 5210SOL    HW116529   5.049   3.930   3.209
 5210SOL    HW216530   5.195   3.990   3.165
 5211SOL     OW16531   3.207   4.067   2.533
 5211SOL    HW116532   3.211   4.166   2.520
 5211SOL    HW216533   3.241   4.045   2.624
 5212SOL     OW16534   0.823   0.171   6.687
 5212SOL    HW116535   0.764   0.091   6.697
 5212SOL    HW216536   0.845   0.185   6.591
 5213SOL     OW16537   4.682   2.225   6.097
 5213SOL    HW116538   4.774   2.248   6.130
 5213SOL    HW216539   4.653   2.138   6.137
 5214SOL     OW16540   4.669   2.082   0.306
 5214SOL    HW116541   4.744   2.085   0.240
 5214SOL    HW216542   4.706   2.093   0.399
 5215SOL     OW16543   5.702   5.170   4.142
 5215SOL    HW116544   5.758   5.089   4.124
 5215SOL    HW216545   5.701   5.188   4.241
 5216SOL     OW16546   4.430   5.994   1.247
 5216SOL    HW116547   4.380   5.990   1.333
 5216SOL    HW216548   4.410   5.912   1.193
 5217SOL     OW16549   3.222   4.887   3.782
 5217SOL    HW116550   3.159   4.957   3.817
 5217SOL    HW216551   3.205   4.800   3.829
 5218SOL     OW16552   1.409   0.452   3.344
 5218SOL    HW116553   1.412   0.368   3.290
 5218SOL    HW216554   1.460   0.524   3.296
 5219SOL     OW16555   3.218   0.033   1.186
 5219SOL    HW116556   3.296   0.002   1.132
 5219SOL    HW216557   3.250   0.067   1.274
 5220SOL     OW16558   0.876   6.682   2.501
 5220SOL    HW116559   0.783   6.704   2.530
 5220SOL    HW216560   0.922   6.630   2.573
 5221SOL     OW16561   4.592   0.890   0.440
 5221SOL    HW116562   4.529   0.815   0.461
 5221SOL    HW216563   4.675   0.880   0.496
 5222SOL     OW16564   0.563   6.483   2.557
 5222SOL    HW116565   0.588   6.578   2.569
 5222SOL    HW216566   0.472   6.467   2.596
 5223SOL     OW16567   4.188   6.868   1.424
 5223SOL    HW116568   4.200   6.797   1.493
 5223SOL    HW216569   4.125   6.938   1.459
 5224SOL     OW16570   5.542   0.750   3.730
 5224SOL    HW116571   5.548   0.843   3.764
 5224SOL    HW216572   5.632   0.721   3.696
 5225SOL     OW16573   0.440   0.045   5.271
 5225SOL    HW116574   0.477   7.001   5.204
 5225SOL    HW216575   0.376   0.107   5.225
 5226SOL     OW16576   2.419   0.839   4.004
 5226SOL    HW116577   2.499   0.897   4.018
 5226SOL    HW216578   2.387   0.849   3.910
 5227SOL     OW16579   4.959   3.569   4.552
 5227SOL    HW116580   4.981   3.515   4.471
 5227SOL    HW216581   5.036   3.569   4.615
 5228SOL     OW16582   4.771   6.941   1.890
 5228SOL    HW116583   4.745   6.980   1.801
 5228SOL    HW216584   4.697   6.958   1.956
 5229SOL     OW16585   0.741   4.013   3.723
 5229SOL    HW116586   0.666   3.947   3.716
 5229SOL    HW216587   0.814   3.986   3.660
 5230SOL     OW16588   0.306   1.671   6.387
 5230SOL    HW116589   0.280   1.767   6.372
 5230SOL    HW216590   0.248   1.632   6.458
 5231SOL     OW16591   2.894   3.607   3.583
 5231SOL    HW116592   2.964   3.538   3.603
 5231SOL    HW216593   2.914   3.651   3.496
 5232SOL     OW16594   5.368   3.015   4.852
 5232SOL    HW116595   5.458   3.001   4.895
 5232SOL    HW216596   5.296   2.989   4.916
 5233SOL     OW16597   0.985   6.841   2.981
 5233SOL    HW116598   0.999   6.814   3.077
 5233SOL    HW216599   1.059   6.902   2.953
 5234SOL     OW16600   4.055   4.706   1.265
 5234SOL    HW116601   4.112   4.625   1.252
 5234SOL    HW216602   4.102   4.787   1.230
 5235SOL     OW16603   1.080   2.638   1.874
 5235SOL    HW116604   1.126   2.550   1.862
 5235SOL    HW216605   1.022   2.634   1.956
 5236SOL     OW16606   6.176   3.621   0.363
 5236SOL    HW116607   6.190   3.565   0.281
 5236SOL    HW216608   6.142   3.564   0.437
 5237SOL     OW16609   1.869   2.210   2.683
 5237SOL    HW116610   1.785   2.157   2.694
 5237SOL    HW216611   1.897   2.209   2.587
 5238SOL     OW16612   2.193   3.126   0.895
 5238SOL    HW116613   2.145   3.159   0.814
 5238SOL    HW216614   2.273   3.072   0.866
 5239SOL     OW16615   2.856   3.358   5.208
 5239SOL    HW116616   2.947   3.320   5.220
 5239SOL    HW216617   2.788   3.289   5.234
 5240SOL     OW16618   3.999   2.146   4.626
 5240SOL    HW116619   4.065   2.178   4.694
 5240SOL    HW216620   4.044   2.137   4.537
 5241SOL     OW16621   3.903   5.567   5.438
 5241SOL    HW116622   3.876   5.531   5.527
 5241SOL    HW216623   3.874   5.663   5.430
 5242SOL     OW16624   3.762   0.368   5.521
 5242SOL    HW116625   3.820   0.447   5.541
 5242SOL    HW216626   3.733   0.325   5.606
 5243SOL     OW16627   1.133   3.912   0.659
 5243SOL    HW116628   1.097   3.906   0.753
 5243SOL    HW216629   1.113   3.827   0.611
 5244SOL     OW16630   5.593   3.609   6.905
 5244SOL    HW116631   5.607   3.623   6.807
 5244SOL    HW216632   5.500   3.634   6.930
 5245SOL     OW16633   4.652   3.914   5.992
 5245SOL    HW116634   4.747   3.885   6.008
 5245SOL    HW216635   4.593   3.833   5.988
 5246SOL     OW16636   1.197   3.454   3.520
 5246SOL    HW116637   1.258   3.479   3.445
 5246SOL    HW216638   1.229   3.495   3.605
 5247SOL     OW16639   0.557   4.923   0.460
 5247SOL    HW116640   0.556   4.843   0.400
 5247SOL    HW216641   0.600   4.899   0.547
 5248SOL     OW16642   4.822   1.087   0.357
 5248SOL    HW116643   4.797   1.002   0.402
 5248SOL    HW216644   4.779   1.091   0.267
 5249SOL     OW16645   1.079   5.552   6.984
 5249SOL    HW116646   1.013   5.506   0.023
 5249SOL    HW216647   1.094   5.497   6.901
 5250SOL     OW16648   0.939   1.498   5.926
 5250SOL    HW116649   0.945   1.595   5.903
 5250SOL    HW216650   1.018   1.449   5.889
 5251SOL     OW16651   0.689   2.888   1.126
 5251SOL    HW116652   0.633   2.893   1.209
 5251SOL    HW216653   0.707   2.793   1.104
 5252SOL     OW16654   5.043   6.250   1.041
 5252SOL    HW116655   5.025   6.181   0.971
 5252SOL    HW216656   5.135   6.288   1.028
 5253SOL     OW16657   5.551   2.864   3.850
 5253SOL    HW116658   5.561   2.938   3.916
 5253SOL    HW216659   5.527   2.780   3.898
 5254SOL     OW16660   5.608   0.244   4.367
 5254SOL    HW116661   5.656   0.323   4.328
 5254SOL    HW216662   5.610   0.168   4.302
 5255SOL     OW16663   2.474   5.547   3.326
 5255SOL    HW116664   2.490   5.600   3.409
 5255SOL    HW216665   2.431   5.460   3.350
 5256SOL     OW16666   4.930   6.075   2.096
 5256SOL    HW116667   4.967   5.992   2.055
 5256SOL    HW216668   4.923   6.064   2.195
 5257SOL     OW16669   3.079   1.226   2.721
 5257SOL    HW116670   3.063   1.138   2.677
 5257SOL    HW216671   3.019   1.296   2.681
 5258SOL     OW16672   5.936   1.723   1.550
 5258SOL    HW116673   5.875   1.801   1.566
 5258SOL    HW216674   5.936   1.700   1.453
 5259SOL     OW16675   6.177   4.859   1.773
 5259SOL    HW116676   6.251   4.855   1.706
 5259SOL    HW216677   6.166   4.769   1.817
 5260SOL     OW16678   4.688   2.857   1.689
 5260SOL    HW116679   4.668   2.947   1.727
 5260SOL    HW216680   4.713   2.794   1.763
 5261SOL     OW16681   2.406   2.630   5.188
 5261SOL    HW116682   2.358   2.655   5.104
 5261SOL    HW216683   2.423   2.713   5.242
 5262SOL     OW16684   1.315   0.256   1.814
 5262SOL    HW116685   1.246   0.196   1.775
 5262SOL    HW216686   1.272   0.317   1.881
 5263SOL     OW16687   1.223   0.030   0.156
 5263SOL    HW116688   1.277   0.056   0.236
 5263SOL    HW216689   1.139   7.005   0.187
 5264SOL     OW16690   1.008   0.626   0.653
 5264SOL    HW116691   0.961   0.586   0.732
 5264SOL    HW216692   1.105   0.602   0.656
 5265SOL     OW16693   5.009   4.643   4.454
 5265SOL    HW116694   5.039   4.658   4.548
 5265SOL    HW216695   5.049   4.558   4.419
 5266SOL     OW16696   1.406   0.130   0.907
 5266SOL    HW116697   1.393   0.197   0.980
 5266SOL    HW216698   1.348   0.154   0.829
 5267SOL     OW16699   4.022   4.080   5.200
 5267SOL    HW116700   4.083   4.001   5.196
 5267SOL    HW216701   4.000   4.109   5.106
 5268SOL     OW16702   5.548   5.029   5.769
 5268SOL    HW116703   5.575   4.985   5.854
 5268SOL    HW216704   5.629   5.058   5.719
 5269SOL     OW16705   2.410   5.329   5.401
 5269SOL    HW116706   2.325   5.277   5.399
 5269SOL    HW216707   2.434   5.357   5.308
 5270SOL     OW16708   6.469   2.301   3.237
 5270SOL    HW116709   6.530   2.235   3.280
 5270SOL    HW216710   6.508   2.393   3.245
 5271SOL     OW16711   5.535   3.470   5.184
 5271SOL    HW116712   5.478   3.489   5.105
 5271SOL    HW216713   5.597   3.547   5.200
 5272SOL     OW16714   2.453   2.142   3.841
 5272SOL    HW116715   2.420   2.082   3.768
 5272SOL    HW216716   2.518   2.092   3.899
 5273SOL     OW16717   6.630   0.586   5.589
 5273SOL    HW116718   6.684   0.511   5.629
 5273SOL    HW216719   6.564   0.619   5.656
 5274SOL     OW16720   0.392   5.239   4.375
 5274SOL    HW116721   0.333   5.231   4.456
 5274SOL    HW216722   0.371   5.323   4.327
 5275SOL     OW16723   2.193   6.279   6.917
 5275SOL    HW116724   2.108   6.234   6.945
 5275SOL    HW216725   2.187   6.305   6.821
 5276SOL     OW16726   0.620   0.045   0.310
 5276SOL    HW116727   0.636   6.967   0.301
 5276SOL    HW216728   0.707   0.094   0.301
 5277SOL     OW16729   0.638   1.024   1.577
 5277SOL    HW116730   0.668   0.971   1.656
 5277SOL    HW216731   0.547   1.063   1.595
 5278SOL     OW16732   0.796   4.817   6.195
 5278SOL    HW116733   0.884   4.778   6.220
 5278SOL    HW216734   0.804   4.865   6.108
 5279SOL     OW16735   2.353   6.399   0.101
 5279SOL    HW116736   2.340   6.394   0.200
 5279SOL    HW216737   2.278   6.352   0.055
 5280SOL     OW16738   4.471   6.457   5.854
 5280SOL    HW116739   4.541   6.488   5.790
 5280SOL    HW216740   4.481   6.506   5.941
 5281SOL     OW16741   2.192   6.599   4.961
 5281SOL    HW116742   2.236   6.510   4.952
 5281SOL    HW216743   2.260   6.671   4.948
 5282SOL     OW16744   6.672   5.907   0.909
 5282SOL    HW116745   6.735   5.963   0.855
 5282SOL    HW216746   6.719   5.871   0.989
 5283SOL     OW16747   1.714   0.748   4.211
 5283SOL    HW116748   1.742   0.726   4.117
 5283SOL    HW216749   1.731   0.844   4.229
 5284SOL     OW16750   4.771   2.874   2.254
 5284SOL    HW116751   4.868   2.858   2.238
 5284SOL    HW216752   4.731   2.919   2.173
 5285SOL     OW16753   1.795   2.166   4.466
 5285SOL    HW116754   1.844   2.127   4.544
 5285SOL    HW216755   1.726   2.230   4.498
 5286SOL     OW16756   6.691   3.031   1.364
 5286SOL    HW116757   6.672   3.109   1.424
 5286SOL    HW216758   6.645   2.949   1.399
 5287SOL     OW16759   0.606   5.004   2.136
 5287SOL    HW116760   0.577   4.916   2.173
 5287SOL    HW216761   0.647   4.992   2.046
 5288SOL     OW16762   4.096   1.338   1.427
 5288SOL    HW116763   4.136   1.268   1.486
 5288SOL    HW216764   3.998   1.345   1.447
 5289SOL     OW16765   1.966   4.850   6.105
 5289SOL    HW116766   1.937   4.940   6.139
 5289SOL    HW216767   1.957   4.848   6.006
 5290SOL     OW16768   1.532   2.998   5.193
 5290SOL    HW116769   1.560   3.075   5.137
 5290SOL    HW216770   1.524   2.916   5.136
 5291SOL     OW16771   2.581   5.337   4.608
 5291SOL    HW116772   2.558   5.432   4.628
 5291SOL    HW216773   2.647   5.334   4.533
 5292SOL     OW16774   0.428   3.935   4.777
 5292SOL    HW116775   0.429   3.896   4.685
 5292SOL    HW216776   0.457   3.866   4.843
 5293SOL     OW16777   2.375   0.357   3.454
 5293SOL    HW116778   2.432   0.302   3.514
 5293SOL    HW216779   2.290   0.382   3.502
 5294SOL     OW16780   5.052   0.093   4.115
 5294SOL    HW116781   5.025   0.066   4.023
 5294SOL    HW216782   5.152   0.101   4.119
 5295SOL     OW16783   2.135   0.875   1.113
 5295SOL    HW116784   2.179   0.892   1.025
 5295SOL    HW216785   2.075   0.795   1.104
 5296SOL     OW16786   4.672   4.991   1.954
 5296SOL    HW116787   4.705   4.925   2.022
 5296SOL    HW216788   4.617   4.944   1.886
 5297SOL     OW16789   3.464   5.182   6.040
 5297SOL    HW116790   3.552   5.160   5.999
 5297SOL    HW216791   3.463   5.153   6.136
 5298SOL     OW16792   3.270   1.341   6.998
 5298SOL    HW116793   3.244   1.338   0.074
 5298SOL    HW216794   3.313   1.429   6.978
 5299SOL     OW16795   2.111   0.637   1.245
 5299SOL    HW116796   2.146   0.687   1.325
 5299SOL    HW216797   2.150   0.545   1.243
 5300SOL     OW16798   3.197   5.082   6.488
 5300SOL    HW116799   3.133   5.096   6.412
 5300SOL    HW216800   3.161   5.125   6.571
 5301SOL     OW16801   6.236   6.695   5.575
 5301SOL    HW116802   6.140   6.682   5.551
 5301SOL    HW216803   6.251   6.789   5.606
 5302SOL     OW16804   4.926   5.289   2.783
 5302SOL    HW116805   4.918   5.371   2.839
 5302SOL    HW216806   4.841   5.237   2.788
 5303SOL     OW16807   1.159   6.229   4.996
 5303SOL    HW116808   1.157   6.308   5.058
 5303SOL    HW216809   1.240   6.174   5.015
 5304SOL     OW16810   0.588   0.603   3.113
 5304SOL    HW116811   0.533   0.520   3.120
 5304SOL    HW216812   0.664   0.588   3.049
 5305SOL     OW16813   6.931   5.462   4.804
 5305SOL    HW116814   6.919   5.473   4.705
 5305SOL    HW216815   6.969   5.372   4.823
 5306SOL     OW16816   0.937   1.896   6.200
 5306SOL    HW116817   1.021   1.916   6.150
 5306SOL    HW216818   0.870   1.969   6.184
 5307SOL     OW16819   0.565   1.366   1.562
 5307SOL    HW116820   0.491   1.302   1.582
 5307SOL    HW216821   0.630   1.368   1.638
 5308SOL     OW16822   1.884   4.587   2.529
 5308SOL    HW116823   1.864   4.492   2.554
 5308SOL    HW216824   1.913   4.591   2.433
 5309SOL     OW16825   5.533   6.205   3.628
 5309SOL    HW116826   5.548   6.304   3.623
 5309SOL    HW216827   5.525   6.177   3.724
 5310SOL     OW16828   6.564   1.961   3.083
 5310SOL    HW116829   6.569   2.060   3.066
 5310SOL    HW216830   6.469   1.935   3.099
 5311SOL     OW16831   5.936   0.011   0.285
 5311SOL    HW116832   5.898   0.059   0.364
 5311SOL    HW216833   5.899   0.050   0.201
 5312SOL     OW16834   5.886   6.483   0.694
 5312SOL    HW116835   5.887   6.383   0.681
 5312SOL    HW216836   5.980   6.516   0.705
 5313SOL     OW16837   1.493   6.836   5.719
 5313SOL    HW116838   1.587   6.866   5.703
 5313SOL    HW216839   1.490   6.736   5.721
 5314SOL     OW16840   5.731   2.069   1.621
 5314SOL    HW116841   5.826   2.095   1.606
 5314SOL    HW216842   5.672   2.123   1.562
 5315SOL     OW16843   4.189   2.224   3.649
 5315SOL    HW116844   4.233   2.278   3.577
 5315SOL    HW216845   4.094   2.205   3.623
 5316SOL     OW16846   0.384   2.977   5.179
 5316SOL    HW116847   0.405   2.909   5.249
 5316SOL    HW216848   0.416   2.944   5.090
 5317SOL     OW16849   5.506   3.360   0.191
 5317SOL    HW116850   5.439   3.434   0.200
 5317SOL    HW216851   5.550   3.345   0.280
 5318SOL     OW16852   0.228   3.778   5.576
 5318SOL    HW116853   0.132   3.808   5.583
 5318SOL    HW216854   0.274   3.829   5.504
 5319SOL     OW16855   3.646   6.279   2.452
 5319SOL    HW116856   3.581   6.209   2.422
 5319SOL    HW216857   3.709   6.241   2.520
 5320SOL     OW16858   4.848   6.081   0.928
 5320SOL    HW116859   4.788   6.038   0.996
 5320SOL    HW216860   4.836   6.035   0.840
 5321SOL     OW16861   1.715   4.066   5.876
 5321SOL    HW116862   1.785   4.066   5.947
 5321SOL    HW216863   1.642   4.002   5.901
 5322SOL     OW16864   3.851   6.335   2.032
 5322SOL    HW116865   3.877   6.245   2.066
 5322SOL    HW216866   3.801   6.326   1.946
 5323SOL     OW16867   4.162   0.339   6.227
 5323SOL    HW116868   4.215   0.294   6.155
 5323SOL    HW216869   4.111   0.270   6.279
 5324SOL     OW16870   1.272   2.022   1.590
 5324SOL    HW116871   1.252   1.927   1.569
 5324SOL    HW216872   1.266   2.037   1.689
 5325SOL     OW16873   2.040   2.667   4.969
 5325SOL    HW116874   2.135   2.694   4.954
 5325SOL    HW216875   2.016   2.681   5.065
 5326SOL     OW16876   6.049   6.750   1.461
 5326SOL    HW116877   6.074   6.728   1.555
 5326SOL    HW216878   6.021   6.666   1.414
 5327SOL     OW16879   0.462   2.715   5.651
 5327SOL    HW116880   0.479   2.672   5.740
 5327SOL    HW216881   0.549   2.730   5.604
 5328SOL     OW16882   4.214   5.128   0.511
 5328SOL    HW116883   4.276   5.202   0.536
 5328SOL    HW216884   4.147   5.114   0.584
 5329SOL     OW16885   2.048   6.498   6.189
 5329SOL    HW116886   2.106   6.578   6.170
 5329SOL    HW216887   2.103   6.415   6.184
 5330SOL     OW16888   2.772   4.826   1.385
 5330SOL    HW116889   2.678   4.799   1.407
 5330SOL    HW216890   2.770   4.913   1.335
 5331SOL     OW16891   6.221   1.347   6.772
 5331SOL    HW116892   6.277   1.413   6.822
 5331SOL    HW216893   6.125   1.376   6.774
 5332SOL     OW16894   0.762   4.484   1.512
 5332SOL    HW116895   0.679   4.515   1.560
 5332SOL    HW216896   0.781   4.389   1.537
 5333SOL     OW16897   0.759   6.479   4.869
 5333SOL    HW116898   0.789   6.574   4.857
 5333SOL    HW216899   0.762   6.455   4.966
 5334SOL     OW16900   3.602   0.087   5.317
 5334SOL    HW116901   3.601   0.187   5.314
 5334SOL    HW216902   3.583   0.057   5.410
 5335SOL     OW16903   6.816   6.072   0.680
 5335SOL    HW116904   6.885   6.045   0.747
 5335SOL    HW216905   6.774   6.158   0.708
 5336SOL     OW16906   1.649   4.397   1.226
 5336SOL    HW116907   1.591   4.462   1.276
 5336SOL    HW216908   1.677   4.438   1.139
 5337SOL     OW16909   5.022   4.433   1.726
 5337SOL    HW116910   4.976   4.520   1.740
 5337SOL    HW216911   5.058   4.400   1.813
 5338SOL     OW16912   5.209   2.965   0.184
 5338SOL    HW116913   5.253   3.018   0.111
 5338SOL    HW216914   5.262   2.975   0.268
 5339SOL     OW16915   6.190   0.327   1.813
 5339SOL    HW116916   6.159   0.232   1.808
 5339SOL    HW216917   6.116   0.385   1.848
 5340SOL     OW16918   4.874   2.730   6.670
 5340SOL    HW116919   4.883   2.814   6.616
 5340SOL    HW216920   4.957   2.675   6.661
 5341SOL     OW16921   4.877   0.511   1.111
 5341SOL    HW116922   4.796   0.461   1.080
 5341SOL    HW216923   4.950   0.447   1.131
 5342SOL     OW16924   2.789   0.198   6.156
 5342SOL    HW116925   2.764   0.107   6.191
 5342SOL    HW216926   2.772   0.267   6.227
 5343SOL     OW16927   3.483   3.906   1.772
 5343SOL    HW116928   3.489   3.996   1.815
 5343SOL    HW216929   3.430   3.844   1.831
 5344SOL     OW16930   2.122   2.545   2.522
 5344SOL    HW116931   2.028   2.578   2.519
 5344SOL    HW216932   2.167   2.580   2.604
 5345SOL     OW16933   4.485   0.397   3.129
 5345SOL    HW116934   4.570   0.440   3.099
 5345SOL    HW216935   4.424   0.466   3.168
 5346SOL     OW16936   2.945   0.525   3.897
 5346SOL    HW116937   2.895   0.438   3.893
 5346SOL    HW216938   2.910   0.581   3.971
 5347SOL     OW16939   6.630   1.471   1.389
 5347SOL    HW116940   6.601   1.512   1.302
 5347SOL    HW216941   6.634   1.541   1.460
 5348SOL     OW16942   6.343   1.381   0.263
 5348SOL    HW116943   6.385   1.332   0.339
 5348SOL    HW216944   6.378   1.474   0.259
 5349SOL     OW16945   5.810   0.095   1.409
 5349SOL    HW116946   5.865   0.173   1.380
 5349SOL    HW216947   5.731   0.127   1.460
 5350SOL     OW16948   2.517   0.232   6.480
 5350SOL    HW116949   2.525   0.331   6.473
 5350SOL    HW216950   2.591   0.197   6.537
 5351SOL     OW16951   4.148   1.144   2.196
 5351SOL    HW116952   4.184   1.236   2.183
 5351SOL    HW216953   4.051   1.149   2.223
 5352SOL     OW16954   3.154   6.573   3.707
 5352SOL    HW116955   3.238   6.597   3.657
 5352SOL    HW216956   3.092   6.651   3.708
 5353SOL     OW16957   6.004   0.015   6.065
 5353SOL    HW116958   5.973   6.976   6.139
 5353SOL    HW216959   6.027   0.105   6.102
 5354SOL     OW16960   1.799   3.411   0.943
 5354SOL    HW116961   1.717   3.449   0.901
 5354SOL    HW216962   1.799   3.311   0.931
 5355SOL     OW16963   4.603   1.394   6.044
 5355SOL    HW116964   4.662   1.440   5.978
 5355SOL    HW216965   4.579   1.303   6.011
 5356SOL     OW16966   6.537   3.360   0.865
 5356SOL    HW116967   6.523   3.285   0.801
 5356SOL    HW216968   6.460   3.365   0.929
 5357SOL     OW16969   3.885   6.178   0.325
 5357SOL    HW116970   3.931   6.166   0.413
 5357SOL    HW216971   3.954   6.189   0.253
 5358SOL     OW16972   5.142   4.309   1.930
 5358SOL    HW116973   5.174   4.237   1.867
 5358SOL    HW216974   5.103   4.266   2.012
 5359SOL     OW16975   3.311   0.060   6.524
 5359SOL    HW116976   3.304   7.007   6.457
 5359SOL    HW216977   3.250   0.135   6.499
 5360SOL     OW16978   4.365   1.387   0.017
 5360SOL    HW116979   4.412   1.318   0.073
 5360SOL    HW216980   4.410   1.394   6.949
 5361SOL     OW16981   1.410   1.073   6.522
 5361SOL    HW116982   1.403   1.048   6.426
 5361SOL    HW216983   1.339   1.139   6.545
 5362SOL     OW16984   4.073   5.710   3.423
 5362SOL    HW116985   4.083   5.743   3.517
 5362SOL    HW216986   3.977   5.699   3.402
 5363SOL     OW16987   0.693   5.715   4.675
 5363SOL    HW116988   0.719   5.804   4.713
 5363SOL    HW216989   0.646   5.727   4.588
 5364SOL     OW16990   1.431   6.027   7.008
 5364SOL    HW116991   1.524   5.997   6.986
 5364SOL    HW216992   1.401   6.093   6.940
 5365SOL     OW16993   3.726   1.918   6.154
 5365SOL    HW116994   3.745   1.984   6.227
 5365SOL    HW216995   3.723   1.826   6.193
 5366SOL     OW16996   3.360   3.746   6.168
 5366SOL    HW116997   3.428   3.734   6.096
 5366SOL    HW216998   3.292   3.673   6.161
 5367SOL     OW16999   0.364   4.870   1.109
 5367SOL    HW117000   0.278   4.919   1.110
 5367SOL    HW217001   0.428   4.915   1.047
 5368SOL     OW17002   0.816   0.621   3.925
 5368SOL    HW117003   0.851   0.528   3.917
 5368SOL    HW217004   0.740   0.623   3.989
 5369SOL     OW17005   2.133   3.657   2.523
 5369SOL    HW117006   2.114   3.754   2.537
 5369SOL    HW217007   2.122   3.635   2.426
 5370SOL     OW17008   3.890   2.956   1.482
 5370SOL    HW117009   3.924   3.049   1.466
 5370SOL    HW217010   3.799   2.960   1.523
 5371SOL     OW17011   1.889   4.179   5.030
 5371SOL    HW117012   1.897   4.267   4.982
 5371SOL    HW217013   1.938   4.109   4.979
 5372SOL     OW17014   3.257   5.996   2.420
 5372SOL    HW117015   3.267   6.073   2.484
 5372SOL    HW217016   3.348   5.966   2.391
 5373SOL     OW17017   1.507   5.123   3.758
 5373SOL    HW117018   1.431   5.162   3.811
 5373SOL    HW217019   1.520   5.028   3.784
 5374SOL     OW17020   3.213   2.341   0.572
 5374SOL    HW117021   3.183   2.430   0.537
 5374SOL    HW217022   3.306   2.349   0.608
 5375SOL     OW17023   1.162   3.716   5.189
 5375SOL    HW117024   1.192   3.681   5.100
 5375SOL    HW217025   1.064   3.698   5.200
 5376SOL     OW17026   2.841   4.492   6.237
 5376SOL    HW117027   2.915   4.535   6.288
 5376SOL    HW217028   2.879   4.421   6.177
 5377SOL     OW17029   0.862   2.061   1.889
 5377SOL    HW117030   0.834   2.157   1.892
 5377SOL    HW217031   0.814   2.014   1.816
 5378SOL     OW17032   5.097   0.419   6.718
 5378SOL    HW117033   5.164   0.348   6.695
 5378SOL    HW217034   5.006   0.378   6.726
 5379SOL     OW17035   0.186   0.061   0.413
 5379SOL    HW117036   0.092   0.082   0.438
 5379SOL    HW217037   0.203   0.088   0.318
 5380SOL     OW17038   1.955   1.441   4.991
 5380SOL    HW117039   1.934   1.527   4.944
 5380SOL    HW217040   2.052   1.420   4.980
 5381SOL     OW17041   6.144   3.791   1.958
 5381SOL    HW117042   6.099   3.717   1.908
 5381SOL    HW217043   6.241   3.770   1.967
 5382SOL     OW17044   1.736   6.702   1.668
 5382SOL    HW117045   1.805   6.662   1.728
 5382SOL    HW217046   1.708   6.791   1.705
 5383SOL     OW17047   2.427   1.867   4.852
 5383SOL    HW117048   2.465   1.896   4.765
 5383SOL    HW217049   2.383   1.944   4.897
 5384SOL     OW17050   5.436   6.917   4.350
 5384SOL    HW117051   5.354   6.866   4.324
 5384SOL    HW217052   5.503   6.854   4.390
 5385SOL     OW17053   3.821   3.972   2.937
 5385SOL    HW117054   3.893   3.907   2.913
 5385SOL    HW217055   3.816   3.982   3.037
 5386SOL     OW17056   5.958   6.602   5.548
 5386SOL    HW117057   5.991   6.612   5.455
 5386SOL    HW217058   5.987   6.514   5.585
 5387SOL     OW17059   3.716   5.035   1.258
 5387SOL    HW117060   3.760   5.007   1.173
 5387SOL    HW217061   3.700   4.955   1.316
 5388SOL     OW17062   5.849   5.706   3.236
 5388SOL    HW117063   5.750   5.714   3.220
 5388SOL    HW217064   5.886   5.635   3.176
 5389SOL     OW17065   5.788   3.203   1.435
 5389SOL    HW117066   5.881   3.237   1.449
 5389SOL    HW217067   5.733   3.274   1.391
 5390SOL     OW17068   6.525   5.361   6.331
 5390SOL    HW117069   6.455   5.379   6.262
 5390SOL    HW217070   6.517   5.428   6.405
 5391SOL     OW17071   3.567   3.907   6.853
 5391SOL    HW117072   3.645   3.904   6.791
 5391SOL    HW217073   3.482   3.896   6.801
 5392SOL     OW17074   0.132   2.770   3.088
 5392SOL    HW117075   0.100   2.745   2.996
 5392SOL    HW217076   0.148   2.868   3.092
 5393SOL     OW17077   6.459   6.876   6.328
 5393SOL    HW117078   6.360   6.865   6.334
 5393SOL    HW217079   6.481   6.949   6.263
 5394SOL     OW17080   1.905   3.707   5.975
 5394SOL    HW117081   1.919   3.730   6.071
 5394SOL    HW217082   1.904   3.607   5.964
 5395SOL     OW17083   4.498   0.841   1.519
 5395SOL    HW117084   4.562   0.816   1.446
 5395SOL    HW217085   4.404   0.834   1.485
 5396SOL     OW17086   4.681   2.579   1.468
 5396SOL    HW117087   4.635   2.493   1.487
 5396SOL    HW217088   4.612   2.651   1.455
 5397SOL     OW17089   1.499   2.536   1.858
 5397SOL    HW117090   1.591   2.535   1.897
 5397SOL    HW217091   1.448   2.457   1.891
 5398SOL     OW17092   3.138   3.175   2.994
 5398SOL    HW117093   3.108   3.154   3.087
 5398SOL    HW217094   3.155   3.273   2.985
 5399SOL     OW17095   0.526   5.413   0.217
 5399SOL    HW117096   0.498   5.492   0.272
 5399SOL    HW217097   0.447   5.353   0.202
 5400SOL     OW17098   2.278   3.310   0.143
 5400SOL    HW117099   2.258   3.408   0.137
 5400SOL    HW217100   2.192   3.260   0.156
 5401SOL     OW17101   6.614   1.690   0.678
 5401SOL    HW117102   6.592   1.788   0.680
 5401SOL    HW217103   6.533   1.637   0.702
 5402SOL     OW17104   1.045   6.265   2.231
 5402SOL    HW117105   0.991   6.210   2.168
 5402SOL    HW217106   0.991   6.284   2.313
 5403SOL     OW17107   6.241   2.970   6.744
 5403SOL    HW117108   6.287   3.058   6.743
 5403SOL    HW217109   6.149   2.980   6.706
 5404SOL     OW17110   0.827   2.940   3.270
 5404SOL    HW117111   0.868   3.029   3.249
 5404SOL    HW217112   0.797   2.896   3.186
 5405SOL     OW17113   6.715   4.477   5.459
 5405SOL    HW117114   6.795   4.538   5.462
 5405SOL    HW217115   6.714   4.429   5.371
 5406SOL     OW17116   1.597   6.953   3.897
 5406SOL    HW117117   1.655   6.883   3.855
 5406SOL    HW217118   1.502   6.940   3.867
 5407SOL     OW17119   4.219   3.471   6.594
 5407SOL    HW117120   4.277   3.430   6.523
 5407SOL    HW217121   4.276   3.501   6.670
 5408SOL     OW17122   3.673   1.048   6.319
 5408SOL    HW117123   3.716   0.991   6.249
 5408SOL    HW217124   3.694   1.144   6.302
 5409SOL     OW17125   4.911   0.631   1.649
 5409SOL    HW117126   4.930   0.687   1.569
 5409SOL    HW217127   4.838   0.673   1.703
 5410SOL     OW17128   1.439   2.664   3.308
 5410SOL    HW117129   1.360   2.649   3.248
 5410SOL    HW217130   1.411   2.720   3.386
 5411SOL     OW17131   2.298   4.784   4.799
 5411SOL    HW117132   2.344   4.696   4.806
 5411SOL    HW217133   2.353   4.854   4.844
 5412SOL     OW17134   6.317   1.949   2.179
 5412SOL    HW117135   6.255   2.012   2.226
 5412SOL    HW217136   6.310   1.859   2.222
 5413SOL     OW17137   1.379   6.799   2.756
 5413SOL    HW117138   1.320   6.813   2.677
 5413SOL    HW217139   1.471   6.775   2.725
 5414SOL     OW17140   4.072   0.114   6.048
 5414SOL    HW117141   4.068   0.048   5.974
 5414SOL    HW217142   4.062   0.207   6.011
 5415SOL     OW17143   6.284   3.670   3.066
 5415SOL    HW117144   6.267   3.753   3.118
 5415SOL    HW217145   6.346   3.610   3.118
 5416SOL     OW17146   4.124   5.214   4.281
 5416SOL    HW117147   4.191   5.141   4.299
 5416SOL    HW217148   4.034   5.173   4.263
 5417SOL     OW17149   2.948   6.795   5.596
 5417SOL    HW117150   3.004   6.714   5.615
 5417SOL    HW217151   2.930   6.844   5.681
 5418SOL     OW17152   3.631   1.175   3.186
 5418SOL    HW117153   3.628   1.076   3.171
 5418SOL    HW217154   3.726   1.205   3.189
 5419SOL     OW17155   3.202   4.185   6.882
 5419SOL    HW117156   3.128   4.253   6.878
 5419SOL    HW217157   3.162   4.093   6.882
 5420SOL     OW17158   0.918   2.447   3.006
 5420SOL    HW117159   0.904   2.351   3.029
 5420SOL    HW217160   0.950   2.496   3.087
 5421SOL     OW17161   2.178   2.175   0.685
 5421SOL    HW117162   2.161   2.264   0.727
 5421SOL    HW217163   2.213   2.187   0.593
 5422SOL     OW17164   0.850   3.415   0.133
 5422SOL    HW117165   0.944   3.432   0.103
 5422SOL    HW217166   0.848   3.403   0.232
 5423SOL     OW17167   4.569   2.982   5.835
 5423SOL    HW117168   4.557   3.042   5.914
 5423SOL    HW217169   4.574   2.886   5.866
 5424SOL     OW17170   5.091   2.919   5.682
 5424SOL    HW117171   5.156   2.886   5.750
 5424SOL    HW217172   5.132   2.917   5.591
 5425SOL     OW17173   5.057   1.022   4.939
 5425SOL    HW117174   5.124   1.027   5.013
 5425SOL    HW217175   5.100   1.048   4.853
 5426SOL     OW17176   0.517   0.079   4.679
 5426SOL    HW117177   0.456   0.096   4.756
 5426SOL    HW217178   0.507   7.004   4.649
 5427SOL     OW17179   4.260   0.364   0.182
 5427SOL    HW117180   4.167   0.335   0.159
 5427SOL    HW217181   4.291   0.432   0.115
 5428SOL     OW17182   1.584   1.055   6.946
 5428SOL    HW117183   1.617   0.962   6.931
 5428SOL    HW217184   1.654   1.121   6.917
 5429SOL     OW17185   1.056   2.514   5.999
 5429SOL    HW117186   1.151   2.531   5.972
 5429SOL    HW217187   1.050   2.428   6.050
 5430SOL     OW17188   2.354   2.759   5.642
 5430SOL    HW117189   2.324   2.848   5.607
 5430SOL    HW217190   2.338   2.689   5.572
 5431SOL     OW17191   3.576   5.497   4.188
 5431SOL    HW117192   3.672   5.472   4.173
 5431SOL    HW217193   3.572   5.585   4.237
 5432SOL     OW17194   5.654   5.120   1.430
 5432SOL    HW117195   5.611   5.030   1.437
 5432SOL    HW217196   5.669   5.156   1.522
 5433SOL     OW17197   0.919   1.538   3.687
 5433SOL    HW117198   0.891   1.591   3.606
 5433SOL    HW217199   0.913   1.596   3.768
 5434SOL     OW17200   2.344   6.401   4.915
 5434SOL    HW117201   2.441   6.406   4.942
 5434SOL    HW217202   2.337   6.360   4.824
 5435SOL     OW17203   4.775   0.657   2.254
 5435SOL    HW117204   4.817   0.740   2.291
 5435SOL    HW217205   4.830   0.623   2.178
 5436SOL     OW17206   5.523   3.822   2.992
 5436SOL    HW117207   5.434   3.801   3.031
 5436SOL    HW217208   5.511   3.865   2.902
 5437SOL     OW17209   3.786   4.876   6.084
 5437SOL    HW117210   3.752   4.782   6.078
 5437SOL    HW217211   3.787   4.904   6.180
 5438SOL     OW17212   6.655   0.557   0.885
 5438SOL    HW117213   6.727   0.488   0.873
 5438SOL    HW217214   6.670   0.605   0.972
 5439SOL     OW17215   1.160   3.190   0.630
 5439SOL    HW117216   1.061   3.199   0.642
 5439SOL    HW217217   1.187   3.232   0.543
 5440SOL     OW17218   1.937   1.124   1.435
 5440SOL    HW117219   2.014   1.091   1.380
 5440SOL    HW217220   1.972   1.182   1.509
 5441SOL     OW17221   3.741   1.939   4.552
 5441SOL    HW117222   3.647   1.945   4.585
 5441SOL    HW217223   3.771   2.029   4.521
 5442SOL     OW17224   3.334   0.980   1.965
 5442SOL    HW117225   3.399   0.919   2.009
 5442SOL    HW217226   3.300   1.046   2.032
 5443SOL     OW17227   1.894   6.521   5.569
 5443SOL    HW117228   1.890   6.451   5.497
 5443SOL    HW217229   1.838   6.599   5.543
 5444SOL     OW17230   0.482   1.369   3.519
 5444SOL    HW117231   0.422   1.397   3.594
 5444SOL    HW217232   0.570   1.339   3.557
 5445SOL     OW17233   6.254   3.489   2.114
 5445SOL    HW117234   6.307   3.448   2.189
 5445SOL    HW217235   6.157   3.487   2.137
 5446SOL     OW17236   6.550   6.015   5.941
 5446SOL    HW117237   6.612   5.954   5.892
 5446SOL    HW217238   6.456   5.989   5.922
 5447SOL     OW17239   3.060   2.428   0.898
 5447SOL    HW117240   3.038   2.377   0.982
 5447SOL    HW217241   3.149   2.471   0.907
 5448SOL     OW17242   5.352   1.578   6.393
 5448SOL    HW117243   5.295   1.656   6.369
 5448SOL    HW217244   5.404   1.598   6.476
 5449SOL     OW17245   0.332   2.766   6.928
 5449SOL    HW117246   0.249   2.711   6.924
 5449SOL    HW217247   0.336   2.827   6.848
 5450SOL     OW17248   2.517   6.076   0.914
 5450SOL    HW117249   2.527   6.163   0.962
 5450SOL    HW217250   2.440   6.025   0.954
 5451SOL     OW17251   2.662   0.671   2.891
 5451SOL    HW117252   2.681   0.703   2.798
 5451SOL    HW217253   2.580   0.614   2.891
 5452SOL     OW17254   2.598   4.084   5.824
 5452SOL    HW117255   2.553   4.003   5.786
 5452SOL    HW217256   2.685   4.098   5.778
 5453SOL     OW17257   0.491   5.546   5.592
 5453SOL    HW117258   0.442   5.622   5.635
 5453SOL    HW217259   0.555   5.582   5.525
 5454SOL     OW17260   0.917   4.042   5.321
 5454SOL    HW117261   0.993   4.062   5.260
 5454SOL    HW217262   0.951   3.996   5.403
 5455SOL     OW17263   6.697   2.024   0.715
 5455SOL    HW117264   6.694   1.995   0.811
 5455SOL    HW217265   6.630   2.097   0.701
 5456SOL     OW17266   3.482   6.716   1.308
 5456SOL    HW117267   3.470   6.774   1.389
 5456SOL    HW217268   3.578   6.693   1.297
 5457SOL     OW17269   6.588   3.755   0.999
 5457SOL    HW117270   6.659   3.693   1.033
 5457SOL    HW217271   6.631   3.827   0.944
 5458SOL     OW17272   1.611   4.329   5.921
 5458SOL    HW117273   1.536   4.340   5.985
 5458SOL    HW217274   1.630   4.232   5.908
 5459SOL     OW17275   2.247   4.002   6.155
 5459SOL    HW117276   2.327   3.949   6.184
 5459SOL    HW217277   2.206   3.960   6.075
 5460SOL     OW17278   4.049   0.313   3.919
 5460SOL    HW117279   4.090   0.376   3.853
 5460SOL    HW217280   3.951   0.333   3.928
 5461SOL     OW17281   4.272   6.684   4.916
 5461SOL    HW117282   4.272   6.729   5.005
 5461SOL    HW217283   4.357   6.704   4.868
 5462SOL     OW17284   0.335   0.400   1.228
 5462SOL    HW117285   0.335   0.500   1.223
 5462SOL    HW217286   0.382   0.371   1.312
 5463SOL     OW17287   6.784   3.124   0.970
 5463SOL    HW117288   6.778   3.024   0.975
 5463SOL    HW217289   6.811   3.151   0.878
 5464SOL     OW17290   1.452   6.402   4.544
 5464SOL    HW117291   1.432   6.325   4.605
 5464SOL    HW217292   1.469   6.367   4.451
 5465SOL     OW17293   2.847   5.805   6.721
 5465SOL    HW117294   2.899   5.772   6.643
 5465SOL    HW217295   2.835   5.732   6.788
 5466SOL     OW17296   5.773   5.859   4.605
 5466SOL    HW117297   5.775   5.825   4.511
 5466SOL    HW217298   5.685   5.905   4.621
 5467SOL     OW17299   5.956   1.560   1.771
 5467SOL    HW117300   5.955   1.636   1.707
 5467SOL    HW217301   6.048   1.520   1.775
 5468SOL     OW17302   4.020   1.200   6.425
 5468SOL    HW117303   4.053   1.106   6.437
 5468SOL    HW217304   4.096   1.264   6.434
 5469SOL     OW17305   4.900   4.659   1.837
 5469SOL    HW117306   4.801   4.664   1.838
 5469SOL    HW217307   4.937   4.742   1.796
 5470SOL     OW17308   0.213   4.678   3.114
 5470SOL    HW117309   0.226   4.695   3.212
 5470SOL    HW217310   0.164   4.592   3.101
 5471SOL     OW17311   6.532   4.432   2.325
 5471SOL    HW117312   6.621   4.461   2.291
 5471SOL    HW217313   6.485   4.510   2.367
 5472SOL     OW17314   3.585   5.369   4.917
 5472SOL    HW117315   3.566   5.347   5.012
 5472SOL    HW217316   3.585   5.285   4.863
 5473SOL     OW17317   1.418   4.501   3.716
 5473SOL    HW117318   1.459   4.539   3.634
 5473SOL    HW217319   1.347   4.563   3.750
 5474SOL     OW17320   1.063   6.092   3.068
 5474SOL    HW117321   1.159   6.077   3.042
 5474SOL    HW217322   1.026   6.008   3.108
 5475SOL     OW17323   3.042   2.925   1.574
 5475SOL    HW117324   3.036   3.023   1.589
 5475SOL    HW217325   2.966   2.879   1.619
 5476SOL     OW17326   1.889   3.134   6.754
 5476SOL    HW117327   1.813   3.092   6.703
 5476SOL    HW217328   1.901   3.087   6.841
 5477SOL     OW17329   2.295   2.325   2.197
 5477SOL    HW117330   2.375   2.361   2.245
 5477SOL    HW217331   2.222   2.307   2.264
 5478SOL     OW17332   6.871   5.632   5.676
 5478SOL    HW117333   6.800   5.575   5.718
 5478SOL    HW217334   6.948   5.640   5.738
 5479SOL     OW17335   4.517   6.240   5.509
 5479SOL    HW117336   4.556   6.165   5.456
 5479SOL    HW217337   4.587   6.310   5.524
 5480SOL     OW17338   0.349   2.139   5.777
 5480SOL    HW117339   0.258   2.162   5.742
 5480SOL    HW217340   0.367   2.042   5.763
 5481SOL     OW17341   3.816   6.248   2.925
 5481SOL    HW117342   3.874   6.288   2.996
 5481SOL    HW217343   3.743   6.195   2.967
 5482SOL     OW17344   1.664   6.262   1.991
 5482SOL    HW117345   1.571   6.253   1.955
 5482SOL    HW217346   1.673   6.350   2.038
 5483SOL     OW17347   1.044   2.293   6.190
 5483SOL    HW117348   1.098   2.217   6.227
 5483SOL    HW217349   0.947   2.274   6.203
 5484SOL     OW17350   5.491   0.187   4.790
 5484SOL    HW117351   5.549   0.264   4.814
 5484SOL    HW217352   5.493   0.119   4.864
 5485SOL     OW17353   3.606   0.886   4.565
 5485SOL    HW117354   3.674   0.943   4.611
 5485SOL    HW217355   3.548   0.842   4.634
 5486SOL     OW17356   3.468   4.947   3.914
 5486SOL    HW117357   3.385   4.910   3.873
 5486SOL    HW217358   3.446   4.990   4.002
 5487SOL     OW17359   3.338   6.047   5.055
 5487SOL    HW117360   3.361   6.133   5.010
 5487SOL    HW217361   3.422   6.000   5.082
 5488SOL     OW17362   4.908   2.384   6.326
 5488SOL    HW117363   4.951   2.472   6.344
 5488SOL    HW217364   4.812   2.388   6.353
 5489SOL     OW17365   6.841   2.625   4.029
 5489SOL    HW117366   6.759   2.609   3.974
 5489SOL    HW217367   6.915   2.567   3.996
 5490SOL     OW17368   0.815   5.197   2.157
 5490SOL    HW117369   0.779   5.104   2.148
 5490SOL    HW217370   0.781   5.253   2.081
 5491SOL     OW17371   6.298   4.258   0.425
 5491SOL    HW117372   6.246   4.173   0.431
 5491SOL    HW217373   6.282   4.301   0.336
 5492SOL     OW17374   0.685   1.988   6.836
 5492SOL    HW117375   0.681   2.080   6.798
 5492SOL    HW217376   0.618   1.980   6.910
 5493SOL     OW17377   4.541   4.269   6.898
 5493SOL    HW117378   4.628   4.231   6.865
 5493SOL    HW217379   4.473   4.196   6.903
 5494SOL     OW17380   5.633   2.552   5.681
 5494SOL    HW117381   5.590   2.471   5.641
 5494SOL    HW217382   5.564   2.623   5.694
 5495SOL     OW17383   5.915   0.855   0.878
 5495SOL    HW117384   5.872   0.880   0.965
 5495SOL    HW217385   5.844   0.837   0.810
 5496SOL     OW17386   4.296   6.278   5.912
 5496SOL    HW117387   4.341   6.365   5.893
 5496SOL    HW217388   4.310   6.216   5.834
 5497SOL     OW17389   0.889   6.863   6.141
 5497SOL    HW117390   0.874   6.954   6.101
 5497SOL    HW217391   0.979   6.860   6.185
 5498SOL     OW17392   0.893   5.712   1.546
 5498SOL    HW117393   0.830   5.743   1.617
 5498SOL    HW217394   0.879   5.614   1.530
 5499SOL     OW17395   2.152   0.384   3.620
 5499SOL    HW117396   2.219   0.361   3.691
 5499SOL    HW217397   2.116   0.476   3.638
 5500SOL     OW17398   1.700   6.181   1.490
 5500SOL    HW117399   1.687   6.082   1.488
 5500SOL    HW217400   1.624   6.224   1.539
 5501SOL     OW17401   5.358   3.675   0.654
 5501SOL    HW117402   5.373   3.670   0.556
 5501SOL    HW217403   5.286   3.741   0.673
 5502SOL     OW17404   4.519   3.552   0.227
 5502SOL    HW117405   4.560   3.610   0.157
 5502SOL    HW217406   4.510   3.603   0.312
 5503SOL     OW17407   6.233   3.326   1.279
 5503SOL    HW117408   6.272   3.359   1.365
 5503SOL    HW217409   6.135   3.311   1.290
 5504SOL     OW17410   3.427   2.081   6.758
 5504SOL    HW117411   3.368   2.133   6.697
 5504SOL    HW217412   3.394   2.090   6.852
 5505SOL     OW17413   2.508   5.219   2.114
 5505SOL    HW117414   2.580   5.150   2.113
 5505SOL    HW217415   2.454   5.210   2.198
 5506SOL     OW17416   6.482   2.597   5.906
 5506SOL    HW117417   6.387   2.594   5.937
 5506SOL    HW217418   6.487   2.573   5.809
 5507SOL     OW17419   4.011   6.517   0.567
 5507SOL    HW117420   4.018   6.419   0.589
 5507SOL    HW217421   3.924   6.552   0.603
 5508SOL     OW17422   6.608   1.864   6.354
 5508SOL    HW117423   6.707   1.863   6.347
 5508SOL    HW217424   6.570   1.923   6.282
 5509SOL     OW17425   5.969   4.087   0.111
 5509SOL    HW117426   5.996   4.159   0.047
 5509SOL    HW217427   6.050   4.042   0.149
 5510SOL     OW17428   5.721   5.625   0.070
 5510SOL    HW117429   5.747   5.716   0.103
 5510SOL    HW217430   5.755   5.612   6.997
 5511SOL     OW17431   1.004   2.776   6.317
 5511SOL    HW117432   1.045   2.750   6.229
 5511SOL    HW217433   0.912   2.813   6.300
 5512SOL     OW17434   3.153   7.018   2.243
 5512SOL    HW117435   3.218   6.983   2.310
 5512SOL    HW217436   3.064   6.973   2.257
 5513SOL     OW17437   3.890   4.631   6.608
 5513SOL    HW117438   3.867   4.717   6.655
 5513SOL    HW217439   3.958   4.649   6.537
 5514SOL     OW17440   3.705   1.472   0.445
 5514SOL    HW117441   3.654   1.408   0.387
 5514SOL    HW217442   3.769   1.421   0.503
 5515SOL     OW17443   3.211   5.035   2.442
 5515SOL    HW117444   3.217   5.033   2.342
 5515SOL    HW217445   3.154   4.959   2.474
 5516SOL     OW17446   1.292   2.778   6.112
 5516SOL    HW117447   1.311   2.754   6.016
 5516SOL    HW217448   1.283   2.694   6.166
 5517SOL     OW17449   0.891   2.029   4.453
 5517SOL    HW117450   0.815   2.015   4.517
 5517SOL    HW217451   0.955   2.095   4.492
 5518SOL     OW17452   4.451   4.247   5.924
 5518SOL    HW117453   4.437   4.194   6.008
 5518SOL    HW217454   4.402   4.203   5.849
 5519SOL     OW17455   5.126   2.602   5.866
 5519SOL    HW117456   5.098   2.538   5.794
 5519SOL    HW217457   5.045   2.630   5.918
 5520SOL     OW17458   5.306   6.003   1.530
 5520SOL    HW117459   5.310   5.953   1.617
 5520SOL    HW217460   5.279   6.097   1.547
 5521SOL     OW17461   4.473   0.687   2.181
 5521SOL    HW117462   4.554   0.723   2.228
 5521SOL    HW217463   4.443   0.603   2.224
 5522SOL     OW17464   4.706   6.361   6.772
 5522SOL    HW117465   4.632   6.402   6.824
 5522SOL    HW217466   4.757   6.298   6.830
 5523SOL     OW17467   5.244   1.839   0.800
 5523SOL    HW117468   5.174   1.834   0.870
 5523SOL    HW217469   5.206   1.881   0.717
 5524SOL     OW17470   2.362   1.559   3.020
 5524SOL    HW117471   2.435   1.627   3.023
 5524SOL    HW217472   2.341   1.538   2.925
 5525SOL     OW17473   6.931   1.077   1.041
 5525SOL    HW117474   6.965   1.072   0.947
 5525SOL    HW217475   6.985   1.015   1.099
 5526SOL     OW17476   4.979   4.356   4.095
 5526SOL    HW117477   4.940   4.393   4.180
 5526SOL    HW217478   5.079   4.358   4.100
 5527SOL     OW17479   6.432   0.407   2.502
 5527SOL    HW117480   6.392   0.339   2.564
 5527SOL    HW217481   6.382   0.493   2.509
 5528SOL     OW17482   1.543   1.289   0.182
 5528SOL    HW117483   1.584   1.340   0.258
 5528SOL    HW217484   1.573   1.329   0.095
 5529SOL     OW17485   3.633   0.211   2.234
 5529SOL    HW117486   3.705   0.271   2.198
 5529SOL    HW217487   3.622   0.227   2.332
 5530SOL     OW17488   1.072   1.765   1.265
 5530SOL    HW117489   1.118   1.691   1.214
 5530SOL    HW217490   1.077   1.849   1.212
 5531SOL     OW17491   1.286   4.598   0.283
 5531SOL    HW117492   1.282   4.638   0.374
 5531SOL    HW217493   1.305   4.669   0.216
 5532SOL     OW17494   0.279   4.619   6.201
 5532SOL    HW117495   0.331   4.702   6.182
 5532SOL    HW217496   0.304   4.583   6.291
 5533SOL     OW17497   3.024   1.221   3.230
 5533SOL    HW117498   3.036   1.155   3.304
 5533SOL    HW217499   3.036   1.176   3.142
 5534SOL     OW17500   1.395   0.673   4.521
 5534SOL    HW117501   1.370   0.624   4.438
 5534SOL    HW217502   1.347   0.632   4.599
 5535SOL     OW17503   0.232   1.891   2.469
 5535SOL    HW117504   0.298   1.886   2.395
 5535SOL    HW217505   0.237   1.981   2.513
 5536SOL     OW17506   4.498   0.242   4.279
 5536SOL    HW117507   4.517   0.224   4.183
 5536SOL    HW217508   4.527   0.163   4.334
 5537SOL     OW17509   2.611   2.452   2.752
 5537SOL    HW117510   2.541   2.390   2.718
 5537SOL    HW217511   2.571   2.542   2.768
 5538SOL     OW17512   3.925   5.225   3.763
 5538SOL    HW117513   3.829   5.248   3.748
 5538SOL    HW217514   3.935   5.186   3.855
 5539SOL     OW17515   2.701   4.100   6.958
 5539SOL    HW117516   2.630   4.147   7.011
 5539SOL    HW217517   2.658   4.033   6.897
 5540SOL     OW17518   3.743   5.351   1.263
 5540SOL    HW117519   3.748   5.252   1.246
 5540SOL    HW217520   3.797   5.399   1.194
 5541SOL     OW17521   4.654   0.557   6.385
 5541SOL    HW117522   4.660   0.571   6.286
 5541SOL    HW217523   4.582   0.616   6.422
 5542SOL     OW17524   5.909   3.969   6.353
 5542SOL    HW117525   5.952   4.056   6.378
 5542SOL    HW217526   5.946   3.896   6.410
 5543SOL     OW17527   0.542   2.295   5.176
 5543SOL    HW117528   0.617   2.361   5.175
 5543SOL    HW217529   0.461   2.337   5.218
 5544SOL     OW17530   5.514   0.508   0.127
 5544SOL    HW117531   5.549   0.460   0.207
 5544SOL    HW217532   5.416   0.489   0.116
 5545SOL     OW17533   2.459   2.461   1.822
 5545SOL    HW117534   2.371   2.413   1.819
 5545SOL    HW217535   2.443   2.556   1.848
 5546SOL     OW17536   3.453   5.589   4.860
 5546SOL    HW117537   3.509   5.507   4.875
 5546SOL    HW217538   3.507   5.659   4.815
 5547SOL     OW17539   2.823   5.235   3.818
 5547SOL    HW117540   2.737   5.250   3.868
 5547SOL    HW217541   2.810   5.258   3.721
 5548SOL     OW17542   6.895   1.936   4.794
 5548SOL    HW117543   6.859   1.991   4.719
 5548SOL    HW217544   6.884   1.986   4.880
 5549SOL     OW17545   3.237   5.534   6.024
 5549SOL    HW117546   3.155   5.479   6.007
 5549SOL    HW217547   3.298   5.529   5.945
 5550SOL     OW17548   2.629   6.106   2.757
 5550SOL    HW117549   2.551   6.081   2.814
 5550SOL    HW217550   2.598   6.120   2.662
 5551SOL     OW17551   0.436   1.385   2.578
 5551SOL    HW117552   0.386   1.407   2.494
 5551SOL    HW217553   0.458   1.470   2.627
 5552SOL     OW17554   2.003   2.331   2.396
 5552SOL    HW117555   1.938   2.386   2.344
 5552SOL    HW217556   2.068   2.391   2.442
 5553SOL     OW17557   5.135   6.624   6.505
 5553SOL    HW117558   5.048   6.627   6.455
 5553SOL    HW217559   5.192   6.551   6.468
 5554SOL     OW17560   3.368   0.466   5.069
 5554SOL    HW117561   3.322   0.484   5.157
 5554SOL    HW217562   3.331   0.383   5.029
 5555SOL     OW17563   1.213   5.966   1.770
 5555SOL    HW117564   1.206   5.875   1.728
 5555SOL    HW217565   1.131   5.985   1.824
 5556SOL     OW17566   6.836   1.393   5.017
 5556SOL    HW117567   6.789   1.420   4.933
 5556SOL    HW217568   6.772   1.396   5.093
 5557SOL     OW17569   3.666   0.781   2.377
 5557SOL    HW117570   3.668   0.682   2.363
 5557SOL    HW217571   3.711   0.826   2.301
 5558SOL     OW17572   4.844   2.778   6.129
 5558SOL    HW117573   4.753   2.817   6.135
 5558SOL    HW217574   4.852   2.722   6.046
 5559SOL     OW17575   2.883   0.695   0.767
 5559SOL    HW117576   2.806   0.759   0.771
 5559SOL    HW217577   2.880   0.636   0.847
 5560SOL     OW17578   0.167   1.832   4.833
 5560SOL    HW117579   0.239   1.835   4.902
 5560SOL    HW217580   0.111   1.915   4.839
 5561SOL     OW17581   1.982   4.531   1.905
 5561SOL    HW117582   2.031   4.518   1.991
 5561SOL    HW217583   1.951   4.442   1.871
 5562SOL     OW17584   3.656   2.368   0.215
 5562SOL    HW117585   3.755   2.355   0.222
 5562SOL    HW217586   3.637   2.465   0.198
 5563SOL     OW17587   3.741   4.441   0.997
 5563SOL    HW117588   3.806   4.367   0.981
 5563SOL    HW217589   3.717   4.483   0.910
 5564SOL     OW17590   6.488   1.052   2.103
 5564SOL    HW117591   6.541   0.987   2.048
 5564SOL    HW217592   6.415   1.091   2.047
 5565SOL     OW17593   1.472   2.874   5.787
 5565SOL    HW117594   1.469   2.967   5.825
 5565SOL    HW217595   1.486   2.880   5.688
 5566SOL     OW17596   2.369   4.272   0.664
 5566SOL    HW117597   2.316   4.324   0.731
 5566SOL    HW217598   2.309   4.206   0.618
 5567SOL     OW17599   1.457   5.435   3.132
 5567SOL    HW117600   1.461   5.490   3.215
 5567SOL    HW217601   1.505   5.348   3.147
 5568SOL     OW17602   3.621   2.867   0.167
 5568SOL    HW117603   3.672   2.854   0.252
 5568SOL    HW217604   3.613   2.779   0.119
 5569SOL     OW17605   4.889   1.745   6.730
 5569SOL    HW117606   4.966   1.805   6.710
 5569SOL    HW217607   4.843   1.777   6.814
 5570SOL     OW17608   1.732   2.568   5.700
 5570SOL    HW117609   1.753   2.649   5.645
 5570SOL    HW217610   1.700   2.597   5.790
 5571SOL     OW17611   0.504   4.735   6.514
 5571SOL    HW117612   0.584   4.678   6.496
 5571SOL    HW217613   0.524   4.829   6.488
 5572SOL     OW17614   0.594   3.375   5.802
 5572SOL    HW117615   0.687   3.341   5.815
 5572SOL    HW217616   0.566   3.359   5.707
 5573SOL     OW17617   6.692   3.572   6.658
 5573SOL    HW117618   6.705   3.517   6.740
 5573SOL    HW217619   6.754   3.541   6.586
 5574SOL     OW17620   2.097   6.081   4.352
 5574SOL    HW117621   2.093   5.983   4.331
 5574SOL    HW217622   2.023   6.103   4.416
 5575SOL     OW17623   1.321   1.402   3.072
 5575SOL    HW117624   1.341   1.305   3.084
 5575SOL    HW217625   1.297   1.442   3.160
 5576SOL     OW17626   5.284   6.886   6.040
 5576SOL    HW117627   5.292   6.797   5.995
 5576SOL    HW217628   5.247   6.873   6.133
 5577SOL     OW17629   1.290   4.942   4.771
 5577SOL    HW117630   1.356   4.995   4.718
 5577SOL    HW217631   1.314   4.845   4.765
 5578SOL     OW17632   4.168   1.593   5.927
 5578SOL    HW117633   4.220   1.559   6.006
 5578SOL    HW217634   4.143   1.516   5.868
 5579SOL     OW17635   4.789   4.519   2.493
 5579SOL    HW117636   4.807   4.585   2.565
 5579SOL    HW217637   4.870   4.509   2.436
 5580SOL     OW17638   6.539   1.232   1.747
 5580SOL    HW117639   6.617   1.281   1.786
 5580SOL    HW217640   6.454   1.271   1.783
 5581SOL     OW17641   3.399   3.275   0.638
 5581SOL    HW117642   3.337   3.351   0.659
 5581SOL    HW217643   3.347   3.190   0.636
 5582SOL     OW17644   3.062   3.868   4.789
 5582SOL    HW117645   3.068   3.903   4.882
 5582SOL    HW217646   3.142   3.811   4.770
 5583SOL     OW17647   3.797   0.736   6.551
 5583SOL    HW117648   3.716   0.771   6.504
 5583SOL    HW217649   3.778   0.728   6.648
 5584SOL     OW17650   4.990   3.302   4.355
 5584SOL    HW117651   4.939   3.241   4.416
 5584SOL    HW217652   4.981   3.269   4.261
 5585SOL     OW17653   0.140   0.794   3.682
 5585SOL    HW117654   0.074   0.870   3.683
 5585SOL    HW217655   0.121   0.734   3.605
 5586SOL     OW17656   1.913   0.554   6.808
 5586SOL    HW117657   2.003   0.511   6.810
 5586SOL    HW217658   1.883   0.563   6.714
 5587SOL     OW17659   3.265   5.903   3.123
 5587SOL    HW117660   3.260   5.989   3.073
 5587SOL    HW217661   3.173   5.873   3.147
 5588SOL     OW17662   4.822   5.527   6.939
 5588SOL    HW117663   4.747   5.463   6.923
 5588SOL    HW217664   4.800   5.614   6.894
 5589SOL     OW17665   1.613   2.531   6.787
 5589SOL    HW117666   1.614   2.443   6.740
 5589SOL    HW217667   1.578   2.519   6.879
 5590SOL     OW17668   6.555   0.668   3.458
 5590SOL    HW117669   6.531   0.571   3.459
 5590SOL    HW217670   6.516   0.713   3.539
 5591SOL     OW17671   5.120   1.177   6.399
 5591SOL    HW117672   5.116   1.113   6.475
 5591SOL    HW217673   5.171   1.259   6.426
 5592SOL     OW17674   1.505   3.812   2.628
 5592SOL    HW117675   1.575   3.779   2.691
 5592SOL    HW217676   1.453   3.734   2.592
 5593SOL     OW17677   2.218   3.586   5.248
 5593SOL    HW117678   2.174   3.546   5.328
 5593SOL    HW217679   2.173   3.555   5.165
 5594SOL     OW17680   3.000   0.855   6.160
 5594SOL    HW117681   2.940   0.926   6.195
 5594SOL    HW217682   3.080   0.897   6.118
 5595SOL     OW17683   6.757   3.340   6.861
 5595SOL    HW117684   6.683   3.374   6.920
 5595SOL    HW217685   6.843   3.381   6.891
 5596SOL     OW17686   5.070   3.854   4.391
 5596SOL    HW117687   5.165   3.863   4.419
 5596SOL    HW217688   5.035   3.765   4.421
 5597SOL     OW17689   0.285   1.986   6.417
 5597SOL    HW117690   0.382   2.006   6.401
 5597SOL    HW217691   0.229   2.052   6.366
 5598SOL     OW17692   6.687   6.908   3.449
 5598SOL    HW117693   6.705   6.918   3.352
 5598SOL    HW217694   6.714   6.991   3.498
 5599SOL     OW17695   4.985   3.331   3.013
 5599SOL    HW117696   5.025   3.381   2.936
 5599SOL    HW217697   4.910   3.273   2.979
 5600SOL     OW17698   1.980   3.087   1.801
 5600SOL    HW117699   2.064   3.142   1.796
 5600SOL    HW217700   1.923   3.106   1.721
 5601SOL     OW17701   5.199   2.562   6.441
 5601SOL    HW117702   5.282   2.563   6.385
 5601SOL    HW217703   5.127   2.614   6.394
 5602SOL     OW17704   5.920   1.336   2.659
 5602SOL    HW117705   5.961   1.281   2.732
 5602SOL    HW217706   5.821   1.335   2.668
 5603SOL     OW17707   3.621   1.015   5.882
 5603SOL    HW117708   3.546   1.027   5.946
 5603SOL    HW217709   3.587   1.025   5.788
 5604SOL     OW17710   1.289   4.408   3.378
 5604SOL    HW117711   1.306   4.309   3.375
 5604SOL    HW217712   1.268   4.435   3.473
 5605SOL     OW17713   3.410   6.544   4.583
 5605SOL    HW117714   3.463   6.466   4.616
 5605SOL    HW217715   3.346   6.573   4.655
 5606SOL     OW17716   4.326   4.146   1.322
 5606SOL    HW117717   4.311   4.048   1.330
 5606SOL    HW217718   4.355   4.183   1.410
 5607SOL     OW17719   1.350   1.968   2.368
 5607SOL    HW117720   1.415   1.900   2.403
 5607SOL    HW217721   1.264   1.923   2.346
 5608SOL     OW17722   6.473   6.253   3.527
 5608SOL    HW117723   6.457   6.189   3.452
 5608SOL    HW217724   6.570   6.248   3.554
 5609SOL     OW17725   6.477   1.002   0.631
 5609SOL    HW117726   6.405   0.977   0.696
 5609SOL    HW217727   6.462   1.094   0.597
 5610SOL     OW17728   5.420   6.803   6.479
 5610SOL    HW117729   5.455   6.894   6.498
 5610SOL    HW217730   5.427   6.746   6.561
 5611SOL     OW17731   6.769   3.775   1.448
 5611SOL    HW117732   6.670   3.779   1.433
 5611SOL    HW217733   6.806   3.693   1.403
 5612SOL     OW17734   5.010   2.140   1.357
 5612SOL    HW117735   4.933   2.133   1.420
 5612SOL    HW217736   5.033   2.236   1.342
 5613SOL     OW17737   6.567   5.225   5.342
 5613SOL    HW117738   6.608   5.170   5.416
 5613SOL    HW217739   6.638   5.282   5.301
 5614SOL     OW17740   5.724   2.406   4.433
 5614SOL    HW117741   5.716   2.506   4.435
 5614SOL    HW217742   5.694   2.368   4.520
 5615SOL     OW17743   0.489   3.434   2.608
 5615SOL    HW117744   0.579   3.438   2.565
 5615SOL    HW217745   0.449   3.343   2.594
 5616SOL     OW17746   1.445   3.060   1.524
 5616SOL    HW117747   1.434   3.011   1.438
 5616SOL    HW217748   1.526   3.026   1.572
 5617SOL     OW17749   0.226   5.139   5.067
 5617SOL    HW117750   0.223   5.057   5.125
 5617SOL    HW217751   0.202   5.219   5.122
 5618SOL     OW17752   5.008   1.013   3.382
 5618SOL    HW117753   4.927   0.955   3.373
 5618SOL    HW217754   4.990   1.101   3.340
 5619SOL     OW17755   3.777   4.115   4.193
 5619SOL    HW117756   3.729   4.193   4.233
 5619SOL    HW217757   3.710   4.053   4.151
 5620SOL     OW17758   4.368   4.728   5.422
 5620SOL    HW117759   4.421   4.651   5.457
 5620SOL    HW217760   4.313   4.767   5.495
 5621SOL     OW17761   1.030   3.335   6.910
 5621SOL    HW117762   1.054   3.240   6.892
 5621SOL    HW217763   1.087   3.371   6.984
 5622SOL     OW17764   5.594   5.750   3.162
 5622SOL    HW117765   5.529   5.689   3.207
 5622SOL    HW217766   5.581   5.747   3.063
 5623SOL     OW17767   4.689   4.706   3.576
 5623SOL    HW117768   4.643   4.621   3.548
 5623SOL    HW217769   4.626   4.783   3.567
 5624SOL     OW17770   4.769   4.100   3.612
 5624SOL    HW117771   4.688   4.125   3.665
 5624SOL    HW217772   4.837   4.058   3.672
 5625SOL     OW17773   4.127   6.938   6.309
 5625SOL    HW117774   4.144   0.016   6.300
 5625SOL    HW217775   4.029   6.921   6.308
 5626SOL     OW17776   1.985   4.565   5.873
 5626SOL    HW117777   1.958   4.498   5.944
 5626SOL    HW217778   2.055   4.524   5.815
 5627SOL     OW17779   0.974   5.460   1.058
 5627SOL    HW117780   1.065   5.460   1.018
 5627SOL    HW217781   0.907   5.487   0.989
 5628SOL     OW17782   0.952   2.526   0.091
 5628SOL    HW117783   0.878   2.590   0.072
 5628SOL    HW217784   0.963   2.517   0.190
 5629SOL     OW17785   0.418   3.307   4.745
 5629SOL    HW117786   0.426   3.354   4.657
 5629SOL    HW217787   0.431   3.208   4.731
 5630SOL     OW17788   1.084   4.628   6.767
 5630SOL    HW117789   1.010   4.591   6.823
 5630SOL    HW217790   1.152   4.557   6.750
 5631SOL     OW17791   3.200   0.914   3.263
 5631SOL    HW117792   3.111   0.934   3.302
 5631SOL    HW217793   3.212   0.815   3.256
 5632SOL     OW17794   3.396   6.433   6.460
 5632SOL    HW117795   3.437   6.481   6.537
 5632SOL    HW217796   3.326   6.492   6.418
 5633SOL     OW17797   1.806   5.615   4.731
 5633SOL    HW117798   1.806   5.687   4.661
 5633SOL    HW217799   1.864   5.539   4.701
 5634SOL     OW17800   2.503   0.188   1.808
 5634SOL    HW117801   2.444   0.124   1.759
 5634SOL    HW217802   2.448   0.266   1.838
 5635SOL     OW17803   4.004   0.922   2.480
 5635SOL    HW117804   4.052   1.003   2.514
 5635SOL    HW217805   3.936   0.949   2.413
 5636SOL     OW17806   5.150   0.768   4.278
 5636SOL    HW117807   5.131   0.673   4.253
 5636SOL    HW217808   5.212   0.770   4.356
 5637SOL     OW17809   5.985   6.846   5.338
 5637SOL    HW117810   5.892   6.847   5.302
 5637SOL    HW217811   5.984   6.880   5.432
 5638SOL     OW17812   1.296   5.752   6.613
 5638SOL    HW117813   1.258   5.823   6.672
 5638SOL    HW217814   1.376   5.787   6.565
 5639SOL     OW17815   3.302   6.853   1.768
 5639SOL    HW117816   3.269   6.895   1.853
 5639SOL    HW217817   3.225   6.837   1.706
 5640SOL     OW17818   4.019   6.743   4.270
 5640SOL    HW117819   3.942   6.789   4.314
 5640SOL    HW217820   4.096   6.739   4.333
 5641SOL     OW17821   6.557   4.863   3.694
 5641SOL    HW117822   6.604   4.795   3.750
 5641SOL    HW217823   6.459   4.847   3.696
 5642SOL     OW17824   2.472   1.858   6.408
 5642SOL    HW117825   2.545   1.872   6.475
 5642SOL    HW217826   2.407   1.934   6.412
 5643SOL     OW17827   5.059   2.947   3.614
 5643SOL    HW117828   5.124   3.006   3.566
 5643SOL    HW217829   5.071   2.957   3.712
 5644SOL     OW17830   3.073   0.749   5.882
 5644SOL    HW117831   3.137   0.689   5.930
 5644SOL    HW217832   3.011   0.791   5.948
 5645SOL     OW17833   6.345   6.078   3.887
 5645SOL    HW117834   6.267   6.021   3.860
 5645SOL    HW217835   6.348   6.159   3.828
 5646SOL     OW17836   6.585   0.969   2.746
 5646SOL    HW117837   6.506   0.925   2.704
 5646SOL    HW217838   6.635   1.020   2.676
 5647SOL     OW17839   6.036   3.623   6.369
 5647SOL    HW117840   5.945   3.652   6.336
 5647SOL    HW217841   6.096   3.607   6.291
 5648SOL     OW17842   1.707   1.611   3.900
 5648SOL    HW117843   1.662   1.700   3.903
 5648SOL    HW217844   1.739   1.593   3.807
 5649SOL     OW17845   6.826   0.689   4.389
 5649SOL    HW117846   6.838   0.771   4.333
 5649SOL    HW217847   6.833   0.714   4.486
 5650SOL     OW17848   6.012   4.817   5.302
 5650SOL    HW117849   6.009   4.850   5.207
 5650SOL    HW217850   5.973   4.725   5.307
 5651SOL     OW17851   5.989   0.291   3.104
 5651SOL    HW117852   6.065   0.355   3.094
 5651SOL    HW217853   5.903   0.336   3.081
 5652SOL     OW17854   4.294   4.466   6.551
 5652SOL    HW117855   4.299   4.470   6.651
 5652SOL    HW217856   4.289   4.371   6.521
 5653SOL     OW17857   2.225   6.256   6.631
 5653SOL    HW117858   2.215   6.346   6.588
 5653SOL    HW217859   2.157   6.193   6.593
 5654SOL     OW17860   2.473   6.624   0.535
 5654SOL    HW117861   2.542   6.672   0.481
 5654SOL    HW217862   2.516   6.551   0.588
 5655SOL     OW17863   6.550   5.872   2.555
 5655SOL    HW117864   6.625   5.936   2.540
 5655SOL    HW217865   6.525   5.829   2.468
 5656SOL     OW17866   3.395   5.045   6.301
 5656SOL    HW117867   3.321   5.056   6.369
 5656SOL    HW217868   3.448   4.963   6.323
 5657SOL     OW17869   4.951   5.402   2.319
 5657SOL    HW117870   5.029   5.375   2.262
 5657SOL    HW217871   4.898   5.320   2.342
 5658SOL     OW17872   4.952   6.503   6.317
 5658SOL    HW117873   4.855   6.476   6.321
 5658SOL    HW217874   4.993   6.464   6.235
 5659SOL     OW17875   3.370   3.586   2.057
 5659SOL    HW117876   3.327   3.497   2.072
 5659SOL    HW217877   3.371   3.638   2.142
 5660SOL     OW17878   6.998   5.506   1.806
 5660SOL    HW117879   6.996   5.538   1.901
 5660SOL    HW217880   0.034   5.569   1.751
 5661SOL     OW17881   6.251   5.823   4.315
 5661SOL    HW117882   6.297   5.878   4.385
 5661SOL    HW217883   6.154   5.814   4.337
 5662SOL     OW17884   1.529   3.641   4.611
 5662SOL    HW117885   1.479   3.557   4.592
 5662SOL    HW217886   1.590   3.627   4.689
 5663SOL     OW17887   2.604   3.691   0.408
 5663SOL    HW117888   2.626   3.788   0.411
 5663SOL    HW217889   2.599   3.655   0.501
 5664SOL     OW17890   6.566   6.734   1.706
 5664SOL    HW117891   6.492   6.772   1.762
 5664SOL    HW217892   6.554   6.762   1.611
 5665SOL     OW17893   1.807   0.730   5.774
 5665SOL    HW117894   1.736   0.708   5.840
 5665SOL    HW217895   1.833   0.826   5.782
 5666SOL     OW17896   5.158   6.359   6.756
 5666SOL    HW117897   5.246   6.315   6.773
 5666SOL    HW217898   5.113   6.315   6.679
 5667SOL     OW17899   5.418   4.438   3.029
 5667SOL    HW117900   5.486   4.511   3.036
 5667SOL    HW217901   5.426   4.378   3.108
 5668SOL     OW17902   6.270   2.370   6.967
 5668SOL    HW117903   6.317   2.451   6.931
 5668SOL    HW217904   6.331   2.322   0.010
 5669SOL     OW17905   0.186   2.115   5.029
 5669SOL    HW117906   0.246   2.060   5.088
 5669SOL    HW217907   0.227   2.124   4.939
 5670SOL     OW17908   1.531   2.927   2.009
 5670SOL    HW117909   1.500   3.001   1.948
 5670SOL    HW217910   1.452   2.873   2.038
 5671SOL     OW17911   1.349   0.723   5.786
 5671SOL    HW117912   1.380   0.682   5.701
 5671SOL    HW217913   1.427   0.744   5.844
 5672SOL     OW17914   4.265   4.449   5.807
 5672SOL    HW117915   4.357   4.435   5.845
 5672SOL    HW217916   4.270   4.452   5.708
 5673SOL     OW17917   1.811   6.501   1.415
 5673SOL    HW117918   1.733   6.488   1.476
 5673SOL    HW217919   1.886   6.543   1.466
 5674SOL     OW17920   0.635   2.355   0.936
 5674SOL    HW117921   0.674   2.442   0.968
 5674SOL    HW217922   0.701   2.311   0.875
 5675SOL     OW17923   4.311   0.904   5.569
 5675SOL    HW117924   4.401   0.947   5.565
 5675SOL    HW217925   4.256   0.948   5.639
 5676SOL     OW17926   2.287   6.487   2.474
 5676SOL    HW117927   2.315   6.395   2.445
 5676SOL    HW217928   2.187   6.496   2.465
 5677SOL     OW17929   6.570   0.149   2.841
 5677SOL    HW117930   6.475   0.142   2.871
 5677SOL    HW217931   6.591   0.074   2.778
 5678SOL     OW17932   1.245   5.344   2.583
 5678SOL    HW117933   1.147   5.327   2.566
 5678SOL    HW217934   1.273   5.295   2.666
 5679SOL     OW17935   3.832   5.843   5.447
 5679SOL    HW117936   3.837   5.935   5.486
 5679SOL    HW217937   3.838   5.849   5.347
 5680SOL     OW17938   1.683   6.888   6.440
 5680SOL    HW117939   1.603   6.836   6.410
 5680SOL    HW217940   1.656   6.950   6.514
 5681SOL     OW17941   3.252   3.523   0.347
 5681SOL    HW117942   3.288   3.587   0.414
 5681SOL    HW217943   3.233   3.571   0.262
 5682SOL     OW17944   2.160   3.746   4.616
 5682SOL    HW117945   2.219   3.792   4.550
 5682SOL    HW217946   2.082   3.804   4.637
 5683SOL     OW17947   3.912   3.406   5.060
 5683SOL    HW117948   3.881   3.486   5.008
 5683SOL    HW217949   3.933   3.331   4.997
 5684SOL     OW17950   3.115   3.955   3.000
 5684SOL    HW117951   3.111   3.965   3.100
 5684SOL    HW217952   3.169   4.030   2.961
 5685SOL     OW17953   0.141   6.785   1.568
 5685SOL    HW117954   0.199   6.848   1.517
 5685SOL    HW217955   0.055   6.830   1.592
 5686SOL     OW17956   3.263   4.510   6.376
 5686SOL    HW117957   3.308   4.480   6.291
 5686SOL    HW217958   3.207   4.436   6.412
 5687SOL     OW17959   4.599   6.252   6.522
 5687SOL    HW117960   4.519   6.304   6.492
 5687SOL    HW217961   4.659   6.312   6.576
 5688SOL     OW17962   5.351   1.967   2.560
 5688SOL    HW117963   5.396   1.923   2.482
 5688SOL    HW217964   5.327   1.898   2.628
 5689SOL     OW17965   3.944   3.087   5.152
 5689SOL    HW117966   3.988   3.149   5.216
 5689SOL    HW217967   3.923   3.001   5.198
 5690SOL     OW17968   3.493   0.671   3.070
 5690SOL    HW117969   3.484   0.594   3.133
 5690SOL    HW217970   3.403   0.703   3.042
 5691SOL     OW17971   3.666   0.791   4.150
 5691SOL    HW117972   3.638   0.772   4.244
 5691SOL    HW217973   3.737   0.861   4.150
 5692SOL     OW17974   5.876   3.016   0.424
 5692SOL    HW117975   5.879   3.108   0.386
 5692SOL    HW217976   5.920   2.952   0.361
 5693SOL     OW17977   5.437   3.111   1.858
 5693SOL    HW117978   5.344   3.094   1.825
 5693SOL    HW217979   5.481   3.023   1.880
 5694SOL     OW17980   1.660   2.085   5.034
 5694SOL    HW117981   1.645   2.124   4.943
 5694SOL    HW217982   1.642   1.987   5.032
 5695SOL     OW17983   1.942   3.774   3.521
 5695SOL    HW117984   1.968   3.678   3.531
 5695SOL    HW217985   2.019   3.832   3.547
 5696SOL     OW17986   3.505   1.461   6.622
 5696SOL    HW117987   3.511   1.559   6.638
 5696SOL    HW217988   3.539   1.412   6.702
 5697SOL     OW17989   6.918   3.962   0.230
 5697SOL    HW117990   6.894   4.056   0.255
 5697SOL    HW217991   6.949   3.961   0.134
 5698SOL     OW17992   1.371   4.261   3.875
 5698SOL    HW117993   1.401   4.319   3.800
 5698SOL    HW217994   1.441   4.260   3.947
 5699SOL     OW17995   1.003   2.397   5.012
 5699SOL    HW117996   1.099   2.387   5.039
 5699SOL    HW217997   0.988   2.352   4.924
 5700SOL     OW17998   1.252   5.053   4.439
 5700SOL    HW117999   1.268   4.955   4.440
 5700SOL    HW218000   1.310   5.097   4.508
 5701SOL     OW18001   4.920   2.664   2.659
 5701SOL    HW118002   4.972   2.620   2.587
 5701SOL    HW218003   4.879   2.748   2.624
 5702SOL     OW18004   3.800   0.081   0.185
 5702SOL    HW118005   3.858   7.020   0.190
 5702SOL    HW218006   3.833   0.142   0.113
 5703SOL     OW18007   5.286   4.304   2.833
 5703SOL    HW118008   5.243   4.367   2.768
 5703SOL    HW218009   5.346   4.355   2.894
 5704SOL     OW18010   5.631   4.137   3.373
 5704SOL    HW118011   5.727   4.152   3.352
 5704SOL    HW218012   5.574   4.171   3.298
 5705SOL     OW18013   6.804   0.908   3.765
 5705SOL    HW118014   6.886   0.965   3.758
 5705SOL    HW218015   6.818   0.839   3.836
 5706SOL     OW18016   2.491   1.214   6.478
 5706SOL    HW118017   2.541   1.290   6.519
 5706SOL    HW218018   2.537   1.186   6.393
 5707SOL     OW18019   3.866   1.093   0.690
 5707SOL    HW118020   3.842   1.074   0.594
 5707SOL    HW218021   3.792   1.060   0.749
 5708SOL     OW18022   0.796   7.016   0.666
 5708SOL    HW118023   0.814   6.974   0.577
 5708SOL    HW218024   0.863   6.981   0.733
 5709SOL     OW18025   0.731   2.177   0.740
 5709SOL    HW118026   0.824   2.167   0.705
 5709SOL    HW218027   0.668   2.187   0.663
 5710SOL     OW18028   3.510   4.983   6.751
 5710SOL    HW118029   3.472   5.042   6.680
 5710SOL    HW218030   3.456   4.900   6.759
 5711SOL     OW18031   5.061   1.697   4.862
 5711SOL    HW118032   5.021   1.770   4.807
 5711SOL    HW218033   5.030   1.706   4.957
 5712SOL     OW18034   5.510   0.009   6.168
 5712SOL    HW118035   5.529   0.100   6.131
 5712SOL    HW218036   5.442   6.983   6.111
 5713SOL     OW18037   0.296   3.497   2.354
 5713SOL    HW118038   0.306   3.415   2.411
 5713SOL    HW218039   0.348   3.571   2.395
 5714SOL     OW18040   2.130   0.713   0.609
 5714SOL    HW118041   2.217   0.679   0.572
 5714SOL    HW218042   2.066   0.638   0.617
 5715SOL     OW18043   0.288   6.261   3.607
 5715SOL    HW118044   0.291   6.306   3.697
 5715SOL    HW218045   0.335   6.318   3.540
 5716SOL     OW18046   1.901   2.149   5.296
 5716SOL    HW118047   1.873   2.229   5.244
 5716SOL    HW218048   1.833   2.130   5.367
 5717SOL     OW18049   0.868   3.403   6.122
 5717SOL    HW118050   0.783   3.391   6.174
 5717SOL    HW218051   0.861   3.354   6.035
 5718SOL     OW18052   3.269   6.046   5.788
 5718SOL    HW118053   3.333   5.978   5.751
 5718SOL    HW218054   3.214   6.004   5.860
 5719SOL     OW18055   2.381   0.952   6.940
 5719SOL    HW118056   2.354   0.898   7.020
 5719SOL    HW218057   2.472   0.924   6.910
 5720SOL     OW18058   2.231   5.934   3.856
 5720SOL    HW118059   2.233   6.033   3.846
 5720SOL    HW218060   2.319   5.902   3.891
 5721SOL     OW18061   6.602   5.161   6.508
 5721SOL    HW118062   6.580   5.224   6.433
 5721SOL    HW218063   6.694   5.124   6.494
 5722SOL     OW18064   5.259   1.100   4.774
 5722SOL    HW118065   5.261   1.193   4.811
 5722SOL    HW218066   5.324   1.094   4.697
 5723SOL     OW18067   6.925   4.666   1.236
 5723SOL    HW118068   6.906   4.630   1.327
 5723SOL    HW218069   6.854   4.731   1.210
 5724SOL     OW18070   4.967   3.038   6.115
 5724SOL    HW118071   4.925   2.949   6.137
 5724SOL    HW218072   4.910   3.112   6.150
 5725SOL     OW18073   5.951   6.514   5.241
 5725SOL    HW118074   6.010   6.553   5.171
 5725SOL    HW218075   5.973   6.417   5.253
 5726SOL     OW18076   3.711   5.168   5.641
 5726SOL    HW118077   3.706   5.089   5.702
 5726SOL    HW218078   3.797   5.165   5.589
 5727SOL     OW18079   5.778   2.214   3.952
 5727SOL    HW118080   5.758   2.251   3.861
 5727SOL    HW218081   5.873   2.233   3.975
 5728SOL     OW18082   3.706   1.158   4.994
 5728SOL    HW118083   3.751   1.111   5.070
 5728SOL    HW218084   3.609   1.170   5.015
 5729SOL     OW18085   2.550   2.436   4.182
 5729SOL    HW118086   2.629   2.394   4.227
 5729SOL    HW218087   2.470   2.429   4.241
 5730SOL     OW18088   4.171   4.666   0.239
 5730SOL    HW118089   4.227   4.655   0.157
 5730SOL    HW218090   4.216   4.623   0.317
 5731SOL     OW18091   4.520   1.013   5.205
 5731SOL    HW118092   4.534   0.984   5.110
 5731SOL    HW218093   4.476   1.102   5.207
 5732SOL     OW18094   6.409   4.041   4.066
 5732SOL    HW118095   6.337   4.005   4.126
 5732SOL    HW218096   6.372   4.118   4.014
 5733SOL     OW18097   1.885   6.897   1.507
 5733SOL    HW118098   1.858   6.804   1.534
 5733SOL    HW218099   1.838   6.922   1.422
 5734SOL     OW18100   1.918   0.258   5.610
 5734SOL    HW118101   1.995   0.304   5.565
 5734SOL    HW218102   1.891   0.311   5.691
 5735SOL     OW18103   5.334   1.323   0.709
 5735SOL    HW118104   5.434   1.316   0.702
 5735SOL    HW218105   5.300   1.387   0.641
 5736SOL     OW18106   4.963   3.750   6.801
 5736SOL    HW118107   4.999   3.722   6.712
 5736SOL    HW218108   5.002   3.690   6.872
 5737SOL     OW18109   4.891   5.961   2.349
 5737SOL    HW118110   4.915   5.997   2.440
 5737SOL    HW218111   4.950   5.883   2.328
 5738SOL     OW18112   3.329   1.440   1.078
 5738SOL    HW118113   3.254   1.477   1.133
 5738SOL    HW218114   3.416   1.458   1.123
 5739SOL     OW18115   2.283   1.251   5.574
 5739SOL    HW118116   2.336   1.335   5.588
 5739SOL    HW218117   2.273   1.203   5.661
 5740SOL     OW18118   4.854   3.172   2.824
 5740SOL    HW118119   4.836   3.089   2.878
 5740SOL    HW218120   4.769   3.202   2.780
 5741SOL     OW18121   1.776   3.487   3.589
 5741SOL    HW118122   1.788   3.402   3.538
 5741SOL    HW218123   1.721   3.551   3.535
 5742SOL     OW18124   5.968   5.060   2.283
 5742SOL    HW118125   6.004   5.129   2.219
 5742SOL    HW218126   5.954   5.103   2.372
 5743SOL     OW18127   3.953   6.589   6.653
 5743SOL    HW118128   3.975   6.497   6.622
 5743SOL    HW218129   3.912   6.584   6.745
 5744SOL     OW18130   5.367   5.636   3.286
 5744SOL    HW118131   5.416   5.607   3.369
 5744SOL    HW218132   5.319   5.558   3.248
 5745SOL     OW18133   0.963   3.810   2.299
 5745SOL    HW118134   0.981   3.881   2.230
 5745SOL    HW218135   0.976   3.720   2.258
 5746SOL     OW18136   5.436   0.648   3.311
 5746SOL    HW118137   5.414   0.725   3.371
 5746SOL    HW218138   5.518   0.602   3.345
 5747SOL     OW18139   1.911   0.004   1.838
 5747SOL    HW118140   1.873   7.000   1.748
 5747SOL    HW218141   1.855   6.983   1.910
 5748SOL     OW18142   6.438   6.691   0.060
 5748SOL    HW118143   6.467   6.610   0.109
 5748SOL    HW218144   6.338   6.690   0.050
 5749SOL     OW18145   2.027   6.487   6.634
 5749SOL    HW118146   2.107   6.538   6.603
 5749SOL    HW218147   1.968   6.465   6.556
 5750SOL     OW18148   6.085   2.634   4.020
 5750SOL    HW118149   6.052   2.653   3.927
 5750SOL    HW218150   6.180   2.603   4.015
 5751SOL     OW18151   0.234   3.505   3.597
 5751SOL    HW118152   0.195   3.594   3.619
 5751SOL    HW218153   0.291   3.512   3.515
 5752SOL     OW18154   5.679   1.554   6.581
 5752SOL    HW118155   5.695   1.482   6.514
 5752SOL    HW218156   5.758   1.559   6.643
 5753SOL     OW18157   3.494   3.270   4.206
 5753SOL    HW118158   3.404   3.233   4.183
 5753SOL    HW218159   3.529   3.225   4.287
 5754SOL     OW18160   5.940   6.983   0.943
 5754SOL    HW118161   6.038   6.997   0.955
 5754SOL    HW218162   5.910   0.012   0.861
 5755SOL     OW18163   0.343   3.568   6.428
 5755SOL    HW118164   0.391   3.551   6.515
 5755SOL    HW218165   0.407   3.606   6.362
 5756SOL     OW18166   6.333   6.406   1.901
 5756SOL    HW118167   6.321   6.476   1.971
 5756SOL    HW218168   6.275   6.327   1.923
 5757SOL     OW18169   1.142   1.699   3.967
 5757SOL    HW118170   1.212   1.724   3.900
 5757SOL    HW218171   1.110   1.606   3.947
 5758SOL     OW18172   6.369   6.754   2.998
 5758SOL    HW118173   6.375   6.776   3.095
 5758SOL    HW218174   6.275   6.766   2.966
 5759SOL     OW18175   2.105   6.286   3.073
 5759SOL    HW118176   2.031   6.335   3.026
 5759SOL    HW218177   2.129   6.334   3.157
 5760SOL     OW18178   0.243   2.058   0.468
 5760SOL    HW118179   0.314   2.071   0.537
 5760SOL    HW218180   0.236   1.961   0.444
 5761SOL     OW18181   6.283   6.981   5.051
 5761SOL    HW118182   6.305   6.884   5.059
 5761SOL    HW218183   6.342   0.013   5.112
 5762SOL     OW18184   1.026   5.862   5.453
 5762SOL    HW118185   1.097   5.818   5.398
 5762SOL    HW218186   1.019   5.958   5.427
 5763SOL     OW18187   5.013   0.695   0.039
 5763SOL    HW118188   4.937   0.656   7.007
 5763SOL    HW218189   4.979   0.770   0.095
 5764SOL     OW18190   3.687   6.332   4.280
 5764SOL    HW118191   3.593   6.299   4.276
 5764SOL    HW218192   3.696   6.399   4.354
 5765SOL     OW18193   0.124   6.387   2.449
 5765SOL    HW118194   0.138   6.485   2.432
 5765SOL    HW218195   0.037   6.359   2.409
 5766SOL     OW18196   0.773   0.815   4.966
 5766SOL    HW118197   0.855   0.778   5.009
 5766SOL    HW218198   0.785   0.816   4.867
 5767SOL     OW18199   6.206   6.579   0.294
 5767SOL    HW118200   6.291   6.528   0.305
 5767SOL    HW218201   6.192   6.600   0.197
 5768SOL     OW18202   1.017   0.687   5.018
 5768SOL    HW118203   1.024   0.703   4.919
 5768SOL    HW218204   1.028   0.590   5.037
 5769SOL     OW18205   1.297   2.664   5.849
 5769SOL    HW118206   1.238   2.634   5.773
 5769SOL    HW218207   1.364   2.730   5.814
 5770SOL     OW18208   1.371   4.009   2.508
 5770SOL    HW118209   1.282   3.975   2.476
 5770SOL    HW218210   1.433   3.932   2.520
 5771SOL     OW18211   2.624   5.908   3.070
 5771SOL    HW118212   2.715   5.949   3.064
 5771SOL    HW218213   2.557   5.972   3.032
 5772SOL     OW18214   2.715   0.707   3.167
 5772SOL    HW118215   2.692   0.706   3.070
 5772SOL    HW218216   2.675   0.627   3.212
 5773SOL     OW18217   5.821   0.410   4.296
 5773SOL    HW118218   5.846   0.502   4.325
 5773SOL    HW218219   5.892   0.374   4.235
 5774SOL     OW18220   1.039   5.744   3.824
 5774SOL    HW118221   0.993   5.754   3.736
 5774SOL    HW218222   1.108   5.815   3.834
 5775SOL     OW18223   5.342   4.587   2.484
 5775SOL    HW118224   5.264   4.529   2.507
 5775SOL    HW218225   5.333   4.676   2.529
 5776SOL     OW18226   3.777   1.104   3.744
 5776SOL    HW118227   3.872   1.076   3.759
 5776SOL    HW218228   3.738   1.049   3.671
 5777SOL     OW18229   0.783   0.337   1.806
 5777SOL    HW118230   0.719   0.361   1.879
 5777SOL    HW218231   0.733   0.327   1.720
 5778SOL     OW18232   0.143   1.121   0.187
 5778SOL    HW118233   0.164   1.116   0.284
 5778SOL    HW218234   0.221   1.085   0.134
 5779SOL     OW18235   5.717   1.652   0.312
 5779SOL    HW118236   5.708   1.731   0.372
 5779SOL    HW218237   5.651   1.660   0.236
 5780SOL     OW18238   5.403   5.182   4.572
 5780SOL    HW118239   5.303   5.182   4.579
 5780SOL    HW218240   5.442   5.226   4.653
 5781SOL     OW18241   1.320   6.254   5.875
 5781SOL    HW118242   1.269   6.336   5.901
 5781SOL    HW218243   1.263   6.197   5.815
 5782SOL     OW18244   6.125   0.535   1.059
 5782SOL    HW118245   6.185   0.610   1.034
 5782SOL    HW218246   6.144   0.506   1.153
 5783SOL     OW18247   2.551   2.291   6.564
 5783SOL    HW118248   2.514   2.364   6.621
 5783SOL    HW218249   2.578   2.329   6.475
 5784SOL     OW18250   6.523   6.716   0.556
 5784SOL    HW118251   6.552   6.729   0.461
 5784SOL    HW218252   6.599   6.738   0.617
 5785SOL     OW18253   1.555   1.843   1.870
 5785SOL    HW118254   1.518   1.865   1.960
 5785SOL    HW218255   1.651   1.815   1.879
 5786SOL     OW18256   6.730   5.446   2.094
 5786SOL    HW118257   6.656   5.481   2.152
 5786SOL    HW218258   6.690   5.405   2.012
 5787SOL     OW18259   1.769   2.812   6.288
 5787SOL    HW118260   1.719   2.777   6.208
 5787SOL    HW218261   1.826   2.739   6.325
 5788SOL     OW18262   3.313   0.413   3.455
 5788SOL    HW118263   3.409   0.397   3.473
 5788SOL    HW218264   3.258   0.385   3.533
 5789SOL     OW18265   3.200   4.592   6.041
 5789SOL    HW118266   3.185   4.620   5.946
 5789SOL    HW218267   3.158   4.658   6.102
 5790SOL     OW18268   1.478   3.749   4.164
 5790SOL    HW118269   1.500   3.651   4.163
 5790SOL    HW218270   1.524   3.793   4.241
 5791SOL     OW18271   1.494   1.087   3.337
 5791SOL    HW118272   1.396   1.093   3.320
 5791SOL    HW218273   1.531   1.007   3.289
 5792SOL     OW18274   0.396   2.562   2.955
 5792SOL    HW118275   0.479   2.508   2.969
 5792SOL    HW218276   0.322   2.527   3.013
 5793SOL     OW18277   6.016   0.965   5.136
 5793SOL    HW118278   6.035   0.946   5.232
 5793SOL    HW218279   6.099   0.951   5.082
 5794SOL     OW18280   6.994   3.783   6.537
 5794SOL    HW118281   0.027   3.806   6.455
 5794SOL    HW218282   6.899   3.811   6.523
 5795SOL     OW18283   6.761   4.813   6.674
 5795SOL    HW118284   6.723   4.844   6.762
 5795SOL    HW218285   6.689   4.768   6.621
 5796SOL     OW18286   2.887   1.965   0.709
 5796SOL    HW118287   2.938   2.051   0.716
 5796SOL    HW218288   2.859   1.935   0.800
 5797SOL     OW18289   3.125   2.920   5.259
 5797SOL    HW118290   3.202   2.981   5.242
 5797SOL    HW218291   3.154   2.847   5.321
 5798SOL     OW18292   6.465   4.879   4.266
 5798SOL    HW118293   6.554   4.893   4.308
 5798SOL    HW218294   6.428   4.966   4.235
 5799SOL     OW18295   5.618   0.201   4.003
 5799SOL    HW118296   5.714   0.230   4.010
 5799SOL    HW218297   5.595   0.143   4.081
 5800SOL     OW18298   5.768   6.015   6.890
 5800SOL    HW118299   5.846   5.976   6.939
 5800SOL    HW218300   5.799   6.063   6.808
 5801SOL     OW18301   1.502   1.536   2.017
 5801SOL    HW118302   1.569   1.596   2.060
 5801SOL    HW218303   1.417   1.587   2.001
 5802SOL     OW18304   0.287   2.291   4.451
 5802SOL    HW118305   0.205   2.276   4.506
 5802SOL    HW218306   0.304   2.389   4.443
 5803SOL     OW18307   1.593   5.079   1.059
 5803SOL    HW118308   1.524   5.129   1.111
 5803SOL    HW218309   1.639   5.014   1.119
 5804SOL     OW18310   0.398   2.899   6.154
 5804SOL    HW118311   0.313   2.950   6.139
 5804SOL    HW218312   0.376   2.810   6.196
 5805SOL     OW18313   5.238   3.431   6.796
 5805SOL    HW118314   5.218   3.352   6.854
 5805SOL    HW218315   5.314   3.408   6.735
 5806SOL     OW18316   6.191   6.789   6.330
 5806SOL    HW118317   6.112   6.789   6.269
 5806SOL    HW218318   6.176   6.855   6.404
 5807SOL     OW18319   2.911   3.917   1.454
 5807SOL    HW118320   2.853   3.873   1.386
 5807SOL    HW218321   2.883   4.012   1.466
 5808SOL     OW18322   5.983   2.078   3.258
 5808SOL    HW118323   6.055   2.125   3.310
 5808SOL    HW218324   5.978   2.117   3.166
 5809SOL     OW18325   0.543   2.515   3.697
 5809SOL    HW118326   0.630   2.516   3.746
 5809SOL    HW218327   0.553   2.568   3.612
 5810SOL     OW18328   2.901   2.185   2.648
 5810SOL    HW118329   2.997   2.177   2.622
 5810SOL    HW218330   2.847   2.115   2.601
 5811SOL     OW18331   2.733   0.278   1.955
 5811SOL    HW118332   2.734   0.209   2.027
 5811SOL    HW218333   2.663   0.253   1.887
 5812SOL     OW18334   4.462   0.540   4.666
 5812SOL    HW118335   4.544   0.487   4.644
 5812SOL    HW218336   4.439   0.599   4.588
 5813SOL     OW18337   1.911   1.834   5.241
 5813SOL    HW118338   1.922   1.933   5.251
 5813SOL    HW218339   1.874   1.796   5.326
 5814SOL     OW18340   0.472   5.270   1.523
 5814SOL    HW118341   0.420   5.268   1.608
 5814SOL    HW218342   0.482   5.177   1.488
 5815SOL     OW18343   4.234   6.677   4.490
 5815SOL    HW118344   4.263   6.773   4.497
 5815SOL    HW218345   4.307   6.624   4.447
 5816SOL     OW18346   5.494   6.436   0.326
 5816SOL    HW118347   5.544   6.356   0.360
 5816SOL    HW218348   5.531   6.462   0.237
 5817SOL     OW18349   6.276   2.710   6.561
 5817SOL    HW118350   6.351   2.730   6.625
 5817SOL    HW218351   6.264   2.788   6.500
 5818SOL     OW18352   6.609   6.741   5.131
 5818SOL    HW118353   6.600   6.741   5.032
 5818SOL    HW218354   6.529   6.697   5.172
 5819SOL     OW18355   6.175   0.168   1.282
 5819SOL    HW118356   6.174   0.068   1.280
 5819SOL    HW218357   6.177   0.203   1.189
 5820SOL     OW18358   5.297   4.778   1.822
 5820SOL    HW118359   5.264   4.713   1.891
 5820SOL    HW218360   5.328   4.728   1.741
 5821SOL     OW18361   2.960   6.999   2.521
 5821SOL    HW118362   2.883   7.006   2.458
 5821SOL    HW218363   2.986   0.070   2.552
 5822SOL     OW18364   0.480   0.779   2.450
 5822SOL    HW118365   0.495   0.793   2.548
 5822SOL    HW218366   0.555   0.725   2.412
 5823SOL     OW18367   1.852   2.835   4.162
 5823SOL    HW118368   1.773   2.882   4.122
 5823SOL    HW218369   1.865   2.747   4.116
 5824SOL     OW18370   5.168   0.232   3.853
 5824SOL    HW118371   5.123   0.147   3.879
 5824SOL    HW218372   5.103   0.291   3.806
 5825SOL     OW18373   3.402   1.544   1.625
 5825SOL    HW118374   3.486   1.591   1.597
 5825SOL    HW218375   3.330   1.561   1.557
 5826SOL     OW18376   0.351   6.862   3.801
 5826SOL    HW118377   0.351   6.868   3.701
 5826SOL    HW218378   0.270   6.813   3.832
 5827SOL     OW18379   1.662   5.000   5.665
 5827SOL    HW118380   1.757   5.031   5.670
 5827SOL    HW218381   1.611   5.058   5.602
 5828SOL     OW18382   5.844   2.363   1.432
 5828SOL    HW118383   5.912   2.291   1.441
 5828SOL    HW218384   5.863   2.435   1.499
 5829SOL     OW18385   2.104   1.760   1.284
 5829SOL    HW118386   2.014   1.781   1.245
 5829SOL    HW218387   2.092   1.700   1.363
 5830SOL     OW18388   1.680   0.715   5.477
 5830SOL    HW118389   1.747   0.688   5.546
 5830SOL    HW218390   1.677   0.646   5.405
 5831SOL     OW18391   5.714   5.383   2.823
 5831SOL    HW118392   5.651   5.329   2.768
 5831SOL    HW218393   5.702   5.480   2.803
 5832SOL     OW18394   3.583   3.353   4.743
 5832SOL    HW118395   3.591   3.371   4.645
 5832SOL    HW218396   3.589   3.255   4.759
 5833SOL     OW18397   3.007   3.136   4.973
 5833SOL    HW118398   2.913   3.104   4.981
 5833SOL    HW218399   3.042   3.160   5.064
 5834SOL     OW18400   6.160   1.111   0.105
 5834SOL    HW118401   6.204   1.100   0.016
 5834SOL    HW218402   6.082   1.173   0.096
 5835SOL     OW18403   5.488   2.898   4.373
 5835SOL    HW118404   5.439   2.937   4.451
 5835SOL    HW218405   5.573   2.948   4.359
 5836SOL     OW18406   3.268   0.036   3.622
 5836SOL    HW118407   3.298   6.987   3.556
 5836SOL    HW218408   3.348   0.069   3.673
 5837SOL     OW18409   4.185   3.962   6.144
 5837SOL    HW118410   4.243   3.883   6.166
 5837SOL    HW218411   4.231   4.046   6.172
 5838SOL     OW18412   0.390   1.071   5.757
 5838SOL    HW118413   0.429   1.063   5.665
 5838SOL    HW218414   0.413   0.989   5.810
 5839SOL     OW18415   6.993   2.241   2.517
 5839SOL    HW118416   6.931   2.316   2.541
 5839SOL    HW218417   6.964   2.200   2.430
 5840SOL     OW18418   3.612   5.572   0.725
 5840SOL    HW118419   3.568   5.584   0.814
 5840SOL    HW218420   3.645   5.479   0.716
 5841SOL     OW18421   6.097   2.336   3.187
 5841SOL    HW118422   6.175   2.289   3.229
 5841SOL    HW218423   6.062   2.405   3.250
 5842SOL     OW18424   3.710   2.068   1.134
 5842SOL    HW118425   3.680   2.102   1.044
 5842SOL    HW218426   3.800   2.106   1.155
 5843SOL     OW18427   0.546   2.475   1.281
 5843SOL    HW118428   0.634   2.513   1.251
 5843SOL    HW218429   0.556   2.377   1.296
 5844SOL     OW18430   1.495   6.479   6.509
 5844SOL    HW118431   1.473   6.401   6.450
 5844SOL    HW218432   1.498   6.562   6.453
 5845SOL     OW18433   1.726   2.764   4.985
 5845SOL    HW118434   1.800   2.763   5.053
 5845SOL    HW218435   1.748   2.829   4.912
 5846SOL     OW18436   0.423   3.947   6.855
 5846SOL    HW118437   0.429   4.038   6.815
 5846SOL    HW218438   0.380   3.884   6.790
 5847SOL     OW18439   1.591   2.566   4.147
 5847SOL    HW118440   1.614   2.664   4.152
 5847SOL    HW218441   1.507   2.549   4.197
 5848SOL     OW18442   0.687   4.656   3.613
 5848SOL    HW118443   0.619   4.703   3.558
 5848SOL    HW218444   0.685   4.691   3.707
 5849SOL     OW18445   2.875   6.926   5.823
 5849SOL    HW118446   2.861   0.004   5.837
 5849SOL    HW218447   2.786   6.882   5.813
 5850SOL     OW18448   0.933   4.378   3.041
 5850SOL    HW118449   0.861   4.311   3.021
 5850SOL    HW218450   1.017   4.330   3.066
 5851SOL     OW18451   6.392   3.177   1.981
 5851SOL    HW118452   6.489   3.183   2.005
 5851SOL    HW218453   6.339   3.153   2.062
 5852SOL     OW18454   3.675   6.101   3.130
 5852SOL    HW118455   3.662   6.051   3.216
 5852SOL    HW218456   3.628   6.189   3.135
 5853SOL     OW18457   4.913   4.138   5.335
 5853SOL    HW118458   4.827   4.166   5.291
 5853SOL    HW218459   4.990   4.165   5.278
 5854SOL     OW18460   0.872   1.610   6.620
 5854SOL    HW118461   0.951   1.635   6.677
 5854SOL    HW218462   0.797   1.579   6.678
 5855SOL     OW18463   1.608   1.583   4.670
 5855SOL    HW118464   1.611   1.543   4.761
 5855SOL    HW218465   1.513   1.592   4.640
 5856SOL     OW18466   0.960   5.564   3.307
 5856SOL    HW118467   0.900   5.505   3.360
 5856SOL    HW218468   0.967   5.530   3.214
 5857SOL     OW18469   0.145   2.365   5.126
 5857SOL    HW118470   0.226   2.424   5.124
 5857SOL    HW218471   0.163   2.282   5.073
 5858SOL     OW18472   2.839   6.856   3.810
 5858SOL    HW118473   2.937   6.874   3.799
 5858SOL    HW218474   2.816   6.768   3.768
 5859SOL     OW18475   5.951   5.451   1.894
 5859SOL    HW118476   5.890   5.521   1.856
 5859SOL    HW218477   5.922   5.361   1.862
 5860SOL     OW18478   6.888   4.074   0.758
 5860SOL    HW118479   6.859   4.162   0.797
 5860SOL    HW218480   6.938   4.090   0.673
 5861SOL     OW18481   5.986   1.307   3.932
 5861SOL    HW118482   6.045   1.384   3.907
 5861SOL    HW218483   5.938   1.328   4.017
 5862SOL     OW18484   5.420   4.894   3.781
 5862SOL    HW118485   5.406   4.969   3.846
 5862SOL    HW218486   5.368   4.814   3.810
 5863SOL     OW18487   2.144   1.436   0.275
 5863SOL    HW118488   2.115   1.353   0.227
 5863SOL    HW218489   2.177   1.503   0.209
 5864SOL     OW18490   4.855   5.118   0.842
 5864SOL    HW118491   4.926   5.133   0.912
 5864SOL    HW218492   4.800   5.038   0.869
 5865SOL     OW18493   4.169   0.891   2.912
 5865SOL    HW118494   4.185   0.829   2.988
 5865SOL    HW218495   4.223   0.861   2.833
 5866SOL     OW18496   3.352   1.577   6.917
 5866SOL    HW118497   3.402   1.658   6.947
 5866SOL    HW218498   3.255   1.598   6.913
 5867SOL     OW18499   6.646   3.079   1.751
 5867SOL    HW118500   6.557   3.118   1.728
 5867SOL    HW218501   6.672   3.106   1.843
 5868SOL     OW18502   0.366   6.413   5.207
 5868SOL    HW118503   0.312   6.375   5.132
 5868SOL    HW218504   0.372   6.346   5.281
 5869SOL     OW18505   2.641   4.650   4.082
 5869SOL    HW118506   2.542   4.661   4.076
 5869SOL    HW218507   2.674   4.692   4.166
 5870SOL     OW18508   5.149   5.714   4.087
 5870SOL    HW118509   5.192   5.636   4.042
 5870SOL    HW218510   5.112   5.776   4.019
 5871SOL     OW18511   3.109   4.237   0.693
 5871SOL    HW118512   3.180   4.203   0.754
 5871SOL    HW218513   3.019   4.221   0.733
 5872SOL     OW18514   3.997   5.712   3.984
 5872SOL    HW118515   3.941   5.655   3.923
 5872SOL    HW218516   4.033   5.656   4.058
 5873SOL     OW18517   2.092   2.709   0.324
 5873SOL    HW118518   2.095   2.807   0.344
 5873SOL    HW218519   2.168   2.685   0.264
 5874SOL     OW18520   0.706   4.573   6.445
 5874SOL    HW118521   0.709   4.488   6.392
 5874SOL    HW218522   0.799   4.607   6.460
 5875SOL     OW18523   3.957   1.907   1.160
 5875SOL    HW118524   3.915   1.875   1.074
 5875SOL    HW218525   4.045   1.949   1.140
 5876SOL     OW18526   4.453   3.708   5.949
 5876SOL    HW118527   4.384   3.771   5.914
 5876SOL    HW218528   4.429   3.615   5.923
 5877SOL     OW18529   5.261   0.298   2.821
 5877SOL    HW118530   5.169   0.260   2.830
 5877SOL    HW218531   5.280   0.318   2.725
 5878SOL     OW18532   5.128   3.413   2.747
 5878SOL    HW118533   5.180   3.443   2.827
 5878SOL    HW218534   5.192   3.390   2.673
 5879SOL     OW18535   3.083   4.911   5.158
 5879SOL    HW118536   2.988   4.913   5.127
 5879SOL    HW218537   3.144   4.921   5.079
 5880SOL     OW18538   5.918   2.540   0.233
 5880SOL    HW118539   5.818   2.530   0.237
 5880SOL    HW218540   5.941   2.614   0.170
 5881SOL     OW18541   1.120   6.076   2.578
 5881SOL    HW118542   1.049   6.147   2.568
 5881SOL    HW218543   1.151   6.047   2.488
 5882SOL     OW18544   1.618   5.403   5.170
 5882SOL    HW118545   1.519   5.386   5.165
 5882SOL    HW218546   1.644   5.418   5.266
 5883SOL     OW18547   0.127   5.598   0.100
 5883SOL    HW118548   0.212   5.597   0.047
 5883SOL    HW218549   0.140   5.654   0.182
 5884SOL     OW18550   0.138   1.197   2.330
 5884SOL    HW118551   0.145   1.111   2.382
 5884SOL    HW218552   0.209   1.199   2.259
 5885SOL     OW18553   6.771   5.575   1.496
 5885SOL    HW118554   6.747   5.669   1.471
 5885SOL    HW218555   6.699   5.513   1.465
 5886SOL     OW18556   1.895   4.677   3.096
 5886SOL    HW118557   1.925   4.737   3.170
 5886SOL    HW218558   1.883   4.731   3.012
 5887SOL     OW18559   2.499   3.971   0.802
 5887SOL    HW118560   2.575   4.016   0.754
 5887SOL    HW218561   2.536   3.903   0.866
 5888SOL     OW18562   2.996   5.647   1.822
 5888SOL    HW118563   3.084   5.694   1.818
 5888SOL    HW218564   2.973   5.612   1.731
 5889SOL     OW18565   5.091   1.593   1.890
 5889SOL    HW118566   5.172   1.536   1.900
 5889SOL    HW218567   5.111   1.667   1.825
 5890SOL     OW18568   2.566   4.629   3.321
 5890SOL    HW118569   2.512   4.567   3.378
 5890SOL    HW218570   2.556   4.604   3.225
 5891SOL     OW18571   2.435   2.860   6.696
 5891SOL    HW118572   2.473   2.857   6.603
 5891SOL    HW218573   2.335   2.851   6.691
 5892SOL     OW18574   0.343   2.453   0.931
 5892SOL    HW118575   0.415   2.383   0.924
 5892SOL    HW218576   0.377   2.531   0.983
 5893SOL     OW18577   0.533   5.961   1.573
 5893SOL    HW118578   0.570   5.995   1.487
 5893SOL    HW218579   0.481   6.033   1.618
 5894SOL     OW18580   2.157   4.970   6.454
 5894SOL    HW118581   2.239   4.912   6.452
 5894SOL    HW218582   2.173   5.051   6.510
 5895SOL     OW18583   5.756   2.828   3.678
 5895SOL    HW118584   5.677   2.846   3.736
 5895SOL    HW218585   5.789   2.735   3.695
 5896SOL     OW18586   5.470   2.455   1.164
 5896SOL    HW118587   5.412   2.388   1.211
 5896SOL    HW218588   5.494   2.420   1.073
 5897SOL     OW18589   3.714   3.168   0.390
 5897SOL    HW118590   3.672   3.258   0.382
 5897SOL    HW218591   3.644   3.099   0.406
 5898SOL     OW18592   3.367   0.614   6.732
 5898SOL    HW118593   3.394   0.681   6.662
 5898SOL    HW218594   3.282   0.570   6.705
 5899SOL     OW18595   0.364   0.273   6.948
 5899SOL    HW118596   0.318   0.190   6.915
 5899SOL    HW218597   0.463   0.258   6.949
 5900SOL     OW18598   5.504   6.408   2.941
 5900SOL    HW118599   5.499   6.507   2.929
 5900SOL    HW218600   5.539   6.388   3.033
 5901SOL     OW18601   1.451   0.701   4.916
 5901SOL    HW118602   1.397   0.771   4.869
 5901SOL    HW218603   1.546   0.704   4.884
 5902SOL     OW18604   3.991   3.789   5.821
 5902SOL    HW118605   4.079   3.831   5.846
 5902SOL    HW218606   3.923   3.812   5.890
 5903SOL     OW18607   5.886   1.694   5.273
 5903SOL    HW118608   5.797   1.740   5.273
 5903SOL    HW218609   5.873   1.597   5.252
 5904SOL     OW18610   7.004   4.958   1.920
 5904SOL    HW118611   0.079   4.934   1.901
 5904SOL    HW218612   6.991   5.056   1.904
 5905SOL     OW18613   6.316   2.144   4.947
 5905SOL    HW118614   6.315   2.059   5.000
 5905SOL    HW218615   6.398   2.197   4.971
 5906SOL     OW18616   4.083   0.528   4.869
 5906SOL    HW118617   4.010   0.590   4.898
 5906SOL    HW218618   4.163   0.541   4.927
 5907SOL     OW18619   0.548   3.617   5.932
 5907SOL    HW118620   0.600   3.678   5.872
 5907SOL    HW218621   0.566   3.522   5.906
 5908SOL     OW18622   4.319   3.587   6.825
 5908SOL    HW118623   4.286   3.618   6.914
 5908SOL    HW218624   4.419   3.576   6.829
 5909SOL     OW18625   6.109   4.656   3.488
 5909SOL    HW118626   6.036   4.655   3.557
 5909SOL    HW218627   6.150   4.747   3.485
 5910SOL     OW18628   2.869   4.229   1.484
 5910SOL    HW118629   2.874   4.181   1.571
 5910SOL    HW218630   2.924   4.312   1.488
 5911SOL     OW18631   6.114   0.593   5.720
 5911SOL    HW118632   6.127   0.553   5.630
 5911SOL    HW218633   6.092   0.520   5.786
 5912SOL     OW18634   0.636   3.392   6.266
 5912SOL    HW118635   0.613   3.300   6.234
 5912SOL    HW218636   0.653   3.389   6.365
 5913SOL     OW18637   1.668   2.781   4.374
 5913SOL    HW118638   1.733   2.717   4.416
 5913SOL    HW218639   1.710   2.823   4.294
 5914SOL     OW18640   1.103   5.718   0.611
 5914SOL    HW118641   1.042   5.662   0.554
 5914SOL    HW218642   1.061   5.807   0.628
 5915SOL     OW18643   5.849   3.947   4.291
 5915SOL    HW118644   5.862   4.011   4.215
 5915SOL    HW218645   5.758   3.906   4.284
 5916SOL     OW18646   3.089   1.005   6.734
 5916SOL    HW118647   3.176   1.036   6.774
 5916SOL    HW218648   3.050   1.077   6.678
 5917SOL     OW18649   3.530   4.128   2.109
 5917SOL    HW118650   3.614   4.073   2.103
 5917SOL    HW218651   3.510   4.147   2.205
 5918SOL     OW18652   3.031   1.940   3.962
 5918SOL    HW118653   3.033   2.000   3.882
 5918SOL    HW218654   3.083   1.982   4.036
 5919SOL     OW18655   1.603   2.232   6.971
 5919SOL    HW118656   1.619   2.158   6.906
 5919SOL    HW218657   1.690   2.276   6.993
 5920SOL     OW18658   2.387   5.072   6.764
 5920SOL    HW118659   2.303   5.118   6.793
 5920SOL    HW218660   2.467   5.125   6.793
 5921SOL     OW18661   3.894   5.868   4.732
 5921SOL    HW118662   3.952   5.900   4.807
 5921SOL    HW218663   3.834   5.943   4.703
 5922SOL     OW18664   6.901   5.400   2.406
 5922SOL    HW118665   6.901   5.417   2.308
 5922SOL    HW218666   6.982   5.348   2.431
 5923SOL     OW18667   0.699   0.816   3.244
 5923SOL    HW118668   0.643   0.749   3.195
 5923SOL    HW218669   0.641   0.884   3.286
 5924SOL     OW18670   5.693   2.059   4.668
 5924SOL    HW118671   5.657   2.027   4.755
 5924SOL    HW218672   5.781   2.015   4.649
 5925SOL     OW18673   6.718   5.797   0.516
 5925SOL    HW118674   6.813   5.779   0.490
 5925SOL    HW218675   6.715   5.865   0.589
 5926SOL     OW18676   2.955   6.422   1.734
 5926SOL    HW118677   3.031   6.374   1.777
 5926SOL    HW218678   2.900   6.466   1.804
 5927SOL     OW18679   2.323   4.960   1.248
 5927SOL    HW118680   2.348   5.043   1.299
 5927SOL    HW218681   2.351   4.971   1.153
 5928SOL     OW18682   6.873   6.008   1.268
 5928SOL    HW118683   6.955   5.995   1.212
 5928SOL    HW218684   6.855   6.105   1.278
 5929SOL     OW18685   6.958   6.883   5.649
 5929SOL    HW118686   0.030   6.910   5.625
 5929SOL    HW218687   6.959   6.793   5.692
 5930SOL     OW18688   6.267   1.518   5.159
 5930SOL    HW118689   6.314   1.567   5.086
 5930SOL    HW218690   6.220   1.439   5.121
 5931SOL     OW18691   5.516   5.000   0.786
 5931SOL    HW118692   5.450   4.927   0.804
 5931SOL    HW218693   5.531   5.054   0.869
 5932SOL     OW18694   2.272   6.963   0.278
 5932SOL    HW118695   2.305   6.938   0.186
 5932SOL    HW218696   2.299   0.037   0.298
 5933SOL     OW18697   5.837   2.219   2.963
 5933SOL    HW118698   5.834   2.282   3.041
 5933SOL    HW218699   5.932   2.205   2.935
 5934SOL     OW18700   4.146   3.287   2.120
 5934SOL    HW118701   4.245   3.269   2.117
 5934SOL    HW218702   4.099   3.206   2.155
 5935SOL     OW18703   3.751   3.090   2.873
 5935SOL    HW118704   3.665   3.055   2.836
 5935SOL    HW218705   3.783   3.028   2.946
 5936SOL     OW18706   6.712   6.310   6.607
 5936SOL    HW118707   6.648   6.313   6.530
 5936SOL    HW218708   6.677   6.247   6.676
 5937SOL     OW18709   1.061   4.422   0.134
 5937SOL    HW118710   1.068   4.516   0.169
 5937SOL    HW218711   1.083   4.358   0.207
 5938SOL     OW18712   2.508   5.125   0.555
 5938SOL    HW118713   2.430   5.126   0.618
 5938SOL    HW218714   2.576   5.192   0.585
 5939SOL     OW18715   1.459   0.710   2.315
 5939SOL    HW118716   1.392   0.747   2.251
 5939SOL    HW218717   1.430   0.619   2.345
 5940SOL     OW18718   4.107   5.022   3.348
 5940SOL    HW118719   4.029   4.966   3.371
 5940SOL    HW218720   4.090   5.117   3.376
 5941SOL     OW18721   5.979   2.534   3.470
 5941SOL    HW118722   6.017   2.606   3.413
 5941SOL    HW218723   5.880   2.532   3.460
 5942SOL     OW18724   6.998   1.216   4.887
 5942SOL    HW118725   6.961   1.288   4.946
 5942SOL    HW218726   0.024   1.259   4.809
 5943SOL     OW18727   1.853   5.372   0.973
 5943SOL    HW118728   1.764   5.393   1.012
 5943SOL    HW218729   1.863   5.418   0.885
 5944SOL     OW18730   5.190   2.587   2.517
 5944SOL    HW118731   5.155   2.677   2.543
 5944SOL    HW218732   5.214   2.587   2.420
 5945SOL     OW18733   6.566   5.759   6.253
 5945SOL    HW118734   6.532   5.716   6.169
 5945SOL    HW218735   6.496   5.752   6.324
 5946SOL     OW18736   3.805   2.475   5.346
 5946SOL    HW118737   3.869   2.539   5.303
 5946SOL    HW218738   3.739   2.526   5.400
 5947SOL     OW18739   4.909   3.839   2.737
 5947SOL    HW118740   4.912   3.903   2.660
 5947SOL    HW218741   4.902   3.745   2.702
 5948SOL     OW18742   2.771   5.318   3.133
 5948SOL    HW118743   2.790   5.271   3.220
 5948SOL    HW218744   2.758   5.415   3.151
 5949SOL     OW18745   4.828   4.278   3.061
 5949SOL    HW118746   4.740   4.317   3.087
 5949SOL    HW218747   4.814   4.186   3.026
 5950SOL     OW18748   6.219   2.182   4.492
 5950SOL    HW118749   6.162   2.170   4.573
 5950SOL    HW218750   6.297   2.241   4.515
 5951SOL     OW18751   2.115   0.851   3.909
 5951SOL    HW118752   2.020   0.883   3.903
 5951SOL    HW218753   2.116   0.751   3.914
 5952SOL     OW18754   0.438   6.393   4.251
 5952SOL    HW118755   0.438   6.479   4.302
 5952SOL    HW218756   0.343   6.361   4.240
 5953SOL     OW18757   0.169   3.016   6.136
 5953SOL    HW118758   0.133   3.106   6.111
 5953SOL    HW218759   0.138   2.991   6.228
 5954SOL     OW18760   1.345   4.665   6.199
 5954SOL    HW118761   1.287   4.586   6.219
 5954SOL    HW218762   1.427   4.635   6.151
 5955SOL     OW18763   4.210   5.405   2.692
 5955SOL    HW118764   4.156   5.488   2.705
 5955SOL    HW218765   4.151   5.325   2.696
 5956SOL     OW18766   0.201   2.245   7.013
 5956SOL    HW118767   0.111   2.212   6.983
 5956SOL    HW218768   0.236   2.185   0.065
 5957SOL     OW18769   4.226   6.534   5.704
 5957SOL    HW118770   4.302   6.552   5.766
 5957SOL    HW218771   4.258   6.477   5.628
 5958SOL     OW18772   0.993   5.256   2.460
 5958SOL    HW118773   0.994   5.162   2.427
 5958SOL    HW218774   1.000   5.320   2.383
 5959SOL     OW18775   1.832   0.963   6.253
 5959SOL    HW118776   1.804   1.033   6.187
 5959SOL    HW218777   1.859   0.880   6.204
 5960SOL     OW18778   3.639   6.105   5.213
 5960SOL    HW118779   3.695   6.088   5.132
 5960SOL    HW218780   3.628   6.204   5.225
 5961SOL     OW18781   2.608   1.290   5.696
 5961SOL    HW118782   2.519   1.305   5.739
 5961SOL    HW218783   2.652   1.211   5.739
 5962SOL     OW18784   5.361   3.959   2.535
 5962SOL    HW118785   5.395   3.929   2.446
 5962SOL    HW218786   5.338   4.056   2.532
 5963SOL     OW18787   4.340   4.541   1.857
 5963SOL    HW118788   4.308   4.538   1.763
 5963SOL    HW218789   4.376   4.451   1.883
 5964SOL     OW18790   1.402   3.616   5.583
 5964SOL    HW118791   1.477   3.553   5.605
 5964SOL    HW218792   1.403   3.636   5.485
 5965SOL     OW18793   1.927   1.720   4.265
 5965SOL    HW118794   1.953   1.786   4.196
 5965SOL    HW218795   1.940   1.760   4.356
 5966SOL     OW18796   1.707   6.111   4.272
 5966SOL    HW118797   1.754   6.116   4.184
 5966SOL    HW218798   1.774   6.118   4.346
 5967SOL     OW18799   4.747   5.662   1.098
 5967SOL    HW118800   4.659   5.653   1.143
 5967SOL    HW218801   4.771   5.575   1.054
 5968SOL     OW18802   1.318   2.097   4.415
 5968SOL    HW118803   1.401   2.048   4.441
 5968SOL    HW218804   1.339   2.160   4.340
 5969SOL     OW18805   0.319   1.836   3.137
 5969SOL    HW118806   0.365   1.916   3.098
 5969SOL    HW218807   0.226   1.830   3.100
 5970SOL     OW18808   2.149   3.996   3.548
 5970SOL    HW118809   2.151   4.004   3.448
 5970SOL    HW218810   2.153   4.087   3.589
 5971SOL     OW18811   3.000   5.543   3.336
 5971SOL    HW118812   3.087   5.501   3.309
 5971SOL    HW218813   2.984   5.625   3.281
 5972SOL     OW18814   5.611   0.234   1.540
 5972SOL    HW118815   5.603   0.204   1.635
 5972SOL    HW218816   5.657   0.323   1.536
 5973SOL     OW18817   2.457   4.940   3.366
 5973SOL    HW118818   2.427   4.969   3.275
 5973SOL    HW218819   2.531   4.874   3.357
 5974SOL     OW18820   0.992   4.235   6.740
 5974SOL    HW118821   0.963   4.214   6.833
 5974SOL    HW218822   0.949   4.170   6.676
 5975SOL     OW18823   2.091   2.222   6.490
 5975SOL    HW118824   2.044   2.243   6.576
 5975SOL    HW218825   2.051   2.276   6.416
 5976SOL     OW18826   3.641   3.458   4.493
 5976SOL    HW118827   3.544   3.458   4.468
 5976SOL    HW218828   3.694   3.415   4.419
 5977SOL     OW18829   0.277   3.518   2.739
 5977SOL    HW118830   0.314   3.470   2.659
 5977SOL    HW218831   0.339   3.506   2.816
 5978SOL     OW18832   5.218   5.441   1.915
 5978SOL    HW118833   5.132   5.447   1.865
 5978SOL    HW218834   5.244   5.345   1.926
 5979SOL     OW18835   0.898   1.079   1.604
 5979SOL    HW118836   0.910   1.157   1.664
 5979SOL    HW218837   0.807   1.080   1.564
 5980SOL     OW18838   6.016   2.727   5.449
 5980SOL    HW118839   6.030   2.630   5.467
 5980SOL    HW218840   6.078   2.781   5.506
 5981SOL     OW18841   3.529   1.994   0.449
 5981SOL    HW118842   3.544   1.913   0.391
 5981SOL    HW218843   3.432   2.016   0.450
 5982SOL     OW18844   6.195   3.011   0.074
 5982SOL    HW118845   6.152   3.099   0.053
 5982SOL    HW218846   6.294   3.024   0.080
 5983SOL     OW18847   0.838   0.322   4.838
 5983SOL    HW118848   0.845   0.290   4.743
 5983SOL    HW218849   0.797   0.250   4.894
 5984SOL     OW18850   0.843   0.163   6.124
 5984SOL    HW118851   0.844   0.262   6.109
 5984SOL    HW218852   0.915   0.120   6.068
 5985SOL     OW18853   5.637   3.286   3.918
 5985SOL    HW118854   5.656   3.265   3.822
 5985SOL    HW218855   5.607   3.203   3.965
 5986SOL     OW18856   3.220   3.487   2.676
 5986SOL    HW118857   3.141   3.542   2.650
 5986SOL    HW218858   3.304   3.534   2.650
 5987SOL     OW18859   4.452   0.454   5.487
 5987SOL    HW118860   4.402   0.444   5.401
 5987SOL    HW218861   4.394   0.501   5.554
 5988SOL     OW18862   3.968   6.912   5.895
 5988SOL    HW118863   3.901   6.902   5.968
 5988SOL    HW218864   3.997   6.822   5.863
 5989SOL     OW18865   3.350   1.814   6.697
 5989SOL    HW118866   3.396   1.739   6.744
 5989SOL    HW218867   3.392   1.901   6.724
 5990SOL     OW18868   3.635   5.340   2.905
 5990SOL    HW118869   3.732   5.320   2.917
 5990SOL    HW218870   3.586   5.323   2.990
 5991SOL     OW18871   3.628   4.902   3.395
 5991SOL    HW118872   3.623   4.989   3.443
 5991SOL    HW218873   3.574   4.834   3.444
 5992SOL     OW18874   4.247   1.917   4.194
 5992SOL    HW118875   4.322   1.956   4.141
 5992SOL    HW218876   4.180   1.876   4.132
 5993SOL     OW18877   2.314   5.051   3.828
 5993SOL    HW118878   2.309   4.981   3.899
 5993SOL    HW218879   2.356   5.012   3.745
 5994SOL     OW18880   6.207   2.872   0.529
 5994SOL    HW118881   6.262   2.904   0.606
 5994SOL    HW218882   6.111   2.867   0.556
 5995SOL     OW18883   0.453   3.806   1.876
 5995SOL    HW118884   0.391   3.801   1.954
 5995SOL    HW218885   0.444   3.724   1.821
 5996SOL     OW18886   1.416   6.020   6.012
 5996SOL    HW118887   1.418   5.999   5.915
 5996SOL    HW218888   1.383   6.113   6.026
 5997SOL     OW18889   0.667   0.571   1.353
 5997SOL    HW118890   0.680   0.669   1.340
 5997SOL    HW218891   0.739   0.535   1.412
 5998SOL     OW18892   5.257   2.940   3.205
 5998SOL    HW118893   5.229   3.023   3.156
 5998SOL    HW218894   5.260   2.863   3.141
 5999SOL     OW18895   2.252   2.663   2.775
 5999SOL    HW118896   2.214   2.661   2.868
 5999SOL    HW218897   2.237   2.754   2.736
 6000SOL     OW18898   4.733   0.974   3.489
 6000SOL    HW118899   4.693   0.968   3.397
 6000SOL    HW218900   4.744   1.070   3.514
 6001SOL     OW18901   6.409   1.230   0.485
 6001SOL    HW118902   6.328   1.256   0.537
 6001SOL    HW218903   6.387   1.155   0.423
 6002SOL     OW18904   2.093   0.197   2.394
 6002SOL    HW118905   1.995   0.212   2.385
 6002SOL    HW218906   2.142   0.259   2.331
 6003SOL     OW18907   4.647   4.202   3.844
 6003SOL    HW118908   4.611   4.293   3.861
 6003SOL    HW218909   4.720   4.181   3.909
 6004SOL     OW18910   0.309   3.377   1.503
 6004SOL    HW118911   0.403   3.411   1.509
 6004SOL    HW218912   0.248   3.439   1.552
 6005SOL     OW18913   1.814   5.980   2.313
 6005SOL    HW118914   1.724   6.007   2.278
 6005SOL    HW218915   1.807   5.891   2.358
 6006SOL     OW18916   2.403   5.557   6.877
 6006SOL    HW118917   2.409   5.640   6.822
 6006SOL    HW218918   2.394   5.582   6.974
 6007SOL     OW18919   5.579   3.626   4.601
 6007SOL    HW118920   5.541   3.606   4.692
 6007SOL    HW218921   5.676   3.648   4.610
 6008SOL     OW18922   4.743   4.020   1.744
 6008SOL    HW118923   4.760   3.961   1.665
 6008SOL    HW218924   4.645   4.038   1.752
 6009SOL     OW18925   4.576   1.419   4.764
 6009SOL    HW118926   4.544   1.325   4.754
 6009SOL    HW218927   4.502   1.482   4.742
 6010SOL     OW18928   1.973   4.473   3.263
 6010SOL    HW118929   1.928   4.539   3.203
 6010SOL    HW218930   2.070   4.495   3.271
 6011SOL     OW18931   6.325   2.076   1.930
 6011SOL    HW118932   6.231   2.065   1.898
 6011SOL    HW218933   6.334   2.042   2.023
 6012SOL     OW18934   0.821   3.178   1.193
 6012SOL    HW118935   0.756   3.109   1.163
 6012SOL    HW218936   0.863   3.221   1.113
 6013SOL     OW18937   5.581   0.415   2.576
 6013SOL    HW118938   5.587   0.347   2.504
 6013SOL    HW218939   5.644   0.391   2.650
 6014SOL     OW18940   6.149   0.734   0.849
 6014SOL    HW118941   6.065   0.788   0.858
 6014SOL    HW218942   6.127   0.637   0.856
 6015SOL     OW18943   5.868   0.087   4.142
 6015SOL    HW118944   5.903   7.016   4.163
 6015SOL    HW218945   5.942   0.154   4.153
 6016SOL     OW18946   1.483   0.401   5.585
 6016SOL    HW118947   1.573   0.390   5.542
 6016SOL    HW218948   1.425   0.458   5.526
 6017SOL     OW18949   6.926   3.622   2.454
 6017SOL    HW118950   6.896   3.536   2.494
 6017SOL    HW218951   6.995   3.664   2.513
 6018SOL     OW18952   3.409   5.093   1.246
 6018SOL    HW118953   3.346   5.016   1.243
 6018SOL    HW218954   3.499   5.061   1.274
 6019SOL     OW18955   6.157   6.477   3.218
 6019SOL    HW118956   6.167   6.459   3.120
 6019SOL    HW218957   6.246   6.494   3.259
 6020SOL     OW18958   1.905   6.413   2.924
 6020SOL    HW118959   1.820   6.365   2.946
 6020SOL    HW218960   1.883   6.506   2.894
 6021SOL     OW18961   3.202   0.638   3.295
 6021SOL    HW118962   3.245   0.566   3.349
 6021SOL    HW218963   3.107   0.649   3.323
 6022SOL     OW18964   3.901   1.068   5.498
 6022SOL    HW118965   3.841   0.988   5.492
 6022SOL    HW218966   3.933   1.079   5.592
 6023SOL     OW18967   0.441   1.889   2.231
 6023SOL    HW118968   0.379   1.824   2.187
 6023SOL    HW218969   0.430   1.979   2.190
 6024SOL     OW18970   6.096   5.814   3.081
 6024SOL    HW118971   6.016   5.756   3.095
 6024SOL    HW218972   6.091   5.893   3.143
 6025SOL     OW18973   4.553   2.329   2.624
 6025SOL    HW118974   4.605   2.254   2.583
 6025SOL    HW218975   4.484   2.291   2.686
 6026SOL     OW18976   0.809   4.371   5.787
 6026SOL    HW118977   0.817   4.355   5.885
 6026SOL    HW218978   0.723   4.331   5.753
 6027SOL     OW18979   4.065   3.992   0.384
 6027SOL    HW118980   4.094   3.991   0.480
 6027SOL    HW218981   4.139   4.027   0.327
 6028SOL     OW18982   0.477   4.232   6.738
 6028SOL    HW118983   0.544   4.307   6.739
 6028SOL    HW218984   0.481   4.186   6.649
 6029SOL     OW18985   1.323   5.396   1.398
 6029SOL    HW118986   1.346   5.414   1.494
 6029SOL    HW218987   1.226   5.375   1.390
 6030SOL     OW18988   1.908   6.576   1.823
 6030SOL    HW118989   1.976   6.544   1.888
 6030SOL    HW218990   1.883   6.501   1.762
 6031SOL     OW18991   4.910   0.876   4.057
 6031SOL    HW118992   4.943   0.931   4.134
 6031SOL    HW218993   4.988   0.837   4.008
 6032SOL     OW18994   1.155   2.492   2.561
 6032SOL    HW118995   1.139   2.437   2.643
 6032SOL    HW218996   1.251   2.522   2.560
 6033SOL     OW18997   0.283   6.821   4.416
 6033SOL    HW118998   0.202   6.857   4.462
 6033SOL    HW218999   0.306   6.732   4.455
 6034SOL     OW19000   2.400   4.525   4.807
 6034SOL    HW119001   2.389   4.481   4.895
 6034SOL    HW219002   2.383   4.459   4.734
 6035SOL     OW19003   4.727   0.094   3.768
 6035SOL    HW119004   4.739   0.068   3.864
 6035SOL    HW219005   4.727   0.194   3.760
 6036SOL     OW19006   6.042   0.643   4.743
 6036SOL    HW119007   6.046   0.743   4.742
 6036SOL    HW219008   6.020   0.611   4.836
 6037SOL     OW19009   0.355   5.786   4.598
 6037SOL    HW119010   0.440   5.773   4.548
 6037SOL    HW219011   0.356   5.730   4.681
 6038SOL     OW19012   0.075   4.202   6.776
 6038SOL    HW119013   0.055   4.107   6.755
 6038SOL    HW219014   0.049   4.222   6.871
 6039SOL     OW19015   3.578   3.270   3.956
 6039SOL    HW119016   3.497   3.253   3.900
 6039SOL    HW219017   3.549   3.295   4.049
 6040SOL     OW19018   1.320   0.895   0.785
 6040SOL    HW119019   1.352   0.876   0.877
 6040SOL    HW219020   1.300   0.993   0.776
 6041SOL     OW19021   0.827   3.102   0.099
 6041SOL    HW119022   0.771   3.181   0.122
 6041SOL    HW219023   0.921   3.131   0.083
 6042SOL     OW19024   4.936   5.263   4.753
 6042SOL    HW119025   4.924   5.361   4.766
 6042SOL    HW219026   4.948   5.219   4.842
 6043SOL     OW19027   0.152   4.377   4.062
 6043SOL    HW119028   0.144   4.366   3.962
 6043SOL    HW219029   0.202   4.461   4.082
 6044SOL     OW19030   1.563   0.497   1.183
 6044SOL    HW119031   1.622   0.420   1.207
 6044SOL    HW219032   1.620   0.577   1.164
 6045SOL     OW19033   6.434   4.534   0.086
 6045SOL    HW119034   6.424   4.576   7.016
 6045SOL    HW219035   6.523   4.558   0.125
 6046SOL     OW19036   1.546   3.613   6.891
 6046SOL    HW119037   1.538   3.515   6.906
 6046SOL    HW219038   1.464   3.647   6.845
 6047SOL     OW19039   1.002   5.557   4.883
 6047SOL    HW119040   0.991   5.501   4.801
 6047SOL    HW219041   0.930   5.533   4.949
 6048SOL     OW19042   4.610   6.010   4.122
 6048SOL    HW119043   4.530   5.957   4.152
 6048SOL    HW219044   4.601   6.104   4.155
 6049SOL     OW19045   6.736   5.471   0.048
 6049SOL    HW119046   6.670   5.503   0.116
 6049SOL    HW219047   6.827   5.471   0.089
 6050SOL     OW19048   5.850   4.566   5.324
 6050SOL    HW119049   5.918   4.513   5.273
 6050SOL    HW219050   5.845   4.531   5.418
 6051SOL     OW19051   3.300   2.155   3.855
 6051SOL    HW119052   3.215   2.140   3.804
 6051SOL    HW219053   3.281   2.153   3.953
 6052SOL     OW19054   0.265   1.959   6.700
 6052SOL    HW119055   0.262   1.968   6.600
 6052SOL    HW219056   0.319   1.879   6.725
 6053SOL     OW19057   1.205   0.309   6.257
 6053SOL    HW119058   1.225   0.396   6.211
 6053SOL    HW219059   1.243   0.233   6.204
 6054SOL     OW19060   0.836   4.291   6.038
 6054SOL    HW119061   0.868   4.201   6.065
 6054SOL    HW219062   0.887   4.361   6.087
 6055SOL     OW19063   5.415   0.083   2.943
 6055SOL    HW119064   5.364   0.163   2.911
 6055SOL    HW219065   5.374   0.049   3.028
 6056SOL     OW19066   5.493   3.195   6.239
 6056SOL    HW119067   5.440   3.244   6.309
 6056SOL    HW219068   5.455   3.216   6.149
 6057SOL     OW19069   4.097   0.756   6.310
 6057SOL    HW119070   4.062   0.850   6.300
 6057SOL    HW219071   4.140   0.747   6.400
 6058SOL     OW19072   5.079   1.874   5.222
 6058SOL    HW119073   5.134   1.847   5.143
 6058SOL    HW219074   5.052   1.970   5.212
 6059SOL     OW19075   0.152   6.493   6.823
 6059SOL    HW119076   0.172   6.396   6.840
 6059SOL    HW219077   0.160   6.512   6.725
 6060SOL     OW19078   3.298   5.742   6.414
 6060SOL    HW119079   3.341   5.818   6.462
 6060SOL    HW219080   3.297   5.761   6.316
 6061SOL     OW19081   2.040   1.482   7.000
 6061SOL    HW119082   2.019   1.386   6.981
 6061SOL    HW219083   2.128   1.505   6.960
 6062SOL     OW19084   1.469   0.221   3.948
 6062SOL    HW119085   1.540   0.291   3.950
 6062SOL    HW219086   1.507   0.134   3.978
 6063SOL     OW19087   6.057   5.880   6.859
 6063SOL    HW119088   6.111   5.956   6.824
 6063SOL    HW219089   6.116   5.821   6.915
 6064SOL     OW19090   1.058   4.996   2.404
 6064SOL    HW119091   1.119   4.966   2.477
 6064SOL    HW219092   1.056   4.928   2.331
 6065SOL     OW19093   5.444   6.791   1.759
 6065SOL    HW119094   5.390   6.875   1.746
 6065SOL    HW219095   5.540   6.810   1.742
 6066SOL     OW19096   4.132   1.684   5.638
 6066SOL    HW119097   4.120   1.585   5.624
 6066SOL    HW219098   4.087   1.711   5.723
 6067SOL     OW19099   4.787   2.016   6.584
 6067SOL    HW119100   4.738   2.097   6.616
 6067SOL    HW219101   4.872   2.006   6.635
 6068SOL     OW19102   5.171   0.683   5.655
 6068SOL    HW119103   5.227   0.626   5.595
 6068SOL    HW219104   5.077   0.683   5.621
 6069SOL     OW19105   6.396   5.216   3.438
 6069SOL    HW119106   6.300   5.191   3.440
 6069SOL    HW219107   6.451   5.136   3.414
 6070SOL     OW19108   4.883   3.748   0.732
 6070SOL    HW119109   4.791   3.760   0.696
 6070SOL    HW219110   4.893   3.656   0.770
 6071SOL     OW19111   4.907   6.802   5.270
 6071SOL    HW119112   4.956   6.848   5.196
 6071SOL    HW219113   4.927   6.848   5.357
 6072SOL     OW19114   6.255   1.847   1.459
 6072SOL    HW119115   6.267   1.934   1.506
 6072SOL    HW219116   6.181   1.795   1.502
 6073SOL     OW19117   6.208   0.529   1.317
 6073SOL    HW119118   6.179   0.624   1.318
 6073SOL    HW219119   6.242   0.503   1.408
 6074SOL     OW19120   0.847   0.437   6.037
 6074SOL    HW119121   0.881   0.415   5.946
 6074SOL    HW219122   0.884   0.525   6.067
 6075SOL     OW19123   5.376   3.674   5.970
 6075SOL    HW119124   5.321   3.652   6.051
 6075SOL    HW219125   5.408   3.590   5.927
 6076SOL     OW19126   2.674   0.491   4.013
 6076SOL    HW119127   2.604   0.521   3.949
 6076SOL    HW219128   2.659   0.534   4.102
 6077SOL     OW19129   4.901   4.946   2.962
 6077SOL    HW119130   4.995   4.969   2.989
 6077SOL    HW219131   4.888   4.847   2.970
 6078SOL     OW19132   1.864   4.346   4.212
 6078SOL    HW119133   1.867   4.298   4.124
 6078SOL    HW219134   1.947   4.325   4.263
 6079SOL     OW19135   3.400   2.031   1.024
 6079SOL    HW119136   3.310   2.011   0.986
 6079SOL    HW219137   3.394   2.111   1.083
 6080SOL     OW19138   5.870   3.203   3.399
 6080SOL    HW119139   5.944   3.255   3.441
 6080SOL    HW219140   5.783   3.225   3.444
 6081SOL     OW19141   0.591   4.389   1.928
 6081SOL    HW119142   0.615   4.431   2.015
 6081SOL    HW219143   0.610   4.291   1.931
 6082SOL     OW19144   4.127   1.902   4.953
 6082SOL    HW119145   4.075   1.846   5.018
 6082SOL    HW219146   4.073   1.983   4.929
 6083SOL     OW19147   1.893   6.510   6.877
 6083SOL    HW119148   1.945   6.464   6.950
 6083SOL    HW219149   1.946   6.505   6.792
 6084SOL     OW19150   6.713   5.605   5.946
 6084SOL    HW119151   6.749   5.694   5.970
 6084SOL    HW219152   6.614   5.611   5.933
 6085SOL     OW19153   5.283   5.201   2.000
 6085SOL    HW119154   5.193   5.157   1.993
 6085SOL    HW219155   5.352   5.130   2.016
 6086SOL     OW19156   3.226   1.784   2.478
 6086SOL    HW119157   3.182   1.827   2.400
 6086SOL    HW219158   3.325   1.796   2.473
 6087SOL     OW19159   3.852   0.754   0.306
 6087SOL    HW119160   3.900   0.744   0.393
 6087SOL    HW219161   3.918   0.771   0.233
 6088SOL     OW19162   0.146   0.746   5.024
 6088SOL    HW119163   0.175   0.693   5.103
 6088SOL    HW219164   0.103   0.686   4.957
 6089SOL     OW19165   6.491   3.898   1.205
 6089SOL    HW119166   6.488   3.844   1.290
 6089SOL    HW219167   6.513   3.838   1.129
 6090SOL     OW19168   6.776   5.740   4.254
 6090SOL    HW119169   6.840   5.810   4.287
 6090SOL    HW219170   6.827   5.668   4.207
 6091SOL     OW19171   6.615   2.405   1.905
 6091SOL    HW119172   6.516   2.408   1.919
 6091SOL    HW219173   6.650   2.315   1.931
 6092SOL     OW19174   1.115   3.578   0.914
 6092SOL    HW119175   1.180   3.529   0.855
 6092SOL    HW219176   1.022   3.555   0.887
 6093SOL     OW19177   1.090   5.052   0.681
 6093SOL    HW119178   1.014   5.040   0.618
 6093SOL    HW219179   1.078   4.991   0.760
 6094SOL     OW19180   0.299   1.321   0.958
 6094SOL    HW119181   0.364   1.389   0.926
 6094SOL    HW219182   0.242   1.360   1.031
 6095SOL     OW19183   6.444   4.148   5.030
 6095SOL    HW119184   6.380   4.084   4.988
 6095SOL    HW219185   6.456   4.126   5.127
 6096SOL     OW19186   5.667   1.843   2.470
 6096SOL    HW119187   5.627   1.873   2.557
 6096SOL    HW219188   5.597   1.849   2.398
 6097SOL     OW19189   3.453   2.053   2.656
 6097SOL    HW119190   3.402   1.996   2.720
 6097SOL    HW219191   3.499   2.127   2.705
 6098SOL     OW19192   0.611   0.887   6.620
 6098SOL    HW119193   0.515   0.871   6.642
 6098SOL    HW219194   0.669   0.842   6.688
 6099SOL     OW19195   5.787   4.223   4.683
 6099SOL    HW119196   5.787   4.260   4.590
 6099SOL    HW219197   5.838   4.137   4.685
 6100SOL     OW19198   0.219   2.680   0.692
 6100SOL    HW119199   0.177   2.713   0.777
 6100SOL    HW219200   0.149   2.642   0.632
 6101SOL     OW19201   6.437   6.451   3.330
 6101SOL    HW119202   6.475   6.538   3.362
 6101SOL    HW219203   6.436   6.385   3.406
 6102SOL     OW19204   3.243   6.629   4.830
 6102SOL    HW119205   3.240   6.577   4.915
 6102SOL    HW219206   3.150   6.637   4.793
 6103SOL     OW19207   5.572   1.802   5.302
 6103SOL    HW119208   5.569   1.722   5.362
 6103SOL    HW219209   5.571   1.772   5.206
 6104SOL     OW19210   1.754   2.675   0.967
 6104SOL    HW119211   1.817   2.641   1.036
 6104SOL    HW219212   1.750   2.611   0.891
 6105SOL     OW19213   3.150   4.897   4.427
 6105SOL    HW119214   3.086   4.841   4.479
 6105SOL    HW219215   3.222   4.931   4.489
 6106SOL     OW19216   2.212   4.954   4.123
 6106SOL    HW119217   2.196   4.960   4.221
 6106SOL    HW219218   2.139   4.899   4.080
 6107SOL     OW19219   2.400   5.227   5.793
 6107SOL    HW119220   2.315   5.230   5.741
 6107SOL    HW219221   2.396   5.153   5.860
 6108SOL     OW19222   5.283   1.846   5.014
 6108SOL    HW119223   5.271   1.927   4.957
 6108SOL    HW219224   5.380   1.831   5.032
 6109SOL     OW19225   6.835   4.070   1.482
 6109SOL    HW119226   6.860   4.092   1.576
 6109SOL    HW219227   6.809   3.974   1.475
 6110SOL     OW19228   3.556   2.044   3.396
 6110SOL    HW119229   3.638   2.100   3.383
 6110SOL    HW219230   3.515   2.066   3.485
 6111SOL     OW19231   0.568   4.156   3.904
 6111SOL    HW119232   0.542   4.065   3.934
 6111SOL    HW219233   0.608   4.152   3.812
 6112SOL     OW19234   1.339   1.716   1.311
 6112SOL    HW119235   1.254   1.735   1.360
 6112SOL    HW219236   1.399   1.659   1.368
 6113SOL     OW19237   1.572   4.839   5.323
 6113SOL    HW119238   1.490   4.784   5.305
 6113SOL    HW219239   1.607   4.818   5.414
 6114SOL     OW19240   4.030   4.258   0.936
 6114SOL    HW119241   3.946   4.206   0.919
 6114SOL    HW219242   4.049   4.257   1.034
 6115SOL     OW19243   0.122   4.930   2.317
 6115SOL    HW119244   0.034   4.971   2.295
 6115SOL    HW219245   0.180   4.997   2.364
 6116SOL     OW19246   3.940   2.191   1.288
 6116SOL    HW119247   3.971   2.099   1.313
 6116SOL    HW219248   3.897   2.234   1.367
 6117SOL     OW19249   5.583   5.856   4.125
 6117SOL    HW119250   5.641   5.776   4.107
 6117SOL    HW219251   5.549   5.893   4.038
 6118SOL     OW19252   6.815   0.070   3.148
 6118SOL    HW119253   6.907   0.068   3.110
 6118SOL    HW219254   6.766   7.007   3.123
 6119SOL     OW19255   5.929   5.341   4.353
 6119SOL    HW119256   5.845   5.291   4.330
 6119SOL    HW219257   5.929   5.363   4.451
 6120SOL     OW19258   2.390   1.616   3.345
 6120SOL    HW119259   2.410   1.708   3.378
 6120SOL    HW219260   2.375   1.620   3.246
 6121SOL     OW19261   0.046   1.919   3.855
 6121SOL    HW119262   0.038   1.902   3.757
 6121SOL    HW219263   0.048   1.832   3.904
 6122SOL     OW19264   3.609   5.741   3.982
 6122SOL    HW119265   3.577   5.651   3.953
 6122SOL    HW219266   3.669   5.730   4.061
 6123SOL     OW19267   5.688   1.579   2.830
 6123SOL    HW119268   5.652   1.607   2.919
 6123SOL    HW219269   5.690   1.658   2.768
 6124SOL     OW19270   3.045   0.439   4.951
 6124SOL    HW119271   2.980   0.425   5.025
 6124SOL    HW219272   3.130   0.391   4.971
 6125SOL     OW19273   0.847   4.284   2.070
 6125SOL    HW119274   0.920   4.346   2.098
 6125SOL    HW219275   0.884   4.215   2.007
 6126SOL     OW19276   3.515   6.333   3.134
 6126SOL    HW119277   3.514   6.426   3.170
 6126SOL    HW219278   3.502   6.335   3.035
 6127SOL     OW19279   2.135   5.488   1.435
 6127SOL    HW119280   2.108   5.478   1.339
 6127SOL    HW219281   2.116   5.403   1.485
 6128SOL     OW19282   5.139   4.283   1.189
 6128SOL    HW119283   5.229   4.280   1.147
 6128SOL    HW219284   5.113   4.378   1.207
 6129SOL     OW19285   6.262   3.679   3.693
 6129SOL    HW119286   6.313   3.731   3.761
 6129SOL    HW219287   6.168   3.715   3.687
 6130SOL     OW19288   5.456   3.511   3.146
 6130SOL    HW119289   5.545   3.466   3.147
 6130SOL    HW219290   5.449   3.574   3.223
 6131SOL     OW19291   6.757   0.783   5.306
 6131SOL    HW119292   6.665   0.769   5.343
 6131SOL    HW219293   6.817   0.819   5.377
 6132SOL     OW19294   0.049   2.464   0.535
 6132SOL    HW119295   6.971   2.462   0.517
 6132SOL    HW219296   0.094   2.391   0.484
 6133SOL     OW19297   1.590   4.886   0.110
 6133SOL    HW119298   1.557   4.912   0.020
 6133SOL    HW219299   1.677   4.931   0.128
 6134SOL     OW19300   5.074   4.147   6.506
 6134SOL    HW119301   5.099   4.109   6.595
 6134SOL    HW219302   5.156   4.154   6.449
 6135SOL     OW19303   5.810   6.832   2.484
 6135SOL    HW119304   5.898   6.860   2.524
 6135SOL    HW219305   5.739   6.896   2.513
 6136SOL     OW19306   1.435   1.761   2.611
 6136SOL    HW119307   1.441   1.663   2.624
 6136SOL    HW219308   1.524   1.798   2.586
 6137SOL     OW19309   3.845   6.789   6.514
 6137SOL    HW119310   3.877   6.782   6.419
 6137SOL    HW219311   3.880   6.711   6.566
 6138SOL     OW19312   4.753   0.522   3.361
 6138SOL    HW119313   4.725   0.430   3.332
 6138SOL    HW219314   4.715   0.590   3.298
 6139SOL     OW19315   2.735   6.294   3.813
 6139SOL    HW119316   2.818   6.304   3.758
 6139SOL    HW219317   2.655   6.314   3.757
 6140SOL     OW19318   2.360   5.465   1.222
 6140SOL    HW119319   2.314   5.541   1.176
 6140SOL    HW219320   2.396   5.496   1.310
 6141SOL     OW19321   0.594   5.609   5.141
 6141SOL    HW119322   0.675   5.555   5.120
 6141SOL    HW219323   0.618   5.682   5.205
 6142SOL     OW19324   6.983   3.606   3.846
 6142SOL    HW119325   6.935   3.652   3.921
 6142SOL    HW219326   6.975   3.507   3.856
 6143SOL     OW19327   6.032   5.495   6.315
 6143SOL    HW119328   5.945   5.506   6.267
 6143SOL    HW219329   6.017   5.500   6.414
 6144SOL     OW19330   0.258   5.490   4.273
 6144SOL    HW119331   0.317   5.568   4.253
 6144SOL    HW219332   0.212   5.505   4.360
 6145SOL     OW19333   5.965   5.127   3.234
 6145SOL    HW119334   5.942   5.186   3.157
 6145SOL    HW219335   6.039   5.064   3.209
 6146SOL     OW19336   6.040   2.273   3.594
 6146SOL    HW119337   6.054   2.366   3.561
 6146SOL    HW219338   5.944   2.247   3.581
 6147SOL     OW19339   0.865   3.623   3.770
 6147SOL    HW119340   0.838   3.602   3.676
 6147SOL    HW219341   0.826   3.711   3.797
 6148SOL     OW19342   5.950   6.107   2.978
 6148SOL    HW119343   5.883   6.179   2.993
 6148SOL    HW219344   6.001   6.126   2.893
 6149SOL     OW19345   1.213   5.732   4.476
 6149SOL    HW119346   1.117   5.715   4.452
 6149SOL    HW219347   1.235   5.687   4.563
 6150SOL     OW19348   4.432   6.682   6.368
 6150SOL    HW119349   4.355   6.713   6.424
 6150SOL    HW219350   4.460   6.756   6.307
 6151SOL     OW19351   4.657   0.101   5.043
 6151SOL    HW119352   4.747   0.128   5.078
 6151SOL    HW219353   4.603   0.183   5.026
 6152SOL     OW19354   6.440   4.067   5.885
 6152SOL    HW119355   6.448   4.013   5.969
 6152SOL    HW219356   6.531   4.075   5.843
 6153SOL     OW19357   3.779   5.446   5.655
 6153SOL    HW119358   3.828   5.471   5.738
 6153SOL    HW219359   3.752   5.350   5.659
 6154SOL     OW19360   5.233   3.225   3.103
 6154SOL    HW119361   5.245   3.191   3.010
 6154SOL    HW219362   5.135   3.234   3.122
 6155SOL     OW19363   2.604   4.680   4.652
 6155SOL    HW119364   2.542   4.622   4.705
 6155SOL    HW219365   2.623   4.635   4.564
 6156SOL     OW19366   5.649   0.744   4.498
 6156SOL    HW119367   5.614   0.727   4.591
 6156SOL    HW219368   5.736   0.696   4.486
 6157SOL     OW19369   1.065   1.586   4.583
 6157SOL    HW119370   0.999   1.541   4.523
 6157SOL    HW219371   1.080   1.680   4.552
 6158SOL     OW19372   5.220   0.185   6.979
 6158SOL    HW119373   5.212   0.283   6.993
 6158SOL    HW219374   5.289   0.148   0.021
 6159SOL     OW19375   5.113   3.671   6.160
 6159SOL    HW119376   5.152   3.760   6.185
 6159SOL    HW219377   5.067   3.632   6.240
 6160SOL     OW19378   6.489   5.410   6.769
 6160SOL    HW119379   6.482   5.389   6.866
 6160SOL    HW219380   6.548   5.343   6.724
 6161SOL     OW19381   5.650   0.170   6.009
 6161SOL    HW119382   5.665   0.229   5.931
 6161SOL    HW219383   5.634   0.076   5.978
 6162SOL     OW19384   5.974   5.192   3.972
 6162SOL    HW119385   5.882   5.159   3.951
 6162SOL    HW219386   5.976   5.292   3.971
 6163SOL     OW19387   6.619   3.682   2.939
 6163SOL    HW119388   6.566   3.657   3.020
 6163SOL    HW219389   6.710   3.712   2.967
 6164SOL     OW19390   4.534   3.026   1.343
 6164SOL    HW119391   4.633   3.041   1.351
 6164SOL    HW219392   4.506   2.960   1.413
 6165SOL     OW19393   4.105   0.297   0.960
 6165SOL    HW119394   4.199   0.281   0.929
 6165SOL    HW219395   4.094   0.260   1.052
 6166SOL     OW19396   3.305   0.458   0.160
 6166SOL    HW119397   3.296   0.552   0.127
 6166SOL    HW219398   3.279   0.454   0.256
 6167SOL     OW19399   6.738   5.227   3.409
 6167SOL    HW119400   6.725   5.191   3.316
 6167SOL    HW219401   6.725   5.153   3.475
 6168SOL     OW19402   0.253   2.827   1.498
 6168SOL    HW119403   0.267   2.767   1.419
 6168SOL    HW219404   0.290   2.783   1.579
 6169SOL     OW19405   1.228   4.093   1.112
 6169SOL    HW119406   1.159   4.050   1.054
 6169SOL    HW219407   1.266   4.173   1.066
 6170SOL     OW19408   6.547   2.032   3.365
 6170SOL    HW119409   6.482   1.977   3.418
 6170SOL    HW219410   6.570   1.983   3.281
 6171SOL     OW19411   5.637   1.835   6.619
 6171SOL    HW119412   5.647   1.741   6.587
 6171SOL    HW219413   5.721   1.886   6.599
 6172SOL     OW19414   0.388   4.927   3.717
 6172SOL    HW119415   0.408   4.851   3.779
 6172SOL    HW219416   0.290   4.929   3.698
 6173SOL     OW19417   5.303   6.065   3.010
 6173SOL    HW119418   5.365   5.999   3.053
 6173SOL    HW219419   5.266   6.125   3.081
 6174SOL     OW19420   7.016   2.257   3.473
 6174SOL    HW119421   0.008   2.338   3.532
 6174SOL    HW219422   6.972   2.184   3.525
 6175SOL     OW19423   4.055   2.263   6.683
 6175SOL    HW119424   4.104   2.208   6.616
 6175SOL    HW219425   3.964   2.285   6.647
 6176SOL     OW19426   2.769   4.852   6.006
 6176SOL    HW119427   2.718   4.921   6.059
 6176SOL    HW219428   2.866   4.857   6.030
 6177SOL     OW19429   5.863   5.701   1.815
 6177SOL    HW119430   5.932   5.711   1.743
 6177SOL    HW219431   5.788   5.766   1.799
 6178SOL     OW19432   4.311   4.992   2.080
 6178SOL    HW119433   4.398   5.017   2.037
 6178SOL    HW219434   4.289   4.898   2.058
 6179SOL     OW19435   4.573   5.361   4.929
 6179SOL    HW119436   4.646   5.426   4.950
 6179SOL    HW219437   4.553   5.305   5.010
 6180SOL     OW19438   2.246   3.656   0.085
 6180SOL    HW119439   2.221   3.726   0.152
 6180SOL    HW219440   2.164   3.604   0.060
 6181SOL     OW19441   0.116   6.317   0.314
 6181SOL    HW119442   0.147   6.392   0.371
 6181SOL    HW219443   0.186   6.295   0.245
 6182SOL     OW19444   3.276   2.743   6.322
 6182SOL    HW119445   3.214   2.739   6.243
 6182SOL    HW219446   3.301   2.838   6.341
 6183SOL     OW19447   0.263   0.457   0.310
 6183SOL    HW119448   0.290   0.382   0.370
 6183SOL    HW219449   0.214   0.526   0.363
 6184SOL     OW19450   3.598   6.718   5.453
 6184SOL    HW119451   3.680   6.675   5.415
 6184SOL    HW219452   3.625   6.800   5.504
 6185SOL     OW19453   3.333   2.928   4.084
 6185SOL    HW119454   3.356   2.937   3.987
 6185SOL    HW219455   3.416   2.910   4.136
 6186SOL     OW19456   1.135   1.687   2.584
 6186SOL    HW119457   1.169   1.744   2.659
 6186SOL    HW219458   1.122   1.744   2.503
 6187SOL     OW19459   3.676   1.583   5.834
 6187SOL    HW119460   3.673   1.495   5.787
 6187SOL    HW219461   3.764   1.593   5.880
 6188SOL     OW19462   1.765   1.390   5.861
 6188SOL    HW119463   1.774   1.484   5.895
 6188SOL    HW219464   1.672   1.358   5.877
 6189SOL     OW19465   6.547   5.580   0.511
 6189SOL    HW119466   6.585   5.503   0.562
 6189SOL    HW219467   6.592   5.665   0.540
 6190SOL     OW19468   0.993   3.049   3.782
 6190SOL    HW119469   1.025   3.143   3.782
 6190SOL    HW219470   0.939   3.032   3.864
 6191SOL     OW19471   3.179   4.618   0.232
 6191SOL    HW119472   3.243   4.674   0.285
 6191SOL    HW219473   3.105   4.587   0.292
 6192SOL     OW19474   3.000   2.053   1.380
 6192SOL    HW119475   2.930   2.116   1.347
 6192SOL    HW219476   3.036   2.084   1.468
 6193SOL     OW19477   4.729   5.714   6.721
 6193SOL    HW119478   4.812   5.678   6.678
 6193SOL    HW219479   4.649   5.672   6.679
 6194SOL     OW19480   5.437   0.110   5.691
 6194SOL    HW119481   5.394   0.195   5.724
 6194SOL    HW219482   5.481   0.127   5.603
 6195SOL     OW19483   4.562   5.515   5.798
 6195SOL    HW119484   4.658   5.487   5.798
 6195SOL    HW219485   4.512   5.463   5.729
 6196SOL     OW19486   0.047   3.658   3.438
 6196SOL    HW119487   0.068   3.573   3.487
 6196SOL    HW219488   6.975   3.653   3.401
 6197SOL     OW19489   0.658   5.621   0.612
 6197SOL    HW119490   0.735   5.569   0.575
 6197SOL    HW219491   0.595   5.558   0.659
 6198SOL     OW19492   6.472   1.802   6.027
 6198SOL    HW119493   6.410   1.779   5.951
 6198SOL    HW219494   6.427   1.780   6.114
 6199SOL     OW19495   2.461   6.746   6.481
 6199SOL    HW119496   2.435   6.799   6.400
 6199SOL    HW219497   2.387   6.748   6.548
 6200SOL     OW19498   1.709   6.968   0.239
 6200SOL    HW119499   1.801   6.950   0.204
 6200SOL    HW219500   1.651   6.888   0.222
 6201SOL     OW19501   0.337   4.576   4.098
 6201SOL    HW119502   0.407   4.506   4.111
 6201SOL    HW219503   0.365   4.637   4.023
 6202SOL     OW19504   5.871   0.711   1.798
 6202SOL    HW119505   5.924   0.713   1.713
 6202SOL    HW219506   5.799   0.642   1.791
 6203SOL     OW19507   0.215   1.232   2.051
 6203SOL    HW119508   0.310   1.250   2.075
 6203SOL    HW219509   0.164   1.318   2.051
 6204SOL     OW19510   1.132   6.204   4.726
 6204SOL    HW119511   1.089   6.120   4.694
 6204SOL    HW219512   1.116   6.214   4.825
 6205SOL     OW19513   6.696   4.104   3.450
 6205SOL    HW119514   6.689   4.179   3.515
 6205SOL    HW219515   6.771   4.121   3.387
 6206SOL     OW19516   5.232   2.152   3.460
 6206SOL    HW119517   5.276   2.064   3.479
 6206SOL    HW219518   5.188   2.185   3.544
 6207SOL     OW19519   1.490   5.619   3.694
 6207SOL    HW119520   1.406   5.587   3.649
 6207SOL    HW219521   1.509   5.713   3.667
 6208SOL     OW19522   3.748   4.154   6.549
 6208SOL    HW119523   3.769   4.241   6.594
 6208SOL    HW219524   3.736   4.083   6.618
 6209SOL     OW19525   3.438   1.063   2.530
 6209SOL    HW119526   3.415   1.157   2.556
 6209SOL    HW219527   3.459   1.060   2.432
 6210SOL     OW19528   5.700   0.841   4.180
 6210SOL    HW119529   5.740   0.851   4.089
 6210SOL    HW219530   5.612   0.794   4.173
 6211SOL     OW19531   5.027   2.671   4.765
 6211SOL    HW119532   5.043   2.724   4.682
 6211SOL    HW219533   4.959   2.718   4.821
 6212SOL     OW19534   5.357   3.735   4.803
 6212SOL    HW119535   5.307   3.818   4.828
 6212SOL    HW219536   5.445   3.734   4.851
 6213SOL     OW19537   5.142   5.794   0.411
 6213SOL    HW119538   5.073   5.740   0.362
 6213SOL    HW219539   5.190   5.736   0.476
 6214SOL     OW19540   6.547   6.605   6.352
 6214SOL    HW119541   6.491   6.526   6.379
 6214SOL    HW219542   6.487   6.683   6.333
 6215SOL     OW19543   5.636   2.600   5.197
 6215SOL    HW119544   5.685   2.653   5.266
 6215SOL    HW219545   5.663   2.504   5.204
 6216SOL     OW19546   5.013   2.373   5.593
 6216SOL    HW119547   4.931   2.380   5.536
 6216SOL    HW219548   4.988   2.336   5.682
 6217SOL     OW19549   0.009   4.295   2.176
 6217SOL    HW119550   0.032   4.302   2.274
 6217SOL    HW219551   0.093   4.300   2.122
 6218SOL     OW19552   4.548   6.681   1.499
 6218SOL    HW119553   4.545   6.723   1.408
 6218SOL    HW219554   4.495   6.596   1.498
 6219SOL     OW19555   2.372   0.624   0.491
 6219SOL    HW119556   2.454   0.595   0.540
 6219SOL    HW219557   2.352   0.559   0.418
 6220SOL     OW19558   3.255   0.689   2.488
 6220SOL    HW119559   3.338   0.736   2.518
 6220SOL    HW219560   3.279   0.601   2.448
 6221SOL     OW19561   4.578   4.898   5.374
 6221SOL    HW119562   4.488   4.854   5.376
 6221SOL    HW219563   4.646   4.837   5.414
 6222SOL     OW19564   6.622   0.900   1.883
 6222SOL    HW119565   6.592   0.923   1.790
 6222SOL    HW219566   6.688   0.969   1.914
 6223SOL     OW19567   6.663   5.151   4.110
 6223SOL    HW119568   6.566   5.158   4.132
 6223SOL    HW219569   6.706   5.082   4.168
 6224SOL     OW19570   3.965   6.885   0.214
 6224SOL    HW119571   3.963   6.821   0.137
 6224SOL    HW219572   3.995   6.837   0.296
 6225SOL     OW19573   5.158   5.886   6.762
 6225SOL    HW119574   5.222   5.899   6.838
 6225SOL    HW219575   5.067   5.919   6.788
 6226SOL     OW19576   1.142   1.299   4.260
 6226SOL    HW119577   1.162   1.393   4.231
 6226SOL    HW219578   1.191   1.234   4.203
 6227SOL     OW19579   2.058   4.376   6.120
 6227SOL    HW119580   2.151   4.401   6.148
 6227SOL    HW219581   1.993   4.440   6.160
 6228SOL     OW19582   0.332   2.957   4.085
 6228SOL    HW119583   0.263   3.019   4.120
 6228SOL    HW219584   0.289   2.873   4.052
 6229SOL     OW19585   0.326   4.417   5.226
 6229SOL    HW119586   0.256   4.438   5.295
 6229SOL    HW219587   0.283   4.371   5.148
 6230SOL     OW19588   1.078   0.902   1.180
 6230SOL    HW119589   1.129   0.988   1.171
 6230SOL    HW219590   1.105   0.840   1.107
 6231SOL     OW19591   2.402   5.592   5.714
 6231SOL    HW119592   2.397   5.537   5.797
 6231SOL    HW219593   2.452   5.540   5.643
 6232SOL     OW19594   4.222   0.476   6.475
 6232SOL    HW119595   4.213   0.399   6.539
 6232SOL    HW219596   4.215   0.443   6.382
 6233SOL     OW19597   6.851   4.325   0.866
 6233SOL    HW119598   6.761   4.364   0.848
 6233SOL    HW219599   6.901   4.383   0.930
 6234SOL     OW19600   4.498   5.282   3.129
 6234SOL    HW119601   4.487   5.363   3.071
 6234SOL    HW219602   4.594   5.257   3.134
 6235SOL     OW19603   0.016   0.865   1.602
 6235SOL    HW119604   7.006   0.875   1.697
 6235SOL    HW219605   0.108   0.825   1.601
 6236SOL     OW19606   6.732   5.850   1.444
 6236SOL    HW119607   6.815   5.884   1.399
 6236SOL    HW219608   6.660   5.918   1.436
 6237SOL     OW19609   4.309   1.545   2.640
 6237SOL    HW119610   4.244   1.469   2.649
 6237SOL    HW219611   4.293   1.611   2.713
 6238SOL     OW19612   2.417   0.178   4.086
 6238SOL    HW119613   2.381   0.152   4.176
 6238SOL    HW219614   2.359   0.138   4.014
 6239SOL     OW19615   3.913   1.549   4.177
 6239SOL    HW119616   3.882   1.552   4.272
 6239SOL    HW219617   3.980   1.622   4.162
 6240SOL     OW19618   3.727   3.597   3.748
 6240SOL    HW119619   3.803   3.650   3.786
 6240SOL    HW219620   3.752   3.500   3.745
 6241SOL     OW19621   4.035   6.819   3.520
 6241SOL    HW119622   3.999   6.825   3.613
 6241SOL    HW219623   4.129   6.783   3.523
 6242SOL     OW19624   3.415   2.131   4.386
 6242SOL    HW119625   3.461   2.123   4.474
 6242SOL    HW219626   3.321   2.165   4.400
 6243SOL     OW19627   3.259   1.043   0.058
 6243SOL    HW119628   3.281   1.069   6.985
 6243SOL    HW219629   3.308   1.103   0.122
 6244SOL     OW19630   4.692   2.369   1.893
 6244SOL    HW119631   4.745   2.384   1.811
 6244SOL    HW219632   4.738   2.411   1.972
 6245SOL     OW19633   6.973   4.672   1.823
 6245SOL    HW119634   6.907   4.609   1.864
 6245SOL    HW219635   6.968   4.760   1.869
 6246SOL     OW19636   0.584   5.785   4.937
 6246SOL    HW119637   0.566   5.739   5.024
 6246SOL    HW219638   0.621   5.720   4.872
 6247SOL     OW19639   5.562   5.239   2.640
 6247SOL    HW119640   5.523   5.310   2.581
 6247SOL    HW219641   5.512   5.154   2.628
 6248SOL     OW19642   4.617   2.903   6.313
 6248SOL    HW119643   4.614   2.825   6.375
 6248SOL    HW219644   4.536   2.903   6.254
 6249SOL     OW19645   5.641   2.728   3.244
 6249SOL    HW119646   5.560   2.782   3.266
 6249SOL    HW219647   5.620   2.664   3.170
 6250SOL     OW19648   5.312   6.833   5.445
 6250SOL    HW119649   5.221   6.873   5.431
 6250SOL    HW219650   5.382   6.904   5.435
 6251SOL     OW19651   2.598   0.985   4.145
 6251SOL    HW119652   2.569   1.020   4.234
 6251SOL    HW219653   2.673   0.919   4.158
 6252SOL     OW19654   3.211   5.300   0.495
 6252SOL    HW119655   3.141   5.353   0.543
 6252SOL    HW219656   3.167   5.239   0.429
 6253SOL     OW19657   5.114   5.761   3.255
 6253SOL    HW119658   5.132   5.848   3.301
 6253SOL    HW219659   5.193   5.701   3.263
 6254SOL     OW19660   0.084   6.891   2.129
 6254SOL    HW119661   0.155   6.866   2.194
 6254SOL    HW219662   0.082   6.990   2.118
 6255SOL     OW19663   2.059   0.948   0.735
 6255SOL    HW119664   2.093   0.859   0.706
 6255SOL    HW219665   1.971   0.937   0.781
 6256SOL     OW19666   6.796   4.570   2.287
 6256SOL    HW119667   6.826   4.607   2.199
 6256SOL    HW219668   6.758   4.644   2.342
 6257SOL     OW19669   4.105   4.007   0.690
 6257SOL    HW119670   4.018   3.960   0.698
 6257SOL    HW219671   4.091   4.097   0.649
 6258SOL     OW19672   3.864   4.894   4.532
 6258SOL    HW119673   3.900   4.985   4.552
 6258SOL    HW219674   3.934   4.825   4.552
 6259SOL     OW19675   4.858   0.404   4.385
 6259SOL    HW119676   4.851   0.319   4.333
 6259SOL    HW219677   4.874   0.480   4.322
 6260SOL     OW19678   3.585   2.271   6.883
 6260SOL    HW119679   3.514   2.204   6.862
 6260SOL    HW219680   3.662   2.226   6.929
 6261SOL     OW19681   4.131   6.446   1.333
 6261SOL    HW119682   4.210   6.464   1.391
 6261SOL    HW219683   4.095   6.533   1.298
 6262SOL     OW19684   6.114   1.231   3.207
 6262SOL    HW119685   6.084   1.147   3.162
 6262SOL    HW219686   6.038   1.297   3.207
 6263SOL     OW19687   6.220   6.218   6.198
 6263SOL    HW119688   6.175   6.157   6.133
 6263SOL    HW219689   6.238   6.306   6.154
 6264SOL     OW19690   1.192   6.332   1.205
 6264SOL    HW119691   1.170   6.237   1.183
 6264SOL    HW219692   1.120   6.371   1.262
 6265SOL     OW19693   4.277   6.532   0.014
 6265SOL    HW119694   4.283   6.625   7.000
 6265SOL    HW219695   4.226   6.476   6.970
 6266SOL     OW19696   2.770   5.149   3.340
 6266SOL    HW119697   2.751   5.052   3.329
 6266SOL    HW219698   2.844   5.161   3.406
 6267SOL     OW19699   0.672   6.233   4.344
 6267SOL    HW119700   0.590   6.287   4.328
 6267SOL    HW219701   0.652   6.158   4.406
 6268SOL     OW19702   2.925   1.336   1.796
 6268SOL    HW119703   2.852   1.365   1.858
 6268SOL    HW219704   2.968   1.416   1.755
 6269SOL     OW19705   0.021   6.110   0.511
 6269SOL    HW119706   6.946   6.092   0.537
 6269SOL    HW219707   0.023   6.174   0.435
 6270SOL     OW19708   1.889   6.409   1.003
 6270SOL    HW119709   1.932   6.349   0.936
 6270SOL    HW219710   1.843   6.355   1.072
 6271SOL     OW19711   0.040   3.569   6.119
 6271SOL    HW119712   0.056   3.534   6.026
 6271SOL    HW219713   0.053   3.668   6.120
 6272SOL     OW19714   0.219   1.031   0.648
 6272SOL    HW119715   0.157   1.093   0.601
 6272SOL    HW219716   0.273   0.981   0.580
 6273SOL     OW19717   0.660   6.007   3.224
 6273SOL    HW119718   0.600   5.989   3.146
 6273SOL    HW219719   0.632   5.952   3.302
 6274SOL     OW19720   3.202   5.760   4.033
 6274SOL    HW119721   3.157   5.726   3.950
 6274SOL    HW219722   3.171   5.708   4.112
 6275SOL     OW19723   2.922   5.537   1.589
 6275SOL    HW119724   2.945   5.479   1.511
 6275SOL    HW219725   2.834   5.510   1.627
 6276SOL     OW19726   1.703   4.592   2.065
 6276SOL    HW119727   1.691   4.691   2.076
 6276SOL    HW219728   1.616   4.546   2.083
 6277SOL     OW19729   5.138   2.415   1.298
 6277SOL    HW119730   5.040   2.436   1.301
 6277SOL    HW219731   5.189   2.496   1.270
 6278SOL     OW19732   3.377   2.988   0.146
 6278SOL    HW119733   3.455   2.930   0.166
 6278SOL    HW219734   3.367   2.998   0.047
 6279SOL     OW19735   1.364   6.748   2.215
 6279SOL    HW119736   1.331   6.666   2.262
 6279SOL    HW219737   1.416   6.721   2.134
 6280SOL     OW19738   4.855   0.971   6.908
 6280SOL    HW119739   4.785   0.900   6.917
 6280SOL    HW219740   4.944   0.932   6.935
 6281SOL     OW19741   5.687   3.925   5.813
 6281SOL    HW119742   5.762   3.989   5.829
 6281SOL    HW219743   5.601   3.976   5.808
 6282SOL     OW19744   0.218   3.826   5.988
 6282SOL    HW119745   0.253   3.748   5.936
 6282SOL    HW219746   0.293   3.872   6.035
 6283SOL     OW19747   2.293   0.065   4.319
 6283SOL    HW119748   2.232   0.004   4.269
 6283SOL    HW219749   2.257   0.080   4.411
 6284SOL     OW19750   1.555   3.713   6.464
 6284SOL    HW119751   1.590   3.717   6.557
 6284SOL    HW219752   1.511   3.624   6.449
 6285SOL     OW19753   1.497   4.535   3.284
 6285SOL    HW119754   1.548   4.556   3.367
 6285SOL    HW219755   1.415   4.483   3.308
 6286SOL     OW19756   1.100   3.093   6.823
 6286SOL    HW119757   1.038   3.018   6.848
 6286SOL    HW219758   1.191   3.056   6.805
 6287SOL     OW19759   4.314   5.290   5.157
 6287SOL    HW119760   4.239   5.267   5.219
 6287SOL    HW219761   4.374   5.211   5.146
 6288SOL     OW19762   3.314   3.643   5.479
 6288SOL    HW119763   3.214   3.634   5.483
 6288SOL    HW219764   3.345   3.616   5.387
 6289SOL     OW19765   2.414   4.912   5.446
 6289SOL    HW119766   2.474   4.986   5.477
 6289SOL    HW219767   2.449   4.825   5.479
 6290SOL     OW19768   6.602   0.207   3.107
 6290SOL    HW119769   6.584   0.199   3.010
 6290SOL    HW219770   6.683   0.153   3.130
 6291SOL     OW19771   3.009   3.271   2.285
 6291SOL    HW119772   3.035   3.175   2.290
 6291SOL    HW219773   3.084   3.328   2.319
 6292SOL     OW19774   1.177   4.198   4.952
 6292SOL    HW119775   1.181   4.248   5.039
 6292SOL    HW219776   1.236   4.243   4.885
 6293SOL     OW19777   2.746   1.102   0.473
 6293SOL    HW119778   2.654   1.096   0.511
 6293SOL    HW219779   2.769   1.016   0.426
 6294SOL     OW19780   1.703   0.294   1.999
 6294SOL    HW119781   1.779   0.251   2.048
 6294SOL    HW219782   1.704   0.393   2.016
 6295SOL     OW19783   4.516   2.151   5.559
 6295SOL    HW119784   4.496   2.217   5.487
 6295SOL    HW219785   4.473   2.181   5.645
 6296SOL     OW19786   6.683   2.081   0.390
 6296SOL    HW119787   6.761   2.109   0.446
 6296SOL    HW219788   6.643   2.161   0.345
 6297SOL     OW19789   0.129   1.254   4.642
 6297SOL    HW119790   0.096   1.348   4.655
 6297SOL    HW219791   0.208   1.255   4.581
 6298SOL     OW19792   6.473   0.545   6.606
 6298SOL    HW119793   6.526   0.468   6.570
 6298SOL    HW219794   6.450   0.527   6.701
 6299SOL     OW19795   3.226   1.601   3.962
 6299SOL    HW119796   3.174   1.569   3.883
 6299SOL    HW219797   3.285   1.528   3.995
 6300SOL     OW19798   2.816   2.253   1.305
 6300SOL    HW119799   2.868   2.338   1.293
 6300SOL    HW219800   2.806   2.208   1.216
 6301SOL     OW19801   4.046   6.694   1.242
 6301SOL    HW119802   4.088   6.760   1.304
 6301SOL    HW219803   4.075   6.713   1.148
 6302SOL     OW19804   1.697   3.726   0.278
 6302SOL    HW119805   1.707   3.796   0.207
 6302SOL    HW219806   1.782   3.718   0.330
 6303SOL     OW19807   6.408   4.684   4.882
 6303SOL    HW119808   6.333   4.750   4.889
 6303SOL    HW219809   6.439   4.658   4.973
 6304SOL     OW19810   2.339   2.294   4.459
 6304SOL    HW119811   2.300   2.204   4.439
 6304SOL    HW219812   2.398   2.288   4.540
 6305SOL     OW19813   0.960   5.815   5.035
 6305SOL    HW119814   0.959   5.764   4.949
 6305SOL    HW219815   1.050   5.806   5.078
 6306SOL     OW19816   1.014   4.184   4.411
 6306SOL    HW119817   0.948   4.127   4.363
 6306SOL    HW219818   0.980   4.278   4.415
 6307SOL     OW19819   2.911   3.328   3.210
 6307SOL    HW119820   2.992   3.386   3.222
 6307SOL    HW219821   2.866   3.350   3.124
 6308SOL     OW19822   0.673   1.049   1.295
 6308SOL    HW119823   0.620   1.041   1.379
 6308SOL    HW219824   0.730   1.130   1.299
 6309SOL     OW19825   1.869   6.024   5.069
 6309SOL    HW119826   1.773   6.030   5.094
 6309SOL    HW219827   1.895   5.929   5.056
 6310SOL     OW19828   0.823   6.732   3.280
 6310SOL    HW119829   0.761   6.738   3.358
 6310SOL    HW219830   0.908   6.688   3.308
 6311SOL     OW19831   6.090   1.473   6.325
 6311SOL    HW119832   6.158   1.486   6.397
 6311SOL    HW219833   6.104   1.542   6.253
 6312SOL     OW19834   3.716   5.672   1.343
 6312SOL    HW119835   3.809   5.700   1.322
 6312SOL    HW219836   3.672   5.636   1.261
 6313SOL     OW19837   5.565   4.403   2.507
 6313SOL    HW119838   5.639   4.449   2.457
 6313SOL    HW219839   5.479   4.449   2.486
 6314SOL     OW19840   2.037   6.698   3.237
 6314SOL    HW119841   2.129   6.710   3.274
 6314SOL    HW219842   2.028   6.751   3.153
 6315SOL     OW19843   1.953   2.730   3.106
 6315SOL    HW119844   1.872   2.713   3.162
 6315SOL    HW219845   1.925   2.762   3.015
 6316SOL     OW19846   4.727   0.530   4.608
 6316SOL    HW119847   4.769   0.463   4.548
 6316SOL    HW219848   4.746   0.622   4.574
 6317SOL     OW19849   4.880   3.987   3.187
 6317SOL    HW119850   4.855   3.995   3.091
 6317SOL    HW219851   4.824   4.049   3.242
 6318SOL     OW19852   5.648   0.253   0.293
 6318SOL    HW119853   5.683   0.215   0.208
 6318SOL    HW219854   5.655   0.185   0.366
 6319SOL     OW19855   4.712   2.764   4.132
 6319SOL    HW119856   4.674   2.680   4.092
 6319SOL    HW219857   4.672   2.779   4.222
 6320SOL     OW19858   6.099   2.019   6.393
 6320SOL    HW119859   6.156   2.098   6.414
 6320SOL    HW219860   6.062   2.028   6.300
 6321SOL     OW19861   1.124   4.155   0.312
 6321SOL    HW119862   1.033   4.128   0.280
 6321SOL    HW219863   1.192   4.130   0.243
 6322SOL     OW19864   2.114   1.715   2.828
 6322SOL    HW119865   2.106   1.760   2.739
 6322SOL    HW219866   2.188   1.649   2.826
 6323SOL     OW19867   2.181   6.146   0.986
 6323SOL    HW119868   2.117   6.186   1.052
 6323SOL    HW219869   2.274   6.155   1.021
 6324SOL     OW19870   5.032   4.035   1.133
 6324SOL    HW119871   4.933   4.052   1.132
 6324SOL    HW219872   5.079   4.116   1.169
 6325SOL     OW19873   1.243   3.364   4.215
 6325SOL    HW119874   1.261   3.272   4.181
 6325SOL    HW219875   1.327   3.418   4.211
 6326SOL     OW19876   4.966   5.236   5.031
 6326SOL    HW119877   4.919   5.322   5.051
 6326SOL    HW219878   5.050   5.231   5.084
 6327SOL     OW19879   0.899   1.060   2.736
 6327SOL    HW119880   0.900   0.970   2.692
 6327SOL    HW219881   0.820   1.112   2.703
 6328SOL     OW19882   4.063   3.265   4.847
 6328SOL    HW119883   4.008   3.239   4.767
 6328SOL    HW219884   4.105   3.184   4.886
 6329SOL     OW19885   0.132   3.142   4.795
 6329SOL    HW119886   0.158   3.144   4.891
 6329SOL    HW219887   0.091   3.053   4.773
 6330SOL     OW19888   4.225   1.886   3.384
 6330SOL    HW119889   4.144   1.857   3.436
 6330SOL    HW219890   4.272   1.958   3.434
 6331SOL     OW19891   2.063   3.501   3.474
 6331SOL    HW119892   2.033   3.433   3.406
 6331SOL    HW219893   2.071   3.457   3.564
 6332SOL     OW19894   4.599   2.342   0.254
 6332SOL    HW119895   4.584   2.389   0.167
 6332SOL    HW219896   4.600   2.243   0.239
 6333SOL     OW19897   5.971   1.246   0.303
 6333SOL    HW119898   6.042   1.268   0.370
 6333SOL    HW219899   5.925   1.329   0.274
 6334SOL     OW19900   2.097   1.227   1.633
 6334SOL    HW119901   2.092   1.264   1.726
 6334SOL    HW219902   2.193   1.211   1.609
 6335SOL     OW19903   5.815   2.511   5.455
 6335SOL    HW119904   5.725   2.522   5.497
 6335SOL    HW219905   5.848   2.600   5.424
 6336SOL     OW19906   0.600   5.178   6.041
 6336SOL    HW119907   0.655   5.168   5.959
 6336SOL    HW219908   0.575   5.088   6.076
 6337SOL     OW19909   6.031   0.150   5.643
 6337SOL    HW119910   5.939   0.163   5.680
 6337SOL    HW219911   6.044   0.210   5.564
 6338SOL     OW19912   0.933   0.813   2.620
 6338SOL    HW119913   0.889   0.770   2.541
 6338SOL    HW219914   1.017   0.764   2.641
 6339SOL     OW19915   7.000   3.971   3.607
 6339SOL    HW119916   6.960   3.953   3.517
 6339SOL    HW219917   7.015   3.884   3.654
 6340SOL     OW19918   2.191   5.364   6.349
 6340SOL    HW119919   2.169   5.277   6.392
 6340SOL    HW219920   2.220   5.348   6.255
 6341SOL     OW19921   0.956   4.488   2.511
 6341SOL    HW119922   0.941   4.389   2.504
 6341SOL    HW219923   0.953   4.516   2.607
 6342SOL     OW19924   2.389   0.245   1.454
 6342SOL    HW119925   2.364   0.324   1.510
 6342SOL    HW219926   2.488   0.239   1.446
 6343SOL     OW19927   1.469   4.961   6.882
 6343SOL    HW119928   1.486   5.014   6.799
 6343SOL    HW219929   1.441   4.869   6.857
 6344SOL     OW19930   1.370   1.507   4.480
 6344SOL    HW119931   1.319   1.588   4.510
 6344SOL    HW219932   1.371   1.504   4.380
 6345SOL     OW19933   0.466   3.118   3.108
 6345SOL    HW119934   0.514   3.131   3.195
 6345SOL    HW219935   0.510   3.046   3.055
 6346SOL     OW19936   0.710   4.342   3.637
 6346SOL    HW119937   0.711   4.441   3.650
 6346SOL    HW219938   0.804   4.307   3.639
 6347SOL     OW19939   2.076   2.218   2.859
 6347SOL    HW119940   2.103   2.122   2.857
 6347SOL    HW219941   1.992   2.230   2.806
 6348SOL     OW19942   1.514   3.103   0.077
 6348SOL    HW119943   1.479   3.036   0.142
 6348SOL    HW219944   1.516   3.062   7.005
 6349SOL     OW19945   6.298   1.523   0.945
 6349SOL    HW119946   6.348   1.436   0.946
 6349SOL    HW219947   6.205   1.508   0.910
 6350SOL     OW19948   0.427   6.826   1.443
 6350SOL    HW119949   0.462   6.879   1.520
 6350SOL    HW219950   0.393   6.738   1.475
 6351SOL     OW19951   6.025   2.592   2.165
 6351SOL    HW119952   5.961   2.629   2.097
 6351SOL    HW219953   6.111   2.643   2.160
 6352SOL     OW19954   3.989   0.907   4.881
 6352SOL    HW119955   3.926   0.831   4.861
 6352SOL    HW219956   3.966   0.947   4.969
 6353SOL     OW19957   4.020   5.988   5.862
 6353SOL    HW119958   3.967   6.070   5.837
 6353SOL    HW219959   4.102   6.016   5.912
 6354SOL     OW19960   5.802   4.549   2.423
 6354SOL    HW119961   5.836   4.642   2.411
 6354SOL    HW219962   5.879   4.487   2.437
 6355SOL     OW19963   4.836   6.186   6.913
 6355SOL    HW119964   4.887   6.167   6.997
 6355SOL    HW219965   4.867   6.124   6.841
 6356SOL     OW19966   0.569   6.880   6.030
 6356SOL    HW119967   0.574   6.960   5.971
 6356SOL    HW219968   0.616   6.899   6.116
 6357SOL     OW19969   4.844   1.819   2.854
 6357SOL    HW119970   4.767   1.839   2.794
 6357SOL    HW219971   4.813   1.815   2.949
 6358SOL     OW19972   1.381   1.336   4.927
 6358SOL    HW119973   1.432   1.251   4.914
 6358SOL    HW219974   1.307   1.341   4.860
 6359SOL     OW19975   6.318   4.730   0.757
 6359SOL    HW119976   6.361   4.814   0.727
 6359SOL    HW219977   6.329   4.721   0.856
 6360SOL     OW19978   2.653   2.770   0.543
 6360SOL    HW119979   2.631   2.796   0.637
 6360SOL    HW219980   2.686   2.676   0.541
 6361SOL     OW19981   0.043   2.714   2.502
 6361SOL    HW119982   0.121   2.710   2.565
 6361SOL    HW219983   6.979   2.728   2.554
 6362SOL     OW19984   2.231   5.603   0.413
 6362SOL    HW119985   2.283   5.678   0.372
 6362SOL    HW219986   2.289   5.523   0.422
 6363SOL     OW19987   0.971   2.599   1.600
 6363SOL    HW119988   1.033   2.660   1.551
 6363SOL    HW219989   1.001   2.590   1.695
 6364SOL     OW19990   2.675   1.654   4.306
 6364SOL    HW119991   2.771   1.682   4.310
 6364SOL    HW219992   2.667   1.569   4.255
 6365SOL     OW19993   6.510   6.789   2.235
 6365SOL    HW119994   6.572   6.792   2.157
 6365SOL    HW219995   6.519   6.873   2.289
 6366SOL     OW19996   5.656   1.312   4.880
 6366SOL    HW119997   5.608   1.334   4.795
 6366SOL    HW219998   5.751   1.288   4.858
 6367SOL     OW19999   1.411   3.066   4.718
 6367SOL    HW120000   1.447   3.034   4.630
 6367SOL    HW220001   1.416   2.993   4.785
 6368SOL     OW20002   5.261   3.149   5.288
 6368SOL    HW120003   5.203   3.199   5.352
 6368SOL    HW220004   5.265   3.198   5.201
 6369SOL     OW20005   3.351   4.581   0.562
 6369SOL    HW120006   3.371   4.507   0.626
 6369SOL    HW220007   3.380   4.553   0.470
 6370SOL     OW20008   6.232   3.665   4.821
 6370SOL    HW120009   6.231   3.640   4.725
 6370SOL    HW220010   6.324   3.653   4.858
 6371SOL     OW20011   5.978   4.558   1.094
 6371SOL    HW120012   5.920   4.517   1.164
 6371SOL    HW220013   5.937   4.544   1.004
 6372SOL     OW20014   6.201   1.468   1.326
 6372SOL    HW120015   6.204   1.456   1.425
 6372SOL    HW220016   6.237   1.559   1.302
 6373SOL     OW20017   5.531   1.826   1.391
 6373SOL    HW120018   5.535   1.749   1.327
 6373SOL    HW220019   5.575   1.906   1.350
 6374SOL     OW20020   3.725   2.995   6.388
 6374SOL    HW120021   3.704   2.937   6.309
 6374SOL    HW220022   3.727   3.091   6.360
 6375SOL     OW20023   5.666   0.962   2.041
 6375SOL    HW120024   5.570   0.970   2.015
 6375SOL    HW220025   5.675   0.978   2.139
 6376SOL     OW20026   2.893   6.771   0.491
 6376SOL    HW120027   2.908   6.761   0.589
 6376SOL    HW220028   2.959   6.715   0.441
 6377SOL     OW20029   6.974   0.951   0.126
 6377SOL    HW120030   0.028   1.014   0.151
 6377SOL    HW220031   6.977   0.871   0.186
 6378SOL     OW20032   5.936   4.103   3.248
 6378SOL    HW120033   5.923   4.049   3.165
 6378SOL    HW220034   5.972   4.193   3.225
 6379SOL     OW20035   2.764   5.305   6.741
 6379SOL    HW120036   2.754   5.206   6.728
 6379SOL    HW220037   2.730   5.330   6.832
 6380SOL     OW20038   2.161   2.895   4.548
 6380SOL    HW120039   2.156   2.875   4.450
 6380SOL    HW220040   2.151   2.994   4.562
 6381SOL     OW20041   3.123   4.564   0.863
 6381SOL    HW120042   3.222   4.575   0.875
 6381SOL    HW220043   3.092   4.484   0.914
 6382SOL     OW20044   1.677   1.067   0.885
 6382SOL    HW120045   1.675   1.100   0.979
 6382SOL    HW220046   1.722   1.135   0.827
 6383SOL     OW20047   2.761   1.646   2.545
 6383SOL    HW120048   2.766   1.683   2.638
 6383SOL    HW220049   2.850   1.656   2.500
 6384SOL     OW20050   6.905   1.598   2.513
 6384SOL    HW120051   6.846   1.519   2.495
 6384SOL    HW220052   6.999   1.577   2.488
 6385SOL     OW20053   0.108   3.877   1.309
 6385SOL    HW120054   0.009   3.881   1.325
 6385SOL    HW220055   0.129   3.915   1.219
 6386SOL     OW20056   3.010   4.176   0.285
 6386SOL    HW120057   3.076   4.251   0.277
 6386SOL    HW220058   2.918   4.214   0.288
 6387SOL     OW20059   6.364   1.036   5.615
 6387SOL    HW120060   6.327   1.003   5.528
 6387SOL    HW220061   6.462   1.019   5.618
 6388SOL     OW20062   6.094   5.224   2.097
 6388SOL    HW120063   6.151   5.170   2.035
 6388SOL    HW220064   6.153   5.281   2.154
 6389SOL     OW20065   6.473   6.810   0.862
 6389SOL    HW120066   6.564   6.773   0.840
 6389SOL    HW220067   6.432   6.755   0.934
 6390SOL     OW20068   4.641   6.280   0.243
 6390SOL    HW120069   4.686   6.330   0.170
 6390SOL    HW220070   4.589   6.344   0.300
 6391SOL     OW20071   1.115   2.103   5.207
 6391SOL    HW120072   1.130   2.186   5.154
 6391SOL    HW220073   1.134   2.023   5.149
 6392SOL     OW20074   4.611   6.350   3.526
 6392SOL    HW120075   4.533   6.290   3.513
 6392SOL    HW220076   4.581   6.438   3.563
 6393SOL     OW20077   2.706   5.058   6.940
 6393SOL    HW120078   2.618   5.105   6.946
 6393SOL    HW220079   2.752   5.061   0.009
 6394SOL     OW20080   1.437   5.736   1.805
 6394SOL    HW120081   1.512   5.704   1.862
 6394SOL    HW220082   1.440   5.836   1.798
 6395SOL     OW20083   1.182   4.025   5.175
 6395SOL    HW120084   1.169   3.926   5.165
 6395SOL    HW220085   1.172   4.069   5.086
 6396SOL     OW20086   0.869   3.000   4.642
 6396SOL    HW120087   0.874   3.100   4.649
 6396SOL    HW220088   0.945   2.966   4.587
 6397SOL     OW20089   6.902   3.532   4.796
 6397SOL    HW120090   6.989   3.573   4.821
 6397SOL    HW220091   6.898   3.519   4.697
 6398SOL     OW20092   0.815   0.121   2.970
 6398SOL    HW120093   0.806   0.122   2.871
 6398SOL    HW220094   0.900   0.168   2.996
 6399SOL     OW20095   2.741   6.798   6.942
 6399SOL    HW120096   2.802   6.829   6.868
 6399SOL    HW220097   2.658   6.853   6.943
 6400SOL     OW20098   0.846   6.148   2.836
 6400SOL    HW120099   0.924   6.140   2.898
 6400SOL    HW220100   0.821   6.244   2.826
 6401SOL     OW20101   4.105   4.754   1.536
 6401SOL    HW120102   4.055   4.765   1.451
 6401SOL    HW220103   4.050   4.701   1.601
 6402SOL     OW20104   3.381   3.460   5.936
 6402SOL    HW120105   3.307   3.429   5.876
 6402SOL    HW220106   3.417   3.382   5.987
 6403SOL     OW20107   3.927   5.180   5.487
 6403SOL    HW120108   3.882   5.223   5.408
 6403SOL    HW220109   4.024   5.169   5.468
 6404SOL     OW20110   5.157   5.905   5.976
 6404SOL    HW120111   5.113   5.816   5.966
 6404SOL    HW220112   5.192   5.935   5.887
 6405SOL     OW20113   4.430   0.674   3.030
 6405SOL    HW120114   4.413   0.705   3.124
 6405SOL    HW220115   4.422   0.752   2.968
 6406SOL     OW20116   0.312   3.526   2.053
 6406SOL    HW120117   0.310   3.617   2.093
 6406SOL    HW220118   0.344   3.532   1.958
 6407SOL     OW20119   0.496   0.016   2.426
 6407SOL    HW120120   0.574   0.047   2.373
 6407SOL    HW220121   0.424   7.005   2.364
 6408SOL     OW20122   6.780   1.356   1.792
 6408SOL    HW120123   6.795   1.412   1.874
 6408SOL    HW220124   6.856   1.368   1.729
 6409SOL     OW20125   6.315   4.247   3.879
 6409SOL    HW120126   6.392   4.308   3.860
 6409SOL    HW220127   6.233   4.280   3.833
 6410SOL     OW20128   1.550   0.399   6.738
 6410SOL    HW120129   1.560   0.471   6.806
 6410SOL    HW220130   1.635   0.347   6.731
 6411SOL     OW20131   1.151   2.400   4.242
 6411SOL    HW120132   1.139   2.430   4.337
 6411SOL    HW220133   1.232   2.343   4.234
 6412SOL     OW20134   4.491   0.316   6.973
 6412SOL    HW120135   4.436   0.341   6.894
 6412SOL    HW220136   4.478   0.219   6.995
 6413SOL     OW20137   4.579   5.960   3.082
 6413SOL    HW120138   4.622   5.996   3.164
 6413SOL    HW220139   4.567   6.033   3.015
 6414SOL     OW20140   3.680   0.520   0.360
 6414SOL    HW120141   3.743   0.596   0.349
 6414SOL    HW220142   3.731   0.434   0.367
 6415SOL     OW20143   6.833   2.049   3.510
 6415SOL    HW120144   6.786   2.047   3.599
 6415SOL    HW220145   6.765   2.064   3.438
 6416SOL     OW20146   2.839   4.401   0.127
 6416SOL    HW120147   2.868   4.469   0.194
 6416SOL    HW220148   2.744   4.419   0.099
 6417SOL     OW20149   4.568   3.473   6.257
 6417SOL    HW120150   4.480   3.448   6.297
 6417SOL    HW220151   4.614   3.541   6.314
 6418SOL     OW20152   5.041   5.324   0.305
 6418SOL    HW120153   4.957   5.368   0.337
 6418SOL    HW220154   5.119   5.383   0.323
 6419SOL     OW20155   1.440   6.739   6.356
 6419SOL    HW120156   1.479   6.760   6.266
 6419SOL    HW220157   1.346   6.708   6.345
 6420SOL     OW20158   2.120   5.109   3.241
 6420SOL    HW120159   2.202   5.079   3.193
 6420SOL    HW220160   2.120   5.074   3.334
 6421SOL     OW20161   5.131   6.782   1.665
 6421SOL    HW120162   5.101   6.706   1.723
 6421SOL    HW220163   5.177   6.851   1.721
 6422SOL     OW20164   0.988   1.258   5.070
 6422SOL    HW120165   1.052   1.329   5.100
 6422SOL    HW220166   0.896   1.296   5.063
 6423SOL     OW20167   1.265   3.777   4.426
 6423SOL    HW120168   1.256   3.683   4.394
 6423SOL    HW220169   1.251   3.840   4.349
 6424SOL     OW20170   6.641   4.065   5.717
 6424SOL    HW120171   6.677   4.158   5.711
 6424SOL    HW220172   6.642   4.022   5.626
 6425SOL     OW20173   1.046   0.219   5.196
 6425SOL    HW120174   1.074   0.127   5.169
 6425SOL    HW220175   1.053   0.228   5.295
 6426SOL     OW20176   3.673   4.966   3.737
 6426SOL    HW120177   3.733   4.886   3.729
 6426SOL    HW220178   3.614   4.956   3.817
 6427SOL     OW20179   3.129   3.470   3.232
 6427SOL    HW120180   3.156   3.498   3.140
 6427SOL    HW220181   3.211   3.453   3.287
 6428SOL     OW20182   6.070   2.902   0.279
 6428SOL    HW120183   6.123   2.882   0.361
 6428SOL    HW220184   6.128   2.946   0.211
 6429SOL     OW20185   2.777   1.828   4.746
 6429SOL    HW120186   2.731   1.839   4.834
 6429SOL    HW220187   2.717   1.781   4.682
 6430SOL     OW20188   6.674   1.781   4.853
 6430SOL    HW120189   6.602   1.843   4.822
 6430SOL    HW220190   6.762   1.808   4.813
 6431SOL     OW20191   3.204   4.895   3.272
 6431SOL    HW120192   3.274   4.923   3.206
 6431SOL    HW220193   3.247   4.869   3.358
 6432SOL     OW20194   4.589   3.462   6.837
 6432SOL    HW120195   4.554   3.385   6.891
 6432SOL    HW220196   4.657   3.429   6.772
 6433SOL     OW20197   3.954   5.200   6.172
 6433SOL    HW120198   4.022   5.266   6.204
 6433SOL    HW220199   3.873   5.205   6.232
 6434SOL     OW20200   6.470   4.817   6.203
 6434SOL    HW120201   6.529   4.752   6.250
 6434SOL    HW220202   6.438   4.776   6.117
 6435SOL     OW20203   4.700   1.202   0.898
 6435SOL    HW120204   4.663   1.162   0.815
 6435SOL    HW220205   4.627   1.249   0.948
 6436SOL     OW20206   0.765   2.073   4.173
 6436SOL    HW120207   0.832   2.137   4.133
 6436SOL    HW220208   0.781   2.066   4.271
 6437SOL     OW20209   1.339   2.851   6.489
 6437SOL    HW120210   1.429   2.809   6.502
 6437SOL    HW220211   1.337   2.899   6.401
 6438SOL     OW20212   0.619   5.795   1.266
 6438SOL    HW120213   0.671   5.811   1.350
 6438SOL    HW220214   0.546   5.729   1.283
 6439SOL     OW20215   4.120   6.418   3.091
 6439SOL    HW120216   4.197   6.418   3.155
 6439SOL    HW220217   4.035   6.403   3.142
 6440SOL     OW20218   2.375   2.289   5.535
 6440SOL    HW120219   2.427   2.279   5.450
 6440SOL    HW220220   2.280   2.265   5.518
 6441SOL     OW20221   1.518   1.911   1.238
 6441SOL    HW120222   1.545   1.927   1.143
 6441SOL    HW220223   1.459   1.831   1.243
 6442SOL     OW20224   2.907   1.800   4.340
 6442SOL    HW120225   2.954   1.840   4.261
 6442SOL    HW220226   2.912   1.863   4.417
 6443SOL     OW20227   2.720   2.253   5.808
 6443SOL    HW120228   2.636   2.221   5.763
 6443SOL    HW220229   2.771   2.311   5.745
 6444SOL     OW20230   6.997   4.068   5.361
 6444SOL    HW120231   7.002   4.072   5.261
 6444SOL    HW220232   6.912   4.110   5.392
 6445SOL     OW20233   3.609   3.073   3.671
 6445SOL    HW120234   3.519   3.056   3.710
 6445SOL    HW220235   3.632   3.170   3.680
 6446SOL     OW20236   1.506   0.203   1.543
 6446SOL    HW120237   1.428   0.192   1.604
 6446SOL    HW220238   1.485   0.163   1.454
 6447SOL     OW20239   6.503   3.820   1.473
 6447SOL    HW120240   6.461   3.892   1.527
 6447SOL    HW220241   6.464   3.731   1.498
 6448SOL     OW20242   4.042   4.435   1.620
 6448SOL    HW120243   4.039   4.340   1.650
 6448SOL    HW220244   3.992   4.445   1.534
 6449SOL     OW20245   4.484   5.665   0.150
 6449SOL    HW120246   4.521   5.614   0.228
 6449SOL    HW220247   4.423   5.737   0.183
 6450SOL     OW20248   4.525   3.398   0.558
 6450SOL    HW120249   4.499   3.304   0.583
 6450SOL    HW220250   4.443   3.454   0.550
 6451SOL     OW20251   4.555   2.815   1.136
 6451SOL    HW120252   4.521   2.897   1.182
 6451SOL    HW220253   4.530   2.734   1.189
 6452SOL     OW20254   4.417   2.223   4.561
 6452SOL    HW120255   4.418   2.282   4.481
 6452SOL    HW220256   4.412   2.127   4.533
 6453SOL     OW20257   2.771   0.996   3.227
 6453SOL    HW120258   2.790   0.901   3.202
 6453SOL    HW220259   2.763   1.004   3.326
 6454SOL     OW20260   5.233   3.760   5.674
 6454SOL    HW120261   5.279   3.674   5.695
 6454SOL    HW220262   5.223   3.770   5.575
 6455SOL     OW20263   0.004   2.744   5.428
 6455SOL    HW120264   0.102   2.724   5.430
 6455SOL    HW220265   6.995   2.778   5.517
 6456SOL     OW20266   6.113   2.241   2.872
 6456SOL    HW120267   6.143   2.299   2.948
 6456SOL    HW220268   6.136   2.146   2.892
 6457SOL     OW20269   1.348   5.901   3.595
 6457SOL    HW120270   1.255   5.899   3.630
 6457SOL    HW220271   1.409   5.943   3.662
 6458SOL     OW20272   1.387   0.365   5.136
 6458SOL    HW120273   1.374   0.307   5.217
 6458SOL    HW220274   1.395   0.308   5.055
 6459SOL     OW20275   0.654   3.475   3.085
 6459SOL    HW120276   0.689   3.392   3.042
 6459SOL    HW220277   0.639   3.458   3.183
 6460SOL     OW20278   1.627   5.407   5.722
 6460SOL    HW120279   1.668   5.450   5.801
 6460SOL    HW220280   1.537   5.371   5.746
 6461SOL     OW20281   0.507   6.915   2.160
 6461SOL    HW120282   0.427   6.956   2.116
 6461SOL    HW220283   0.477   6.843   2.222
 6462SOL     OW20284   2.350   4.415   5.111
 6462SOL    HW120285   2.342   4.333   5.168
 6462SOL    HW220286   2.425   4.472   5.144
 6463SOL     OW20287   4.668   3.202   1.650
 6463SOL    HW120288   4.649   3.136   1.723
 6463SOL    HW220289   4.688   3.153   1.565
 6464SOL     OW20290   0.886   3.540   3.523
 6464SOL    HW120291   0.867   3.450   3.563
 6464SOL    HW220292   0.982   3.546   3.499
 6465SOL     OW20293   2.369   1.597   2.734
 6465SOL    HW120294   2.423   1.672   2.697
 6465SOL    HW220295   2.344   1.533   2.661
 6466SOL     OW20296   6.394   5.848   6.474
 6466SOL    HW120297   6.366   5.773   6.534
 6466SOL    HW220298   6.350   5.838   6.385
 6467SOL     OW20299   2.864   3.206   5.733
 6467SOL    HW120300   2.942   3.240   5.680
 6467SOL    HW220301   2.894   3.133   5.793
 6468SOL     OW20302   0.969   0.945   0.884
 6468SOL    HW120303   1.007   0.957   0.793
 6468SOL    HW220304   0.964   1.034   0.930
 6469SOL     OW20305   2.659   0.880   0.760
 6469SOL    HW120306   2.600   0.914   0.687
 6469SOL    HW220307   2.605   0.866   0.843
 6470SOL     OW20308   5.799   0.915   6.878
 6470SOL    HW120309   5.744   0.871   6.807
 6470SOL    HW220310   5.776   0.876   6.967
 6471SOL     OW20311   1.116   6.257   5.334
 6471SOL    HW120312   1.018   6.258   5.318
 6471SOL    HW220313   1.163   6.304   5.259
 6472SOL     OW20314   0.603   6.404   1.319
 6472SOL    HW120315   0.642   6.431   1.407
 6472SOL    HW220316   0.668   6.422   1.246
 6473SOL     OW20317   2.820   1.707   3.649
 6473SOL    HW120318   2.821   1.805   3.630
 6473SOL    HW220319   2.831   1.692   3.747
 6474SOL     OW20320   3.880   6.924   4.441
 6474SOL    HW120321   3.854   6.852   4.506
 6474SOL    HW220322   3.964   6.968   4.471
 6475SOL     OW20323   5.313   5.855   3.614
 6475SOL    HW120324   5.367   5.779   3.648
 6475SOL    HW220325   5.224   5.822   3.582
 6476SOL     OW20326   5.393   3.891   5.388
 6476SOL    HW120327   5.424   3.907   5.295
 6476SOL    HW220328   5.464   3.844   5.440
 6477SOL     OW20329   1.199   6.592   1.105
 6477SOL    HW120330   1.122   6.593   1.169
 6477SOL    HW220331   1.237   6.500   1.099
 6478SOL     OW20332   1.959   5.884   6.925
 6478SOL    HW120333   2.039   5.939   6.953
 6478SOL    HW220334   1.882   5.905   6.986
 6479SOL     OW20335   4.392   5.809   3.949
 6479SOL    HW120336   4.393   5.828   4.047
 6479SOL    HW220337   4.485   5.807   3.914
 6480SOL     OW20338   3.206   1.209   5.040
 6480SOL    HW120339   3.161   1.297   5.054
 6480SOL    HW220340   3.226   1.197   4.942
 6481SOL     OW20341   4.016   3.336   1.885
 6481SOL    HW120342   4.056   3.323   1.976
 6481SOL    HW220343   3.942   3.403   1.890
 6482SOL     OW20344   5.204   2.770   4.020
 6482SOL    HW120345   5.139   2.712   3.971
 6482SOL    HW220346   5.283   2.715   4.048
 6483SOL     OW20347   1.756   6.040   5.716
 6483SOL    HW120348   1.782   6.070   5.808
 6483SOL    HW220349   1.829   5.984   5.677
 6484SOL     OW20350   3.990   0.497   3.334
 6484SOL    HW120351   3.981   0.594   3.358
 6484SOL    HW220352   3.912   0.470   3.278
 6485SOL     OW20353   1.872   5.108   4.737
 6485SOL    HW120354   1.855   5.011   4.720
 6485SOL    HW220355   1.930   5.118   4.818
 6486SOL     OW20356   0.089   4.275   2.445
 6486SOL    HW120357   0.021   4.209   2.478
 6486SOL    HW220358   0.060   4.367   2.469
 6487SOL     OW20359   6.262   5.378   4.258
 6487SOL    HW120360   6.309   5.466   4.270
 6487SOL    HW220361   6.205   5.360   4.338
 6488SOL     OW20362   3.333   4.917   3.530
 6488SOL    HW120363   3.283   4.938   3.615
 6488SOL    HW220364   3.364   5.002   3.488
 6489SOL     OW20365   6.302   3.506   5.696
 6489SOL    HW120366   6.381   3.453   5.666
 6489SOL    HW220367   6.263   3.464   5.778
 6490SOL     OW20368   1.974   3.576   0.025
 6490SOL    HW120369   1.972   3.496   6.985
 6490SOL    HW220370   1.887   3.625   0.019
 6491SOL     OW20371   1.375   0.454   2.381
 6491SOL    HW120372   1.390   0.403   2.296
 6491SOL    HW220373   1.286   0.431   2.419
 6492SOL     OW20374   4.017   3.196   3.119
 6492SOL    HW120375   4.109   3.227   3.143
 6492SOL    HW220376   3.997   3.224   3.025
 6493SOL     OW20377   1.506   4.891   4.131
 6493SOL    HW120378   1.492   4.825   4.205
 6493SOL    HW220379   1.430   4.956   4.128
 6494SOL     OW20380   6.541   0.985   1.618
 6494SOL    HW120381   6.512   1.066   1.670
 6494SOL    HW220382   6.471   0.962   1.551
 6495SOL     OW20383   5.800   6.580   2.615
 6495SOL    HW120384   5.780   6.499   2.559
 6495SOL    HW220385   5.786   6.662   2.560
 6496SOL     OW20386   2.568   2.802   1.413
 6496SOL    HW120387   2.516   2.771   1.492
 6496SOL    HW220388   2.546   2.898   1.394
 6497SOL     OW20389   0.113   2.397   0.793
 6497SOL    HW120390   0.123   2.434   0.700
 6497SOL    HW220391   0.189   2.428   0.849
 6498SOL     OW20392   2.456   4.861   4.515
 6498SOL    HW120393   2.498   4.790   4.571
 6498SOL    HW220394   2.439   4.942   4.572
 6499SOL     OW20395   5.749   2.449   2.720
 6499SOL    HW120396   5.809   2.528   2.705
 6499SOL    HW220397   5.656   2.473   2.693
 6500SOL     OW20398   1.753   3.972   2.619
 6500SOL    HW120399   1.667   3.932   2.587
 6500SOL    HW220400   1.736   4.026   2.702
 6501SOL     OW20401   6.741   1.368   2.497
 6501SOL    HW120402   6.663   1.420   2.531
 6501SOL    HW220403   6.725   1.271   2.512
 6502SOL     OW20404   0.979   2.768   2.716
 6502SOL    HW120405   0.894   2.717   2.704
 6502SOL    HW220406   0.960   2.866   2.707
 6503SOL     OW20407   0.447   2.471   5.452
 6503SOL    HW120408   0.403   2.508   5.534
 6503SOL    HW220409   0.481   2.545   5.395
 6504SOL     OW20410   3.913   6.087   6.378
 6504SOL    HW120411   3.840   6.150   6.351
 6504SOL    HW220412   3.897   5.998   6.336
 6505SOL     OW20413   0.522   0.001   7.007
 6505SOL    HW120414   0.588   6.947   0.004
 6505SOL    HW220415   0.569   0.077   6.962
 6506SOL     OW20416   0.338   4.390   1.841
 6506SOL    HW120417   0.321   4.322   1.770
 6506SOL    HW220418   0.436   4.394   1.860
 6507SOL     OW20419   5.237   5.551   0.560
 6507SOL    HW120420   5.142   5.542   0.588
 6507SOL    HW220421   5.296   5.544   0.641
 6508SOL     OW20422   0.120   0.760   4.086
 6508SOL    HW120423   0.120   0.784   4.183
 6508SOL    HW220424   0.194   0.809   4.040
 6509SOL     OW20425   2.476   1.247   0.004
 6509SOL    HW120426   2.426   1.161   0.015
 6509SOL    HW220427   2.412   1.323   0.002
 6510SOL     OW20428   3.458   5.006   4.185
 6510SOL    HW120429   3.361   5.026   4.201
 6510SOL    HW220430   3.511   5.029   4.267
 6511SOL     OW20431   3.788   3.046   0.043
 6511SOL    HW120432   3.721   2.988   0.089
 6511SOL    HW220433   3.842   2.990   7.000
 6512SOL     OW20434   4.783   1.181   1.749
 6512SOL    HW120435   4.841   1.261   1.734
 6512SOL    HW220436   4.825   1.123   1.819
 6513SOL     OW20437   3.554   5.013   2.156
 6513SOL    HW120438   3.523   5.078   2.086
 6513SOL    HW220439   3.633   4.963   2.122
 6514SOL     OW20440   5.064   5.663   5.915
 6514SOL    HW120441   5.085   5.615   5.830
 6514SOL    HW220442   4.965   5.667   5.928
 6515SOL     OW20443   1.084   4.805   2.191
 6515SOL    HW120444   1.063   4.839   2.099
 6515SOL    HW220445   1.012   4.742   2.221
 6516SOL     OW20446   5.808   1.012   3.622
 6516SOL    HW120447   5.865   0.935   3.595
 6516SOL    HW220448   5.770   0.995   3.713
 6517SOL     OW20449   6.619   4.451   0.831
 6517SOL    HW120450   6.591   4.489   0.920
 6517SOL    HW220451   6.540   4.449   0.770
 6518SOL     OW20452   0.992   1.615   1.961
 6518SOL    HW120453   0.975   1.635   1.864
 6518SOL    HW220454   0.925   1.548   1.994
 6519SOL     OW20455   1.564   1.828   3.875
 6519SOL    HW120456   1.480   1.801   3.828
 6519SOL    HW220457   1.552   1.817   3.974
 6520SOL     OW20458   5.816   6.418   6.794
 6520SOL    HW120459   5.909   6.452   6.809
 6520SOL    HW220460   5.816   6.319   6.796
 6521SOL     OW20461   1.525   4.545   4.601
 6521SOL    HW120462   1.491   4.465   4.552
 6521SOL    HW220463   1.624   4.538   4.612
 6522SOL     OW20464   2.462   2.822   5.349
 6522SOL    HW120465   2.392   2.849   5.415
 6522SOL    HW220466   2.472   2.893   5.280
 6523SOL     OW20467   5.163   6.739   0.302
 6523SOL    HW120468   5.099   6.664   0.287
 6523SOL    HW220469   5.237   6.709   0.362
 6524SOL     OW20470   3.492   2.449   1.183
 6524SOL    HW120471   3.479   2.354   1.212
 6524SOL    HW220472   3.529   2.503   1.258
 6525SOL     OW20473   2.313   4.905   3.591
 6525SOL    HW120474   2.370   4.938   3.516
 6525SOL    HW220475   2.318   4.805   3.595
 6526SOL     OW20476   6.439   6.511   0.723
 6526SOL    HW120477   6.341   6.514   0.745
 6526SOL    HW220478   6.462   6.587   0.663
 6527SOL     OW20479   5.343   2.180   0.640
 6527SOL    HW120480   5.369   2.106   0.702
 6527SOL    HW220481   5.375   2.158   0.548
 6528SOL     OW20482   4.800   6.836   0.431
 6528SOL    HW120483   4.831   6.922   0.473
 6528SOL    HW220484   4.874   6.799   0.374
 6529SOL     OW20485   3.837   6.844   1.779
 6529SOL    HW120486   3.787   6.845   1.865
 6529SOL    HW220487   3.935   6.831   1.798
 6530SOL     OW20488   0.028   2.262   4.229
 6530SOL    HW120489   0.100   2.316   4.185
 6530SOL    HW220490   6.998   2.321   4.293
 6531SOL     OW20491   3.067   3.993   3.973
 6531SOL    HW120492   3.052   3.936   3.892
 6531SOL    HW220493   2.981   4.008   4.020
 6532SOL     OW20494   1.175   5.861   0.327
 6532SOL    HW120495   1.095   5.802   0.317
 6532SOL    HW220496   1.145   5.955   0.344
 6533SOL     OW20497   5.150   5.007   1.028
 6533SOL    HW120498   5.154   5.091   0.972
 6533SOL    HW220499   5.103   4.936   0.977
 6534SOL     OW20500   6.436   3.277   4.158
 6534SOL    HW120501   6.346   3.261   4.200
 6534SOL    HW220502   6.424   3.335   4.077
 6535SOL     OW20503   5.375   3.835   0.154
 6535SOL    HW120504   5.293   3.820   0.209
 6535SOL    HW220505   5.374   3.773   0.076
 6536SOL     OW20506   7.019   5.056   5.348
 6536SOL    HW120507   0.060   5.026   5.421
 6536SOL    HW220508   6.973   5.141   5.376
 6537SOL     OW20509   6.606   5.264   4.470
 6537SOL    HW120510   6.560   5.349   4.496
 6537SOL    HW220511   6.671   5.282   4.396
 6538SOL     OW20512   1.388   3.479   3.331
 6538SOL    HW120513   1.360   3.559   3.277
 6538SOL    HW220514   1.477   3.447   3.299
 6539SOL     OW20515   5.491   6.982   5.006
 6539SOL    HW120516   5.455   0.048   5.042
 6539SOL    HW220517   5.427   6.908   5.028
 6540SOL     OW20518   0.956   2.222   5.440
 6540SOL    HW120519   0.866   2.198   5.477
 6540SOL    HW220520   0.975   2.165   5.360
 6541SOL     OW20521   3.879   1.458   5.355
 6541SOL    HW120522   3.975   1.471   5.331
 6541SOL    HW220523   3.826   1.537   5.325
 6542SOL     OW20524   2.170   4.380   2.416
 6542SOL    HW120525   2.077   4.417   2.421
 6542SOL    HW220526   2.165   4.282   2.401
 6543SOL     OW20527   4.013   1.786   4.083
 6543SOL    HW120528   3.934   1.812   4.139
 6543SOL    HW220529   3.982   1.735   4.003
 6544SOL     OW20530   1.295   0.835   1.348
 6544SOL    HW120531   1.345   0.922   1.353
 6544SOL    HW220532   1.215   0.846   1.289
 6545SOL     OW20533   6.025   5.180   1.137
 6545SOL    HW120534   6.093   5.156   1.068
 6545SOL    HW220535   6.046   5.270   1.175
 6546SOL     OW20536   4.145   5.442   4.474
 6546SOL    HW120537   4.111   5.352   4.445
 6546SOL    HW220538   4.122   5.457   4.570
 6547SOL     OW20539   0.832   6.868   5.153
 6547SOL    HW120540   0.806   6.805   5.226
 6547SOL    HW220541   0.931   6.886   5.157
 6548SOL     OW20542   1.158   1.407   5.799
 6548SOL    HW120543   1.206   1.334   5.750
 6548SOL    HW220544   1.149   1.487   5.739
 6549SOL     OW20545   2.890   1.536   2.928
 6549SOL    HW120546   2.860   1.485   3.009
 6549SOL    HW220547   2.972   1.493   2.891
 6550SOL     OW20548   5.723   6.720   2.026
 6550SOL    HW120549   5.723   6.793   1.958
 6550SOL    HW220550   5.757   6.636   1.985
 6551SOL     OW20551   2.671   5.102   1.345
 6551SOL    HW120552   2.578   5.106   1.381
 6551SOL    HW220553   2.735   5.132   1.415
 6552SOL     OW20554   2.545   3.538   0.166
 6552SOL    HW120555   2.581   3.574   0.252
 6552SOL    HW220556   2.494   3.610   0.119
 6553SOL     OW20557   0.313   1.398   3.730
 6553SOL    HW120558   0.230   1.396   3.673
 6553SOL    HW220559   0.316   1.485   3.780
 6554SOL     OW20560   2.007   1.947   4.104
 6554SOL    HW120561   1.920   1.994   4.118
 6554SOL    HW220562   2.067   2.003   4.046
 6555SOL     OW20563   2.112   3.797   1.920
 6555SOL    HW120564   2.176   3.722   1.907
 6555SOL    HW220565   2.155   3.867   1.979
 6556SOL     OW20566   4.948   3.210   3.353
 6556SOL    HW120567   4.895   3.294   3.354
 6556SOL    HW220568   4.906   3.144   3.289
 6557SOL     OW20569   1.858   6.675   2.531
 6557SOL    HW120570   1.924   6.748   2.515
 6557SOL    HW220571   1.894   6.589   2.493
 6558SOL     OW20572   5.574   5.424   0.975
 6558SOL    HW120573   5.656   5.453   0.925
 6558SOL    HW220574   5.565   5.475   1.060
 6559SOL     OW20575   0.168   1.714   5.974
 6559SOL    HW120576   0.175   1.629   6.026
 6559SOL    HW220577   0.155   1.790   6.037
 6560SOL     OW20578   6.670   4.664   6.329
 6560SOL    HW120579   6.725   4.747   6.336
 6560SOL    HW220580   6.727   4.585   6.347
 6561SOL     OW20581   2.876   5.471   0.120
 6561SOL    HW120582   2.923   5.391   0.082
 6561SOL    HW220583   2.934   5.515   0.188
 6562SOL     OW20584   4.779   2.638   0.900
 6562SOL    HW120585   4.798   2.661   0.804
 6562SOL    HW220586   4.760   2.540   0.907
 6563SOL     OW20587   6.000   5.006   5.613
 6563SOL    HW120588   6.070   4.938   5.637
 6563SOL    HW220589   6.003   5.081   5.680
 6564SOL     OW20590   5.361   3.916   1.861
 6564SOL    HW120591   5.323   3.912   1.954
 6564SOL    HW220592   5.329   3.837   1.809
 6565SOL     OW20593   5.319   5.673   1.994
 6565SOL    HW120594   5.370   5.662   2.079
 6565SOL    HW220595   5.279   5.586   1.967
 6566SOL     OW20596   5.572   5.352   3.964
 6566SOL    HW120597   5.619   5.287   4.024
 6566SOL    HW220598   5.527   5.302   3.890
 6567SOL     OW20599   3.059   0.646   2.674
 6567SOL    HW120600   3.127   0.674   2.606
 6567SOL    HW220601   3.029   0.726   2.726
 6568SOL     OW20602   5.195   1.544   0.552
 6568SOL    HW120603   5.183   1.545   0.452
 6568SOL    HW220604   5.131   1.478   0.592
 6569SOL     OW20605   1.105   3.761   3.356
 6569SOL    HW120606   1.100   3.760   3.455
 6569SOL    HW220607   1.145   3.848   3.326
 6570SOL     OW20608   4.361   0.177   2.874
 6570SOL    HW120609   4.306   0.130   2.943
 6570SOL    HW220610   4.454   0.140   2.874
 6571SOL     OW20611   2.602   6.378   3.109
 6571SOL    HW120612   2.621   6.383   3.207
 6571SOL    HW220613   2.506   6.402   3.092
 6572SOL     OW20614   1.317   6.364   3.603
 6572SOL    HW120615   1.220   6.389   3.594
 6572SOL    HW220616   1.368   6.404   3.527
 6573SOL     OW20617   1.226   2.542   3.489
 6573SOL    HW120618   1.193   2.449   3.471
 6573SOL    HW220619   1.209   2.565   3.585
 6574SOL     OW20620   1.119   5.111   1.498
 6574SOL    HW120621   1.105   5.209   1.506
 6574SOL    HW220622   1.216   5.091   1.487
 6575SOL     OW20623   6.751   1.314   4.157
 6575SOL    HW120624   6.835   1.361   4.186
 6575SOL    HW220625   6.672   1.374   4.172
 6576SOL     OW20626   4.002   0.233   2.203
 6576SOL    HW120627   4.081   0.294   2.207
 6576SOL    HW220628   3.984   0.196   2.294
 6577SOL     OW20629   2.944   1.058   5.477
 6577SOL    HW120630   3.007   1.059   5.399
 6577SOL    HW220631   2.951   0.971   5.525
 6578SOL     OW20632   0.847   5.834   0.021
 6578SOL    HW120633   0.758   5.866   7.011
 6578SOL    HW220634   0.847   5.734   0.026
 6579SOL     OW20635   1.772   1.732   3.434
 6579SOL    HW120636   1.869   1.757   3.430
 6579SOL    HW220637   1.723   1.797   3.492
 6580SOL     OW20638   3.323   2.613   6.850
 6580SOL    HW120639   3.349   2.665   6.769
 6580SOL    HW220640   3.395   2.547   6.872
 6581SOL     OW20641   0.315   2.601   2.083
 6581SOL    HW120642   0.316   2.630   2.179
 6581SOL    HW220643   0.342   2.678   2.026
 6582SOL     OW20644   4.082   7.009   3.301
 6582SOL    HW120645   4.082   6.930   3.363
 6582SOL    HW220646   3.998   7.009   3.247
 6583SOL     OW20647   2.584   3.941   1.333
 6583SOL    HW120648   2.489   3.924   1.307
 6583SOL    HW220649   2.639   3.859   1.316
 6584SOL     OW20650   4.618   3.386   6.000
 6584SOL    HW120651   4.608   3.422   6.093
 6584SOL    HW220652   4.664   3.454   5.943
 6585SOL     OW20653   5.222   6.978   1.799
 6585SOL    HW120654   5.226   0.051   1.762
 6585SOL    HW220655   5.186   6.980   1.892
 6586SOL     OW20656   6.684   1.853   0.205
 6586SOL    HW120657   6.663   1.914   0.282
 6586SOL    HW220658   6.767   1.802   0.225
 6587SOL     OW20659   2.480   4.663   5.543
 6587SOL    HW120660   2.479   4.580   5.488
 6587SOL    HW220661   2.401   4.664   5.604
 6588SOL     OW20662   1.018   2.266   0.580
 6588SOL    HW120663   1.006   2.168   0.560
 6588SOL    HW220664   1.115   2.289   0.575
 6589SOL     OW20665   5.609   0.063   0.909
 6589SOL    HW120666   5.512   0.040   0.905
 6589SOL    HW220667   5.664   7.000   0.901
 6590SOL     OW20668   1.266   6.691   4.510
 6590SOL    HW120669   1.221   6.710   4.423
 6590SOL    HW220670   1.323   6.609   4.501
 6591SOL     OW20671   6.337   3.328   3.505
 6591SOL    HW120672   6.278   3.271   3.562
 6591SOL    HW220673   6.393   3.270   3.446
 6592SOL     OW20674   0.095   0.854   4.371
 6592SOL    HW120675   0.072   0.939   4.420
 6592SOL    HW220676   0.157   0.799   4.427
 6593SOL     OW20677   0.926   0.843   3.109
 6593SOL    HW120678   0.853   0.824   3.176
 6593SOL    HW220679   0.904   0.797   3.023
 6594SOL     OW20680   5.262   0.142   6.407
 6594SOL    HW120681   5.258   0.233   6.367
 6594SOL    HW220682   5.218   0.143   6.497
 6595SOL     OW20683   1.218   0.840   5.162
 6595SOL    HW120684   1.136   0.820   5.109
 6595SOL    HW220685   1.286   0.768   5.146
 6596SOL     OW20686   5.202   0.523   2.940
 6596SOL    HW120687   5.203   0.518   3.040
 6596SOL    HW220688   5.257   0.449   2.902
 6597SOL     OW20689   1.413   5.279   1.158
 6597SOL    HW120690   1.417   5.328   1.245
 6597SOL    HW220691   1.319   5.248   1.141
 6598SOL     OW20692   1.571   5.292   1.711
 6598SOL    HW120693   1.519   5.223   1.762
 6598SOL    HW220694   1.587   5.260   1.618
 6599SOL     OW20695   0.558   6.311   6.451
 6599SOL    HW120696   0.509   6.224   6.439
 6599SOL    HW220697   0.651   6.301   6.416
 6600SOL     OW20698   4.739   6.930   4.340
 6600SOL    HW120699   4.764   7.011   4.287
 6600SOL    HW220700   4.762   6.848   4.287
 6601SOL     OW20701   0.723   2.690   3.013
 6601SOL    HW120702   0.779   2.631   2.954
 6601SOL    HW220703   0.708   2.645   3.101
 6602SOL     OW20704   5.968   6.372   0.393
 6602SOL    HW120705   5.969   6.442   0.465
 6602SOL    HW220706   6.061   6.341   0.375
 6603SOL     OW20707   0.056   4.568   2.484
 6603SOL    HW120708   0.107   4.600   2.404
 6603SOL    HW220709   6.993   4.622   2.494
 6604SOL     OW20710   2.067   5.238   2.295
 6604SOL    HW120711   1.992   5.301   2.315
 6604SOL    HW220712   2.048   5.189   2.210
 6605SOL     OW20713   6.979   5.618   1.091
 6605SOL    HW120714   6.907   5.685   1.071
 6605SOL    HW220715   6.941   5.526   1.080
 6606SOL     OW20716   1.502   5.005   2.718
 6606SOL    HW120717   1.529   4.984   2.812
 6606SOL    HW220718   1.542   4.938   2.656
 6607SOL     OW20719   6.823   3.218   4.512
 6607SOL    HW120720   6.750   3.213   4.444
 6607SOL    HW220721   6.859   3.311   4.515
 6608SOL     OW20722   1.796   0.950   5.355
 6608SOL    HW120723   1.745   0.909   5.429
 6608SOL    HW220724   1.737   1.010   5.302
 6609SOL     OW20725   2.688   1.848   0.105
 6609SOL    HW120726   2.729   1.866   0.195
 6609SOL    HW220727   2.673   1.935   0.059
 6610SOL     OW20728   3.448   5.993   1.113
 6610SOL    HW120729   3.356   6.014   1.081
 6610SOL    HW220730   3.507   5.975   1.035
 6611SOL     OW20731   3.167   1.627   4.934
 6611SOL    HW120732   3.110   1.601   5.011
 6611SOL    HW220733   3.120   1.698   4.880
 6612SOL     OW20734   6.532   0.659   0.321
 6612SOL    HW120735   6.434   0.642   0.330
 6612SOL    HW220736   6.573   0.666   0.412
 6613SOL     OW20737   4.530   0.254   1.080
 6613SOL    HW120738   4.533   0.259   1.179
 6613SOL    HW220739   4.621   0.232   1.044
 6614SOL     OW20740   4.161   4.666   0.662
 6614SOL    HW120741   4.179   4.621   0.574
 6614SOL    HW220742   4.177   4.602   0.737
 6615SOL     OW20743   3.539   5.668   5.981
 6615SOL    HW120744   3.474   5.633   5.914
 6615SOL    HW220745   3.613   5.717   5.933
 6616SOL     OW20746   4.158   2.106   6.151
 6616SOL    HW120747   4.172   2.055   6.236
 6616SOL    HW220748   4.123   2.197   6.172
 6617SOL     OW20749   3.626   1.688   4.182
 6617SOL    HW120750   3.537   1.732   4.196
 6617SOL    HW220751   3.698   1.757   4.184
 6618SOL     OW20752   6.727   2.963   3.446
 6618SOL    HW120753   6.783   2.983   3.365
 6618SOL    HW220754   6.786   2.928   3.519
 6619SOL     OW20755   4.281   4.901   4.027
 6619SOL    HW120756   4.373   4.918   4.062
 6619SOL    HW220757   4.283   4.821   3.967
 6620SOL     OW20758   1.159   2.744   3.332
 6620SOL    HW120759   1.199   2.662   3.372
 6620SOL    HW220760   1.121   2.802   3.405
 6621SOL     OW20761   3.261   3.607   3.499
 6621SOL    HW120762   3.275   3.515   3.462
 6621SOL    HW220763   3.308   3.674   3.443
 6622SOL     OW20764   0.192   4.661   2.268
 6622SOL    HW120765   0.163   4.755   2.286
 6622SOL    HW220766   0.190   4.644   2.169
 6623SOL     OW20767   3.767   3.308   3.766
 6623SOL    HW120768   3.859   3.281   3.797
 6623SOL    HW220769   3.705   3.312   3.844
 6624SOL     OW20770   2.394   2.193   2.546
 6624SOL    HW120771   2.377   2.276   2.492
 6624SOL    HW220772   2.353   2.204   2.637
 6625SOL     OW20773   0.528   4.597   5.454
 6625SOL    HW120774   0.434   4.607   5.486
 6625SOL    HW220775   0.591   4.619   5.529
 6626SOL     OW20776   3.532   6.079   5.474
 6626SOL    HW120777   3.549   6.057   5.378
 6626SOL    HW220778   3.618   6.077   5.524
 6627SOL     OW20779   2.965   6.686   4.826
 6627SOL    HW120780   3.006   6.724   4.909
 6627SOL    HW220781   2.866   6.692   4.832
 6628SOL     OW20782   3.861   6.465   3.128
 6628SOL    HW120783   3.895   6.544   3.179
 6628SOL    HW220784   3.830   6.395   3.192
 6629SOL     OW20785   4.685   6.026   5.326
 6629SOL    HW120786   4.651   5.941   5.365
 6629SOL    HW220787   4.773   6.049   5.368
 6630SOL     OW20788   2.002   6.970   0.595
 6630SOL    HW120789   2.095   7.003   0.611
 6630SOL    HW220790   1.968   7.005   0.508
 6631SOL     OW20791   1.653   1.768   6.261
 6631SOL    HW120792   1.629   1.680   6.301
 6631SOL    HW220793   1.578   1.800   6.203
 6632SOL     OW20794   1.248   0.535   6.114
 6632SOL    HW120795   1.313   0.573   6.179
 6632SOL    HW220796   1.172   0.600   6.101
 6633SOL     OW20797   4.724   6.477   6.169
 6633SOL    HW120798   4.726   6.392   6.115
 6633SOL    HW220799   4.649   6.535   6.138
 6634SOL     OW20800   2.996   2.136   4.255
 6634SOL    HW120801   3.033   2.103   4.342
 6634SOL    HW220802   2.902   2.104   4.244
 6635SOL     OW20803   4.800   5.367   5.855
 6635SOL    HW120804   4.867   5.295   5.839
 6635SOL    HW220805   4.792   5.384   5.953
 6636SOL     OW20806   4.246   1.661   1.164
 6636SOL    HW120807   4.167   1.677   1.222
 6636SOL    HW220808   4.233   1.707   1.076
 6637SOL     OW20809   0.236   3.006   6.678
 6637SOL    HW120810   0.167   3.023   6.747
 6637SOL    HW220811   0.273   3.093   6.645
 6638SOL     OW20812   3.067   3.895   4.209
 6638SOL    HW120813   3.060   3.967   4.278
 6638SOL    HW220814   3.074   3.936   4.118
 6639SOL     OW20815   4.824   3.063   1.458
 6639SOL    HW120816   4.890   3.133   1.430
 6639SOL    HW220817   4.872   2.988   1.502
 6640SOL     OW20818   0.971   3.530   4.442
 6640SOL    HW120819   0.996   3.613   4.491
 6640SOL    HW220820   0.986   3.542   4.344
 6641SOL     OW20821   5.303   2.450   6.946
 6641SOL    HW120822   5.286   2.466   6.849
 6641SOL    HW220823   5.222   2.477   6.999
 6642SOL     OW20824   1.066   5.048   6.199
 6642SOL    HW120825   1.089   5.112   6.273
 6642SOL    HW220826   1.103   5.083   6.113
 6643SOL     OW20827   4.806   5.697   5.938
 6643SOL    HW120828   4.757   5.645   6.008
 6643SOL    HW220829   4.741   5.736   5.873
 6644SOL     OW20830   1.710   7.003   3.142
 6644SOL    HW120831   1.765   6.941   3.198
 6644SOL    HW220832   1.770   0.048   3.096
 6645SOL     OW20833   4.810   2.523   5.227
 6645SOL    HW120834   4.800   2.442   5.169
 6645SOL    HW220835   4.905   2.553   5.227
 6646SOL     OW20836   4.741   6.904   5.911
 6646SOL    HW120837   4.767   6.822   5.962
 6646SOL    HW220838   4.671   6.880   5.844
 6647SOL     OW20839   3.641   4.690   0.806
 6647SOL    HW120840   3.621   4.693   0.708
 6647SOL    HW220841   3.739   4.677   0.820
 6648SOL     OW20842   3.377   5.645   5.248
 6648SOL    HW120843   3.451   5.612   5.307
 6648SOL    HW220844   3.397   5.739   5.220
 6649SOL     OW20845   5.714   3.047   5.407
 6649SOL    HW120846   5.766   2.970   5.372
 6649SOL    HW220847   5.705   3.117   5.336
 6650SOL     OW20848   2.803   0.834   4.882
 6650SOL    HW120849   2.809   0.933   4.890
 6650SOL    HW220850   2.894   0.796   4.863
 6651SOL     OW20851   6.612   1.016   3.605
 6651SOL    HW120852   6.633   1.111   3.583
 6651SOL    HW220853   6.679   0.981   3.671
 6652SOL     OW20854   0.020   5.468   6.860
 6652SOL    HW120855   6.960   5.436   6.809
 6652SOL    HW220856   0.044   5.401   6.930
 6653SOL     OW20857   5.681   3.921   6.704
 6653SOL    HW120858   5.623   3.840   6.693
 6653SOL    HW220859   5.690   3.967   6.616
 6654SOL     OW20860   6.917   1.810   3.464
 6654SOL    HW120861   6.988   1.840   3.400
 6654SOL    HW220862   6.867   1.890   3.498
 6655SOL     OW20863   0.182   5.321   1.414
 6655SOL    HW120864   0.121   5.398   1.433
 6655SOL    HW220865   0.154   5.276   1.329
 6656SOL     OW20866   5.324   0.805   2.283
 6656SOL    HW120867   5.331   0.902   2.257
 6656SOL    HW220868   5.388   0.786   2.357
 6657SOL     OW20869   4.654   2.050   4.426
 6657SOL    HW120870   4.554   2.050   4.427
 6657SOL    HW220871   4.689   2.103   4.503
 6658SOL     OW20872   6.393   5.848   4.575
 6658SOL    HW120873   6.459   5.859   4.501
 6658SOL    HW220874   6.414   5.914   4.648
 6659SOL     OW20875   0.970   6.714   0.843
 6659SOL    HW120876   0.884   6.724   0.892
 6659SOL    HW220877   1.042   6.690   0.908
 6660SOL     OW20878   1.053   0.430   4.017
 6660SOL    HW120879   1.095   0.395   4.101
 6660SOL    HW220880   0.966   0.384   4.001
 6661SOL     OW20881   3.610   6.484   3.680
 6661SOL    HW120882   3.692   6.483   3.623
 6661SOL    HW220883   3.574   6.391   3.688
 6662SOL     OW20884   3.559   0.011   2.046
 6662SOL    HW120885   3.568   0.097   2.095
 6662SOL    HW220886   3.462   7.014   2.026
 6663SOL     OW20887   1.684   3.892   5.316
 6663SOL    HW120888   1.605   3.938   5.276
 6663SOL    HW220889   1.765   3.949   5.306
 6664SOL     OW20890   3.142   0.175   1.861
 6664SOL    HW120891   3.154   0.187   1.763
 6664SOL    HW220892   3.111   0.261   1.902
 6665SOL     OW20893   2.550   0.145   6.857
 6665SOL    HW120894   2.509   0.113   6.771
 6665SOL    HW220895   2.621   0.213   6.836
 6666SOL     OW20896   3.093   6.246   5.898
 6666SOL    HW120897   3.095   6.315   5.826
 6666SOL    HW220898   3.173   6.187   5.890
 6667SOL     OW20899   2.068   5.947   0.171
 6667SOL    HW120900   2.160   5.962   0.136
 6667SOL    HW220901   2.016   6.032   0.164
 6668SOL     OW20902   0.570   3.649   6.198
 6668SOL    HW120903   0.525   3.644   6.109
 6668SOL    HW220904   0.602   3.558   6.224
 6669SOL     OW20905   0.867   3.270   3.582
 6669SOL    HW120906   0.852   3.172   3.597
 6669SOL    HW220907   0.826   3.297   3.495
 6670SOL     OW20908   2.255   4.074   0.889
 6670SOL    HW120909   2.316   4.015   0.836
 6670SOL    HW220910   2.309   4.135   0.946
 6671SOL     OW20911   4.618   5.050   0.517
 6671SOL    HW120912   4.693   4.985   0.516
 6671SOL    HW220913   4.571   5.046   0.605
 6672SOL     OW20914   2.148   2.536   1.028
 6672SOL    HW120915   2.167   2.628   1.062
 6672SOL    HW220916   2.127   2.475   1.104
 6673SOL     OW20917   5.880   3.608   4.641
 6673SOL    HW120918   5.952   3.558   4.594
 6673SOL    HW220919   5.909   3.628   4.735
 6674SOL     OW20920   6.546   0.973   0.122
 6674SOL    HW120921   6.480   0.994   0.194
 6674SOL    HW220922   6.505   0.910   0.056
 6675SOL     OW20923   5.013   1.641   0.086
 6675SOL    HW120924   5.009   1.705   0.010
 6675SOL    HW220925   5.063   1.559   0.057
 6676SOL     OW20926   1.155   3.485   5.402
 6676SOL    HW120927   1.219   3.454   5.473
 6676SOL    HW220928   1.114   3.571   5.430
 6677SOL     OW20929   0.425   2.367   6.979
 6677SOL    HW120930   0.329   2.341   6.978
 6677SOL    HW220931   0.473   2.321   6.905
 6678SOL     OW20932   3.255   3.982   6.382
 6678SOL    HW120933   3.178   4.039   6.352
 6678SOL    HW220934   3.291   3.932   6.303
 6679SOL     OW20935   1.604   0.361   4.203
 6679SOL    HW120936   1.677   0.392   4.142
 6679SOL    HW220937   1.543   0.437   4.224
 6680SOL     OW20938   6.487   5.565   2.182
 6680SOL    HW120939   6.480   5.658   2.219
 6680SOL    HW220940   6.409   5.511   2.213
 6681SOL     OW20941   3.501   5.637   0.949
 6681SOL    HW120942   3.404   5.660   0.936
 6681SOL    HW220943   3.514   5.599   1.040
 6682SOL     OW20944   2.408   4.855   6.449
 6682SOL    HW120945   2.404   4.759   6.421
 6682SOL    HW220946   2.454   4.862   6.537
 6683SOL     OW20947   0.059   6.049   6.506
 6683SOL    HW120948   0.023   6.127   6.455
 6683SOL    HW220949   7.004   5.999   6.547
 6684SOL     OW20950   2.980   6.861   6.063
 6684SOL    HW120951   2.930   6.883   5.980
 6684SOL    HW220952   2.922   6.807   6.124
 6685SOL     OW20953   3.566   2.708   0.772
 6685SOL    HW120954   3.609   2.659   0.848
 6685SOL    HW220955   3.478   2.666   0.751
 6686SOL     OW20956   4.469   4.133   5.303
 6686SOL    HW120957   4.380   4.178   5.293
 6686SOL    HW220958   4.469   4.077   5.386
 6687SOL     OW20959   6.847   2.593   0.826
 6687SOL    HW120960   6.916   2.522   0.819
 6687SOL    HW220961   6.768   2.558   0.875
 6688SOL     OW20962   5.852   5.207   0.640
 6688SOL    HW120963   5.760   5.170   0.648
 6688SOL    HW220964   5.853   5.283   0.576
 6689SOL     OW20965   3.496   4.727   6.071
 6689SOL    HW120966   3.534   4.752   6.160
 6689SOL    HW220967   3.410   4.776   6.056
 6690SOL     OW20968   1.073   0.344   0.053
 6690SOL    HW120969   1.146   0.333   7.005
 6690SOL    HW220970   1.081   0.273   0.122
 6691SOL     OW20971   2.181   1.742   1.829
 6691SOL    HW120972   2.281   1.746   1.821
 6691SOL    HW220973   2.154   1.654   1.868
 6692SOL     OW20974   4.146   6.539   2.134
 6692SOL    HW120975   4.054   6.577   2.133
 6692SOL    HW220976   4.147   6.450   2.089
 6693SOL     OW20977   2.623   1.041   6.058
 6693SOL    HW120978   2.652   1.079   5.970
 6693SOL    HW220979   2.664   1.094   6.132
 6694SOL     OW20980   4.412   4.221   1.606
 6694SOL    HW120981   4.420   4.226   1.706
 6694SOL    HW220982   4.390   4.311   1.570
 6695SOL     OW20983   2.982   2.428   0.037
 6695SOL    HW120984   2.945   2.357   6.998
 6695SOL    HW220985   3.028   2.386   0.115
 6696SOL     OW20986   3.423   2.792   5.307
 6696SOL    HW120987   3.368   2.828   5.232
 6696SOL    HW220988   3.363   2.759   5.380
 6697SOL     OW20989   5.217   1.551   2.638
 6697SOL    HW120990   5.230   1.616   2.713
 6697SOL    HW220991   5.298   1.551   2.579
 6698SOL     OW20992   2.976   3.753   1.647
 6698SOL    HW120993   3.004   3.792   1.734
 6698SOL    HW220994   2.980   3.824   1.576
 6699SOL     OW20995   1.932   3.384   6.849
 6699SOL    HW120996   1.912   3.298   6.802
 6699SOL    HW220997   1.982   3.445   6.787
 6700SOL     OW20998   4.925   0.408   1.460
 6700SOL    HW120999   4.946   0.478   1.528
 6700SOL    HW221000   4.993   0.411   1.387
 6701SOL     OW21001   5.745   6.831   1.750
 6701SOL    HW121002   5.756   6.734   1.727
 6701SOL    HW221003   5.809   6.885   1.695
 6702SOL     OW21004   5.039   2.589   0.697
 6702SOL    HW121005   5.055   2.537   0.613
 6702SOL    HW221006   4.969   2.658   0.680
 6703SOL     OW21007   0.158   1.468   0.548
 6703SOL    HW121008   0.255   1.480   0.570
 6703SOL    HW221009   0.146   1.472   0.448
 6704SOL     OW21010   2.779   6.325   5.974
 6704SOL    HW121011   2.842   6.254   5.943
 6704SOL    HW221012   2.762   6.389   5.899
 6705SOL     OW21013   0.619   4.450   2.475
 6705SOL    HW121014   0.686   4.394   2.425
 6705SOL    HW221015   0.656   4.541   2.490
 6706SOL     OW21016   0.332   6.026   0.895
 6706SOL    HW121017   0.301   6.119   0.873
 6706SOL    HW221018   0.400   5.997   0.827
 6707SOL     OW21019   5.011   0.948   3.000
 6707SOL    HW121020   4.952   0.868   2.992
 6707SOL    HW221021   5.075   0.934   3.076
 6708SOL     OW21022   0.565   3.363   0.934
 6708SOL    HW121023   0.581   3.359   0.836
 6708SOL    HW221024   0.564   3.270   0.971
 6709SOL     OW21025   2.011   4.231   2.217
 6709SOL    HW121026   1.935   4.262   2.159
 6709SOL    HW221027   2.060   4.157   2.170
 6710SOL     OW21028   4.469   1.842   1.637
 6710SOL    HW121029   4.415   1.819   1.557
 6710SOL    HW221030   4.412   1.894   1.702
 6711SOL     OW21031   4.565   5.599   6.200
 6711SOL    HW121032   4.509   5.640   6.127
 6711SOL    HW221033   4.551   5.650   6.285
 6712SOL     OW21034   5.484   3.917   1.196
 6712SOL    HW121035   5.581   3.917   1.221
 6712SOL    HW221036   5.470   3.979   1.119
 6713SOL     OW21037   1.645   4.473   3.885
 6713SOL    HW121038   1.717   4.476   3.815
 6713SOL    HW221039   1.557   4.498   3.843
 6714SOL     OW21040   6.221   1.043   2.562
 6714SOL    HW121041   6.267   1.041   2.473
 6714SOL    HW221042   6.127   1.011   2.552
 6715SOL     OW21043   1.259   6.977   5.677
 6715SOL    HW121044   1.277   0.043   5.724
 6715SOL    HW221045   1.329   6.910   5.700
 6716SOL     OW21046   1.328   4.478   1.803
 6716SOL    HW121047   1.389   4.544   1.759
 6716SOL    HW221048   1.363   4.457   1.894
 6717SOL     OW21049   6.071   2.440   5.530
 6717SOL    HW121050   6.145   2.456   5.464
 6717SOL    HW221051   5.993   2.398   5.483
 6718SOL     OW21052   4.497   2.559   0.731
 6718SOL    HW121053   4.529   2.611   0.810
 6718SOL    HW221054   4.572   2.550   0.665
 6719SOL     OW21055   1.344   1.075   0.407
 6719SOL    HW121056   1.282   0.998   0.421
 6719SOL    HW221057   1.389   1.065   0.318
 6720SOL     OW21058   1.868   1.597   4.578
 6720SOL    HW121059   1.787   1.606   4.636
 6720SOL    HW221060   1.846   1.537   4.500
 6721SOL     OW21061   6.116   6.852   0.396
 6721SOL    HW121062   6.039   6.910   0.370
 6721SOL    HW221063   6.106   6.763   0.351
 6722SOL     OW21064   6.089   4.404   1.454
 6722SOL    HW121065   6.140   4.346   1.518
 6722SOL    HW221066   5.991   4.394   1.471
 6723SOL     OW21067   1.760   3.332   4.470
 6723SOL    HW121068   1.829   3.390   4.425
 6723SOL    HW221069   1.773   3.337   4.569
 6724SOL     OW21070   2.041   3.191   5.428
 6724SOL    HW121071   2.075   3.277   5.468
 6724SOL    HW221072   1.950   3.171   5.465
 6725SOL     OW21073   4.680   2.694   3.391
 6725SOL    HW121074   4.639   2.785   3.377
 6725SOL    HW221075   4.680   2.673   3.488
 6726SOL     OW21076   6.816   1.443   0.215
 6726SOL    HW121077   6.880   1.401   0.152
 6726SOL    HW221078   6.771   1.372   0.269
 6727SOL     OW21079   0.862   5.705   5.616
 6727SOL    HW121080   0.932   5.643   5.654
 6727SOL    HW221081   0.907   5.776   5.562
 6728SOL     OW21082   3.718   1.627   5.187
 6728SOL    HW121083   3.685   1.704   5.242
 6728SOL    HW221084   3.647   1.558   5.180
 6729SOL     OW21085   4.430   0.859   2.813
 6729SOL    HW121086   4.434   0.840   2.715
 6729SOL    HW221087   4.511   0.910   2.840
 6730SOL     OW21088   0.591   1.838   1.446
 6730SOL    HW121089   0.663   1.808   1.384
 6730SOL    HW221090   0.593   1.783   1.529
 6731SOL     OW21091   3.881   0.404   6.182
 6731SOL    HW121092   3.934   0.361   6.255
 6731SOL    HW221093   3.925   0.388   6.094
 6732SOL     OW21094   6.039   5.201   5.788
 6732SOL    HW121095   6.110   5.268   5.770
 6732SOL    HW221096   5.949   5.243   5.778
 6733SOL     OW21097   5.206   4.792   5.275
 6733SOL    HW121098   5.106   4.793   5.272
 6733SOL    HW221099   5.236   4.798   5.370
 6734SOL     OW21100   5.501   2.353   5.572
 6734SOL    HW121101   5.405   2.377   5.557
 6734SOL    HW221102   5.509   2.254   5.579
 6735SOL     OW21103   5.837   2.787   4.413
 6735SOL    HW121104   5.738   2.778   4.427
 6735SOL    HW221105   5.866   2.727   4.339
 6736SOL     OW21106   3.767   3.658   0.853
 6736SOL    HW121107   3.787   3.572   0.806
 6736SOL    HW221108   3.836   3.676   0.923
 6737SOL     OW21109   6.203   3.451   0.889
 6737SOL    HW121110   6.251   3.439   0.802
 6737SOL    HW221111   6.251   3.403   0.961
 6738SOL     OW21112   2.205   6.825   4.189
 6738SOL    HW121113   2.185   6.818   4.092
 6738SOL    HW221114   2.281   6.764   4.212
 6739SOL     OW21115   0.504   0.300   5.845
 6739SOL    HW121116   0.602   0.314   5.831
 6739SOL    HW221117   0.461   0.387   5.870
 6740SOL     OW21118   0.942   6.687   2.009
 6740SOL    HW121119   0.852   6.722   1.984
 6740SOL    HW221120   0.936   6.642   2.098
 6741SOL     OW21121   3.270   2.094   0.427
 6741SOL    HW121122   3.263   2.173   0.489
 6741SOL    HW221123   3.198   2.099   0.358
 6742SOL     OW21124   6.438   4.992   2.433
 6742SOL    HW121125   6.385   5.070   2.399
 6742SOL    HW221126   6.482   5.017   2.519
 6743SOL     OW21127   3.786   4.016   6.313
 6743SOL    HW121128   3.783   4.075   6.393
 6743SOL    HW221129   3.721   3.941   6.324
 6744SOL     OW21130   6.762   6.380   5.840
 6744SOL    HW121131   6.805   6.421   5.921
 6744SOL    HW221132   6.831   6.327   5.790
 6745SOL     OW21133   5.432   3.189   5.519
 6745SOL    HW121134   5.524   3.179   5.482
 6745SOL    HW221135   5.365   3.171   5.448
 6746SOL     OW21136   1.114   2.016   3.105
 6746SOL    HW121137   1.105   2.110   3.138
 6746SOL    HW221138   1.125   2.016   3.006
 6747SOL     OW21139   1.353   6.087   5.447
 6747SOL    HW121140   1.453   6.086   5.444
 6747SOL    HW221141   1.320   6.180   5.431
 6748SOL     OW21142   1.569   2.349   4.559
 6748SOL    HW121143   1.505   2.417   4.595
 6748SOL    HW221144   1.534   2.312   4.473
 6749SOL     OW21145   3.825   4.859   2.575
 6749SOL    HW121146   3.777   4.853   2.663
 6749SOL    HW221147   3.821   4.953   2.542
 6750SOL     OW21148   4.083   0.645   5.824
 6750SOL    HW121149   4.170   0.675   5.786
 6750SOL    HW221150   4.097   0.609   5.917
 6751SOL     OW21151   4.061   1.061   4.444
 6751SOL    HW121152   4.083   1.123   4.519
 6751SOL    HW221153   3.964   1.068   4.422
 6752SOL     OW21154   2.049   4.798   3.314
 6752SOL    HW121155   2.067   4.893   3.341
 6752SOL    HW221156   2.136   4.747   3.312
 6753SOL     OW21157   3.326   4.253   0.451
 6753SOL    HW121158   3.351   4.167   0.407
 6753SOL    HW221159   3.260   4.235   0.524
 6754SOL     OW21160   6.051   0.827   0.507
 6754SOL    HW121161   6.013   0.740   0.536
 6754SOL    HW221162   6.149   0.817   0.490
 6755SOL     OW21163   4.148   5.676   5.558
 6755SOL    HW121164   4.098   5.596   5.524
 6755SOL    HW221165   4.197   5.719   5.482
 6756SOL     OW21166   4.240   3.180   6.175
 6756SOL    HW121167   4.174   3.148   6.243
 6756SOL    HW221168   4.202   3.168   6.083
 6757SOL     OW21169   4.202   6.894   2.065
 6757SOL    HW121170   4.274   6.899   2.134
 6757SOL    HW221171   4.200   6.802   2.025
 6758SOL     OW21172   4.846   2.992   3.196
 6758SOL    HW121173   4.809   2.985   3.103
 6758SOL    HW221174   4.878   2.902   3.226
 6759SOL     OW21175   1.342   2.704   2.205
 6759SOL    HW121176   1.428   2.686   2.252
 6759SOL    HW221177   1.278   2.629   2.223
 6760SOL     OW21178   5.243   1.899   6.077
 6760SOL    HW121179   5.260   1.816   6.023
 6760SOL    HW221180   5.323   1.958   6.072
 6761SOL     OW21181   2.652   0.393   4.765
 6761SOL    HW121182   2.647   0.343   4.851
 6761SOL    HW221183   2.729   0.359   4.711
 6762SOL     OW21184   5.472   5.074   4.337
 6762SOL    HW121185   5.428   5.003   4.282
 6762SOL    HW221186   5.414   5.095   4.416
 6763SOL     OW21187   5.759   6.011   3.865
 6763SOL    HW121188   5.735   5.919   3.833
 6763SOL    HW221189   5.826   6.052   3.802
 6764SOL     OW21190   0.941   4.653   1.715
 6764SOL    HW121191   1.003   4.686   1.643
 6764SOL    HW221192   0.867   4.601   1.674
 6765SOL     OW21193   6.911   4.003   3.244
 6765SOL    HW121194   6.858   4.059   3.180
 6765SOL    HW221195   7.003   4.042   3.252
 6766SOL     OW21196   5.933   6.962   1.592
 6766SOL    HW121197   5.892   0.014   1.536
 6766SOL    HW221198   5.967   6.889   1.534
 6767SOL     OW21199   3.346   0.116   1.429
 6767SOL    HW121200   3.353   0.181   1.505
 6767SOL    HW221201   3.390   0.154   1.348
 6768SOL     OW21202   1.517   0.056   6.580
 6768SOL    HW121203   1.530   0.112   6.498
 6768SOL    HW221204   1.515   0.116   6.661
 6769SOL     OW21205   5.124   3.044   1.088
 6769SOL    HW121206   5.140   2.968   1.025
 6769SOL    HW221207   5.046   3.097   1.057
 6770SOL     OW21208   0.372   1.575   1.864
 6770SOL    HW121209   0.345   1.480   1.849
 6770SOL    HW221210   0.311   1.616   1.933
 6771SOL     OW21211   4.823   1.233   3.529
 6771SOL    HW121212   4.823   1.299   3.605
 6771SOL    HW221213   4.894   1.258   3.463
 6772SOL     OW21214   3.408   1.499   4.925
 6772SOL    HW121215   3.408   1.426   4.857
 6772SOL    HW221216   3.320   1.547   4.923
 6773SOL     OW21217   0.190   3.823   1.632
 6773SOL    HW121218   0.237   3.843   1.546
 6773SOL    HW221219   0.171   3.909   1.680
 6774SOL     OW21220   1.338   2.088   6.194
 6774SOL    HW121221   1.435   2.097   6.214
 6774SOL    HW221222   1.325   2.013   6.128
 6775SOL     OW21223   0.398   3.449   0.558
 6775SOL    HW121224   0.411   3.530   0.616
 6775SOL    HW221225   0.466   3.449   0.485
 6776SOL     OW21226   6.215   6.113   6.758
 6776SOL    HW121227   6.196   6.110   6.660
 6776SOL    HW221228   6.291   6.176   6.776
 6777SOL     OW21229   4.369   4.654   0.054
 6777SOL    HW121230   4.372   4.672   6.976
 6777SOL    HW221231   4.386   4.557   0.071
 6778SOL     OW21232   5.948   5.616   3.642
 6778SOL    HW121233   6.011   5.611   3.564
 6778SOL    HW221234   5.856   5.590   3.612
 6779SOL     OW21235   5.821   3.411   6.582
 6779SOL    HW121236   5.775   3.354   6.514
 6779SOL    HW221237   5.919   3.417   6.560
 6780SOL     OW21238   0.910   3.084   1.452
 6780SOL    HW121239   0.873   3.121   1.367
 6780SOL    HW221240   0.973   3.150   1.492
 6781SOL     OW21241   5.058   4.765   5.808
 6781SOL    HW121242   5.148   4.726   5.825
 6781SOL    HW221243   5.043   4.843   5.869
 6782SOL     OW21244   6.135   1.592   3.146
 6782SOL    HW121245   6.053   1.536   3.129
 6782SOL    HW221246   6.115   1.688   3.125
 6783SOL     OW21247   1.429   5.985   6.568
 6783SOL    HW121248   1.342   6.020   6.534
 6783SOL    HW221249   1.493   5.974   6.492
 6784SOL     OW21250   4.124   3.427   0.173
 6784SOL    HW121251   4.052   3.361   0.194
 6784SOL    HW221252   4.084   3.507   0.127
 6785SOL     OW21253   5.747   5.506   2.155
 6785SOL    HW121254   5.667   5.465   2.111
 6785SOL    HW221255   5.828   5.451   2.135
 6786SOL     OW21256   1.664   3.483   5.441
 6786SOL    HW121257   1.702   3.573   5.459
 6786SOL    HW221258   1.621   3.482   5.351
 6787SOL     OW21259   1.059   3.933   1.506
 6787SOL    HW121260   1.095   4.003   1.568
 6787SOL    HW221261   1.052   3.846   1.555
 6788SOL     OW21262   2.786   3.740   1.272
 6788SOL    HW121263   2.813   3.660   1.325
 6788SOL    HW221264   2.862   3.767   1.212
 6789SOL     OW21265   1.656   4.500   3.071
 6789SOL    HW121266   1.621   4.509   3.164
 6789SOL    HW221267   1.740   4.553   3.062
 6790SOL     OW21268   1.379   3.029   0.694
 6790SOL    HW121269   1.386   2.969   0.773
 6790SOL    HW221270   1.292   3.078   0.697
 6791SOL     OW21271   3.679   4.021   5.866
 6791SOL    HW121272   3.644   3.990   5.778
 6791SOL    HW221273   3.747   4.093   5.851
 6792SOL     OW21274   0.337   5.089   0.827
 6792SOL    HW121275   0.258   5.079   0.888
 6792SOL    HW221276   0.417   5.044   0.868
 6793SOL     OW21277   5.339   1.091   1.014
 6793SOL    HW121278   5.289   1.172   0.984
 6793SOL    HW221279   5.434   1.098   0.986
 6794SOL     OW21280   3.590   1.608   4.727
 6794SOL    HW121281   3.524   1.581   4.796
 6794SOL    HW221282   3.554   1.588   4.636
 6795SOL     OW21283   3.560   5.843   0.092
 6795SOL    HW121284   3.561   5.897   0.008
 6795SOL    HW221285   3.610   5.893   0.164
 6796SOL     OW21286   4.458   2.032   2.217
 6796SOL    HW121287   4.453   1.990   2.307
 6796SOL    HW221288   4.409   2.119   2.217
 6797SOL     OW21289   6.485   2.507   2.241
 6797SOL    HW121290   6.530   2.588   2.203
 6797SOL    HW221291   6.397   2.494   2.197
 6798SOL     OW21292   6.540   7.009   2.379
 6798SOL    HW121293   6.602   0.037   2.318
 6798SOL    HW221294   6.575   7.011   2.472
 6799SOL     OW21295   5.371   6.143   1.863
 6799SOL    HW121296   5.300   6.085   1.904
 6799SOL    HW221297   5.364   6.236   1.901
 6800SOL     OW21298   3.385   4.283   6.163
 6800SOL    HW121299   3.296   4.251   6.194
 6800SOL    HW221300   3.455   4.259   6.231
 6801SOL     OW21301   0.969   3.192   3.181
 6801SOL    HW121302   0.987   3.259   3.109
 6801SOL    HW221303   1.040   3.199   3.251
 6802SOL     OW21304   3.021   4.872   2.527
 6802SOL    HW121305   2.960   4.927   2.470
 6802SOL    HW221306   2.982   4.780   2.538
 6803SOL     OW21307   4.164   2.178   0.693
 6803SOL    HW121308   4.124   2.247   0.632
 6803SOL    HW221309   4.259   2.202   0.713
 6804SOL     OW21310   1.006   6.146   3.502
 6804SOL    HW121311   0.959   6.181   3.420
 6804SOL    HW221312   1.103   6.131   3.481
 6805SOL     OW21313   5.591   1.232   5.516
 6805SOL    HW121314   5.593   1.137   5.545
 6805SOL    HW221315   5.541   1.287   5.583
 6806SOL     OW21316   5.064   6.347   4.910
 6806SOL    HW121317   5.132   6.358   4.983
 6806SOL    HW221318   5.087   6.266   4.856
 6807SOL     OW21319   3.844   3.454   7.017
 6807SOL    HW121320   3.854   3.398   0.078
 6807SOL    HW221321   3.747   3.462   6.994
 6808SOL     OW21322   2.162   3.969   4.010
 6808SOL    HW121323   2.205   3.951   4.099
 6808SOL    HW221324   2.116   4.057   4.013
 6809SOL     OW21325   1.696   3.807   6.989
 6809SOL    HW121326   1.637   3.736   6.950
 6809SOL    HW221327   1.684   3.892   6.938
 6810SOL     OW21328   5.691   1.266   3.799
 6810SOL    HW121329   5.644   1.179   3.787
 6810SOL    HW221330   5.784   1.250   3.832
 6811SOL     OW21331   5.223   5.935   2.026
 6811SOL    HW121332   5.265   5.844   2.029
 6811SOL    HW221333   5.144   5.933   1.966
 6812SOL     OW21334   3.515   2.992   2.742
 6812SOL    HW121335   3.564   2.934   2.676
 6812SOL    HW221336   3.432   2.946   2.772
 6813SOL     OW21337   5.168   3.814   1.044
 6813SOL    HW121338   5.117   3.894   1.076
 6813SOL    HW221339   5.103   3.742   1.019
 6814SOL     OW21340   2.324   2.728   0.518
 6814SOL    HW121341   2.248   2.724   0.583
 6814SOL    HW221342   2.381   2.647   0.529
 6815SOL     OW21343   1.625   0.534   0.463
 6815SOL    HW121344   1.685   0.484   0.525
 6815SOL    HW221345   1.553   0.579   0.516
 6816SOL     OW21346   5.045   4.865   1.734
 6816SOL    HW121347   5.136   4.836   1.764
 6816SOL    HW221348   5.043   4.868   1.634
 6817SOL     OW21349   0.996   2.787   5.986
 6817SOL    HW121350   1.018   2.691   6.001
 6817SOL    HW221351   1.003   2.808   5.888
 6818SOL     OW21352   4.054   5.353   1.328
 6818SOL    HW121353   4.030   5.434   1.381
 6818SOL    HW221354   3.986   5.281   1.345
 6819SOL     OW21355   2.392   1.785   3.969
 6819SOL    HW121356   2.410   1.792   3.871
 6819SOL    HW221357   2.299   1.753   3.984
 6820SOL     OW21358   1.778   5.116   4.458
 6820SOL    HW121359   1.852   5.151   4.402
 6820SOL    HW221360   1.799   5.130   4.555
 6821SOL     OW21361   2.136   3.095   3.928
 6821SOL    HW121362   2.191   3.017   3.957
 6821SOL    HW221363   2.167   3.178   3.974
 6822SOL     OW21364   5.070   1.521   6.088
 6822SOL    HW121365   5.156   1.554   6.051
 6822SOL    HW221366   4.994   1.573   6.047
 6823SOL     OW21367   4.150   3.650   2.187
 6823SOL    HW121368   4.103   3.563   2.199
 6823SOL    HW221369   4.216   3.663   2.260
 6824SOL     OW21370   0.635   5.241   4.857
 6824SOL    HW121371   0.654   5.151   4.897
 6824SOL    HW221372   0.537   5.251   4.843
 6825SOL     OW21373   5.580   6.948   3.878
 6825SOL    HW121374   5.566   6.945   3.779
 6825SOL    HW221375   5.609   0.019   3.905
 6826SOL     OW21376   1.237   3.093   3.065
 6826SOL    HW121377   1.301   3.072   2.991
 6826SOL    HW221378   1.219   3.191   3.067
 6827SOL     OW21379   4.685   5.067   5.203
 6827SOL    HW121380   4.737   5.134   5.256
 6827SOL    HW221381   4.648   4.998   5.265
 6828SOL     OW21382   2.273   1.808   0.963
 6828SOL    HW121383   2.240   1.890   1.009
 6828SOL    HW221384   2.271   1.731   1.027
 6829SOL     OW21385   5.672   4.877   3.608
 6829SOL    HW121386   5.587   4.902   3.655
 6829SOL    HW221387   5.677   4.926   3.521
 6830SOL     OW21388   5.273   1.648   3.624
 6830SOL    HW121389   5.346   1.581   3.638
 6830SOL    HW221390   5.200   1.606   3.570
 6831SOL     OW21391   0.234   1.664   5.718
 6831SOL    HW121392   0.181   1.590   5.678
 6831SOL    HW221393   0.188   1.698   5.800
 6832SOL     OW21394   3.393   4.491   1.082
 6832SOL    HW121395   3.369   4.576   1.035
 6832SOL    HW221396   3.492   4.481   1.083
 6833SOL     OW21397   4.373   5.982   0.457
 6833SOL    HW121398   4.377   5.963   0.359
 6833SOL    HW221399   4.351   6.079   0.472
 6834SOL     OW21400   2.902   5.065   2.763
 6834SOL    HW121401   2.922   5.074   2.861
 6834SOL    HW221402   2.804   5.053   2.750
 6835SOL     OW21403   3.741   0.131   4.712
 6835SOL    HW121404   3.734   0.133   4.613
 6835SOL    HW221405   3.789   0.212   4.744
 6836SOL     OW21406   4.120   5.921   0.033
 6836SOL    HW121407   4.188   5.905   6.982
 6836SOL    HW221408   4.074   5.834   0.054
 6837SOL     OW21409   0.742   3.242   2.967
 6837SOL    HW121410   0.816   3.212   3.026
 6837SOL    HW221411   0.686   3.164   2.939
 6838SOL     OW21412   2.803   1.795   1.143
 6838SOL    HW121413   2.757   1.777   1.230
 6838SOL    HW221414   2.902   1.786   1.155
 6839SOL     OW21415   3.743   0.924   1.681
 6839SOL    HW121416   3.804   0.880   1.747
 6839SOL    HW221417   3.650   0.890   1.695
 6840SOL     OW21418   1.132   1.254   6.149
 6840SOL    HW121419   1.159   1.233   6.056
 6840SOL    HW221420   1.102   1.170   6.195
 6841SOL     OW21421   0.312   3.217   5.791
 6841SOL    HW121422   0.321   3.159   5.710
 6841SOL    HW221423   0.381   3.191   5.858
 6842SOL     OW21424   2.762   4.705   2.480
 6842SOL    HW121425   2.687   4.717   2.545
 6842SOL    HW221426   2.727   4.657   2.399
 6843SOL     OW21427   4.277   0.297   1.524
 6843SOL    HW121428   4.295   0.351   1.442
 6843SOL    HW221429   4.189   0.323   1.563
 6844SOL     OW21430   5.805   0.248   5.353
 6844SOL    HW121431   5.884   0.212   5.303
 6844SOL    HW221432   5.813   0.347   5.362
 6845SOL     OW21433   5.921   1.726   2.518
 6845SOL    HW121434   5.926   1.691   2.612
 6845SOL    HW221435   5.835   1.774   2.505
 6846SOL     OW21436   2.066   3.474   0.312
 6846SOL    HW121437   2.030   3.381   0.300
 6846SOL    HW221438   2.043   3.530   0.233
 6847SOL     OW21439   6.901   2.480   4.378
 6847SOL    HW121440   6.914   2.517   4.286
 6847SOL    HW221441   6.812   2.435   4.384
 6848SOL     OW21442   6.718   4.763   3.912
 6848SOL    HW121443   6.735   4.854   3.950
 6848SOL    HW221444   6.802   4.708   3.919
 6849SOL     OW21445   2.693   4.233   5.336
 6849SOL    HW121446   2.670   4.136   5.343
 6849SOL    HW221447   2.792   4.244   5.342
 6850SOL     OW21448   5.205   0.250   4.329
 6850SOL    HW121449   5.287   0.205   4.364
 6850SOL    HW221450   5.136   0.182   4.309
 6851SOL     OW21451   1.950   4.232   3.098
 6851SOL    HW121452   1.972   4.278   3.184
 6851SOL    HW221453   1.850   4.228   3.088
 6852SOL     OW21454   4.375   3.318   0.201
 6852SOL    HW121455   4.442   3.389   0.221
 6852SOL    HW221456   4.283   3.359   0.200
 6853SOL     OW21457   4.035   4.945   6.135
 6853SOL    HW121458   4.004   5.034   6.169
 6853SOL    HW221459   3.958   4.897   6.093
 6854SOL     OW21460   5.118   5.932   5.685
 6854SOL    HW121461   5.108   5.844   5.639
 6854SOL    HW221462   5.207   5.972   5.661
 6855SOL     OW21463   3.525   5.342   3.150
 6855SOL    HW121464   3.502   5.438   3.166
 6855SOL    HW221465   3.620   5.326   3.178
 6856SOL     OW21466   6.424   2.539   0.741
 6856SOL    HW121467   6.365   2.588   0.804
 6856SOL    HW221468   6.369   2.493   0.672
 6857SOL     OW21469   1.603   4.766   5.887
 6857SOL    HW121470   1.544   4.695   5.847
 6857SOL    HW221471   1.555   4.854   5.884
 6858SOL     OW21472   0.972   3.374   1.554
 6858SOL    HW121473   1.041   3.446   1.549
 6858SOL    HW221474   0.888   3.405   1.511
 6859SOL     OW21475   2.521   1.825   0.854
 6859SOL    HW121476   2.447   1.844   0.919
 6859SOL    HW221477   2.572   1.746   0.885
 6860SOL     OW21478   0.622   6.726   0.048
 6860SOL    HW121479   0.682   6.686   6.998
 6860SOL    HW221480   0.527   6.711   0.022
 6861SOL     OW21481   6.478   3.049   0.084
 6861SOL    HW121482   6.479   3.121   0.154
 6861SOL    HW221483   6.572   3.032   0.053
 6862SOL     OW21484   0.429   4.096   3.621
 6862SOL    HW121485   0.505   4.112   3.558
 6862SOL    HW221486   0.449   4.016   3.677
 6863SOL     OW21487   5.266   1.208   5.659
 6863SOL    HW121488   5.228   1.141   5.594
 6863SOL    HW221489   5.292   1.291   5.610
 6864SOL     OW21490   2.071   3.531   6.501
 6864SOL    HW121491   1.983   3.577   6.500
 6864SOL    HW221492   2.127   3.568   6.575
 6865SOL     OW21493   1.729   0.456   3.942
 6865SOL    HW121494   1.711   0.436   3.846
 6865SOL    HW221495   1.714   0.554   3.960
 6866SOL     OW21496   2.034   4.966   0.032
 6866SOL    HW121497   1.989   4.877   0.023
 6866SOL    HW221498   2.130   4.958   0.004
 6867SOL     OW21499   1.936   2.579   6.059
 6867SOL    HW121500   1.846   2.575   6.102
 6867SOL    HW221501   1.965   2.674   6.050
 6868SOL     OW21502   3.887   4.827   3.367
 6868SOL    HW121503   3.798   4.870   3.353
 6868SOL    HW221504   3.881   4.730   3.344
 6869SOL     OW21505   1.446   0.839   5.503
 6869SOL    HW121506   1.385   0.761   5.494
 6869SOL    HW221507   1.541   0.808   5.494
 6870SOL     OW21508   5.316   2.776   6.911
 6870SOL    HW121509   5.341   2.701   6.849
 6870SOL    HW221510   5.217   2.784   6.915
 6871SOL     OW21511   6.346   2.352   2.483
 6871SOL    HW121512   6.411   2.424   2.507
 6871SOL    HW221513   6.321   2.360   2.386
 6872SOL     OW21514   1.973   4.753   0.823
 6872SOL    HW121515   1.926   4.668   0.799
 6872SOL    HW221516   2.008   4.746   0.917
 6873SOL     OW21517   0.668   4.001   2.584
 6873SOL    HW121518   0.703   3.986   2.492
 6873SOL    HW221519   0.642   3.914   2.625
 6874SOL     OW21520   4.246   5.955   1.783
 6874SOL    HW121521   4.173   5.901   1.740
 6874SOL    HW221522   4.300   5.897   1.843
 6875SOL     OW21523   2.771   1.032   6.646
 6875SOL    HW121524   2.716   1.015   6.564
 6875SOL    HW221525   2.865   1.049   6.619
 6876SOL     OW21526   5.703   4.959   3.361
 6876SOL    HW121527   5.790   5.006   3.349
 6876SOL    HW221528   5.716   4.861   3.343
 6877SOL     OW21529   0.458   4.416   1.456
 6877SOL    HW121530   0.415   4.363   1.384
 6877SOL    HW221531   0.507   4.494   1.416
 6878SOL     OW21532   2.063   0.581   4.095
 6878SOL    HW121533   2.161   0.584   4.072
 6878SOL    HW221534   2.011   0.556   4.014
 6879SOL     OW21535   1.092   1.486   1.474
 6879SOL    HW121536   1.167   1.538   1.514
 6879SOL    HW221537   1.128   1.418   1.410
 6880SOL     OW21538   2.218   6.362   0.670
 6880SOL    HW121539   2.155   6.297   0.711
 6880SOL    HW221540   2.171   6.450   0.659
 6881SOL     OW21541   0.048   3.761   0.433
 6881SOL    HW121542   6.996   3.770   0.502
 6881SOL    HW221543   0.017   3.804   0.348
 6882SOL     OW21544   2.626   6.791   0.417
 6882SOL    HW121545   2.600   6.878   0.376
 6882SOL    HW221546   2.726   6.784   0.421
 6883SOL     OW21547   4.662   0.023   1.434
 6883SOL    HW121548   4.588   0.078   1.397
 6883SOL    HW221549   4.709   6.995   1.360
 6884SOL     OW21550   1.531   4.947   2.989
 6884SOL    HW121551   1.469   4.877   3.025
 6884SOL    HW221552   1.626   4.922   3.010
 6885SOL     OW21553   5.611   5.008   4.702
 6885SOL    HW121554   5.521   4.991   4.662
 6885SOL    HW221555   5.638   4.929   4.757
 6886SOL     OW21556   5.422   4.112   0.638
 6886SOL    HW121557   5.494   4.043   0.631
 6886SOL    HW221558   5.443   4.188   0.576
 6887SOL     OW21559   5.420   6.719   5.666
 6887SOL    HW121560   5.517   6.713   5.642
 6887SOL    HW221561   5.369   6.759   5.590
 6888SOL     OW21562   6.532   4.468   0.392
 6888SOL    HW121563   6.532   4.373   0.423
 6888SOL    HW221564   6.444   4.488   0.349
 6889SOL     OW21565   0.088   2.524   5.696
 6889SOL    HW121566   0.082   2.608   5.642
 6889SOL    HW221567   0.120   2.546   5.788
 6890SOL     OW21568   4.761   4.837   4.378
 6890SOL    HW121569   4.811   4.844   4.464
 6890SOL    HW221570   4.775   4.747   4.338
 6891SOL     OW21571   1.969   2.017   0.707
 6891SOL    HW121572   2.045   2.081   0.701
 6891SOL    HW221573   1.906   2.047   0.779
 6892SOL     OW21574   1.760   1.067   4.943
 6892SOL    HW121575   1.713   1.086   5.029
 6892SOL    HW221576   1.781   0.970   4.937
 6893SOL     OW21577   5.874   3.259   0.326
 6893SOL    HW121578   5.858   3.208   0.241
 6893SOL    HW221579   5.910   3.350   0.304
 6894SOL     OW21580   5.555   5.226   0.097
 6894SOL    HW121581   5.531   5.316   0.059
 6894SOL    HW221582   5.503   5.212   0.182
 6895SOL     OW21583   1.300   5.422   2.257
 6895SOL    HW121584   1.376   5.389   2.313
 6895SOL    HW221585   1.286   5.519   2.274
 6896SOL     OW21586   5.399   0.931   6.333
 6896SOL    HW121587   5.334   1.002   6.303
 6896SOL    HW221588   5.431   0.880   6.253
 6897SOL     OW21589   4.447   2.567   4.967
 6897SOL    HW121590   4.483   2.660   4.983
 6897SOL    HW221591   4.349   2.567   4.981
 6898SOL     OW21592   1.722   0.008   1.291
 6898SOL    HW121593   1.794   7.008   1.224
 6898SOL    HW221594   1.697   0.105   1.285
 6899SOL     OW21595   5.344   4.879   2.336
 6899SOL    HW121596   5.382   4.871   2.428
 6899SOL    HW221597   5.415   4.860   2.269
 6900SOL     OW21598   0.184   4.393   4.670
 6900SOL    HW121599   0.227   4.307   4.697
 6900SOL    HW221600   0.255   4.462   4.653
 6901SOL     OW21601   5.121   4.561   6.097
 6901SOL    HW121602   5.043   4.619   6.120
 6901SOL    HW221603   5.111   4.472   6.143
 6902SOL     OW21604   0.163   5.930   6.011
 6902SOL    HW121605   0.195   5.996   6.079
 6902SOL    HW221606   0.099   5.976   5.949
 6903SOL     OW21607   1.766   6.331   5.370
 6903SOL    HW121608   1.688   6.393   5.364
 6903SOL    HW221609   1.820   6.337   5.285
 6904SOL     OW21610   0.945   0.691   6.101
 6904SOL    HW121611   0.890   0.754   6.155
 6904SOL    HW221612   1.007   0.742   6.042
 6905SOL     OW21613   4.342   6.140   5.702
 6905SOL    HW121614   4.413   6.152   5.633
 6905SOL    HW221615   4.265   6.091   5.662
 6906SOL     OW21616   3.186   1.671   3.348
 6906SOL    HW121617   3.131   1.671   3.431
 6906SOL    HW221618   3.165   1.590   3.294
 6907SOL     OW21619   5.694   2.721   0.478
 6907SOL    HW121620   5.793   2.732   0.476
 6907SOL    HW221621   5.670   2.642   0.534
 6908SOL     OW21622   4.083   6.165   0.551
 6908SOL    HW121623   4.108   6.153   0.647
 6908SOL    HW221624   4.163   6.198   0.500
 6909SOL     OW21625   5.717   4.024   2.169
 6909SOL    HW121626   5.730   4.104   2.228
 6909SOL    HW221627   5.807   3.992   2.138
 6910SOL     OW21628   1.726   2.387   1.889
 6910SOL    HW121629   1.773   2.428   1.810
 6910SOL    HW221630   1.778   2.406   1.972
 6911SOL     OW21631   2.842   6.652   5.211
 6911SOL    HW121632   2.813   6.739   5.171
 6911SOL    HW221633   2.768   6.616   5.268
 6912SOL     OW21634   3.300   4.271   6.541
 6912SOL    HW121635   3.374   4.317   6.590
 6912SOL    HW221636   3.338   4.205   6.476
 6913SOL     OW21637   4.157   5.623   6.092
 6913SOL    HW121638   4.113   5.665   6.012
 6913SOL    HW221639   4.255   5.646   6.091
 6914SOL     OW21640   0.338   2.384   2.595
 6914SOL    HW121641   0.296   2.412   2.508
 6914SOL    HW221642   0.398   2.458   2.628
 6915SOL     OW21643   0.023   3.098   4.405
 6915SOL    HW121644   6.979   3.132   4.474
 6915SOL    HW221645   7.017   3.134   4.315
 6916SOL     OW21646   4.743   6.308   5.948
 6916SOL    HW121647   4.648   6.334   5.934
 6916SOL    HW221648   4.767   6.234   5.885
 6917SOL     OW21649   4.076   6.221   2.313
 6917SOL    HW121650   4.094   6.189   2.406
 6917SOL    HW221651   4.015   6.300   2.315
 6918SOL     OW21652   1.952   3.726   0.357
 6918SOL    HW121653   1.963   3.627   0.358
 6918SOL    HW221654   2.041   3.769   0.341
 6919SOL     OW21655   6.153   6.129   3.340
 6919SOL    HW121656   6.082   6.058   3.338
 6919SOL    HW221657   6.123   6.207   3.284
 6920SOL     OW21658   0.271   2.765   5.458
 6920SOL    HW121659   0.341   2.755   5.388
 6920SOL    HW221660   0.313   2.760   5.548
 6921SOL     OW21661   3.401   0.550   4.510
 6921SOL    HW121662   3.352   0.545   4.597
 6921SOL    HW221663   3.499   0.556   4.526
 6922SOL     OW21664   3.131   4.857   6.660
 6922SOL    HW121665   3.035   4.876   6.679
 6922SOL    HW221666   3.154   4.890   6.568
 6923SOL     OW21667   4.927   6.776   3.242
 6923SOL    HW121668   4.968   6.814   3.325
 6923SOL    HW221669   4.867   6.700   3.267
 6924SOL     OW21670   2.784   4.879   1.871
 6924SOL    HW121671   2.884   4.875   1.882
 6924SOL    HW221672   2.749   4.788   1.850
 6925SOL     OW21673   6.650   6.305   4.400
 6925SOL    HW121674   6.569   6.285   4.455
 6925SOL    HW221675   6.636   6.389   4.349
 6926SOL     OW21676   2.728   2.520   0.477
 6926SOL    HW121677   2.708   2.427   0.448
 6926SOL    HW221678   2.806   2.519   0.539
 6927SOL     OW21679   3.296   6.862   6.381
 6927SOL    HW121680   3.223   6.855   6.313
 6927SOL    HW221681   3.272   6.806   6.461
 6928SOL     OW21682   4.607   6.125   0.554
 6928SOL    HW121683   4.532   6.065   0.527
 6928SOL    HW221684   4.683   6.069   0.590
 6929SOL     OW21685   4.685   5.170   2.854
 6929SOL    HW121686   4.692   5.147   2.951
 6929SOL    HW221687   4.590   5.195   2.833
 6930SOL     OW21688   0.972   6.375   1.575
 6930SOL    HW121689   1.055   6.388   1.629
 6930SOL    HW221690   0.938   6.282   1.587
 6931SOL     OW21691   3.445   3.105   0.997
 6931SOL    HW121692   3.504   3.076   1.073
 6931SOL    HW221693   3.363   3.048   0.995
 6932SOL     OW21694   4.154   0.683   6.656
 6932SOL    HW121695   4.175   0.592   6.620
 6932SOL    HW221696   4.188   0.691   6.749
 6933SOL     OW21697   3.711   6.104   5.895
 6933SOL    HW121698   3.761   6.191   5.897
 6933SOL    HW221699   3.628   6.112   5.950
 6934SOL     OW21700   4.719   5.108   0.222
 6934SOL    HW121701   4.695   5.120   0.318
 6934SOL    HW221702   4.637   5.087   0.169
 6935SOL     OW21703   4.149   5.525   2.252
 6935SOL    HW121704   4.171   5.615   2.215
 6935SOL    HW221705   4.167   5.455   2.183
 6936SOL     OW21706   0.951   1.913   6.749
 6936SOL    HW121707   0.869   1.922   6.805
 6936SOL    HW221708   0.940   1.969   6.666
 6937SOL     OW21709   5.511   4.585   0.574
 6937SOL    HW121710   5.525   4.645   0.494
 6937SOL    HW221711   5.490   4.493   0.543
 6938SOL     OW21712   3.240   0.250   4.986
 6938SOL    HW121713   3.184   0.202   5.053
 6938SOL    HW221714   3.257   0.190   4.908
 6939SOL     OW21715   5.454   2.961   3.611
 6939SOL    HW121716   5.448   2.890   3.541
 6939SOL    HW221717   5.460   2.920   3.701
 6940SOL     OW21718   1.855   6.348   1.668
 6940SOL    HW121719   1.879   6.275   1.732
 6940SOL    HW221720   1.818   6.308   1.584
 6941SOL     OW21721   3.622   3.225   2.494
 6941SOL    HW121722   3.666   3.138   2.517
 6941SOL    HW221723   3.560   3.252   2.567
 6942SOL     OW21724   6.787   4.773   2.903
 6942SOL    HW121725   6.773   4.700   2.970
 6942SOL    HW221726   6.847   4.843   2.941
 6943SOL     OW21727   3.142   5.385   5.390
 6943SOL    HW121728   3.120   5.340   5.476
 6943SOL    HW221729   3.240   5.403   5.386
 6944SOL     OW21730   0.863   4.943   5.258
 6944SOL    HW121731   0.815   4.855   5.253
 6944SOL    HW221732   0.917   4.946   5.342
 6945SOL     OW21733   4.283   1.389   0.486
 6945SOL    HW121734   4.205   1.445   0.458
 6945SOL    HW221735   4.366   1.425   0.442
 6946SOL     OW21736   5.218   5.903   2.810
 6946SOL    HW121737   5.261   5.929   2.723
 6946SOL    HW221738   5.244   5.969   2.880
 6947SOL     OW21739   6.106   4.096   5.163
 6947SOL    HW121740   6.144   4.105   5.255
 6947SOL    HW221741   6.155   4.157   5.100
 6948SOL     OW21742   0.171   4.896   6.613
 6948SOL    HW121743   0.242   4.858   6.671
 6948SOL    HW221744   0.121   4.967   6.662
 6949SOL     OW21745   2.275   1.275   3.098
 6949SOL    HW121746   2.361   1.226   3.111
 6949SOL    HW221747   2.294   1.370   3.072
 6950SOL     OW21748   2.050   1.266   4.150
 6950SOL    HW121749   2.035   1.285   4.053
 6950SOL    HW221750   2.071   1.169   4.161
 6951SOL     OW21751   1.378   3.882   0.076
 6951SOL    HW121752   1.387   3.972   0.120
 6951SOL    HW221753   1.418   3.812   0.135
 6952SOL     OW21754   4.523   5.070   3.421
 6952SOL    HW121755   4.484   5.123   3.497
 6952SOL    HW221756   4.616   5.042   3.444
 6953SOL     OW21757   0.342   0.826   1.773
 6953SOL    HW121758   0.363   0.887   1.696
 6953SOL    HW221759   0.296   0.879   1.845
 6954SOL     OW21760   6.508   5.071   6.076
 6954SOL    HW121761   6.486   5.047   5.981
 6954SOL    HW221762   6.486   4.995   6.136
 6955SOL     OW21763   4.268   5.832   2.546
 6955SOL    HW121764   4.361   5.802   2.524
 6955SOL    HW221765   4.219   5.852   2.461
 6956SOL     OW21766   5.886   5.183   1.824
 6956SOL    HW121767   5.816   5.173   1.753
 6956SOL    HW221768   5.907   5.093   1.862
 6957SOL     OW21769   5.898   4.302   5.105
 6957SOL    HW121770   5.976   4.364   5.112
 6957SOL    HW221771   5.923   4.212   5.141
 6958SOL     OW21772   3.244   3.693   1.840
 6958SOL    HW121773   3.168   3.755   1.858
 6958SOL    HW221774   3.287   3.666   1.926
 6959SOL     OW21775   1.208   3.764   2.419
 6959SOL    HW121776   1.113   3.767   2.388
 6959SOL    HW221777   1.210   3.753   2.518
 6960SOL     OW21778   5.322   4.762   1.396
 6960SOL    HW121779   5.281   4.791   1.310
 6960SOL    HW221780   5.291   4.670   1.419
 6961SOL     OW21781   5.291   2.064   4.858
 6961SOL    HW121782   5.311   2.101   4.767
 6961SOL    HW221783   5.233   2.129   4.908
 6962SOL     OW21784   2.388   6.131   0.675
 6962SOL    HW121785   2.353   6.222   0.653
 6962SOL    HW221786   2.449   6.137   0.754
 6963SOL     OW21787   0.747   6.615   6.847
 6963SOL    HW121788   0.785   6.527   6.820
 6963SOL    HW221789   0.817   6.685   6.841
 6964SOL     OW21790   2.226   1.336   4.973
 6964SOL    HW121791   2.257   1.269   5.041
 6964SOL    HW221792   2.265   1.312   4.884
 6965SOL     OW21793   1.654   1.416   7.004
 6965SOL    HW121794   1.720   1.476   0.030
 6965SOL    HW221795   1.661   1.430   6.905
 6966SOL     OW21796   1.564   6.553   0.989
 6966SOL    HW121797   1.656   6.585   1.012
 6966SOL    HW221798   1.510   6.629   0.954
 6967SOL     OW21799   3.839   0.062   6.531
 6967SOL    HW121800   3.748   0.103   6.522
 6967SOL    HW221801   3.831   6.983   6.529
 6968SOL     OW21802   3.788   0.393   2.105
 6968SOL    HW121803   3.858   0.321   2.104
 6968SOL    HW221804   3.798   0.450   2.024
 6969SOL     OW21805   1.492   3.512   2.747
 6969SOL    HW121806   1.521   3.416   2.755
 6969SOL    HW221807   1.572   3.571   2.754
 6970SOL     OW21808   3.666   5.740   5.638
 6970SOL    HW121809   3.704   5.773   5.725
 6970SOL    HW221810   3.730   5.759   5.564
 6971SOL     OW21811   6.970   3.976   6.968
 6971SOL    HW121812   0.023   3.953   6.904
 6971SOL    HW221813   6.901   3.904   6.966
 6972SOL     OW21814   5.641   3.959   1.848
 6972SOL    HW121815   5.711   3.947   1.918
 6972SOL    HW221816   5.552   3.934   1.885
 6973SOL     OW21817   1.266   1.625   3.291
 6973SOL    HW121818   1.343   1.675   3.251
 6973SOL    HW221819   1.181   1.657   3.250
 6974SOL     OW21820   4.126   3.556   2.885
 6974SOL    HW121821   4.145   3.549   2.787
 6974SOL    HW221822   4.102   3.466   2.921
 6975SOL     OW21823   3.011   5.327   4.900
 6975SOL    HW121824   2.982   5.335   4.996
 6975SOL    HW221825   2.983   5.409   4.850
 6976SOL     OW21826   4.663   5.075   6.131
 6976SOL    HW121827   4.621   5.125   6.207
 6976SOL    HW221828   4.763   5.085   6.137
 6977SOL     OW21829   4.106   4.743   2.222
 6977SOL    HW121830   4.168   4.717   2.147
 6977SOL    HW221831   4.049   4.820   2.193
 6978SOL     OW21832   1.353   3.613   1.099
 6978SOL    HW121833   1.289   3.573   1.033
 6978SOL    HW221834   1.354   3.712   1.088
 6979SOL     OW21835   1.050   3.853   2.961
 6979SOL    HW121836   0.968   3.889   2.919
 6979SOL    HW221837   1.119   3.925   2.968
 6980SOL     OW21838   2.216   4.564   3.224
 6980SOL    HW121839   2.238   4.581   3.128
 6980SOL    HW221840   2.300   4.557   3.277
 6981SOL     OW21841   4.051   2.136   6.929
 6981SOL    HW121842   4.132   2.186   6.959
 6981SOL    HW221843   4.028   2.163   6.836
 6982SOL     OW21844   6.620   0.098   1.897
 6982SOL    HW121845   6.637   0.194   1.918
 6982SOL    HW221846   6.650   0.078   1.804
 6983SOL     OW21847   0.229   0.521   4.017
 6983SOL    HW121848   0.328   0.529   4.031
 6983SOL    HW221849   0.185   0.609   4.036
 6984SOL     OW21850   1.824   4.411   3.492
 6984SOL    HW121851   1.888   4.427   3.417
 6984SOL    HW221852   1.788   4.318   3.485
 6985SOL     OW21853   5.216   3.375   1.013
 6985SOL    HW121854   5.249   3.416   0.928
 6985SOL    HW221855   5.245   3.279   1.017
 6986SOL     OW21856   3.516   5.877   5.183
 6986SOL    HW121857   3.586   5.810   5.160
 6986SOL    HW221858   3.560   5.963   5.211
 6987SOL     OW21859   6.817   1.197   6.736
 6987SOL    HW121860   6.738   1.212   6.795
 6987SOL    HW221861   6.799   1.233   6.645
 6988SOL     OW21862   1.931   0.435   6.069
 6988SOL    HW121863   1.995   0.464   5.999
 6988SOL    HW221864   1.967   0.354   6.116
 6989SOL     OW21865   0.793   3.459   2.219
 6989SOL    HW121866   0.767   3.479   2.124
 6989SOL    HW221867   0.768   3.365   2.241
 6990SOL     OW21868   3.803   4.403   6.723
 6990SOL    HW121869   3.855   4.478   6.682
 6990SOL    HW221870   3.803   4.413   6.823
 6991SOL     OW21871   5.130   4.235   3.407
 6991SOL    HW121872   5.155   4.160   3.468
 6991SOL    HW221873   5.100   4.199   3.319
 6992SOL     OW21874   1.824   5.399   5.919
 6992SOL    HW121875   1.768   5.481   5.929
 6992SOL    HW221876   1.917   5.418   5.950
 6993SOL     OW21877   4.370   2.297   1.644
 6993SOL    HW121878   4.346   2.363   1.715
 6993SOL    HW221879   4.323   2.320   1.559
 6994SOL     OW21880   2.770   1.138   2.752
 6994SOL    HW121881   2.687   1.087   2.777
 6994SOL    HW221882   2.754   1.236   2.766
 6995SOL     OW21883   6.791   4.732   0.863
 6995SOL    HW121884   6.730   4.707   0.788
 6995SOL    HW221885   6.832   4.650   0.902
 6996SOL     OW21886   0.729   1.774   6.456
 6996SOL    HW121887   0.721   1.730   6.366
 6996SOL    HW221888   0.785   1.718   6.516
 6997SOL     OW21889   5.768   5.996   5.957
 6997SOL    HW121890   5.756   6.001   6.056
 6997SOL    HW221891   5.851   6.046   5.931
 6998SOL     OW21892   0.296   0.991   0.009
 6998SOL    HW121893   0.282   1.042   6.944
 6998SOL    HW221894   0.361   0.917   7.014
 6999SOL     OW21895   0.440   2.790   0.154
 6999SOL    HW121896   0.368   2.788   0.223
 6999SOL    HW221897   0.400   2.774   0.063
 7000SOL     OW21898   0.535   4.884   3.490
 7000SOL    HW121899   0.465   4.912   3.424
 7000SOL    HW221900   0.512   4.920   3.581
 7001SOL     OW21901   0.896   1.459   4.399
 7001SOL    HW121902   0.833   1.496   4.330
 7001SOL    HW221903   0.892   1.359   4.398
 7002SOL     OW21904   1.274   4.421   2.589
 7002SOL    HW121905   1.256   4.504   2.537
 7002SOL    HW221906   1.208   4.350   2.562
 7003SOL     OW21907   0.525   5.294   6.298
 7003SOL    HW121908   0.558   5.262   6.210
 7003SOL    HW221909   0.601   5.329   6.352
 7004SOL     OW21910   1.136   0.893   6.503
 7004SOL    HW121911   1.164   0.935   6.590
 7004SOL    HW221912   1.076   0.815   6.521
 7005SOL     OW21913   1.945   5.259   0.076
 7005SOL    HW121914   1.988   5.173   0.051
 7005SOL    HW221915   2.015   5.330   0.087
 7006SOL     OW21916   0.657   0.452   3.694
 7006SOL    HW121917   0.724   0.513   3.736
 7006SOL    HW221918   0.630   0.488   3.605
 7007SOL     OW21919   2.081   0.082   6.662
 7007SOL    HW121920   2.028   7.018   6.666
 7007SOL    HW221921   2.019   0.160   6.656
 7008SOL     OW21922   5.196   3.254   2.472
 7008SOL    HW121923   5.230   3.348   2.473
 7008SOL    HW221924   5.273   3.191   2.477
 7009SOL     OW21925   5.488   5.955   2.590
 7009SOL    HW121926   5.513   5.875   2.535
 7009SOL    HW221927   5.482   6.035   2.530
 7010SOL     OW21928   5.333   3.476   2.511
 7010SOL    HW121929   5.320   3.572   2.533
 7010SOL    HW221930   5.431   3.455   2.510
 7011SOL     OW21931   2.005   6.165   6.432
 7011SOL    HW121932   1.930   6.217   6.474
 7011SOL    HW221933   2.037   6.213   6.351
 7012SOL     OW21934   0.018   4.181   0.538
 7012SOL    HW121935   0.085   4.253   0.524
 7012SOL    HW221936   6.959   4.197   0.479
 7013SOL     OW21937   2.898   2.602   0.258
 7013SOL    HW121938   2.823   2.564   0.312
 7013SOL    HW221939   2.904   2.553   0.171
 7014SOL     OW21940   6.694   3.539   0.619
 7014SOL    HW121941   6.697   3.454   0.671
 7014SOL    HW221942   6.609   3.543   0.567
 7015SOL     OW21943   5.917   6.262   1.479
 7015SOL    HW121944   5.968   6.306   1.553
 7015SOL    HW221945   5.903   6.328   1.405
 7016SOL     OW21946   3.659   5.328   0.990
 7016SOL    HW121947   3.640   5.306   0.894
 7016SOL    HW221948   3.574   5.327   1.041
 7017SOL     OW21949   6.487   4.659   6.548
 7017SOL    HW121950   6.494   4.578   6.606
 7017SOL    HW221951   6.548   4.649   6.469
 7018SOL     OW21952   5.865   3.007   4.732
 7018SOL    HW121953   5.773   2.966   4.730
 7018SOL    HW221954   5.882   3.047   4.822
 7019SOL     OW21955   3.414   5.670   2.282
 7019SOL    HW121956   3.376   5.578   2.272
 7019SOL    HW221957   3.364   5.733   2.223
 7020SOL     OW21958   0.082   1.312   0.769
 7020SOL    HW121959   0.151   1.276   0.831
 7020SOL    HW221960   0.125   1.365   0.696
 7021SOL     OW21961   0.705   2.389   4.843
 7021SOL    HW121962   0.761   2.310   4.819
 7021SOL    HW221963   0.731   2.423   4.933
 7022SOL     OW21964   2.055   3.892   0.876
 7022SOL    HW121965   2.120   3.968   0.869
 7022SOL    HW221966   2.019   3.888   0.969
 7023SOL     OW21967   0.098   1.830   1.263
 7023SOL    HW121968   0.121   1.737   1.235
 7023SOL    HW221969   0.062   1.881   1.185
 7024SOL     OW21970   3.614   4.021   5.582
 7024SOL    HW121971   3.565   4.108   5.591
 7024SOL    HW221972   3.712   4.037   5.579
 7025SOL     OW21973   2.655   0.809   1.072
 7025SOL    HW121974   2.731   0.872   1.089
 7025SOL    HW221975   2.580   0.830   1.135
 7026SOL     OW21976   2.744   2.212   1.044
 7026SOL    HW121977   2.663   2.179   1.093
 7026SOL    HW221978   2.779   2.139   0.985
 7027SOL     OW21979   2.835   4.432   1.060
 7027SOL    HW121980   2.837   4.479   1.149
 7027SOL    HW221981   2.746   4.387   1.049
 7028SOL     OW21982   3.276   0.146   3.005
 7028SOL    HW121983   3.298   0.237   2.972
 7028SOL    HW221984   3.275   0.146   3.105
 7029SOL     OW21985   3.242   4.067   3.675
 7029SOL    HW121986   3.152   4.091   3.638
 7029SOL    HW221987   3.233   3.989   3.737
 7030SOL     OW21988   6.179   6.477   4.902
 7030SOL    HW121989   6.275   6.497   4.924
 7030SOL    HW221990   6.145   6.407   4.964
 7031SOL     OW21991   5.860   5.427   0.513
 7031SOL    HW121992   5.855   5.427   0.413
 7031SOL    HW221993   5.874   5.521   0.546
 7032SOL     OW21994   3.947   4.855   4.263
 7032SOL    HW121995   4.017   4.786   4.282
 7032SOL    HW221996   3.903   4.882   4.348
 7033SOL     OW21997   2.196   1.981   5.462
 7033SOL    HW121998   2.143   1.974   5.547
 7033SOL    HW221999   2.293   1.971   5.483
 7034SOL     OW22000   6.635   2.266   2.316
 7034SOL    HW122001   6.577   2.342   2.287
 7034SOL    HW222002   6.640   2.264   2.416
 7035SOL     OW22003   2.790   2.508   1.005
 7035SOL    HW122004   2.871   2.543   1.052
 7035SOL    HW222005   2.783   2.410   1.019
 7036SOL     OW22006   6.675   1.795   1.851
 7036SOL    HW122007   6.755   1.845   1.883
 7036SOL    HW222008   6.668   1.708   1.900
 7037SOL     OW22009   1.324   0.898   6.068
 7037SOL    HW122010   1.313   0.864   6.161
 7037SOL    HW222011   1.247   0.867   6.013
 7038SOL     OW22012   0.591   4.687   0.246
 7038SOL    HW122013   0.536   4.649   0.171
 7038SOL    HW222014   0.549   4.665   0.334
 7039SOL     OW22015   6.941   7.004   1.508
 7039SOL    HW122016   6.954   0.068   1.456
 7039SOL    HW222017   6.847   7.002   1.544
 7040SOL     OW22018   5.293   2.987   4.584
 7040SOL    HW122019   5.210   2.932   4.583
 7040SOL    HW222020   5.324   2.999   4.678
 7041SOL     OW22021   1.083   6.996   3.653
 7041SOL    HW122022   1.044   0.065   3.675
 7041SOL    HW222023   1.129   7.000   3.564
 7042SOL     OW22024   5.429   5.991   5.232
 7042SOL    HW122025   5.496   5.955   5.297
 7042SOL    HW222026   5.425   5.931   5.152
 7043SOL     OW22027   1.997   5.851   0.481
 7043SOL    HW122028   2.062   5.870   0.407
 7043SOL    HW222029   2.042   5.795   0.551
 7044SOL     OW22030   4.149   6.057   4.946
 7044SOL    HW122031   4.124   5.991   5.016
 7044SOL    HW222032   4.182   6.141   4.989
 7045SOL     OW22033   5.511   6.390   1.939
 7045SOL    HW122034   5.521   6.347   2.028
 7045SOL    HW222035   5.466   6.479   1.949
 7046SOL     OW22036   2.978   1.016   2.603
 7046SOL    HW122037   2.966   0.993   2.506
 7046SOL    HW222038   2.895   1.060   2.636
 7047SOL     OW22039   1.666   7.019   0.905
 7047SOL    HW122040   1.576   0.041   0.915
 7047SOL    HW222041   1.664   6.926   0.941
 7048SOL     OW22042   0.469   5.720   4.188
 7048SOL    HW122043   0.485   5.656   4.112
 7048SOL    HW222044   0.523   5.802   4.174
 7049SOL     OW22045   3.162   1.458   4.645
 7049SOL    HW122046   3.117   1.463   4.556
 7049SOL    HW222047   3.179   1.551   4.678
 7050SOL     OW22048   4.132   4.492   0.880
 7050SOL    HW122049   4.059   4.560   0.880
 7050SOL    HW222050   4.093   4.400   0.878
 7051SOL     OW22051   1.776   1.211   2.004
 7051SOL    HW122052   1.801   1.269   2.082
 7051SOL    HW222053   1.720   1.264   1.941
 7052SOL     OW22054   5.121   2.454   2.774
 7052SOL    HW122055   5.149   2.472   2.680
 7052SOL    HW222056   5.063   2.529   2.806
 7053SOL     OW22057   1.086   4.470   3.642
 7053SOL    HW122058   1.124   4.524   3.718
 7053SOL    HW222059   1.076   4.375   3.671
 7054SOL     OW22060   5.344   0.511   0.381
 7054SOL    HW122061   5.321   0.415   0.370
 7054SOL    HW222062   5.281   0.554   0.446
 7055SOL     OW22063   1.901   0.316   0.022
 7055SOL    HW122064   1.870   0.292   6.950
 7055SOL    HW222065   1.822   0.326   0.082
 7056SOL     OW22066   6.720   5.499   0.896
 7056SOL    HW122067   6.650   5.571   0.904
 7056SOL    HW222068   6.796   5.533   0.841
 7057SOL     OW22069   3.000   5.569   4.766
 7057SOL    HW122070   3.073   5.617   4.815
 7057SOL    HW222071   2.912   5.586   4.810
 7058SOL     OW22072   5.833   2.331   6.169
 7058SOL    HW122073   5.867   2.422   6.146
 7058SOL    HW222074   5.747   2.315   6.120
 7059SOL     OW22075   1.366   0.891   4.753
 7059SOL    HW122076   1.384   0.876   4.656
 7059SOL    HW222077   1.417   0.971   4.785
 7060SOL     OW22078   3.223   2.287   1.756
 7060SOL    HW122079   3.260   2.376   1.725
 7060SOL    HW222080   3.127   2.299   1.782
 7061SOL     OW22081   1.897   0.697   1.062
 7061SOL    HW122082   1.944   0.661   1.142
 7061SOL    HW222083   1.957   0.692   0.982
 7062SOL     OW22084   3.610   0.864   5.067
 7062SOL    HW122085   3.612   0.860   5.167
 7062SOL    HW222086   3.575   0.953   5.038
 7063SOL     OW22087   0.379   1.167   1.578
 7063SOL    HW122088   0.348   1.154   1.484
 7063SOL    HW222089   0.304   1.204   1.633
 7064SOL     OW22090   3.016   1.446   5.413
 7064SOL    HW122091   2.942   1.380   5.425
 7064SOL    HW222092   2.977   1.537   5.402
 7065SOL     OW22093   3.364   6.893   4.244
 7065SOL    HW122094   3.277   6.873   4.290
 7065SOL    HW222095   3.435   6.833   4.281
 7066SOL     OW22096   3.898   0.675   0.995
 7066SOL    HW122097   3.889   0.641   1.089
 7066SOL    HW222098   3.969   0.624   0.947
 7067SOL     OW22099   2.539   4.163   6.588
 7067SOL    HW122100   2.506   4.075   6.555
 7067SOL    HW222101   2.561   4.222   6.510
 7068SOL     OW22102   4.766   4.722   2.697
 7068SOL    HW122103   4.798   4.716   2.791
 7068SOL    HW222104   4.756   4.818   2.671
 7069SOL     OW22105   4.256   0.974   4.883
 7069SOL    HW122106   4.162   0.948   4.861
 7069SOL    HW222107   4.314   0.893   4.885
 7070SOL     OW22108   6.875   1.119   5.852
 7070SOL    HW122109   6.943   1.046   5.839
 7070SOL    HW222110   6.920   1.208   5.845
 7071SOL     OW22111   4.558   5.521   6.555
 7071SOL    HW122112   4.469   5.475   6.563
 7071SOL    HW222113   4.544   5.612   6.516
 7072SOL     OW22114   1.134   3.744   6.462
 7072SOL    HW122115   1.159   3.647   6.470
 7072SOL    HW222116   1.037   3.755   6.483
 7073SOL     OW22117   4.067   1.189   4.122
 7073SOL    HW122118   4.023   1.257   4.064
 7073SOL    HW222119   3.998   1.130   4.164
 7074SOL     OW22120   5.997   3.445   2.187
 7074SOL    HW122121   5.983   3.348   2.204
 7074SOL    HW222122   5.911   3.494   2.201
 7075SOL     OW22123   2.086   5.154   2.561
 7075SOL    HW122124   2.099   5.056   2.552
 7075SOL    HW222125   2.083   5.197   2.470
 7076SOL     OW22126   6.298   2.679   0.943
 7076SOL    HW122127   6.220   2.736   0.917
 7076SOL    HW222128   6.308   2.680   1.043
 7077SOL     OW22129   3.815   5.749   1.608
 7077SOL    HW122130   3.749   5.738   1.535
 7077SOL    HW222131   3.787   5.824   1.668
 7078SOL     OW22132   0.049   2.088   6.824
 7078SOL    HW122133   0.130   2.037   6.793
 7078SOL    HW222134   0.043   2.174   6.773
 7079SOL     OW22135   2.557   5.544   5.491
 7079SOL    HW122136   2.653   5.524   5.513
 7079SOL    HW222137   2.506   5.458   5.481
 7080SOL     OW22138   3.925   1.702   5.972
 7080SOL    HW122139   4.017   1.663   5.966
 7080SOL    HW222140   3.931   1.801   5.979
 7081SOL     OW22141   2.593   6.104   0.146
 7081SOL    HW122142   2.686   6.132   0.122
 7081SOL    HW222143   2.546   6.178   0.193
 7082SOL     OW22144   1.370   4.884   2.256
 7082SOL    HW122145   1.424   4.816   2.305
 7082SOL    HW222146   1.282   4.844   2.229
 7083SOL     OW22147   5.517   3.181   2.658
 7083SOL    HW122148   5.538   3.278   2.658
 7083SOL    HW222149   5.593   3.130   2.698
 7084SOL     OW22150   1.307   5.556   0.146
 7084SOL    HW122151   1.216   5.554   0.104
 7084SOL    HW222152   1.352   5.643   0.126
 7085SOL     OW22153   0.023   3.774   2.207
 7085SOL    HW122154   6.992   3.759   2.291
 7085SOL    HW222155   6.996   3.843   2.151
 7086SOL     OW22156   4.296   0.979   3.744
 7086SOL    HW122157   4.337   0.958   3.832
 7086SOL    HW222158   4.357   0.949   3.670
 7087SOL     OW22159   5.404   2.784   3.406
 7087SOL    HW122160   5.388   2.688   3.384
 7087SOL    HW222161   5.366   2.842   3.334
 7088SOL     OW22162   5.892   2.197   5.527
 7088SOL    HW122163   5.871   2.110   5.483
 7088SOL    HW222164   5.980   2.190   5.573
 7089SOL     OW22165   2.780   5.962   1.281
 7089SOL    HW122166   2.825   6.034   1.334
 7089SOL    HW222167   2.794   5.979   1.183
 7090SOL     OW22168   5.025   3.883   1.393
 7090SOL    HW122169   5.060   3.975   1.410
 7090SOL    HW222170   4.981   3.848   1.476
 7091SOL     OW22171   5.926   0.422   0.010
 7091SOL    HW122172   5.832   0.456   0.000
 7091SOL    HW222173   5.959   0.442   0.102
 7092SOL     OW22174   4.310   6.842   6.099
 7092SOL    HW122175   4.261   6.865   6.184
 7092SOL    HW222176   4.378   6.913   6.080
 7093SOL     OW22177   4.207   2.917   0.458
 7093SOL    HW122178   4.116   2.919   0.498
 7093SOL    HW222179   4.202   2.942   0.362
 7094SOL     OW22180   4.376   0.719   4.889
 7094SOL    HW122181   4.464   0.768   4.891
 7094SOL    HW222182   4.378   0.649   4.817
 7095SOL     OW22183   2.184   4.640   3.855
 7095SOL    HW122184   2.232   4.637   3.767
 7095SOL    HW222185   2.117   4.714   3.853
 7096SOL     OW22186   6.836   5.706   0.238
 7096SOL    HW122187   6.890   5.758   0.172
 7096SOL    HW222188   6.877   5.714   0.329
 7097SOL     OW22189   5.012   1.961   2.631
 7097SOL    HW122190   4.932   1.904   2.649
 7097SOL    HW222191   5.026   2.025   2.706
 7098SOL     OW22192   0.733   1.476   2.771
 7098SOL    HW122193   0.670   1.495   2.846
 7098SOL    HW222194   0.745   1.377   2.763
 7099SOL     OW22195   3.466   1.986   4.658
 7099SOL    HW122196   3.433   2.031   4.741
 7099SOL    HW222197   3.414   1.902   4.642
 7100SOL     OW22198   0.386   4.231   1.631
 7100SOL    HW122199   0.406   4.314   1.578
 7100SOL    HW222200   0.314   4.179   1.587
 7101SOL     OW22201   3.094   5.648   4.275
 7101SOL    HW122202   3.184   5.605   4.267
 7101SOL    HW222203   3.054   5.625   4.363
 7102SOL     OW22204   5.647   1.362   2.657
 7102SOL    HW122205   5.587   1.393   2.583
 7102SOL    HW222206   5.638   1.425   2.735
 7103SOL     OW22207   6.494   3.604   4.371
 7103SOL    HW122208   6.541   3.648   4.447
 7103SOL    HW222209   6.433   3.533   4.407
 7104SOL     OW22210   4.637   2.487   4.005
 7104SOL    HW122211   4.678   2.466   3.917
 7104SOL    HW222212   4.542   2.454   4.007
 7105SOL     OW22213   3.074   3.918   2.204
 7105SOL    HW122214   3.155   3.892   2.151
 7105SOL    HW222215   3.102   3.955   2.292
 7106SOL     OW22216   2.740   2.034   2.483
 7106SOL    HW122217   2.768   2.060   2.390
 7106SOL    HW222218   2.640   2.031   2.488
 7107SOL     OW22219   4.416   0.662   0.528
 7107SOL    HW122220   4.412   0.581   0.586
 7107SOL    HW222221   4.339   0.663   0.465
 7108SOL     OW22222   3.094   6.822   1.569
 7108SOL    HW122223   3.003   6.810   1.607
 7108SOL    HW222224   3.110   6.756   1.496
 7109SOL     OW22225   2.380   4.947   5.855
 7109SOL    HW122226   2.373   4.893   5.939
 7109SOL    HW222227   2.457   4.915   5.801
 7110SOL     OW22228   2.776   5.641   5.675
 7110SOL    HW122229   2.795   5.624   5.772
 7110SOL    HW222230   2.709   5.715   5.667
 7111SOL     OW22231   6.444   1.312   4.925
 7111SOL    HW122232   6.495   1.236   4.965
 7111SOL    HW222233   6.355   1.321   4.970
 7112SOL     OW22234   6.290   5.100   4.881
 7112SOL    HW122235   6.227   5.167   4.919
 7112SOL    HW222236   6.340   5.142   4.804
 7113SOL     OW22237   3.279   0.051   4.815
 7113SOL    HW122238   3.198   0.057   4.757
 7113SOL    HW222239   3.359   0.029   4.759
 7114SOL     OW22240   5.669   4.302   0.118
 7114SOL    HW122241   5.618   4.256   0.190
 7114SOL    HW222242   5.711   4.385   0.154
 7115SOL     OW22243   4.977   3.122   5.825
 7115SOL    HW122244   4.972   3.082   5.917
 7115SOL    HW222245   5.019   3.056   5.762
 7116SOL     OW22246   6.224   5.197   4.517
 7116SOL    HW122247   6.266   5.200   4.608
 7116SOL    HW222248   6.170   5.279   4.503
 7117SOL     OW22249   3.784   0.509   3.087
 7117SOL    HW122250   3.802   0.569   3.010
 7117SOL    HW222251   3.690   0.474   3.081
 7118SOL     OW22252   4.673   4.146   5.581
 7118SOL    HW122253   4.588   4.098   5.602
 7118SOL    HW222254   4.745   4.079   5.561
 7119SOL     OW22255   2.700   6.473   4.322
 7119SOL    HW122256   2.702   6.542   4.394
 7119SOL    HW222257   2.605   6.443   4.308
 7120SOL     OW22258   4.324   1.532   2.179
 7120SOL    HW122259   4.367   1.564   2.094
 7120SOL    HW222260   4.248   1.594   2.202
 7121SOL     OW22261   1.304   6.085   2.105
 7121SOL    HW122262   1.376   6.075   2.036
 7121SOL    HW222263   1.277   6.181   2.112
 7122SOL     OW22264   3.170   2.018   6.292
 7122SOL    HW122265   3.222   1.933   6.283
 7122SOL    HW222266   3.143   2.031   6.387
 7123SOL     OW22267   5.491   4.450   6.661
 7123SOL    HW122268   5.428   4.473   6.587
 7123SOL    HW222269   5.517   4.353   6.654
 7124SOL     OW22270   3.058   2.808   6.557
 7124SOL    HW122271   3.051   2.711   6.535
 7124SOL    HW222272   2.980   2.836   6.613
 7125SOL     OW22273   0.862   6.132   1.654
 7125SOL    HW122274   0.912   6.085   1.727
 7125SOL    HW222275   0.829   6.066   1.587
 7126SOL     OW22276   4.110   4.900   0.915
 7126SOL    HW122277   4.073   4.945   0.834
 7126SOL    HW222278   4.049   4.826   0.943
 7127SOL     OW22279   3.085   6.870   5.038
 7127SOL    HW122280   3.027   6.949   5.018
 7127SOL    HW222281   3.097   6.862   5.137
 7128SOL     OW22282   3.631   4.212   0.300
 7128SOL    HW122283   3.601   4.227   0.206
 7128SOL    HW222284   3.670   4.120   0.308
 7129SOL     OW22285   6.893   2.076   0.080
 7129SOL    HW122286   6.903   2.124   7.013
 7129SOL    HW222287   6.896   1.977   0.065
 7130SOL     OW22288   3.758   0.327   3.956
 7130SOL    HW122289   3.667   0.332   3.913
 7130SOL    HW222290   3.777   0.413   4.004
 7131SOL     OW22291   2.088   1.969   3.209
 7131SOL    HW122292   2.003   2.007   3.171
 7131SOL    HW222293   2.066   1.908   3.285
 7132SOL     OW22294   5.552   4.864   1.873
 7132SOL    HW122295   5.625   4.809   1.915
 7132SOL    HW222296   5.486   4.803   1.830
 7133SOL     OW22297   3.065   5.841   2.382
 7133SOL    HW122298   3.053   5.815   2.286
 7133SOL    HW222299   3.141   5.906   2.389
 7134SOL     OW22300   5.282   5.043   6.793
 7134SOL    HW122301   5.325   5.005   6.875
 7134SOL    HW222302   5.193   5.000   6.778
 7135SOL     OW22303   2.313   4.713   1.016
 7135SOL    HW122304   2.403   4.722   1.060
 7135SOL    HW222305   2.325   4.713   0.916
 7136SOL     OW22306   1.516   2.865   2.544
 7136SOL    HW122307   1.594   2.842   2.485
 7136SOL    HW222308   1.484   2.957   2.522
 7137SOL     OW22309   1.924   0.130   2.129
 7137SOL    HW122310   2.009   0.107   2.176
 7137SOL    HW222311   1.866   0.049   2.122
 7138SOL     OW22312   6.723   3.962   0.494
 7138SOL    HW122313   6.796   3.912   0.539
 7138SOL    HW222314   6.735   3.957   0.394
 7139SOL     OW22315   5.775   6.099   1.015
 7139SOL    HW122316   5.873   6.095   0.995
 7139SOL    HW222317   5.723   6.079   0.933
 7140SOL     OW22318   0.031   4.518   0.681
 7140SOL    HW122319   0.030   4.563   0.591
 7140SOL    HW222320   6.975   4.455   0.687
 7141SOL     OW22321   3.056   1.729   0.779
 7141SOL    HW122322   3.000   1.737   0.696
 7141SOL    HW222323   3.083   1.634   0.792
 7142SOL     OW22324   4.655   6.535   5.663
 7142SOL    HW122325   4.745   6.494   5.649
 7142SOL    HW222326   4.625   6.580   5.579
 7143SOL     OW22327   3.421   3.050   5.714
 7143SOL    HW122328   3.464   3.138   5.732
 7143SOL    HW222329   3.450   3.017   5.624
 7144SOL     OW22330   6.451   1.537   5.753
 7144SOL    HW122331   6.386   1.480   5.703
 7144SOL    HW222332   6.543   1.521   5.719
 7145SOL     OW22333   0.513   3.384   6.878
 7145SOL    HW122334   0.432   3.389   6.937
 7145SOL    HW222335   0.557   3.295   6.888
 7146SOL     OW22336   0.157   1.749   4.568
 7146SOL    HW122337   0.169   1.772   4.665
 7146SOL    HW222338   0.144   1.833   4.516
 7147SOL     OW22339   6.761   6.941   0.433
 7147SOL    HW122340   6.803   6.867   0.486
 7147SOL    HW222341   6.791   0.009   0.470
 7148SOL     OW22342   5.446   6.675   0.914
 7148SOL    HW122343   5.376   6.708   0.850
 7148SOL    HW222344   5.525   6.642   0.863
 7149SOL     OW22345   6.499   3.907   6.694
 7149SOL    HW122346   6.403   3.899   6.666
 7149SOL    HW222347   6.505   3.966   6.775
 7150SOL     OW22348   3.029   2.098   0.294
 7150SOL    HW122349   2.947   2.127   0.344
 7150SOL    HW222350   3.003   2.068   0.202
 7151SOL     OW22351   5.447   2.205   0.024
 7151SOL    HW122352   5.375   2.274   0.024
 7151SOL    HW222353   5.517   2.231   6.979
 7152SOL     OW22354   5.399   0.197   5.100
 7152SOL    HW122355   5.472   0.262   5.080
 7152SOL    HW222356   5.315   0.247   5.121
 7153SOL     OW22357   5.387   5.908   0.541
 7153SOL    HW122358   5.467   5.848   0.553
 7153SOL    HW222359   5.324   5.866   0.475
 7154SOL     OW22360   5.017   0.409   1.858
 7154SOL    HW122361   5.048   0.349   1.931
 7154SOL    HW222362   5.063   0.384   1.773
 7155SOL     OW22363   1.760   0.295   1.203
 7155SOL    HW122364   1.844   0.312   1.255
 7155SOL    HW222365   1.783   0.269   1.109
 7156SOL     OW22366   6.189   3.111   5.374
 7156SOL    HW122367   6.169   3.111   5.472
 7156SOL    HW222368   6.211   3.018   5.345
 7157SOL     OW22369   0.074   3.486   5.453
 7157SOL    HW122370   0.006   3.492   5.379
 7157SOL    HW222371   0.105   3.578   5.477
 7158SOL     OW22372   4.839   0.162   4.249
 7158SOL    HW122373   4.762   0.198   4.196
 7158SOL    HW222374   4.915   0.140   4.187
 7159SOL     OW22375   0.301   6.606   3.066
 7159SOL    HW122376   0.283   6.604   2.968
 7159SOL    HW222377   0.393   6.573   3.084
 7160SOL     OW22378   5.423   6.678   2.952
 7160SOL    HW122379   5.335   6.659   2.996
 7160SOL    HW222380   5.407   6.728   2.867
 7161SOL     OW22381   3.767   3.189   2.103
 7161SOL    HW122382   3.704   3.267   2.096
 7161SOL    HW222383   3.753   3.129   2.025
 7162SOL     OW22384   0.996   5.974   0.746
 7162SOL    HW122385   0.991   6.057   0.800
 7162SOL    HW222386   0.920   5.972   0.680
 7163SOL     OW22387   6.867   6.370   0.244
 7163SOL    HW122388   6.805   6.392   0.319
 7163SOL    HW222389   6.959   6.353   0.280
 7164SOL     OW22390   1.396   6.448   6.988
 7164SOL    HW122391   1.423   6.542   6.968
 7164SOL    HW222392   1.308   6.429   6.945
 7165SOL     OW22393   4.022   2.326   6.277
 7165SOL    HW122394   3.990   2.409   6.322
 7165SOL    HW222395   3.949   2.257   6.278
 7166SOL     OW22396   6.708   6.469   4.914
 7166SOL    HW122397   6.736   6.374   4.907
 7166SOL    HW222398   6.745   6.521   4.838
 7167SOL     OW22399   0.702   3.199   5.380
 7167SOL    HW122400   0.619   3.210   5.326
 7167SOL    HW222401   0.776   3.252   5.338
 7168SOL     OW22402   1.070   0.146   2.613
 7168SOL    HW122403   1.029   0.074   2.556
 7168SOL    HW222404   1.158   0.116   2.648
 7169SOL     OW22405   1.521   5.017   5.888
 7169SOL    HW122406   1.556   5.044   5.978
 7169SOL    HW222407   1.589   5.040   5.818
 7170SOL     OW22408   4.237   2.042   1.689
 7170SOL    HW122409   4.312   2.092   1.646
 7170SOL    HW222410   4.188   2.103   1.752
 7171SOL     OW22411   0.699   5.240   1.670
 7171SOL    HW122412   0.736   5.198   1.587
 7171SOL    HW222413   0.604   5.265   1.655
 7172SOL     OW22414   1.359   2.810   3.563
 7172SOL    HW122415   1.393   2.794   3.656
 7172SOL    HW222416   1.267   2.848   3.566
 7173SOL     OW22417   3.374   5.533   4.548
 7173SOL    HW122418   3.330   5.470   4.612
 7173SOL    HW222419   3.335   5.625   4.561
 7174SOL     OW22420   6.714   3.739   2.326
 7174SOL    HW122421   6.651   3.791   2.384
 7174SOL    HW222422   6.782   3.694   2.382
 7175SOL     OW22423   6.403   3.335   6.200
 7175SOL    HW122424   6.434   3.243   6.222
 7175SOL    HW222425   6.326   3.330   6.136
 7176SOL     OW22426   6.654   1.822   6.818
 7176SOL    HW122427   6.596   1.885   6.870
 7176SOL    HW222428   6.599   1.777   6.748
 7177SOL     OW22429   0.912   5.882   3.528
 7177SOL    HW122430   0.951   5.968   3.561
 7177SOL    HW222431   0.894   5.890   3.429
 7178SOL     OW22432   1.238   6.514   5.838
 7178SOL    HW122433   1.169   6.545   5.773
 7178SOL    HW222434   1.215   6.548   5.929
 7179SOL     OW22435   4.899   4.217   5.998
 7179SOL    HW122436   4.849   4.179   6.076
 7179SOL    HW222437   4.974   4.156   5.973
 7180SOL     OW22438   0.010   2.513   2.009
 7180SOL    HW122439   0.025   2.514   1.910
 7180SOL    HW222440   0.047   2.596   2.050
 7181SOL     OW22441   3.436   0.104   0.280
 7181SOL    HW122442   3.405   0.145   0.365
 7181SOL    HW222443   3.491   0.170   0.229
 7182SOL     OW22444   2.148   1.098   2.636
 7182SOL    HW122445   2.240   1.101   2.675
 7182SOL    HW222446   2.148   1.038   2.555
 7183SOL     OW22447   1.862   0.147   0.994
 7183SOL    HW122448   1.779   0.100   0.964
 7183SOL    HW222449   1.924   0.081   1.035
 7184SOL     OW22450   0.030   1.327   3.369
 7184SOL    HW122451   7.013   1.419   3.355
 7184SOL    HW222452   6.995   1.260   3.319
 7185SOL     OW22453   3.593   0.406   3.484
 7185SOL    HW122454   3.612   0.319   3.529
 7185SOL    HW222455   3.661   0.474   3.513
 7186SOL     OW22456   6.343   2.128   6.696
 7186SOL    HW122457   6.287   2.136   6.778
 7186SOL    HW222458   6.374   2.033   6.686
 7187SOL     OW22459   3.718   3.544   4.059
 7187SOL    HW122460   3.676   3.463   4.018
 7187SOL    HW222461   3.653   3.620   4.059
 7188SOL     OW22462   5.122   4.436   6.991
 7188SOL    HW122463   5.050   4.490   6.948
 7188SOL    HW222464   5.210   4.459   6.951
 7189SOL     OW22465   6.856   2.081   5.801
 7189SOL    HW122466   6.876   2.153   5.735
 7189SOL    HW222467   6.831   1.997   5.753
 7190SOL     OW22468   5.626   6.043   0.742
 7190SOL    HW122469   5.674   6.014   0.660
 7190SOL    HW222470   5.542   5.990   0.752
 7191SOL     OW22471   0.130   4.946   2.950
 7191SOL    HW122472   0.053   4.935   3.012
 7191SOL    HW222473   0.142   4.862   2.897
 7192SOL     OW22474   3.468   3.761   5.659
 7192SOL    HW122475   3.414   3.717   5.588
 7192SOL    HW222476   3.503   3.849   5.625
 7193SOL     OW22477   3.897   1.463   3.364
 7193SOL    HW122478   3.846   1.399   3.307
 7193SOL    HW222479   3.886   1.439   3.460
 7194SOL     OW22480   3.357   2.391   5.325
 7194SOL    HW122481   3.443   2.348   5.294
 7194SOL    HW222482   3.284   2.366   5.262
 7195SOL     OW22483   0.530   4.272   5.446
 7195SOL    HW122484   0.485   4.218   5.375
 7195SOL    HW222485   0.488   4.363   5.450
 7196SOL     OW22486   3.139   4.194   1.808
 7196SOL    HW122487   3.160   4.232   1.718
 7196SOL    HW222488   3.223   4.189   1.862
 7197SOL     OW22489   3.707   4.578   6.063
 7197SOL    HW122490   3.622   4.631   6.062
 7197SOL    HW222491   3.688   4.484   6.034
 7198SOL     OW22492   1.122   0.306   2.347
 7198SOL    HW122493   1.157   0.228   2.294
 7198SOL    HW222494   1.095   0.275   2.438
 7199SOL     OW22495   6.021   0.911   3.203
 7199SOL    HW122496   6.118   0.918   3.224
 7199SOL    HW222497   5.989   0.818   3.224
 7200SOL     OW22498   0.842   4.075   6.572
 7200SOL    HW122499   0.891   3.988   6.567
 7200SOL    HW222500   0.749   4.062   6.539
 7201SOL     OW22501   5.520   5.960   4.627
 7201SOL    HW122502   5.467   5.951   4.543
 7201SOL    HW222503   5.491   6.044   4.675
 7202SOL     OW22504   4.825   0.590   5.778
 7202SOL    HW122505   4.880   0.623   5.854
 7202SOL    HW222506   4.875   0.604   5.692
 7203SOL     OW22507   1.087   1.628   0.721
 7203SOL    HW122508   1.068   1.650   0.625
 7203SOL    HW222509   1.179   1.660   0.744
 7204SOL     OW22510   5.711   0.819   3.017
 7204SOL    HW122511   5.731   0.906   2.973
 7204SOL    HW222512   5.613   0.813   3.038
 7205SOL     OW22513   2.879   1.718   3.986
 7205SOL    HW122514   2.946   1.788   3.965
 7205SOL    HW222515   2.794   1.761   4.016
 7206SOL     OW22516   2.171   2.662   6.721
 7206SOL    HW122517   2.171   2.591   6.651
 7206SOL    HW222518   2.090   2.653   6.779
 7207SOL     OW22519   1.840   2.167   3.244
 7207SOL    HW122520   1.863   2.232   3.316
 7207SOL    HW222521   1.741   2.167   3.229
 7208SOL     OW22522   3.180   0.306   3.668
 7208SOL    HW122523   3.212   0.322   3.762
 7208SOL    HW222524   3.207   0.214   3.639
 7209SOL     OW22525   4.401   1.029   2.141
 7209SOL    HW122526   4.466   1.025   2.217
 7209SOL    HW222527   4.311   0.998   2.172
 7210SOL     OW22528   3.357   1.280   4.750
 7210SOL    HW122529   3.336   1.182   4.750
 7210SOL    HW222530   3.287   1.329   4.696
 7211SOL     OW22531   4.399   6.087   6.272
 7211SOL    HW122532   4.478   6.044   6.317
 7211SOL    HW222533   4.370   6.167   6.325
 7212SOL     OW22534   0.601   5.955   4.185
 7212SOL    HW122535   0.542   6.028   4.220
 7212SOL    HW222536   0.657   5.991   4.111
 7213SOL     OW22537   4.604   2.544   0.045
 7213SOL    HW122538   4.564   2.560   6.974
 7213SOL    HW222539   4.582   2.621   0.105
 7214SOL     OW22540   6.642   1.202   5.974
 7214SOL    HW122541   6.728   1.169   5.935
 7214SOL    HW222542   6.590   1.124   6.010
 7215SOL     OW22543   6.328   1.438   2.407
 7215SOL    HW122544   6.255   1.374   2.430
 7215SOL    HW222545   6.383   1.456   2.489
 7216SOL     OW22546   5.736   6.495   4.085
 7216SOL    HW122547   5.685   6.432   4.143
 7216SOL    HW222548   5.776   6.445   4.009
 7217SOL     OW22549   1.144   3.184   3.403
 7217SOL    HW122550   1.237   3.145   3.398
 7217SOL    HW222551   1.149   3.279   3.431
 7218SOL     OW22552   6.529   2.512   5.300
 7218SOL    HW122553   6.607   2.449   5.298
 7218SOL    HW222554   6.557   2.598   5.341
 7219SOL     OW22555   3.088   5.787   1.570
 7219SOL    HW122556   3.168   5.746   1.613
 7219SOL    HW222557   3.019   5.716   1.555
 7220SOL     OW22558   6.926   3.313   3.894
 7220SOL    HW122559   6.904   3.310   3.991
 7220SOL    HW222560   6.855   3.268   3.842
 7221SOL     OW22561   4.845   5.171   3.692
 7221SOL    HW122562   4.867   5.127   3.779
 7221SOL    HW222563   4.752   5.207   3.696
 7222SOL     OW22564   6.620   5.979   3.824
 7222SOL    HW122565   6.643   6.050   3.758
 7222SOL    HW222566   6.523   5.984   3.847
 7223SOL     OW22567   6.805   5.717   1.760
 7223SOL    HW122568   6.812   5.664   1.676
 7223SOL    HW222569   6.720   5.693   1.807
 7224SOL     OW22570   5.254   2.623   2.246
 7224SOL    HW122571   5.298   2.533   2.253
 7224SOL    HW222572   5.285   2.668   2.163
 7225SOL     OW22573   0.942   5.677   0.251
 7225SOL    HW122574   0.887   5.637   0.179
 7225SOL    HW222575   1.011   5.611   0.281
 7226SOL     OW22576   6.492   6.470   0.183
 7226SOL    HW122577   6.569   6.425   0.227
 7226SOL    HW222578   6.417   6.405   0.171
 7227SOL     OW22579   1.772   0.934   2.015
 7227SOL    HW122580   1.726   0.923   2.103
 7227SOL    HW222581   1.793   1.031   2.000
 7228SOL     OW22582   6.047   3.155   3.039
 7228SOL    HW122583   5.948   3.157   3.048
 7228SOL    HW222584   6.080   3.245   3.010
 7229SOL     OW22585   6.367   0.426   5.142
 7229SOL    HW122586   6.378   0.392   5.236
 7229SOL    HW222587   6.438   0.387   5.084
 7230SOL     OW22588   2.053   4.737   4.912
 7230SOL    HW122589   2.057   4.707   5.007
 7230SOL    HW222590   2.145   4.737   4.873
 7231SOL     OW22591   3.773   3.237   6.312
 7231SOL    HW122592   3.748   3.282   6.226
 7231SOL    HW222593   3.825   3.300   6.369
 7232SOL     OW22594   4.314   5.911   3.373
 7232SOL    HW122595   4.276   5.824   3.404
 7232SOL    HW222596   4.413   5.912   3.390
 7233SOL     OW22597   0.161   1.917   6.130
 7233SOL    HW122598   0.130   2.012   6.127
 7233SOL    HW222599   0.139   1.877   6.219
 7234SOL     OW22600   5.849   4.680   2.811
 7234SOL    HW122601   5.767   4.726   2.777
 7234SOL    HW222602   5.890   4.734   2.885
 7235SOL     OW22603   6.559   0.425   1.252
 7235SOL    HW122604   6.494   0.490   1.214
 7235SOL    HW222605   6.514   0.338   1.270
 7236SOL     OW22606   0.443   3.747   2.629
 7236SOL    HW122607   0.476   3.758   2.535
 7236SOL    HW222608   0.439   3.650   2.651
 7237SOL     OW22609   5.129   1.030   0.232
 7237SOL    HW122610   5.032   1.042   0.256
 7237SOL    HW222611   5.185   1.086   0.292
 7238SOL     OW22612   4.511   3.243   6.997
 7238SOL    HW122613   4.462   3.275   0.058
 7238SOL    HW222614   4.607   3.225   0.002
 7239SOL     OW22615   5.638   2.991   1.560
 7239SOL    HW122616   5.716   3.046   1.529
 7239SOL    HW222617   5.650   2.896   1.532
 7240SOL     OW22618   0.291   2.034   0.165
 7240SOL    HW122619   0.225   1.966   0.135
 7240SOL    HW222620   0.273   2.058   0.260
 7241SOL     OW22621   2.152   0.420   2.658
 7241SOL    HW122622   2.156   0.322   2.675
 7241SOL    HW222623   2.065   0.457   2.689
 7242SOL     OW22624   6.364   4.021   5.610
 7242SOL    HW122625   6.394   4.049   5.701
 7242SOL    HW222626   6.359   3.921   5.607
 7243SOL     OW22627   6.113   4.773   6.117
 7243SOL    HW122628   6.046   4.781   6.191
 7243SOL    HW222629   6.119   4.678   6.088
 7244SOL     OW22630   6.831   5.787   6.573
 7244SOL    HW122631   6.767   5.861   6.596
 7244SOL    HW222632   6.829   5.772   6.475
 7245SOL     OW22633   1.339   2.271   7.001
 7245SOL    HW122634   1.302   2.237   6.915
 7245SOL    HW222635   1.438   2.257   7.003
 7246SOL     OW22636   4.258   6.547   4.122
 7246SOL    HW122637   4.338   6.501   4.162
 7246SOL    HW222638   4.175   6.497   4.147
 7247SOL     OW22639   3.312   4.111   5.043
 7247SOL    HW122640   3.360   4.137   5.127
 7247SOL    HW222641   3.218   4.143   5.047
 7248SOL     OW22642   2.403   1.554   5.042
 7248SOL    HW122643   2.309   1.528   5.063
 7248SOL    HW222644   2.429   1.633   5.098
 7249SOL     OW22645   2.943   5.708   2.589
 7249SOL    HW122646   2.879   5.761   2.645
 7249SOL    HW222647   2.975   5.765   2.513
 7250SOL     OW22648   5.152   5.586   5.646
 7250SOL    HW122649   5.162   5.599   5.547
 7250SOL    HW222650   5.167   5.489   5.668
 7251SOL     OW22651   0.786   6.089   4.031
 7251SOL    HW122652   0.760   6.086   3.935
 7251SOL    HW222653   0.829   6.177   4.051
 7252SOL     OW22654   4.004   3.871   2.202
 7252SOL    HW122655   4.087   3.926   2.191
 7252SOL    HW222656   4.028   3.774   2.196
 7253SOL     OW22657   2.023   5.277   5.131
 7253SOL    HW122658   2.070   5.353   5.086
 7253SOL    HW222659   1.961   5.312   5.200
 7254SOL     OW22660   6.855   3.251   4.200
 7254SOL    HW122661   6.767   3.282   4.236
 7254SOL    HW222662   6.845   3.159   4.162
 7255SOL     OW22663   4.409   3.955   0.541
 7255SOL    HW122664   4.350   3.905   0.604
 7255SOL    HW222665   4.478   3.893   0.504
 7256SOL     OW22666   3.085   6.812   4.277
 7256SOL    HW122667   3.130   6.726   4.300
 7256SOL    HW222668   3.029   6.799   4.195
 7257SOL     OW22669   0.876   1.038   5.219
 7257SOL    HW122670   0.924   1.067   5.136
 7257SOL    HW222671   0.906   1.094   5.296
 7258SOL     OW22672   5.935   2.668   2.653
 7258SOL    HW122673   5.934   2.634   2.559
 7258SOL    HW222674   6.028   2.690   2.680
 7259SOL     OW22675   0.794   4.229   2.381
 7259SOL    HW122676   0.779   4.131   2.388
 7259SOL    HW222677   0.815   4.253   2.286
 7260SOL     OW22678   6.366   3.308   1.058
 7260SOL    HW122679   6.312   3.283   1.138
 7260SOL    HW222680   6.429   3.233   1.035
 7261SOL     OW22681   0.485   4.242   7.015
 7261SOL    HW122682   0.572   4.288   0.016
 7261SOL    HW222683   0.479   4.227   6.916
 7262SOL     OW22684   3.820   0.471   5.064
 7262SOL    HW122685   3.731   0.481   5.019
 7262SOL    HW222686   3.843   0.557   5.111
 7263SOL     OW22687   6.130   5.721   5.049
 7263SOL    HW122688   6.141   5.814   5.014
 7263SOL    HW222689   6.121   5.658   4.972
 7264SOL     OW22690   5.502   1.180   1.612
 7264SOL    HW122691   5.416   1.136   1.638
 7264SOL    HW222692   5.534   1.142   1.525
 7265SOL     OW22693   3.797   0.213   5.782
 7265SOL    HW122694   3.744   0.143   5.829
 7265SOL    HW222695   3.872   0.171   5.733
 7266SOL     OW22696   6.771   0.867   3.228
 7266SOL    HW122697   6.816   0.822   3.305
 7266SOL    HW222698   6.728   0.952   3.260
 7267SOL     OW22699   6.791   3.988   5.087
 7267SOL    HW122700   6.885   4.018   5.100
 7267SOL    HW222701   6.788   3.916   5.017
 7268SOL     OW22702   5.573   6.203   4.183
 7268SOL    HW122703   5.655   6.146   4.190
 7268SOL    HW222704   5.538   6.222   4.275
 7269SOL     OW22705   2.786   5.288   4.125
 7269SOL    HW122706   2.872   5.293   4.073
 7269SOL    HW222707   2.709   5.280   4.062
 7270SOL     OW22708   0.261   0.484   4.678
 7270SOL    HW122709   0.337   0.486   4.743
 7270SOL    HW222710   0.278   0.414   4.608
 7271SOL     OW22711   0.770   4.677   3.136
 7271SOL    HW122712   0.777   4.726   3.223
 7271SOL    HW222713   0.708   4.726   3.075
 7272SOL     OW22714   5.838   4.296   1.483
 7272SOL    HW122715   5.860   4.212   1.433
 7272SOL    HW222716   5.761   4.342   1.439
 7273SOL     OW22717   0.138   1.444   5.125
 7273SOL    HW122718   0.218   1.397   5.160
 7273SOL    HW222719   0.068   1.377   5.099
 7274SOL     OW22720   0.211   5.469   6.135
 7274SOL    HW122721   0.122   5.430   6.111
 7274SOL    HW222722   0.278   5.443   6.066
 7275SOL     OW22723   0.863   5.198   3.154
 7275SOL    HW122724   0.926   5.276   3.156
 7275SOL    HW222725   0.861   5.155   3.244
 7276SOL     OW22726   4.740   6.258   3.305
 7276SOL    HW122727   4.753   6.322   3.229
 7276SOL    HW222728   4.700   6.307   3.382
 7277SOL     OW22729   5.050   0.781   0.486
 7277SOL    HW122730   5.082   0.693   0.522
 7277SOL    HW222731   5.116   0.852   0.509
 7278SOL     OW22732   3.653   2.899   2.496
 7278SOL    HW122733   3.742   2.903   2.542
 7278SOL    HW222734   3.662   2.847   2.411
 7279SOL     OW22735   3.794   6.664   6.072
 7279SOL    HW122736   3.764   6.571   6.094
 7279SOL    HW222737   3.733   6.703   6.002
 7280SOL     OW22738   4.692   1.150   6.215
 7280SOL    HW122739   4.749   1.231   6.231
 7280SOL    HW222740   4.596   1.176   6.220
 7281SOL     OW22741   5.557   1.310   5.992
 7281SOL    HW122742   5.479   1.324   6.052
 7281SOL    HW222743   5.562   1.214   5.964
 7282SOL     OW22744   5.834   5.969   2.642
 7282SOL    HW122745   5.815   6.024   2.561
 7282SOL    HW222746   5.765   5.986   2.712
 7283SOL     OW22747   2.034   1.548   3.778
 7283SOL    HW122748   2.106   1.549   3.709
 7283SOL    HW222749   1.945   1.536   3.734
 7284SOL     OW22750   1.608   1.879   5.307
 7284SOL    HW122751   1.680   1.871   5.238
 7284SOL    HW222752   1.520   1.859   5.265
 7285SOL     OW22753   6.214   5.453   1.884
 7285SOL    HW122754   6.246   5.391   1.955
 7285SOL    HW222755   6.114   5.457   1.885
 7286SOL     OW22756   1.749   4.070   0.651
 7286SOL    HW122757   1.713   4.104   0.738
 7286SOL    HW222758   1.849   4.072   0.653
 7287SOL     OW22759   6.289   1.737   5.789
 7287SOL    HW122760   6.354   1.662   5.787
 7287SOL    HW222761   6.283   1.778   5.698
 7288SOL     OW22762   2.810   0.262   0.114
 7288SOL    HW122763   2.903   0.236   0.140
 7288SOL    HW222764   2.776   0.334   0.174
 7289SOL     OW22765   4.481   2.047   3.943
 7289SOL    HW122766   4.471   2.146   3.952
 7289SOL    HW222767   4.407   2.011   3.887
 7290SOL     OW22768   2.655   5.630   4.445
 7290SOL    HW122769   2.690   5.601   4.356
 7290SOL    HW222770   2.701   5.714   4.473
 7291SOL     OW22771   3.685   4.769   1.384
 7291SOL    HW122772   3.709   4.730   1.472
 7291SOL    HW222773   3.588   4.752   1.366
 7292SOL     OW22774   3.700   0.125   4.433
 7292SOL    HW122775   3.642   0.135   4.353
 7292SOL    HW222776   3.761   0.046   4.421
 7293SOL     OW22777   2.179   1.194   6.572
 7293SOL    HW122778   2.243   1.126   6.536
 7293SOL    HW222779   2.195   1.206   6.670
 7294SOL     OW22780   5.635   5.338   6.758
 7294SOL    HW122781   5.723   5.379   6.780
 7294SOL    HW222782   5.632   5.244   6.791
 7295SOL     OW22783   4.461   0.250   1.769
 7295SOL    HW122784   4.541   0.309   1.757
 7295SOL    HW222785   4.406   0.251   1.685
 7296SOL     OW22786   4.502   5.119   1.047
 7296SOL    HW122787   4.497   5.032   0.997
 7296SOL    HW222788   4.410   5.147   1.074
 7297SOL     OW22789   4.870   6.757   2.234
 7297SOL    HW122790   4.961   6.765   2.274
 7297SOL    HW222791   4.825   6.846   2.236
 7298SOL     OW22792   6.586   3.193   4.381
 7298SOL    HW122793   6.532   3.223   4.459
 7298SOL    HW222794   6.541   3.221   4.296
 7299SOL     OW22795   5.814   3.181   6.818
 7299SOL    HW122796   5.750   3.180   6.741
 7299SOL    HW222797   5.801   3.264   6.871
 7300SOL     OW22798   4.530   5.779   1.493
 7300SOL    HW122799   4.574   5.733   1.415
 7300SOL    HW222800   4.553   5.876   1.492
 7301SOL     OW22801   6.743   1.334   6.491
 7301SOL    HW122802   6.659   1.328   6.439
 7301SOL    HW222803   6.821   1.312   6.432
 7302SOL     OW22804   5.831   0.771   6.215
 7302SOL    HW122805   5.893   0.795   6.140
 7302SOL    HW222806   5.856   0.681   6.251
 7303SOL     OW22807   4.265   0.816   0.920
 7303SOL    HW122808   4.243   0.880   0.993
 7303SOL    HW222809   4.200   0.740   0.922
 7304SOL     OW22810   3.773   3.001   4.965
 7304SOL    HW122811   3.700   2.978   5.030
 7304SOL    HW222812   3.856   3.026   5.015
 7305SOL     OW22813   5.674   1.954   0.290
 7305SOL    HW122814   5.617   1.908   0.357
 7305SOL    HW222815   5.648   2.050   0.284
 7306SOL     OW22816   4.875   4.878   2.147
 7306SOL    HW122817   4.801   4.829   2.193
 7306SOL    HW222818   4.963   4.848   2.184
 7307SOL     OW22819   4.305   6.311   2.024
 7307SOL    HW122820   4.263   6.221   2.041
 7307SOL    HW222821   4.324   6.355   2.112
 7308SOL     OW22822   6.012   0.806   4.312
 7308SOL    HW122823   6.090   0.852   4.268
 7308SOL    HW222824   5.933   0.867   4.312
 7309SOL     OW22825   4.292   5.161   1.430
 7309SOL    HW122826   4.199   5.197   1.434
 7309SOL    HW222827   4.356   5.235   1.409
 7310SOL     OW22828   1.977   5.676   1.643
 7310SOL    HW122829   2.031   5.637   1.568
 7310SOL    HW222830   2.013   5.645   1.731
 7311SOL     OW22831   2.863   1.795   2.001
 7311SOL    HW122832   2.766   1.788   2.024
 7311SOL    HW222833   2.894   1.889   2.012
 7312SOL     OW22834   6.612   2.317   6.273
 7312SOL    HW122835   6.633   2.246   6.340
 7312SOL    HW222836   6.592   2.274   6.184
 7313SOL     OW22837   3.522   2.339   6.280
 7313SOL    HW122838   3.549   2.424   6.324
 7313SOL    HW222839   3.422   2.336   6.270
 7314SOL     OW22840   1.137   2.501   4.502
 7314SOL    HW122841   1.210   2.549   4.552
 7314SOL    HW222842   1.049   2.523   4.544
 7315SOL     OW22843   0.051   0.717   5.892
 7315SOL    HW122844   0.091   0.677   5.810
 7315SOL    HW222845   6.976   0.744   5.873
 7316SOL     OW22846   3.869   2.970   4.709
 7316SOL    HW122847   3.884   2.873   4.731
 7316SOL    HW222848   3.856   3.021   4.794
 7317SOL     OW22849   2.993   1.018   3.922
 7317SOL    HW122850   2.964   1.075   3.999
 7317SOL    HW222851   3.027   0.930   3.956
 7318SOL     OW22852   1.163   1.558   1.076
 7318SOL    HW122853   1.223   1.504   1.135
 7318SOL    HW222854   1.216   1.597   1.000
 7319SOL     OW22855   0.399   4.280   6.363
 7319SOL    HW122856   0.331   4.229   6.310
 7319SOL    HW222857   0.366   4.373   6.378
 7320SOL     OW22858   0.651   1.928   2.397
 7320SOL    HW122859   0.621   1.860   2.464
 7320SOL    HW222860   0.592   1.924   2.317
 7321SOL     OW22861   2.853   1.443   3.963
 7321SOL    HW122862   2.850   1.543   3.966
 7321SOL    HW222863   2.948   1.412   3.958
 7322SOL     OW22864   0.572   3.424   1.588
 7322SOL    HW122865   0.645   3.480   1.627
 7322SOL    HW222866   0.609   3.339   1.552
 7323SOL     OW22867   2.351   4.206   3.172
 7323SOL    HW122868   2.349   4.270   3.095
 7323SOL    HW222869   2.434   4.151   3.168
 7324SOL     OW22870   5.126   4.995   3.189
 7324SOL    HW122871   5.211   4.952   3.157
 7324SOL    HW222872   5.094   4.947   3.271
 7325SOL     OW22873   3.123   5.860   0.624
 7325SOL    HW122874   3.201   5.801   0.605
 7325SOL    HW222875   3.154   5.942   0.672
 7326SOL     OW22876   2.407   0.756   4.273
 7326SOL    HW122877   2.404   0.792   4.180
 7326SOL    HW222878   2.314   0.744   4.308
 7327SOL     OW22879   1.487   3.082   5.575
 7327SOL    HW122880   1.480   3.156   5.508
 7327SOL    HW222881   1.529   3.002   5.532
 7328SOL     OW22882   1.981   6.859   6.691
 7328SOL    HW122883   1.903   6.873   6.753
 7328SOL    HW222884   1.949   6.815   6.607
 7329SOL     OW22885   4.620   3.669   1.654
 7329SOL    HW122886   4.573   3.756   1.672
 7329SOL    HW222887   4.559   3.607   1.606
 7330SOL     OW22888   4.339   2.006   1.089
 7330SOL    HW122889   4.346   2.102   1.063
 7330SOL    HW222890   4.428   1.962   1.077
 7331SOL     OW22891   4.794   1.525   1.554
 7331SOL    HW122892   4.843   1.437   1.554
 7331SOL    HW222893   4.860   1.599   1.541
 7332SOL     OW22894   3.429   6.305   0.471
 7332SOL    HW122895   3.354   6.362   0.505
 7332SOL    HW222896   3.412   6.209   0.494
 7333SOL     OW22897   0.517   4.728   2.765
 7333SOL    HW122898   0.433   4.724   2.819
 7333SOL    HW222899   0.553   4.821   2.766
 7334SOL     OW22900   3.171   0.139   4.559
 7334SOL    HW122901   3.106   0.116   4.486
 7334SOL    HW222902   3.263   0.112   4.531
 7335SOL     OW22903   2.156   3.106   2.671
 7335SOL    HW122904   2.129   3.015   2.703
 7335SOL    HW222905   2.163   3.168   2.749
 7336SOL     OW22906   2.043   6.365   4.062
 7336SOL    HW122907   1.971   6.322   4.009
 7336SOL    HW222908   2.013   6.455   4.093
 7337SOL     OW22909   4.913   2.398   1.725
 7337SOL    HW122910   4.982   2.447   1.672
 7337SOL    HW222911   4.923   2.300   1.709
 7338SOL     OW22912   6.941   3.456   0.222
 7338SOL    HW122913   6.951   3.480   0.318
 7338SOL    HW222914   6.955   3.537   0.165
 7339SOL     OW22915   1.196   5.788   4.789
 7339SOL    HW122916   1.176   5.696   4.823
 7339SOL    HW222917   1.282   5.820   4.827
 7340SOL     OW22918   2.733   6.531   0.029
 7340SOL    HW122919   2.742   6.624   7.014
 7340SOL    HW222920   2.651   6.489   7.012
 7341SOL     OW22921   6.799   2.332   0.931
 7341SOL    HW122922   6.829   2.267   0.861
 7341SOL    HW222923   6.701   2.349   0.921
 7342SOL     OW22924   0.869   6.112   2.063
 7342SOL    HW122925   0.905   6.180   2.001
 7342SOL    HW222926   0.769   6.114   2.061
 7343SOL     OW22927   6.233   3.187   0.340
 7343SOL    HW122928   6.328   3.167   0.360
 7343SOL    HW222929   6.228   3.271   0.286
 7344SOL     OW22930   2.522   6.561   6.072
 7344SOL    HW122931   2.529   6.496   5.996
 7344SOL    HW222932   2.545   6.653   6.040
 7345SOL     OW22933   3.757   5.825   5.891
 7345SOL    HW122934   3.732   5.919   5.869
 7345SOL    HW222935   3.840   5.825   5.947
 7346SOL     OW22936   3.950   5.289   2.118
 7346SOL    HW122937   3.913   5.375   2.082
 7346SOL    HW222938   3.880   5.242   2.172
 7347SOL     OW22939   5.908   1.478   0.182
 7347SOL    HW122940   5.999   1.512   0.159
 7347SOL    HW222941   5.855   1.549   0.228
 7348SOL     OW22942   6.841   5.371   0.313
 7348SOL    HW122943   6.747   5.407   0.313
 7348SOL    HW222944   6.841   5.280   0.353
 7349SOL     OW22945   3.919   1.707   1.559
 7349SOL    HW122946   3.913   1.678   1.655
 7349SOL    HW222947   3.942   1.804   1.555
 7350SOL     OW22948   3.770   1.183   4.451
 7350SOL    HW122949   3.769   1.165   4.550
 7350SOL    HW222950   3.745   1.278   4.434
 7351SOL     OW22951   2.357   4.690   4.045
 7351SOL    HW122952   2.319   4.772   4.088
 7351SOL    HW222953   2.305   4.669   3.962
 7352SOL     OW22954   5.711   3.037   4.278
 7352SOL    HW122955   5.807   3.058   4.261
 7352SOL    HW222956   5.680   3.087   4.359
 7353SOL     OW22957   6.259   1.003   5.355
 7353SOL    HW122958   6.350   1.018   5.315
 7353SOL    HW222959   6.201   1.082   5.336
 7354SOL     OW22960   1.056   1.738   2.884
 7354SOL    HW122961   1.007   1.804   2.828
 7354SOL    HW222962   1.029   1.646   2.859
 7355SOL     OW22963   3.341   1.703   0.703
 7355SOL    HW122964   3.267   1.751   0.655
 7355SOL    HW222965   3.304   1.622   0.748
 7356SOL     OW22966   4.311   4.201   6.207
 7356SOL    HW122967   4.402   4.222   6.242
 7356SOL    HW222968   4.271   4.284   6.168
 7357SOL     OW22969   4.739   6.414   1.828
 7357SOL    HW122970   4.753   6.375   1.919
 7357SOL    HW222971   4.786   6.502   1.822
 7358SOL     OW22972   4.580   6.952   3.371
 7358SOL    HW122973   4.599   6.894   3.292
 7358SOL    HW222974   4.531   0.014   3.341
 7359SOL     OW22975   3.965   6.839   2.156
 7359SOL    HW122976   4.047   6.879   2.115
 7359SOL    HW222977   3.987   6.809   2.249
 7360SOL     OW22978   2.792   3.633   5.328
 7360SOL    HW122979   2.773   3.546   5.282
 7360SOL    HW222980   2.806   3.704   5.259
 7361SOL     OW22981   6.784   0.433   3.177
 7361SOL    HW122982   6.731   0.351   3.198
 7361SOL    HW222983   6.725   0.514   3.185
 7362SOL     OW22984   3.662   5.718   0.520
 7362SOL    HW122985   3.631   5.656   0.592
 7362SOL    HW222986   3.589   5.782   0.497
 7363SOL     OW22987   4.298   0.968   1.354
 7363SOL    HW122988   4.394   0.984   1.336
 7363SOL    HW222989   4.242   1.030   1.299
 7364SOL     OW22990   6.227   6.171   1.986
 7364SOL    HW122991   6.312   6.120   1.969
 7364SOL    HW222992   6.152   6.129   1.933
 7365SOL     OW22993   4.906   3.561   2.635
 7365SOL    HW122994   4.915   3.522   2.543
 7365SOL    HW222995   4.941   3.495   2.702
 7366SOL     OW22996   2.538   0.255   3.632
 7366SOL    HW122997   2.580   0.182   3.686
 7366SOL    HW222998   2.608   0.320   3.602
 7367SOL     OW22999   4.454   1.129   6.816
 7367SOL    HW123000   4.395   1.100   6.891
 7367SOL    HW223001   4.455   1.229   6.811
 7368SOL     OW23002   2.960   3.304   3.526
 7368SOL    HW123003   2.910   3.279   3.609
 7368SOL    HW223004   2.897   3.348   3.461
 7369SOL     OW23005   5.860   3.776   6.904
 7369SOL    HW123006   5.844   3.840   6.829
 7369SOL    HW223007   5.774   3.730   6.927
 7370SOL     OW23008   1.723   1.434   4.407
 7370SOL    HW123009   1.657   1.361   4.427
 7370SOL    HW223010   1.751   1.429   4.312
 7371SOL     OW23011   3.976   0.706   3.603
 7371SOL    HW123012   3.881   0.681   3.582
 7371SOL    HW223013   3.983   0.734   3.698
 7372SOL     OW23014   5.074   1.015   5.442
 7372SOL    HW123015   5.042   1.087   5.381
 7372SOL    HW223016   4.998   0.955   5.466
 7373SOL     OW23017   5.984   2.957   4.264
 7373SOL    HW123018   5.928   2.921   4.338
 7373SOL    HW223019   6.022   2.882   4.211
 7374SOL     OW23020   0.688   2.423   6.588
 7374SOL    HW123021   0.665   2.519   6.571
 7374SOL    HW223022   0.787   2.411   6.583
 7375SOL     OW23023   2.098   2.994   0.322
 7375SOL    HW123024   2.160   2.999   0.244
 7375SOL    HW223025   2.149   3.010   0.406
 7376SOL     OW23026   6.494   5.191   0.463
 7376SOL    HW123027   6.428   5.247   0.414
 7376SOL    HW223028   6.446   5.119   0.513
 7377SOL     OW23029   2.498   5.701   0.909
 7377SOL    HW123030   2.517   5.606   0.936
 7377SOL    HW223031   2.549   5.763   0.968
 7378SOL     OW23032   1.795   5.211   5.432
 7378SOL    HW123033   1.783   5.204   5.531
 7378SOL    HW223034   1.833   5.126   5.397
 7379SOL     OW23035   4.986   2.004   2.349
 7379SOL    HW123036   5.009   2.012   2.446
 7379SOL    HW223037   4.900   1.955   2.339
 7380SOL     OW23038   5.256   3.449   1.730
 7380SOL    HW123039   5.262   3.384   1.806
 7380SOL    HW223040   5.162   3.450   1.695
 7381SOL     OW23041   3.652   6.576   1.872
 7381SOL    HW123042   3.588   6.612   1.940
 7381SOL    HW223043   3.714   6.649   1.844
 7382SOL     OW23044   0.306   2.396   6.398
 7382SOL    HW123045   0.316   2.346   6.483
 7382SOL    HW223046   0.226   2.363   6.348
 7383SOL     OW23047   2.240   6.942   0.898
 7383SOL    HW123048   2.313   6.961   0.964
 7383SOL    HW223049   2.260   6.990   0.812
 7384SOL     OW23050   6.642   6.733   0.316
 7384SOL    HW123051   6.696   6.700   0.238
 7384SOL    HW223052   6.685   6.815   0.354
 7385SOL     OW23053   6.256   4.514   3.061
 7385SOL    HW123054   6.286   4.563   3.143
 7385SOL    HW223055   6.268   4.416   3.074
 7386SOL     OW23056   6.100   4.305   6.983
 7386SOL    HW123057   6.044   4.350   6.913
 7386SOL    HW223058   6.169   4.248   6.938
 7387SOL     OW23059   6.633   5.451   4.025
 7387SOL    HW123060   6.568   5.377   4.009
 7387SOL    HW223061   6.620   5.522   3.957
 7388SOL     OW23062   2.550   4.640   2.651
 7388SOL    HW123063   2.504   4.725   2.673
 7388SOL    HW223064   2.493   4.585   2.590
 7389SOL     OW23065   6.455   2.939   0.730
 7389SOL    HW123066   6.513   2.871   0.685
 7389SOL    HW223067   6.484   2.951   0.825
 7390SOL     OW23068   3.487   2.103   3.660
 7390SOL    HW123069   3.446   2.012   3.651
 7390SOL    HW223070   3.433   2.156   3.725
 7391SOL     OW23071   3.563   4.117   2.968
 7391SOL    HW123072   3.650   4.067   2.969
 7391SOL    HW223073   3.531   4.129   3.062
 7392SOL     OW23074   3.315   6.546   0.857
 7392SOL    HW123075   3.288   6.516   0.766
 7392SOL    HW223076   3.271   6.634   0.878
 7393SOL     OW23077   5.248   5.484   3.073
 7393SOL    HW123078   5.180   5.529   3.015
 7393SOL    HW223079   5.216   5.393   3.099
 7394SOL     OW23080   2.060   2.130   6.041
 7394SOL    HW123081   2.070   2.107   6.137
 7394SOL    HW223082   2.150   2.141   5.999
 7395SOL     OW23083   2.878   6.194   1.419
 7395SOL    HW123084   2.913   6.139   1.495
 7395SOL    HW223085   2.908   6.289   1.429
 7396SOL     OW23086   1.255   5.202   2.064
 7396SOL    HW123087   1.332   5.147   2.097
 7396SOL    HW223088   1.252   5.288   2.115
 7397SOL     OW23089   5.744   4.459   3.960
 7397SOL    HW123090   5.801   4.379   3.945
 7397SOL    HW223091   5.716   4.498   3.872
 7398SOL     OW23092   3.056   5.157   2.061
 7398SOL    HW123093   3.023   5.092   2.130
 7398SOL    HW223094   3.135   5.118   2.014
 7399SOL     OW23095   6.132   1.785   5.376
 7399SOL    HW123096   6.045   1.748   5.343
 7399SOL    HW223097   6.194   1.709   5.397
 7400SOL     OW23098   3.964   3.402   5.520
 7400SOL    HW123099   4.027   3.476   5.540
 7400SOL    HW223100   3.888   3.437   5.465
 7401SOL     OW23101   1.772   2.227   3.808
 7401SOL    HW123102   1.708   2.165   3.762
 7401SOL    HW223103   1.786   2.309   3.752
 7402SOL     OW23104   3.315   5.497   4.282
 7402SOL    HW123105   3.320   5.466   4.376
 7402SOL    HW223106   3.407   5.502   4.243
 7403SOL     OW23107   1.701   4.560   4.138
 7403SOL    HW123108   1.708   4.550   4.039
 7403SOL    HW223109   1.767   4.498   4.182
 7404SOL     OW23110   2.265   3.772   0.730
 7404SOL    HW123111   2.286   3.675   0.747
 7404SOL    HW223112   2.183   3.797   0.783
 7405SOL     OW23113   4.007   6.673   5.778
 7405SOL    HW123114   3.921   6.627   5.757
 7405SOL    HW223115   4.083   6.620   5.740
 7406SOL     OW23116   0.586   2.628   4.318
 7406SOL    HW123117   0.681   2.636   4.289
 7406SOL    HW223118   0.531   2.595   4.241
 7407SOL     OW23119   0.807   6.518   5.144
 7407SOL    HW123120   0.806   6.421   5.167
 7407SOL    HW223121   0.895   6.558   5.168
 7408SOL     OW23122   4.417   5.409   5.611
 7408SOL    HW123123   4.380   5.450   5.528
 7408SOL    HW223124   4.347   5.353   5.655
 7409SOL     OW23125   6.421   5.173   1.707
 7409SOL    HW123126   6.427   5.122   1.621
 7409SOL    HW223127   6.395   5.267   1.689
 7410SOL     OW23128   6.527   0.868   1.204
 7410SOL    HW123129   6.595   0.888   1.275
 7410SOL    HW223130   6.464   0.945   1.196
 7411SOL     OW23131   3.951   1.850   5.443
 7411SOL    HW123132   3.864   1.822   5.484
 7411SOL    HW223133   4.026   1.803   5.490
 7412SOL     OW23134   4.267   6.978   0.141
 7412SOL    HW123135   4.175   7.012   0.123
 7412SOL    HW223136   4.261   6.896   0.199
 7413SOL     OW23137   5.357   0.813   3.529
 7413SOL    HW123138   5.275   0.835   3.581
 7413SOL    HW223139   5.426   0.773   3.589
 7414SOL     OW23140   2.671   1.187   3.790
 7414SOL    HW123141   2.714   1.135   3.864
 7414SOL    HW223142   2.576   1.158   3.781
 7415SOL     OW23143   3.808   0.452   6.483
 7415SOL    HW123144   3.845   0.542   6.503
 7415SOL    HW223145   3.719   0.442   6.528
 7416SOL     OW23146   0.975   0.757   1.547
 7416SOL    HW123147   1.069   0.790   1.550
 7416SOL    HW223148   0.941   0.763   1.453
 7417SOL     OW23149   0.733   0.619   2.134
 7417SOL    HW123150   0.654   0.677   2.111
 7417SOL    HW223151   0.762   0.637   2.228
 7418SOL     OW23152   1.567   3.592   6.208
 7418SOL    HW123153   1.541   3.660   6.277
 7418SOL    HW223154   1.570   3.635   6.118
 7419SOL     OW23155   6.465   3.230   4.659
 7419SOL    HW123156   6.547   3.226   4.716
 7419SOL    HW223157   6.384   3.209   4.714
 7420SOL     OW23158   6.901   6.791   0.960
 7420SOL    HW123159   6.950   6.726   1.019
 7420SOL    HW223160   6.956   6.809   0.878
 7421SOL     OW23161   6.196   3.759   1.252
 7421SOL    HW123162   6.226   3.743   1.158
 7421SOL    HW223163   6.228   3.850   1.281
 7422SOL     OW23164   5.246   3.308   1.362
 7422SOL    HW123165   5.154   3.345   1.372
 7422SOL    HW223166   5.242   3.208   1.366
 7423SOL     OW23167   4.583   2.613   6.356
 7423SOL    HW123168   4.562   2.587   6.261
 7423SOL    HW223169   4.624   2.535   6.403
 7424SOL     OW23170   0.516   2.270   4.105
 7424SOL    HW123171   0.604   2.313   4.123
 7424SOL    HW223172   0.508   2.185   4.157
 7425SOL     OW23173   5.448   0.176   1.336
 7425SOL    HW123174   5.448   0.253   1.273
 7425SOL    HW223175   5.528   0.182   1.396
 7426SOL     OW23176   3.337   3.079   5.261
 7426SOL    HW123177   3.378   3.105   5.174
 7426SOL    HW223178   3.401   3.097   5.335
 7427SOL     OW23179   2.736   0.252   2.600
 7427SOL    HW123180   2.662   0.289   2.657
 7427SOL    HW223181   2.782   0.327   2.552
 7428SOL     OW23182   2.384   6.951   5.262
 7428SOL    HW123183   2.418   0.025   5.273
 7428SOL    HW223184   2.318   6.931   5.334
 7429SOL     OW23185   1.190   1.042   2.467
 7429SOL    HW123186   1.165   0.949   2.492
 7429SOL    HW223187   1.109   1.101   2.470
 7430SOL     OW23188   6.988   4.051   2.878
 7430SOL    HW123189   0.043   4.002   2.834
 7430SOL    HW223190   6.957   4.000   2.959
 7431SOL     OW23191   0.928   2.171   4.807
 7431SOL    HW123192   0.922   2.089   4.863
 7431SOL    HW223193   0.990   2.153   4.729
 7432SOL     OW23194   1.778   1.271   2.774
 7432SOL    HW123195   1.690   1.293   2.814
 7432SOL    HW223196   1.790   1.320   2.688
 7433SOL     OW23197   3.592   6.794   6.659
 7433SOL    HW123198   3.639   6.816   6.573
 7433SOL    HW223199   3.638   6.841   6.735
 7434SOL     OW23200   4.004   0.218   3.545
 7434SOL    HW123201   4.007   0.163   3.628
 7434SOL    HW223202   4.031   0.312   3.567
 7435SOL     OW23203   5.043   4.649   2.744
 7435SOL    HW123204   4.946   4.629   2.754
 7435SOL    HW223205   5.087   4.649   2.834
 7436SOL     OW23206   4.619   2.708   5.914
 7436SOL    HW123207   4.692   2.640   5.920
 7436SOL    HW223208   4.531   2.663   5.916
 7437SOL     OW23209   3.044   0.691   1.404
 7437SOL    HW123210   2.988   0.755   1.458
 7437SOL    HW223211   3.130   0.736   1.379
 7438SOL     OW23212   1.779   0.188   6.804
 7438SOL    HW123213   1.795   0.194   6.705
 7438SOL    HW223214   1.680   0.184   6.821
 7439SOL     OW23215   1.614   4.564   6.098
 7439SOL    HW123216   1.655   4.484   6.054
 7439SOL    HW223217   1.623   4.643   6.039
 7440SOL     OW23218   5.628   3.180   3.637
 7440SOL    HW123219   5.591   3.252   3.578
 7440SOL    HW223220   5.556   3.114   3.658
 7441SOL     OW23221   4.307   6.431   0.684
 7441SOL    HW123222   4.387   6.373   0.700
 7441SOL    HW223223   4.253   6.436   0.768
 7442SOL     OW23224   5.820   0.981   5.844
 7442SOL    HW123225   5.882   0.998   5.767
 7442SOL    HW223226   5.843   1.042   5.919
 7443SOL     OW23227   0.331   6.933   1.203
 7443SOL    HW123228   0.378   6.888   1.279
 7443SOL    HW223229   0.337   6.874   1.122
 7444SOL     OW23230   1.421   6.202   6.793
 7444SOL    HW123231   1.429   6.129   6.724
 7444SOL    HW223232   1.504   6.257   6.792
 7445SOL     OW23233   3.254   5.654   2.561
 7445SOL    HW123234   3.172   5.649   2.618
 7445SOL    HW223235   3.227   5.653   2.465
 7446SOL     OW23236   6.560   5.005   0.234
 7446SOL    HW123237   6.545   5.053   0.148
 7446SOL    HW223238   6.541   5.066   0.311
 7447SOL     OW23239   0.814   5.592   0.871
 7447SOL    HW123240   0.782   5.573   0.778
 7447SOL    HW223241   0.874   5.672   0.870
 7448SOL     OW23242   3.965   4.910   6.704
 7448SOL    HW123243   3.947   4.928   6.607
 7448SOL    HW223244   4.060   4.883   6.716
 7449SOL     OW23245   6.740   4.227   6.716
 7449SOL    HW123246   6.764   4.318   6.750
 7449SOL    HW223247   6.748   4.160   6.790
 7450SOL     OW23248   5.593   2.934   0.360
 7450SOL    HW123249   5.629   2.852   0.405
 7450SOL    HW223250   5.651   2.957   0.281
 7451SOL     OW23251   4.550   4.861   3.002
 7451SOL    HW123252   4.453   4.838   2.988
 7451SOL    HW223253   4.574   4.938   2.943
 7452SOL     OW23254   6.579   6.036   6.223
 7452SOL    HW123255   6.574   5.936   6.231
 7452SOL    HW223256   6.571   6.062   6.127
 7453SOL     OW23257   4.279   5.440   6.585
 7453SOL    HW123258   4.221   5.492   6.522
 7453SOL    HW223259   4.231   5.428   6.672
 7454SOL     OW23260   4.061   2.073   0.921
 7454SOL    HW123261   3.970   2.033   0.905
 7454SOL    HW223262   4.095   2.112   0.836
 7455SOL     OW23263   6.356   0.308   3.202
 7455SOL    HW123264   6.434   0.276   3.148
 7455SOL    HW223265   6.297   0.364   3.145
 7456SOL     OW23266   2.828   1.539   6.045
 7456SOL    HW123267   2.886   1.618   6.064
 7456SOL    HW223268   2.775   1.555   5.963
 7457SOL     OW23269   1.359   1.432   2.718
 7457SOL    HW123270   1.272   1.469   2.753
 7457SOL    HW223271   1.432   1.451   2.784
 7458SOL     OW23272   0.323   5.523   5.109
 7458SOL    HW123273   0.264   5.590   5.155
 7458SOL    HW223274   0.416   5.558   5.105
 7459SOL     OW23275   5.689   6.975   3.170
 7459SOL    HW123276   5.614   6.966   3.235
 7459SOL    HW223277   5.714   6.884   3.136
 7460SOL     OW23278   0.906   0.496   1.540
 7460SOL    HW123279   0.934   0.591   1.554
 7460SOL    HW223280   0.986   0.436   1.548
 7461SOL     OW23281   2.048   4.407   4.615
 7461SOL    HW123282   2.093   4.322   4.642
 7461SOL    HW223283   2.115   4.482   4.617
 7462SOL     OW23284   1.908   4.704   0.054
 7462SOL    HW123285   1.901   4.609   0.022
 7462SOL    HW223286   1.920   4.704   0.154
 7463SOL     OW23287   4.817   5.070   1.628
 7463SOL    HW123288   4.874   5.102   1.553
 7463SOL    HW223289   4.874   5.027   1.698
 7464SOL     OW23290   5.281   5.187   4.933
 7464SOL    HW123291   5.246   5.278   4.955
 7464SOL    HW223292   5.236   5.154   4.850
 7465SOL     OW23293   1.443   4.189   6.702
 7465SOL    HW123294   1.518   4.143   6.654
 7465SOL    HW223295   1.479   4.232   6.785
 7466SOL     OW23296   0.722   0.506   5.522
 7466SOL    HW123297   0.783   0.477   5.448
 7466SOL    HW223298   0.637   0.542   5.483
 7467SOL     OW23299   0.949   3.885   4.516
 7467SOL    HW123300   1.024   3.932   4.563
 7467SOL    HW223301   0.942   3.920   4.423
 7468SOL     OW23302   5.357   2.673   5.180
 7468SOL    HW123303   5.391   2.700   5.270
 7468SOL    HW223304   5.434   2.661   5.118
 7469SOL     OW23305   0.169   2.294   0.351
 7469SOL    HW123306   0.195   2.204   0.386
 7469SOL    HW223307   0.071   2.293   0.328
 7470SOL     OW23308   4.856   3.115   3.840
 7470SOL    HW123309   4.854   3.190   3.774
 7470SOL    HW223310   4.950   3.097   3.869
 7471SOL     OW23311   3.482   6.549   6.688
 7471SOL    HW123312   3.518   6.641   6.676
 7471SOL    HW223313   3.502   6.517   6.781
 7472SOL     OW23314   0.340   0.530   5.910
 7472SOL    HW123315   0.257   0.580   5.884
 7472SOL    HW223316   0.388   0.581   5.982
 7473SOL     OW23317   3.915   6.134   3.338
 7473SOL    HW123318   3.909   6.041   3.303
 7473SOL    HW223319   3.835   6.187   3.309
 7474SOL     OW23320   5.639   2.501   0.237
 7474SOL    HW123321   5.611   2.543   0.151
 7474SOL    HW223322   5.573   2.525   0.309
 7475SOL     OW23323   5.026   2.846   0.556
 7475SOL    HW123324   4.944   2.888   0.518
 7475SOL    HW223325   5.072   2.791   0.486
 7476SOL     OW23326   2.534   1.325   2.575
 7476SOL    HW123327   2.516   1.370   2.487
 7476SOL    HW223328   2.581   1.388   2.636
 7477SOL     OW23329   2.812   3.888   5.722
 7477SOL    HW123330   2.839   3.982   5.744
 7477SOL    HW223331   2.792   3.880   5.625
 7478SOL     OW23332   0.179   2.178   6.265
 7478SOL    HW123333   0.089   2.220   6.274
 7478SOL    HW223334   0.224   2.213   6.182
 7479SOL     OW23335   4.942   2.713   1.334
 7479SOL    HW123336   4.925   2.789   1.271
 7479SOL    HW223337   4.868   2.646   1.327
 7480SOL     OW23338   3.478   6.153   2.893
 7480SOL    HW123339   3.479   6.231   2.830
 7480SOL    HW223340   3.511   6.071   2.846
 7481SOL     OW23341   7.001   3.521   6.612
 7481SOL    HW123342   7.015   3.611   6.569
 7481SOL    HW223343   0.030   3.451   6.561
 7482SOL     OW23344   4.560   2.450   4.458
 7482SOL    HW123345   4.545   2.498   4.544
 7482SOL    HW223346   4.649   2.404   4.461
 7483SOL     OW23347   4.880   1.819   6.399
 7483SOL    HW123348   4.865   1.894   6.463
 7483SOL    HW223349   4.978   1.804   6.388
 7484SOL     OW23350   2.598   0.874   4.473
 7484SOL    HW123351   2.614   0.849   4.568
 7484SOL    HW223352   2.503   0.853   4.448
 7485SOL     OW23353   3.920   0.167   6.801
 7485SOL    HW123354   3.865   0.139   6.723
 7485SOL    HW223355   3.991   0.098   6.819
 7486SOL     OW23356   4.387   6.880   1.074
 7486SOL    HW123357   4.440   6.831   1.143
 7486SOL    HW223358   4.448   6.908   0.999
 7487SOL     OW23359   3.327   6.266   4.343
 7487SOL    HW123360   3.310   6.320   4.260
 7487SOL    HW223361   3.248   6.273   4.404
 7488SOL     OW23362   1.599   6.113   3.864
 7488SOL    HW123363   1.515   6.166   3.855
 7488SOL    HW223364   1.577   6.023   3.902
 7489SOL     OW23365   5.208   3.116   6.565
 7489SOL    HW123366   5.235   3.020   6.558
 7489SOL    HW223367   5.131   3.125   6.627
 7490SOL     OW23368   1.834   3.145   1.568
 7490SOL    HW123369   1.906   3.111   1.508
 7490SOL    HW223370   1.783   3.217   1.522
 7491SOL     OW23371   4.474   3.789   6.502
 7491SOL    HW123372   4.511   3.797   6.595
 7491SOL    HW223373   4.375   3.803   6.505
 7492SOL     OW23374   1.726   0.698   3.563
 7492SOL    HW123375   1.677   0.614   3.539
 7492SOL    HW223376   1.661   0.774   3.566
 7493SOL     OW23377   6.616   4.922   4.760
 7493SOL    HW123378   6.605   4.895   4.855
 7493SOL    HW223379   6.672   5.004   4.755
 7494SOL     OW23380   6.106   1.150   2.245
 7494SOL    HW123381   6.021   1.162   2.194
 7494SOL    HW223382   6.182   1.191   2.195
 7495SOL     OW23383   1.411   2.927   4.249
 7495SOL    HW123384   1.433   2.975   4.333
 7495SOL    HW223385   1.375   2.836   4.271
 7496SOL     OW23386   6.103   3.462   3.045
 7496SOL    HW123387   6.047   3.456   3.127
 7496SOL    HW223388   6.138   3.555   3.035
 7497SOL     OW23389   6.459   6.862   1.473
 7497SOL    HW123390   6.375   6.912   1.450
 7497SOL    HW223391   6.474   6.790   1.405
 7498SOL     OW23392   2.564   6.923   3.981
 7498SOL    HW123393   2.583   6.824   3.984
 7498SOL    HW223394   2.629   6.968   3.921
 7499SOL     OW23395   2.789   1.565   3.434
 7499SOL    HW123396   2.698   1.526   3.451
 7499SOL    HW223397   2.805   1.641   3.497
 7500SOL     OW23398   3.785   1.525   4.421
 7500SOL    HW123399   3.697   1.479   4.431
 7500SOL    HW223400   3.770   1.624   4.416
 7501SOL     OW23401   6.214   2.098   3.788
 7501SOL    HW123402   6.159   2.174   3.753
 7501SOL    HW223403   6.165   2.012   3.773
 7502SOL     OW23404   4.042   1.062   3.518
 7502SOL    HW123405   4.049   1.073   3.617
 7502SOL    HW223406   3.945   1.062   3.492
 7503SOL     OW23407   1.684   5.974   1.085
 7503SOL    HW123408   1.591   5.944   1.064
 7503SOL    HW223409   1.712   5.934   1.173
 7504SOL     OW23410   5.465   6.511   4.584
 7504SOL    HW123411   5.449   6.570   4.663
 7504SOL    HW223412   5.517   6.561   4.515
 7505SOL     OW23413   0.792   6.428   5.786
 7505SOL    HW123414   0.869   6.430   5.849
 7505SOL    HW223415   0.737   6.511   5.799
 7506SOL     OW23416   3.610   2.115   4.181
 7506SOL    HW123417   3.533   2.147   4.235
 7506SOL    HW223418   3.695   2.133   4.231
 7507SOL     OW23419   6.626   3.978   6.317
 7507SOL    HW123420   6.694   4.047   6.292
 7507SOL    HW223421   6.655   3.931   6.400
 7508SOL     OW23422   2.937   6.167   0.545
 7508SOL    HW123423   2.842   6.184   0.521
 7508SOL    HW223424   2.991   6.154   0.462
 7509SOL     OW23425   6.408   4.665   2.414
 7509SOL    HW123426   6.318   4.689   2.378
 7509SOL    HW223427   6.474   4.737   2.389
 7510SOL     OW23428   3.390   4.099   1.555
 7510SOL    HW123429   3.321   4.028   1.540
 7510SOL    HW223430   3.464   4.062   1.612
 7511SOL     OW23431   4.800   6.023   3.911
 7511SOL    HW123432   4.738   5.994   3.983
 7511SOL    HW223433   4.770   5.984   3.824
 7512SOL     OW23434   4.363   0.263   0.871
 7512SOL    HW123435   4.435   0.268   0.940
 7512SOL    HW223436   4.367   0.174   0.825
 7513SOL     OW23437   1.024   0.667   2.024
 7513SOL    HW123438   0.932   0.662   2.064
 7513SOL    HW223439   1.044   0.762   2.000
 7514SOL     OW23440   0.300   0.328   0.611
 7514SOL    HW123441   0.319   0.350   0.707
 7514SOL    HW223442   0.386   0.305   0.564
 7515SOL     OW23443   0.115   4.832   5.192
 7515SOL    HW123444   0.212   4.834   5.215
 7515SOL    HW223445   0.063   4.885   5.259
 7516SOL     OW23446   1.932   6.280   5.131
 7516SOL    HW123447   1.897   6.343   5.062
 7516SOL    HW223448   1.907   6.186   5.107
 7517SOL     OW23449   0.596   2.260   6.788
 7517SOL    HW123450   0.668   2.288   6.851
 7517SOL    HW223451   0.601   2.315   6.704
 7518SOL     OW23452   4.123   2.178   4.385
 7518SOL    HW123453   4.200   2.240   4.370
 7518SOL    HW223454   4.157   2.086   4.402
 7519SOL     OW23455   3.527   6.778   5.171
 7519SOL    HW123456   3.469   6.818   5.099
 7519SOL    HW223457   3.505   6.821   5.258
 7520SOL     OW23458   1.795   1.253   0.730
 7520SOL    HW123459   1.874   1.289   0.778
 7520SOL    HW223460   1.823   1.217   0.641
 7521SOL     OW23461   4.137   1.512   5.283
 7521SOL    HW123462   4.143   1.577   5.208
 7521SOL    HW223463   4.211   1.528   5.348
 7522SOL     OW23464   1.845   6.602   4.484
 7522SOL    HW123465   1.870   6.692   4.450
 7522SOL    HW223466   1.760   6.571   4.442
 7523SOL     OW23467   5.862   1.853   6.912
 7523SOL    HW123468   5.763   1.862   6.916
 7523SOL    HW223469   5.903   1.889   6.996
 7524SOL     OW23470   0.676   3.811   5.347
 7524SOL    HW123471   0.700   3.833   5.252
 7524SOL    HW223472   0.631   3.722   5.350
 7525SOL     OW23473   1.891   4.797   5.842
 7525SOL    HW123474   1.793   4.807   5.826
 7525SOL    HW223475   1.915   4.700   5.844
 7526SOL     OW23476   1.476   4.071   0.835
 7526SOL    HW123477   1.475   4.170   0.828
 7526SOL    HW223478   1.417   4.041   0.910
 7527SOL     OW23479   2.676   5.176   2.670
 7527SOL    HW123480   2.733   5.258   2.685
 7527SOL    HW223481   2.700   5.136   2.581
 7528SOL     OW23482   6.077   2.699   6.780
 7528SOL    HW123483   6.146   2.707   6.852
 7528SOL    HW223484   6.122   2.687   6.692
 7529SOL     OW23485   5.632   3.262   4.781
 7529SOL    HW123486   5.681   3.315   4.850
 7529SOL    HW223487   5.536   3.289   4.780
 7530SOL     OW23488   1.276   2.821   3.098
 7530SOL    HW123489   1.216   2.803   3.177
 7530SOL    HW223490   1.255   2.911   3.061
 7531SOL     OW23491   4.205   1.714   3.734
 7531SOL    HW123492   4.167   1.626   3.709
 7531SOL    HW223493   4.225   1.716   3.832
 7532SOL     OW23494   4.807   5.431   6.172
 7532SOL    HW123495   4.711   5.451   6.190
 7532SOL    HW223496   4.864   5.489   6.230
 7533SOL     OW23497   4.321   4.726   2.041
 7533SOL    HW123498   4.374   4.690   2.118
 7533SOL    HW223499   4.330   4.664   1.963
 7534SOL     OW23500   4.338   5.730   5.356
 7534SOL    HW123501   4.360   5.633   5.367
 7534SOL    HW223502   4.416   5.785   5.386
 7535SOL     OW23503   0.375   6.687   4.185
 7535SOL    HW123504   0.463   6.655   4.150
 7535SOL    HW223505   0.389   6.736   4.271
 7536SOL     OW23506   6.520   6.562   2.849
 7536SOL    HW123507   6.545   6.505   2.927
 7536SOL    HW223508   6.466   6.640   2.880
 7537SOL     OW23509   1.839   0.291   2.571
 7537SOL    HW123510   1.794   0.365   2.521
 7537SOL    HW223511   1.896   0.329   2.643
 7538SOL     OW23512   0.234   4.923   0.169
 7538SOL    HW123513   0.238   4.956   0.075
 7538SOL    HW223514   0.215   4.825   0.169
 7539SOL     OW23515   6.415   0.627   4.248
 7539SOL    HW123516   6.450   0.697   4.186
 7539SOL    HW223517   6.485   0.605   4.316
 7540SOL     OW23518   4.954   4.496   3.209
 7540SOL    HW123519   4.919   4.419   3.157
 7540SOL    HW223520   5.008   4.462   3.286
 7541SOL     OW23521   1.988   4.043   6.720
 7541SOL    HW123522   2.085   4.026   6.735
 7541SOL    HW223523   1.976   4.093   6.634
 7542SOL     OW23524   5.971   5.804   4.764
 7542SOL    HW123525   5.948   5.834   4.856
 7542SOL    HW223526   5.892   5.815   4.704
 7543SOL     OW23527   2.322   1.326   0.462
 7543SOL    HW123528   2.370   1.401   0.508
 7543SOL    HW223529   2.243   1.361   0.413
 7544SOL     OW23530   5.928   1.395   4.789
 7544SOL    HW123531   5.876   1.324   4.741
 7544SOL    HW223532   5.996   1.434   4.726
 7545SOL     OW23533   1.569   5.745   5.143
 7545SOL    HW123534   1.640   5.675   5.154
 7545SOL    HW223535   1.505   5.741   5.220
 7546SOL     OW23536   2.408   2.715   1.924
 7546SOL    HW123537   2.409   2.687   2.020
 7546SOL    HW223538   2.343   2.790   1.912
 7547SOL     OW23539   4.345   0.543   2.391
 7547SOL    HW123540   4.296   0.622   2.427
 7547SOL    HW223541   4.292   0.501   2.317
 7548SOL     OW23542   2.819   2.137   6.371
 7548SOL    HW123543   2.775   2.049   6.390
 7548SOL    HW223544   2.749   2.206   6.353
 7549SOL     OW23545   5.362   0.729   4.450
 7549SOL    HW123546   5.335   0.648   4.502
 7549SOL    HW223547   5.455   0.718   4.415
 7550SOL     OW23548   2.240   5.907   4.795
 7550SOL    HW123549   2.172   5.841   4.763
 7550SOL    HW223550   2.194   5.980   4.845
 7551SOL     OW23551   6.082   3.384   6.486
 7551SOL    HW123552   6.181   3.377   6.478
 7551SOL    HW223553   6.052   3.472   6.449
 7552SOL     OW23554   2.705   6.129   4.664
 7552SOL    HW123555   2.769   6.142   4.740
 7552SOL    HW223556   2.626   6.077   4.696
 7553SOL     OW23557   5.999   6.663   5.831
 7553SOL    HW123558   5.986   6.738   5.766
 7553SOL    HW223559   6.068   6.600   5.796
 7554SOL     OW23560   4.951   1.749   1.564
 7554SOL    HW123561   5.032   1.772   1.618
 7554SOL    HW223562   4.972   1.762   1.467
 7555SOL     OW23563   4.145   5.454   4.105
 7555SOL    HW123564   4.208   5.415   4.038
 7555SOL    HW223565   4.149   5.401   4.190
 7556SOL     OW23566   1.437   5.886   1.049
 7556SOL    HW123567   1.437   5.787   1.035
 7556SOL    HW223568   1.411   5.931   0.964
 7557SOL     OW23569   4.316   6.389   1.058
 7557SOL    HW123570   4.274   6.374   1.147
 7557SOL    HW223571   4.254   6.357   0.986
 7558SOL     OW23572   0.621   1.752   3.748
 7558SOL    HW123573   0.624   1.683   3.820
 7558SOL    HW223574   0.538   1.739   3.694
 7559SOL     OW23575   2.503   0.176   5.280
 7559SOL    HW123576   2.470   0.238   5.351
 7559SOL    HW223577   2.493   0.220   5.191
 7560SOL     OW23578   1.194   0.982   5.676
 7560SOL    HW123579   1.187   1.014   5.581
 7560SOL    HW223580   1.243   0.895   5.678
 7561SOL     OW23581   5.263   1.050   5.119
 7561SOL    HW123582   5.260   0.966   5.173
 7561SOL    HW223583   5.352   1.058   5.075
 7562SOL     OW23584   2.079   5.419   3.425
 7562SOL    HW123585   2.047   5.482   3.355
 7562SOL    HW223586   2.001   5.369   3.463
 7563SOL     OW23587   2.772   6.381   3.366
 7563SOL    HW123588   2.748   6.394   3.462
 7563SOL    HW223589   2.794   6.285   3.349
 7564SOL     OW23590   4.771   2.544   5.500
 7564SOL    HW123591   4.769   2.530   5.401
 7564SOL    HW223592   4.844   2.608   5.523
 7565SOL     OW23593   6.528   3.087   5.533
 7565SOL    HW123594   6.505   3.091   5.436
 7565SOL    HW223595   6.480   3.161   5.581
 7566SOL     OW23596   4.725   4.670   1.007
 7566SOL    HW123597   4.716   4.611   0.926
 7566SOL    HW223598   4.701   4.617   1.088
 7567SOL     OW23599   1.638   0.391   3.686
 7567SOL    HW123600   1.580   0.467   3.658
 7567SOL    HW223601   1.680   0.349   3.605
 7568SOL     OW23602   6.470   4.160   1.160
 7568SOL    HW123603   6.405   4.200   1.224
 7568SOL    HW223604   6.484   4.063   1.182
 7569SOL     OW23605   4.443   3.520   1.096
 7569SOL    HW123606   4.480   3.428   1.094
 7569SOL    HW223607   4.480   3.569   1.175
 7570SOL     OW23608   0.735   3.170   2.234
 7570SOL    HW123609   0.805   3.138   2.298
 7570SOL    HW223610   0.655   3.111   2.241
 7571SOL     OW23611   4.749   1.383   2.769
 7571SOL    HW123612   4.683   1.432   2.713
 7571SOL    HW223613   4.771   1.295   2.725
 7572SOL     OW23614   4.285   6.514   3.318
 7572SOL    HW123615   4.368   6.551   3.276
 7572SOL    HW223616   4.289   6.529   3.417
 7573SOL     OW23617   4.461   6.716   6.727
 7573SOL    HW123618   4.409   6.641   6.687
 7573SOL    HW223619   4.549   6.724   6.682
 7574SOL     OW23620   0.590   2.911   3.979
 7574SOL    HW123621   0.502   2.936   4.019
 7574SOL    HW223622   0.592   2.936   3.882
 7575SOL     OW23623   0.059   6.905   0.771
 7575SOL    HW123624   0.010   6.978   0.820
 7575SOL    HW223625   0.157   6.926   0.770
 7576SOL     OW23626   4.334   2.846   0.170
 7576SOL    HW123627   4.388   2.885   0.244
 7576SOL    HW223628   4.384   2.855   0.084
 7577SOL     OW23629   6.968   0.539   6.358
 7577SOL    HW123630   6.978   0.573   6.452
 7577SOL    HW223631   0.013   0.586   6.299
 7578SOL     OW23632   6.075   5.872   2.796
 7578SOL    HW123633   5.978   5.886   2.774
 7578SOL    HW223634   6.087   5.874   2.896
 7579SOL     OW23635   1.395   1.676   6.727
 7579SOL    HW123636   1.326   1.669   6.655
 7579SOL    HW223637   1.360   1.631   6.810
 7580SOL     OW23638   2.177   4.858   2.905
 7580SOL    HW123639   2.180   4.950   2.944
 7580SOL    HW223640   2.145   4.863   2.811
 7581SOL     OW23641   0.323   7.006   0.640
 7581SOL    HW123642   0.266   0.025   0.569
 7581SOL    HW223643   0.397   0.049   0.663
 7582SOL     OW23644   2.142   1.020   6.187
 7582SOL    HW123645   2.051   1.063   6.188
 7582SOL    HW223646   2.211   1.088   6.210
 7583SOL     OW23647   5.466   3.663   2.103
 7583SOL    HW123648   5.369   3.664   2.128
 7583SOL    HW223649   5.486   3.579   2.052
 7584SOL     OW23650   0.085   1.015   3.335
 7584SOL    HW123651   7.007   1.031   3.320
 7584SOL    HW223652   0.102   0.917   3.336
 7585SOL     OW23653   1.260   1.309   5.568
 7585SOL    HW123654   1.335   1.244   5.570
 7585SOL    HW223655   1.189   1.277   5.505
 7586SOL     OW23656   1.695   6.634   3.955
 7586SOL    HW123657   1.606   6.616   3.996
 7586SOL    HW223658   1.713   6.566   3.883
 7587SOL     OW23659   5.032   6.951   2.013
 7587SOL    HW123660   4.947   6.977   1.966
 7587SOL    HW223661   5.015   6.871   2.071
 7588SOL     OW23662   2.001   3.476   4.850
 7588SOL    HW123663   2.004   3.403   4.918
 7588SOL    HW223664   2.018   3.564   4.894
 7589SOL     OW23665   6.727   0.126   2.246
 7589SOL    HW123666   6.721   0.109   2.148
 7589SOL    HW223667   6.804   0.075   2.284
 7590SOL     OW23668   6.117   1.225   0.558
 7590SOL    HW123669   6.036   1.180   0.595
 7590SOL    HW223670   6.114   1.323   0.581
 7591SOL     OW23671   3.218   4.090   4.648
 7591SOL    HW123672   3.301   4.114   4.698
 7591SOL    HW223673   3.147   4.064   4.713
 7592SOL     OW23674   0.753   6.524   3.635
 7592SOL    HW123675   0.785   6.619   3.639
 7592SOL    HW223676   0.691   6.507   3.712
 7593SOL     OW23677   6.481   1.305   6.274
 7593SOL    HW123678   6.533   1.220   6.275
 7593SOL    HW223679   6.503   1.358   6.192
 7594SOL     OW23680   6.965   3.620   5.792
 7594SOL    HW123681   0.017   3.677   5.754
 7594SOL    HW223682   6.888   3.678   5.818
 7595SOL     OW23683   0.640   3.130   6.900
 7595SOL    HW123684   0.693   3.134   6.815
 7595SOL    HW223685   0.700   3.100   6.975
 7596SOL     OW23686   2.941   1.592   0.470
 7596SOL    HW123687   2.940   1.666   0.402
 7596SOL    HW223688   2.898   1.511   0.431
 7597SOL     OW23689   2.273   4.417   0.843
 7597SOL    HW123690   2.302   4.513   0.834
 7597SOL    HW223691   2.219   4.405   0.926
 7598SOL     OW23692   5.065   0.865   2.101
 7598SOL    HW123693   5.051   0.766   2.103
 7598SOL    HW223694   5.128   0.892   2.174
 7599SOL     OW23695   3.401   3.317   0.126
 7599SOL    HW123696   3.448   3.362   0.201
 7599SOL    HW223697   3.316   3.276   0.158
 7600SOL     OW23698   1.047   0.241   3.738
 7600SOL    HW123699   1.014   0.265   3.647
 7600SOL    HW223700   1.143   0.268   3.747
 7601SOL     OW23701   2.914   6.199   1.135
 7601SOL    HW123702   2.920   6.211   1.234
 7601SOL    HW223703   2.851   6.266   1.097
 7602SOL     OW23704   0.864   1.753   0.885
 7602SOL    HW123705   0.962   1.773   0.885
 7602SOL    HW223706   0.820   1.801   0.961
 7603SOL     OW23707   4.399   1.012   6.384
 7603SOL    HW123708   4.454   0.937   6.348
 7603SOL    HW223709   4.342   0.979   6.458
 7604SOL     OW23710   2.312   2.557   5.455
 7604SOL    HW123711   2.350   2.545   5.363
 7604SOL    HW223712   2.319   2.470   5.505
 7605SOL     OW23713   3.054   5.768   0.177
 7605SOL    HW123714   3.011   5.859   0.180
 7605SOL    HW223715   3.148   5.777   0.145
 7606SOL     OW23716   6.559   0.681   3.182
 7606SOL    HW123717   6.532   0.682   3.279
 7606SOL    HW223718   6.640   0.738   3.169
 7607SOL     OW23719   1.799   5.742   5.616
 7607SOL    HW123720   1.864   5.759   5.690
 7607SOL    HW223721   1.844   5.691   5.543
 7608SOL     OW23722   6.992   2.325   6.388
 7608SOL    HW123723   6.974   2.423   6.390
 7608SOL    HW223724   6.906   2.275   6.381
 7609SOL     OW23725   3.576   0.612   4.957
 7609SOL    HW123726   3.593   0.704   4.992
 7609SOL    HW223727   3.510   0.566   5.017
 7610SOL     OW23728   4.124   4.774   4.542
 7610SOL    HW123729   4.165   4.765   4.633
 7610SOL    HW223730   4.196   4.774   4.473
 7611SOL     OW23731   4.621   1.943   6.992
 7611SOL    HW123732   4.568   1.896   0.042
 7611SOL    HW223733   4.587   1.918   6.901
 7612SOL     OW23734   4.604   1.757   2.628
 7612SOL    HW123735   4.609   1.722   2.721
 7612SOL    HW223736   4.673   1.710   2.571
 7613SOL     OW23737   0.163   0.775   6.469
 7613SOL    HW123738   0.211   0.841   6.410
 7613SOL    HW223739   0.212   0.766   6.555
 7614SOL     OW23740   5.904   4.982   6.841
 7614SOL    HW123741   5.897   5.001   6.743
 7614SOL    HW223742   5.981   5.033   6.879
 7615SOL     OW23743   5.403   2.935   6.266
 7615SOL    HW123744   5.471   3.008   6.271
 7615SOL    HW223745   5.360   2.936   6.176
 7616SOL     OW23746   6.880   6.361   2.372
 7616SOL    HW123747   6.840   6.452   2.357
 7616SOL    HW223748   6.844   6.298   2.303
 7617SOL     OW23749   6.197   4.039   2.599
 7617SOL    HW123750   6.121   4.102   2.615
 7617SOL    HW223751   6.162   3.954   2.560
 7618SOL     OW23752   2.683   1.621   6.994
 7618SOL    HW123753   2.694   1.712   0.014
 7618SOL    HW223754   2.685   1.552   0.047
 7619SOL     OW23755   0.738   0.731   5.673
 7619SOL    HW123756   0.696   0.652   5.627
 7619SOL    HW223757   0.836   0.733   5.654
 7620SOL     OW23758   3.149   3.692   0.166
 7620SOL    HW123759   3.085   3.711   0.240
 7620SOL    HW223760   3.202   3.775   0.146
 7621SOL     OW23761   6.281   5.327   0.354
 7621SOL    HW123762   6.236   5.412   0.329
 7621SOL    HW223763   6.216   5.267   0.400
 7622SOL     OW23764   3.145   3.972   1.554
 7622SOL    HW123765   3.057   3.960   1.506
 7622SOL    HW223766   3.130   4.026   1.637
 7623SOL     OW23767   5.533   4.644   2.242
 7623SOL    HW123768   5.565   4.571   2.181
 7623SOL    HW223769   5.472   4.605   2.311
 7624SOL     OW23770   0.267   3.061   2.812
 7624SOL    HW123771   0.253   3.146   2.862
 7624SOL    HW223772   0.343   3.010   2.852
 7625SOL     OW23773   5.193   0.447   1.614
 7625SOL    HW123774   5.220   0.506   1.537
 7625SOL    HW223775   5.240   0.478   1.697
 7626SOL     OW23776   4.861   6.735   0.111
 7626SOL    HW123777   4.849   6.636   0.101
 7626SOL    HW223778   4.776   6.781   0.085
 7627SOL     OW23779   4.397   2.561   5.916
 7627SOL    HW123780   4.336   2.502   5.970
 7627SOL    HW223781   4.343   2.614   5.850
 7628SOL     OW23782   3.156   2.721   0.577
 7628SOL    HW123783   3.122   2.806   0.617
 7628SOL    HW223784   3.169   2.734   0.479
 7629SOL     OW23785   5.448   2.328   3.443
 7629SOL    HW123786   5.363   2.275   3.439
 7629SOL    HW223787   5.506   2.291   3.515
 7630SOL     OW23788   1.362   6.221   3.824
 7630SOL    HW123789   1.337   6.248   3.731
 7630SOL    HW223790   1.339   6.295   3.888
 7631SOL     OW23791   1.719   1.151   5.654
 7631SOL    HW123792   1.797   1.117   5.706
 7631SOL    HW223793   1.649   1.185   5.717
 7632SOL     OW23794   4.123   5.689   0.970
 7632SOL    HW123795   4.119   5.716   0.873
 7632SOL    HW223796   4.046   5.730   1.019
 7633SOL     OW23797   5.272   0.748   1.687
 7633SOL    HW123798   5.278   0.735   1.588
 7633SOL    HW223799   5.184   0.789   1.710
 7634SOL     OW23800   0.328   2.248   6.640
 7634SOL    HW123801   0.323   2.153   6.671
 7634SOL    HW223802   0.419   2.285   6.659
 7635SOL     OW23803   1.394   3.464   5.858
 7635SOL    HW123804   1.488   3.499   5.862
 7635SOL    HW223805   1.330   3.541   5.862
 7636SOL     OW23806   6.777   3.341   3.425
 7636SOL    HW123807   6.698   3.286   3.398
 7636SOL    HW223808   6.772   3.430   3.379
 7637SOL     OW23809   1.163   4.064   5.517
 7637SOL    HW123810   1.093   4.060   5.588
 7637SOL    HW223811   1.166   4.156   5.477
 7638SOL     OW23812   0.361   6.264   1.239
 7638SOL    HW123813   0.433   6.326   1.271
 7638SOL    HW223814   0.403   6.178   1.209
 7639SOL     OW23815   2.712   6.331   0.444
 7639SOL    HW123816   2.641   6.276   0.402
 7639SOL    HW223817   2.671   6.396   0.507
 7640SOL     OW23818   2.956   0.532   0.966
 7640SOL    HW123819   2.892   0.539   1.043
 7640SOL    HW223820   3.025   0.463   0.986
 7641SOL     OW23821   6.449   5.046   5.169
 7641SOL    HW123822   6.478   5.125   5.223
 7641SOL    HW223823   6.427   5.076   5.076
 7642SOL     OW23824   5.791   0.874   3.912
 7642SOL    HW123825   5.881   0.914   3.897
 7642SOL    HW223826   5.793   0.776   3.893
 7643SOL     OW23827   5.376   2.443   4.760
 7643SOL    HW123828   5.305   2.441   4.831
 7643SOL    HW223829   5.347   2.388   4.682
 7644SOL     OW23830   5.255   4.109   0.859
 7644SOL    HW123831   5.308   4.101   0.943
 7644SOL    HW223832   5.315   4.134   0.783
 7645SOL     OW23833   4.684   4.828   6.638
 7645SOL    HW123834   4.715   4.733   6.635
 7645SOL    HW223835   4.642   4.852   6.550
 7646SOL     OW23836   6.901   1.971   1.960
 7646SOL    HW123837   6.958   1.954   2.040
 7646SOL    HW223838   6.959   1.978   1.879
 7647SOL     OW23839   6.732   1.992   3.757
 7647SOL    HW123840   6.647   2.037   3.781
 7647SOL    HW223841   6.763   1.935   3.834
 7648SOL     OW23842   1.752   2.227   1.371
 7648SOL    HW123843   1.677   2.290   1.352
 7648SOL    HW223844   1.802   2.258   1.452
 7649SOL     OW23845   4.038   0.835   0.101
 7649SOL    HW123846   4.057   0.798   0.010
 7649SOL    HW223847   3.990   0.922   0.092
 7650SOL     OW23848   3.498   2.289   0.582
 7650SOL    HW123849   3.508   2.360   0.513
 7650SOL    HW223850   3.547   2.207   0.553
 7651SOL     OW23851   3.671   5.447   6.653
 7651SOL    HW123852   3.644   5.543   6.653
 7651SOL    HW223853   3.621   5.398   6.581
 7652SOL     OW23854   0.221   0.545   5.224
 7652SOL    HW123855   0.303   0.521   5.275
 7652SOL    HW223856   0.142   0.497   5.262
 7653SOL     OW23857   1.712   6.723   6.894
 7653SOL    HW123858   1.791   6.662   6.892
 7653SOL    HW223859   1.742   6.815   6.918
 7654SOL     OW23860   6.868   2.258   5.606
 7654SOL    HW123861   6.919   2.284   5.524
 7654SOL    HW223862   6.771   2.281   5.593
 7655SOL     OW23863   3.449   1.776   5.089
 7655SOL    HW123864   3.542   1.792   5.054
 7655SOL    HW223865   3.407   1.701   5.037
 7656SOL     OW23866   6.121   3.745   6.938
 7656SOL    HW123867   6.022   3.736   6.948
 7656SOL    HW223868   6.142   3.782   6.848
 7657SOL     OW23869   1.259   3.806   4.695
 7657SOL    HW123870   1.262   3.762   4.606
 7657SOL    HW223871   1.216   3.895   4.687
 7658SOL     OW23872   2.409   0.758   1.193
 7658SOL    HW123873   2.323   0.794   1.230
 7658SOL    HW223874   2.401   0.749   1.094
 7659SOL     OW23875   5.528   4.646   5.887
 7659SOL    HW123876   5.447   4.702   5.904
 7659SOL    HW223877   5.523   4.608   5.794
 7660SOL     OW23878   6.852   6.498   5.589
 7660SOL    HW123879   6.899   6.521   5.503
 7660SOL    HW223880   6.769   6.446   5.569
 7661SOL     OW23881   2.148   0.717   5.421
 7661SOL    HW123882   2.221   0.662   5.380
 7661SOL    HW223883   2.116   0.672   5.504
 7662SOL     OW23884   0.138   6.272   1.368
 7662SOL    HW123885   0.100   6.364   1.364
 7662SOL    HW223886   0.224   6.270   1.317
 7663SOL     OW23887   1.166   6.164   4.421
 7663SOL    HW123888   1.256   6.208   4.413
 7663SOL    HW223889   1.146   6.149   4.518
 7664SOL     OW23890   5.617   2.405   2.359
 7664SOL    HW123891   5.717   2.401   2.365
 7664SOL    HW223892   5.586   2.495   2.388
 7665SOL     OW23893   2.935   0.786   5.581
 7665SOL    HW123894   3.017   0.738   5.613
 7665SOL    HW223895   2.873   0.801   5.658
 7666SOL     OW23896   6.028   5.422   4.092
 7666SOL    HW123897   5.972   5.403   4.172
 7666SOL    HW223898   6.125   5.413   4.116
 7667SOL     OW23899   4.446   5.407   1.481
 7667SOL    HW123900   4.493   5.343   1.543
 7667SOL    HW223901   4.392   5.471   1.535
 7668SOL     OW23902   1.915   5.684   0.155
 7668SOL    HW123903   1.879   5.660   0.245
 7668SOL    HW223904   1.973   5.765   0.163
 7669SOL     OW23905   3.039   1.868   6.687
 7669SOL    HW123906   2.992   1.786   6.721
 7669SOL    HW223907   3.130   1.844   6.655
 7670SOL     OW23908   0.806   0.445   0.846
 7670SOL    HW123909   0.768   0.383   0.915
 7670SOL    HW223910   0.792   0.540   0.874
 7671SOL     OW23911   3.632   0.073   1.318
 7671SOL    HW123912   3.668   7.001   1.329
 7671SOL    HW223913   3.644   0.125   1.403
 7672SOL     OW23914   5.525   3.426   1.966
 7672SOL    HW123915   5.471   3.348   1.933
 7672SOL    HW223916   5.622   3.410   1.948
 7673SOL     OW23917   2.184   6.455   5.295
 7673SOL    HW123918   2.168   6.397   5.215
 7673SOL    HW223919   2.124   6.535   5.291
 7674SOL     OW23920   3.210   5.395   3.687
 7674SOL    HW123921   3.237   5.333   3.761
 7674SOL    HW223922   3.168   5.343   3.613
 7675SOL     OW23923   3.719   6.338   3.339
 7675SOL    HW123924   3.619   6.337   3.340
 7675SOL    HW223925   3.752   6.327   3.433
 7676SOL     OW23926   3.244   3.423   5.035
 7676SOL    HW123927   3.340   3.419   5.009
 7676SOL    HW223928   3.200   3.499   4.987
 7677SOL     OW23929   0.540   6.150   6.941
 7677SOL    HW123930   0.560   6.053   6.926
 7677SOL    HW223931   0.489   6.185   6.862
 7678SOL     OW23932   3.744   0.861   5.556
 7678SOL    HW123933   3.656   0.902   5.580
 7678SOL    HW223934   3.783   0.816   5.637
 7679SOL     OW23935   2.567   5.044   4.385
 7679SOL    HW123936   2.523   4.972   4.438
 7679SOL    HW223937   2.640   5.086   4.440
 7680SOL     OW23938   2.017   6.835   4.387
 7680SOL    HW123939   2.082   6.835   4.311
 7680SOL    HW223940   1.925   6.851   4.352
 7681SOL     OW23941   2.155   1.990   5.731
 7681SOL    HW123942   2.110   2.078   5.749
 7681SOL    HW223943   2.111   1.919   5.786
 7682SOL     OW23944   3.436   0.643   1.771
 7682SOL    HW123945   3.421   0.684   1.861
 7682SOL    HW223946   3.482   0.555   1.781
 7683SOL     OW23947   0.478   4.338   4.551
 7683SOL    HW123948   0.550   4.276   4.581
 7683SOL    HW223949   0.398   4.285   4.522
 7684SOL     OW23950   4.753   3.443   1.759
 7684SOL    HW123951   4.695   3.517   1.723
 7684SOL    HW223952   4.724   3.356   1.720
 7685SOL     OW23953   2.146   6.960   6.935
 7685SOL    HW123954   2.208   6.883   6.949
 7685SOL    HW223955   2.111   6.959   6.841
 7686SOL     OW23956   6.571   0.666   3.885
 7686SOL    HW123957   6.584   0.709   3.974
 7686SOL    HW223958   6.643   0.597   3.871
 7687SOL     OW23959   5.462   3.440   5.836
 7687SOL    HW123960   5.411   3.434   5.751
 7687SOL    HW223961   5.529   3.515   5.829
 7688SOL     OW23962   6.547   3.262   0.265
 7688SOL    HW123963   6.643   3.238   0.246
 7688SOL    HW223964   6.534   3.267   0.364
 7689SOL     OW23965   5.608   0.228   2.356
 7689SOL    HW123966   5.616   0.300   2.287
 7689SOL    HW223967   5.646   0.143   2.318
 7690SOL     OW23968   6.156   4.414   2.092
 7690SOL    HW123969   6.113   4.469   2.164
 7690SOL    HW223970   6.242   4.457   2.064
 7691SOL     OW23971   5.287   3.178   3.786
 7691SOL    HW123972   5.237   3.202   3.702
 7691SOL    HW223973   5.290   3.257   3.846
 7692SOL     OW23974   2.153   6.553   1.983
 7692SOL    HW123975   2.169   6.469   2.035
 7692SOL    HW223976   2.191   6.631   2.033
 7693SOL     OW23977   2.747   1.939   0.939
 7693SOL    HW123978   2.663   1.923   0.886
 7693SOL    HW223979   2.747   1.880   1.019
 7694SOL     OW23980   4.239   2.582   0.603
 7694SOL    HW123981   4.185   2.650   0.651
 7694SOL    HW223982   4.325   2.566   0.652
 7695SOL     OW23983   5.104   6.641   4.008
 7695SOL    HW123984   5.042   6.608   4.080
 7695SOL    HW223985   5.170   6.570   3.985
 7696SOL     OW23986   3.083   1.635   5.741
 7696SOL    HW123987   3.060   1.689   5.660
 7696SOL    HW223988   3.043   1.678   5.822
 7697SOL     OW23989   5.682   6.720   3.047
 7697SOL    HW123990   5.750   6.689   2.981
 7697SOL    HW223991   5.591   6.714   3.008
 7698SOL     OW23992   6.186   2.879   1.549
 7698SOL    HW123993   6.128   2.838   1.478
 7698SOL    HW223994   6.158   2.973   1.564
 7699SOL     OW23995   3.964   5.895   6.184
 7699SOL    HW123996   3.970   5.796   6.196
 7699SOL    HW223997   4.056   5.933   6.170
 7700SOL     OW23998   6.957   5.257   2.095
 7700SOL    HW123999   6.869   5.301   2.076
 7700SOL    HW224000   6.945   5.188   2.166
 7701SOL     OW24001   3.395   1.219   6.544
 7701SOL    HW124002   3.402   1.316   6.571
 7701SOL    HW224003   3.364   1.213   6.450
 7702SOL     OW24004   6.198   6.044   5.559
 7702SOL    HW124005   6.180   6.032   5.461
 7702SOL    HW224006   6.193   5.955   5.604
 7703SOL     OW24007   6.931   6.522   6.044
 7703SOL    HW124008   6.856   6.571   6.088
 7703SOL    HW224009   7.012   6.525   6.103
 7704SOL     OW24010   1.910   2.026   4.673
 7704SOL    HW124011   1.965   2.067   4.745
 7704SOL    HW224012   1.837   1.971   4.713
 7705SOL     OW24013   0.983   4.464   0.457
 7705SOL    HW124014   1.082   4.470   0.468
 7705SOL    HW224015   0.938   4.519   0.527
 7706SOL     OW24016   3.220   3.809   2.445
 7706SOL    HW124017   3.239   3.905   2.465
 7706SOL    HW224018   3.181   3.765   2.526
 7707SOL     OW24019   0.273   5.167   6.216
 7707SOL    HW124020   0.259   5.160   6.117
 7707SOL    HW224021   0.360   5.214   6.233
 7708SOL     OW24022   0.392   0.438   4.283
 7708SOL    HW124023   0.295   0.435   4.261
 7708SOL    HW224024   0.407   0.392   4.371
 7709SOL     OW24025   6.247   4.552   0.977
 7709SOL    HW124026   6.228   4.487   0.903
 7709SOL    HW224027   6.160   4.584   1.016
 7710SOL     OW24028   6.574   3.090   2.298
 7710SOL    HW124029   6.476   3.080   2.285
 7710SOL    HW224030   6.614   3.132   2.216
 7711SOL     OW24031   0.639   4.116   3.444
 7711SOL    HW124032   0.677   4.190   3.499
 7711SOL    HW224033   0.713   4.066   3.399
 7712SOL     OW24034   1.294   4.773   4.392
 7712SOL    HW124035   1.392   4.755   4.396
 7712SOL    HW224036   1.244   4.699   4.437
 7713SOL     OW24037   1.032   5.350   0.667
 7713SOL    HW124038   1.069   5.393   0.749
 7713SOL    HW224039   1.084   5.267   0.646
 7714SOL     OW24040   5.798   1.441   5.168
 7714SOL    HW124041   5.700   1.430   5.148
 7714SOL    HW224042   5.847   1.457   5.083
 7715SOL     OW24043   4.051   3.878   6.726
 7715SOL    HW124044   4.130   3.862   6.667
 7715SOL    HW224045   4.021   3.791   6.765
 7716SOL     OW24046   1.214   1.283   6.552
 7716SOL    HW124047   1.134   1.340   6.530
 7716SOL    HW224048   1.215   1.263   6.650
 7717SOL     OW24049   0.688   1.395   5.896
 7717SOL    HW124050   0.773   1.439   5.924
 7717SOL    HW224051   0.611   1.457   5.913
 7718SOL     OW24052   0.336   3.255   3.385
 7718SOL    HW124053   0.243   3.219   3.379
 7718SOL    HW224054   0.335   3.353   3.367
 7719SOL     OW24055   1.973   6.274   4.747
 7719SOL    HW124056   1.887   6.233   4.778
 7719SOL    HW224057   2.049   6.230   4.795
 7720SOL     OW24058   4.762   1.498   6.697
 7720SOL    HW124059   4.815   1.583   6.688
 7720SOL    HW224060   4.743   1.460   6.607
 7721SOL     OW24061   5.898   5.766   2.473
 7721SOL    HW124062   5.863   5.827   2.544
 7721SOL    HW224063   5.870   5.672   2.492
 7722SOL     OW24064   0.057   5.850   4.262
 7722SOL    HW124065   0.146   5.895   4.259
 7722SOL    HW224066   0.012   5.857   4.173
 7723SOL     OW24067   4.280   4.418   6.817
 7723SOL    HW124068   4.198   4.399   6.872
 7723SOL    HW224069   4.360   4.376   6.860
 7724SOL     OW24070   1.360   4.752   0.502
 7724SOL    HW124071   1.418   4.700   0.564
 7724SOL    HW224072   1.286   4.796   0.554
 7725SOL     OW24073   5.207   3.276   5.047
 7725SOL    HW124074   5.109   3.293   5.041
 7725SOL    HW224075   5.254   3.326   4.974
 7726SOL     OW24076   1.998   3.208   0.222
 7726SOL    HW124077   2.013   3.113   0.248
 7726SOL    HW224078   1.913   3.215   0.169
 7727SOL     OW24079   5.892   0.327   2.799
 7727SOL    HW124080   5.824   0.274   2.849
 7727SOL    HW224081   5.932   0.396   2.858
 7728SOL     OW24082   2.195   3.245   5.088
 7728SOL    HW124083   2.250   3.282   5.163
 7728SOL    HW224084   2.256   3.206   5.019
 7729SOL     OW24085   6.974   1.012   2.867
 7729SOL    HW124086   6.894   0.962   2.899
 7729SOL    HW224087   7.009   1.070   2.940
 7730SOL     OW24088   6.157   4.138   6.110
 7730SOL    HW124089   6.191   4.049   6.139
 7730SOL    HW224090   6.210   4.210   6.154
 7731SOL     OW24091   6.489   0.834   6.412
 7731SOL    HW124092   6.489   0.742   6.450
 7731SOL    HW224093   6.417   0.888   6.456
 7732SOL     OW24094   4.208   1.033   6.962
 7732SOL    HW124095   4.133   1.071   6.908
 7732SOL    HW224096   4.181   1.026   0.037
 7733SOL     OW24097   6.302   5.935   1.273
 7733SOL    HW124098   6.282   5.839   1.252
 7733SOL    HW224099   6.223   5.976   1.319
 7734SOL     OW24100   4.021   3.882   3.343
 7734SOL    HW124101   4.044   3.824   3.421
 7734SOL    HW224102   4.088   3.957   3.337
 7735SOL     OW24103   1.044   5.752   0.911
 7735SOL    HW124104   1.121   5.703   0.870
 7735SOL    HW224105   1.028   5.836   0.860
 7736SOL     OW24106   1.543   1.525   0.942
 7736SOL    HW124107   1.579   1.486   0.857
 7736SOL    HW224108   1.470   1.591   0.920
 7737SOL     OW24109   4.899   4.734   6.158
 7737SOL    HW124110   4.812   4.691   6.137
 7737SOL    HW224111   4.921   4.719   6.254
 7738SOL     OW24112   1.800   1.298   5.423
 7738SOL    HW124113   1.756   1.226   5.475
 7738SOL    HW224114   1.899   1.281   5.419
 7739SOL     OW24115   0.896   2.896   6.859
 7739SOL    HW124116   0.852   2.975   6.817
 7739SOL    HW224117   0.844   2.813   6.838
 7740SOL     OW24118   2.305   1.399   4.276
 7740SOL    HW124119   2.331   1.303   4.264
 7740SOL    HW224120   2.210   1.404   4.306
 7741SOL     OW24121   0.005   4.378   6.082
 7741SOL    HW124122   6.939   4.329   6.068
 7741SOL    HW224123   0.000   4.432   6.166
 7742SOL     OW24124   4.779   2.052   3.781
 7742SOL    HW124125   4.684   2.075   3.805
 7742SOL    HW224126   4.811   2.114   3.709
 7743SOL     OW24127   3.437   0.704   6.497
 7743SOL    HW124128   3.452   0.675   6.402
 7743SOL    HW224129   3.455   0.802   6.506
 7744SOL     OW24130   0.444   6.709   4.906
 7744SOL    HW124131   0.533   6.664   4.914
 7744SOL    HW224132   0.414   6.708   4.811
 7745SOL     OW24133   2.627   0.265   0.484
 7745SOL    HW124134   2.639   0.178   0.531
 7745SOL    HW224135   2.713   0.291   0.440
 7746SOL     OW24136   6.937   6.488   0.535
 7746SOL    HW124137   0.016   6.473   0.535
 7746SOL    HW224138   6.918   6.584   0.553
 7747SOL     OW24139   0.161   5.646   1.646
 7747SOL    HW124140   0.137   5.591   1.567
 7747SOL    HW224141   0.109   5.731   1.646
 7748SOL     OW24142   4.268   1.029   6.145
 7748SOL    HW124143   4.316   1.042   6.232
 7748SOL    HW224144   4.171   1.015   6.163
 7749SOL     OW24145   3.230   3.799   2.804
 7749SOL    HW124146   3.182   3.836   2.884
 7749SOL    HW224147   3.307   3.744   2.834
 7750SOL     OW24148   5.301   4.730   5.986
 7750SOL    HW124149   5.228   4.670   6.018
 7750SOL    HW224150   5.271   4.825   5.989
 7751SOL     OW24151   0.520   1.360   5.307
 7751SOL    HW124152   0.426   1.327   5.295
 7751SOL    HW224153   0.583   1.299   5.259
 7752SOL     OW24154   6.387   4.488   5.743
 7752SOL    HW124155   6.388   4.451   5.836
 7752SOL    HW224156   6.346   4.420   5.681
 7753SOL     OW24157   3.081   0.861   4.904
 7753SOL    HW124158   3.071   0.887   5.000
 7753SOL    HW224159   3.113   0.766   4.898
 7754SOL     OW24160   6.427   0.798   0.887
 7754SOL    HW124161   6.382   0.731   0.947
 7754SOL    HW224162   6.453   0.754   0.801
 7755SOL     OW24163   1.382   6.123   5.084
 7755SOL    HW124164   1.427   6.175   5.011
 7755SOL    HW224165   1.450   6.096   5.153
 7756SOL     OW24166   3.584   5.918   2.761
 7756SOL    HW124167   3.560   5.856   2.686
 7756SOL    HW224168   3.661   5.880   2.812
 7757SOL     OW24169   3.278   0.576   5.975
 7757SOL    HW124170   3.257   0.479   5.985
 7757SOL    HW224171   3.359   0.587   5.917
 7758SOL     OW24172   2.355   2.111   6.470
 7758SOL    HW124173   2.274   2.155   6.509
 7758SOL    HW224174   2.438   2.155   6.506
 7759SOL     OW24175   1.838   0.862   4.657
 7759SOL    HW124176   1.890   0.781   4.631
 7759SOL    HW224177   1.898   0.942   4.653
 7760SOL     OW24178   5.371   2.123   3.058
 7760SOL    HW124179   5.287   2.067   3.055
 7760SOL    HW224180   5.363   2.198   2.992
 7761SOL     OW24181   4.498   1.424   6.812
 7761SOL    HW124182   4.448   1.473   6.741
 7761SOL    HW224183   4.594   1.452   6.811
 7762SOL     OW24184   1.041   2.589   0.829
 7762SOL    HW124185   1.102   2.510   0.824
 7762SOL    HW224186   1.056   2.638   0.915
 7763SOL     OW24187   2.617   2.629   0.834
 7763SOL    HW124188   2.695   2.588   0.882
 7763SOL    HW224189   2.535   2.574   0.852
 7764SOL     OW24190   3.390   3.043   2.035
 7764SOL    HW124191   3.306   2.995   2.058
 7764SOL    HW224192   3.454   3.036   2.111
 7765SOL     OW24193   6.833   1.488   2.058
 7765SOL    HW124194   6.853   1.414   2.123
 7765SOL    HW224195   6.822   1.574   2.109
 7766SOL     OW24196   0.112   2.614   6.651
 7766SOL    HW124197   0.110   2.597   6.750
 7766SOL    HW224198   0.192   2.669   6.628
 7767SOL     OW24199   5.691   4.064   5.018
 7767SOL    HW124200   5.701   4.161   4.997
 7767SOL    HW224201   5.619   4.052   5.086
 7768SOL     OW24202   3.651   5.375   1.518
 7768SOL    HW124203   3.718   5.355   1.589
 7768SOL    HW224204   3.686   5.345   1.430
 7769SOL     OW24205   5.672   2.200   2.606
 7769SOL    HW124206   5.711   2.275   2.660
 7769SOL    HW224207   5.738   2.172   2.536
 7770SOL     OW24208   3.423   6.344   1.015
 7770SOL    HW124209   3.378   6.406   0.950
 7770SOL    HW224210   3.491   6.289   0.967
 7771SOL     OW24211   1.539   1.313   4.605
 7771SOL    HW124212   1.625   1.359   4.626
 7771SOL    HW224213   1.469   1.381   4.586
 7772SOL     OW24214   5.558   0.436   5.459
 7772SOL    HW124215   5.652   0.471   5.465
 7772SOL    HW224216   5.561   0.339   5.436
 7773SOL     OW24217   3.921   4.627   5.908
 7773SOL    HW124218   3.827   4.621   5.940
 7773SOL    HW224219   3.923   4.671   5.819
 7774SOL     OW24220   5.352   1.798   6.749
 7774SOL    HW124221   5.305   1.883   6.770
 7774SOL    HW224222   5.440   1.818   6.705
 7775SOL     OW24223   1.630   6.779   2.625
 7775SOL    HW124224   1.574   6.810   2.549
 7775SOL    HW224225   1.724   6.764   2.593
 7776SOL     OW24226   3.455   4.401   0.707
 7776SOL    HW124227   3.528   4.342   0.673
 7776SOL    HW224228   3.414   4.360   0.788
 7777SOL     OW24229   0.614   0.840   6.337
 7777SOL    HW124230   0.619   0.741   6.322
 7777SOL    HW224231   0.624   0.860   6.435
 7778SOL     OW24232   4.449   1.626   1.952
 7778SOL    HW124233   4.522   1.600   1.889
 7778SOL    HW224234   4.432   1.724   1.946
 7779SOL     OW24235   4.184   3.141   0.284
 7779SOL    HW124236   4.281   3.153   0.263
 7779SOL    HW224237   4.133   3.122   0.200
 7780SOL     OW24238   0.898   0.293   4.574
 7780SOL    HW124239   0.839   0.220   4.541
 7780SOL    HW224240   0.876   0.378   4.524
 7781SOL     OW24241   1.971   3.810   5.696
 7781SOL    HW124242   1.929   3.878   5.636
 7781SOL    HW224243   1.903   3.776   5.761
 7782SOL     OW24244   4.731   4.653   0.210
 7782SOL    HW124245   4.724   4.714   0.131
 7782SOL    HW224246   4.661   4.676   0.277
 7783SOL     OW24247   2.905   6.010   0.244
 7783SOL    HW124248   2.993   6.050   0.267
 7783SOL    HW224249   2.874   5.950   0.318
 7784SOL     OW24250   6.167   3.991   0.432
 7784SOL    HW124251   6.222   3.929   0.376
 7784SOL    HW224252   6.081   3.947   0.456
 7785SOL     OW24253   1.607   6.475   6.117
 7785SOL    HW124254   1.614   6.412   6.194
 7785SOL    HW224255   1.591   6.423   6.033
 7786SOL     OW24256   3.810   4.183   5.348
 7786SOL    HW124257   3.893   4.144   5.310
 7786SOL    HW224258   3.829   4.276   5.380
 7787SOL     OW24259   3.192   2.185   5.604
 7787SOL    HW124260   3.171   2.189   5.506
 7787SOL    HW224261   3.273   2.240   5.623
 7788SOL     OW24262   6.766   2.358   1.190
 7788SOL    HW124263   6.710   2.278   1.214
 7788SOL    HW224264   6.796   2.351   1.095
 7789SOL     OW24265   1.532   0.106   1.922
 7789SOL    HW124266   1.602   0.177   1.928
 7789SOL    HW224267   1.445   0.147   1.896
 7790SOL     OW24268   0.077   3.294   2.509
 7790SOL    HW124269   7.009   3.320   2.470
 7790SOL    HW224270   0.135   3.256   2.437
 7791SOL     OW24271   0.058   5.336   5.654
 7791SOL    HW124272   6.981   5.345   5.674
 7791SOL    HW224273   0.092   5.421   5.613
 7792SOL     OW24274   1.718   5.589   6.258
 7792SOL    HW124275   1.674   5.604   6.170
 7792SOL    HW224276   1.811   5.555   6.244
 7793SOL     OW24277   2.160   0.601   6.586
 7793SOL    HW124278   2.133   0.687   6.542
 7793SOL    HW224279   2.243   0.615   6.640
 7794SOL     OW24280   5.367   5.034   2.751
 7794SOL    HW124281   5.285   5.084   2.726
 7794SOL    HW224282   5.393   5.056   2.845
 7795SOL     OW24283   1.176   4.248   6.514
 7795SOL    HW124284   1.142   4.270   6.606
 7795SOL    HW224285   1.206   4.152   6.511
 7796SOL     OW24286   4.186   3.512   4.830
 7796SOL    HW124287   4.144   3.423   4.813
 7796SOL    HW224288   4.245   3.506   4.911
 7797SOL     OW24289   1.431   6.437   3.360
 7797SOL    HW124290   1.526   6.407   3.366
 7797SOL    HW224291   1.428   6.537   3.351
 7798SOL     OW24292   4.328   5.759   6.602
 7798SOL    HW124293   4.246   5.707   6.578
 7798SOL    HW224294   4.308   5.820   6.679
 7799SOL     OW24295   6.095   6.142   2.230
 7799SOL    HW124296   6.111   6.182   2.140
 7799SOL    HW224297   6.039   6.059   2.220
 7800SOL     OW24298   0.956   5.969   1.852
 7800SOL    HW124299   0.885   5.911   1.811
 7800SOL    HW224300   0.918   6.021   1.928
 7801SOL     OW24301   4.284   2.057   5.133
 7801SOL    HW124302   4.357   1.998   5.169
 7801SOL    HW224303   4.212   2.000   5.094
 7802SOL     OW24304   5.697   2.821   0.021
 7802SOL    HW124305   5.640   2.742   7.016
 7802SOL    HW224306   5.786   2.789   0.052
 7803SOL     OW24307   3.511   3.703   5.922
 7803SOL    HW124308   3.490   3.753   5.838
 7803SOL    HW224309   3.477   3.610   5.914
 7804SOL     OW24310   4.972   0.674   6.294
 7804SOL    HW124311   4.997   0.755   6.242
 7804SOL    HW224312   4.948   0.701   6.387
 7805SOL     OW24313   5.196   3.018   1.352
 7805SOL    HW124314   5.175   2.925   1.381
 7805SOL    HW224315   5.172   3.030   1.256
 7806SOL     OW24316   5.000   2.818   0.260
 7806SOL    HW124317   4.915   2.870   0.273
 7806SOL    HW224318   5.072   2.879   0.228
 7807SOL     OW24319   0.681   3.933   6.905
 7807SOL    HW124320   0.684   3.886   6.993
 7807SOL    HW224321   0.587   3.959   6.884
 7808SOL     OW24322   0.287   1.232   5.339
 7808SOL    HW124323   0.237   1.228   5.425
 7808SOL    HW224324   0.279   1.144   5.291
 7809SOL     OW24325   1.545   5.703   5.468
 7809SOL    HW124326   1.528   5.605   5.468
 7809SOL    HW224327   1.634   5.721   5.511
 7810SOL     OW24328   2.934   1.356   6.807
 7810SOL    HW124329   2.962   1.322   6.897
 7810SOL    HW224330   2.838   1.332   6.791
 7811SOL     OW24331   6.414   4.804   5.290
 7811SOL    HW124332   6.406   4.901   5.267
 7811SOL    HW224333   6.448   4.794   5.384
 7812SOL     OW24334   0.164   1.677   3.653
 7812SOL    HW124335   0.078   1.629   3.671
 7812SOL    HW224336   0.202   1.709   3.740
 7813SOL     OW24337   6.278   2.215   0.893
 7813SOL    HW124338   6.354   2.163   0.933
 7813SOL    HW224339   6.239   2.276   0.961
 7814SOL     OW24340   1.818   3.051   4.904
 7814SOL    HW124341   1.866   3.121   4.957
 7814SOL    HW224342   1.886   2.988   4.864
 7815SOL     OW24343   6.973   1.936   5.380
 7815SOL    HW124344   6.878   1.931   5.410
 7815SOL    HW224345   6.987   1.877   5.301
 7816SOL     OW24346   0.390   4.876   5.210
 7816SOL    HW124347   0.433   4.791   5.181
 7816SOL    HW224348   0.452   4.953   5.194
 7817SOL     OW24349   5.586   3.044   5.724
 7817SOL    HW124350   5.488   3.063   5.727
 7817SOL    HW224351   5.627   3.095   5.648
 7818SOL     OW24352   5.526   3.418   3.527
 7818SOL    HW124353   5.488   3.445   3.616
 7818SOL    HW224354   5.452   3.386   3.468
 7819SOL     OW24355   0.952   1.217   1.016
 7819SOL    HW124356   0.933   1.299   0.962
 7819SOL    HW224357   0.919   1.231   1.110
 7820SOL     OW24358   2.873   6.662   6.224
 7820SOL    HW124359   2.911   6.586   6.172
 7820SOL    HW224360   2.785   6.634   6.263
 7821SOL     OW24361   2.956   5.837   0.855
 7821SOL    HW124362   3.033   5.848   0.793
 7821SOL    HW224363   2.881   5.898   0.828
 7822SOL     OW24364   1.566   6.531   5.367
 7822SOL    HW124365   1.504   6.542   5.289
 7822SOL    HW224366   1.534   6.586   5.443
 7823SOL     OW24367   2.030   3.576   5.440
 7823SOL    HW124368   2.000   3.671   5.439
 7823SOL    HW224369   1.963   3.520   5.488
 7824SOL     OW24370   1.046   3.073   5.195
 7824SOL    HW124371   1.025   3.170   5.209
 7824SOL    HW224372   1.137   3.053   5.231
 7825SOL     OW24373   2.580   0.672   0.246
 7825SOL    HW124374   2.519   0.743   0.211
 7825SOL    HW224375   2.527   0.591   0.271
 7826SOL     OW24376   0.770   3.993   6.058
 7826SOL    HW124377   0.689   4.019   6.111
 7826SOL    HW224378   0.824   3.926   6.109
 7827SOL     OW24379   6.106   4.764   4.086
 7827SOL    HW124380   6.200   4.730   4.088
 7827SOL    HW224381   6.103   4.854   4.130
 7828SOL     OW24382   1.235   5.829   6.054
 7828SOL    HW124383   1.289   5.913   6.044
 7828SOL    HW224384   1.240   5.799   6.149
 7829SOL     OW24385   4.699   4.884   0.822
 7829SOL    HW124386   4.736   4.828   0.896
 7829SOL    HW224387   4.702   4.833   0.736
 7830SOL     OW24388   1.817   5.388   3.594
 7830SOL    HW124389   1.778   5.392   3.686
 7830SOL    HW224390   1.746   5.357   3.530
 7831SOL     OW24391   1.857   0.237   6.531
 7831SOL    HW124392   1.783   0.249   6.465
 7831SOL    HW224393   1.933   0.298   6.508
 7832SOL     OW24394   6.715   1.159   5.444
 7832SOL    HW124395   6.636   1.166   5.383
 7832SOL    HW224396   6.696   1.091   5.515
 7833SOL     OW24397   1.099   0.203   3.071
 7833SOL    HW124398   1.119   0.267   2.997
 7833SOL    HW224399   1.091   0.253   3.157
 7834SOL     OW24400   6.981   3.606   5.101
 7834SOL    HW124401   6.938   3.546   5.169
 7834SOL    HW224402   6.926   3.610   5.019
 7835SOL     OW24403   3.240   2.496   5.734
 7835SOL    HW124404   3.252   2.397   5.728
 7835SOL    HW224405   3.270   2.539   5.649
 7836SOL     OW24406   2.911   3.559   5.021
 7836SOL    HW124407   2.894   3.472   5.067
 7836SOL    HW224408   2.966   3.543   4.939
 7837SOL     OW24409   1.118   5.552   6.544
 7837SOL    HW124410   1.100   5.474   6.604
 7837SOL    HW224411   1.153   5.629   6.598
 7838SOL     OW24412   4.227   4.988   1.647
 7838SOL    HW124413   4.173   4.909   1.618
 7838SOL    HW224414   4.245   5.046   1.568
 7839SOL     OW24415   6.289   3.957   4.923
 7839SOL    HW124416   6.239   3.980   4.839
 7839SOL    HW224417   6.240   3.885   4.972
 7840SOL     OW24418   2.037   2.526   3.525
 7840SOL    HW124419   2.035   2.615   3.572
 7840SOL    HW224420   2.086   2.535   3.439
 7841SOL     OW24421   4.646   1.626   5.653
 7841SOL    HW124422   4.720   1.648   5.590
 7841SOL    HW224423   4.580   1.701   5.653
 7842SOL     OW24424   1.173   0.734   0.985
 7842SOL    HW124425   1.261   0.691   0.967
 7842SOL    HW224426   1.159   0.811   0.923
 7843SOL     OW24427   6.707   6.554   2.094
 7843SOL    HW124428   6.696   6.456   2.114
 7843SOL    HW224429   6.635   6.583   2.031
 7844SOL     OW24430   4.245   0.232   2.606
 7844SOL    HW124431   4.164   0.212   2.551
 7844SOL    HW224432   4.243   0.179   2.690
 7845SOL     OW24433   6.462   3.168   1.531
 7845SOL    HW124434   6.380   3.211   1.568
 7845SOL    HW224435   6.453   3.069   1.536
 7846SOL     OW24436   0.761   1.739   0.465
 7846SOL    HW124437   0.709   1.794   0.400
 7846SOL    HW224438   0.705   1.723   0.546
 7847SOL     OW24439   5.662   4.226   6.111
 7847SOL    HW124440   5.594   4.292   6.079
 7847SOL    HW224441   5.752   4.269   6.110
 7848SOL     OW24442   4.358   4.880   0.559
 7848SOL    HW124443   4.317   4.968   0.535
 7848SOL    HW224444   4.289   4.821   0.601
 7849SOL     OW24445   4.285   5.099   6.718
 7849SOL    HW124446   4.212   5.119   6.653
 7849SOL    HW224447   4.287   5.000   6.737
 7850SOL     OW24448   6.824   0.705   3.439
 7850SOL    HW124449   6.729   0.693   3.469
 7850SOL    HW224450   6.870   0.616   3.439
 7851SOL     OW24451   0.280   4.750   0.624
 7851SOL    HW124452   0.231   4.722   0.706
 7851SOL    HW224453   0.278   4.850   0.617
 7852SOL     OW24454   1.088   3.328   6.263
 7852SOL    HW124455   1.174   3.343   6.214
 7852SOL    HW224456   1.015   3.379   6.219
 7853SOL     OW24457   4.118   3.070   1.651
 7853SOL    HW124458   4.208   3.026   1.657
 7853SOL    HW224459   4.064   3.028   1.579
 7854SOL     OW24460   3.953   0.926   1.063
 7854SOL    HW124461   3.919   0.946   1.155
 7854SOL    HW224462   3.913   0.841   1.031
 7855SOL     OW24463   5.173   6.250   3.920
 7855SOL    HW124464   5.226   6.166   3.906
 7855SOL    HW224465   5.212   6.324   3.865
 7856SOL     OW24466   2.156   6.223   6.190
 7856SOL    HW124467   2.159   6.234   6.090
 7856SOL    HW224468   2.218   6.149   6.217
 7857SOL     OW24469   6.194   5.181   0.585
 7857SOL    HW124470   6.155   5.111   0.645
 7857SOL    HW224471   6.281   5.213   0.622
 7858SOL     OW24472   0.522   3.893   6.308
 7858SOL    HW124473   0.559   3.800   6.298
 7858SOL    HW224474   0.522   3.938   6.219
 7859SOL     OW24475   4.703   2.262   1.172
 7859SOL    HW124476   4.697   2.162   1.176
 7859SOL    HW224477   4.617   2.302   1.203
 7860SOL     OW24478   2.035   1.832   3.463
 7860SOL    HW124479   2.064   1.759   3.525
 7860SOL    HW224480   2.005   1.911   3.516
 7861SOL     OW24481   1.894   5.670   0.803
 7861SOL    HW124482   1.940   5.639   0.720
 7861SOL    HW224483   1.934   5.756   0.834
 7862SOL     OW24484   1.175   6.452   0.214
 7862SOL    HW124485   1.168   6.537   0.162
 7862SOL    HW224486   1.141   6.376   0.159
 7863SOL     OW24487   0.141   3.738   3.709
 7863SOL    HW124488   0.065   3.688   3.751
 7863SOL    HW224489   0.208   3.764   3.778
 7864SOL     OW24490   3.293   5.177   5.158
 7864SOL    HW124491   3.343   5.142   5.079
 7864SOL    HW224492   3.199   5.198   5.131
 7865SOL     OW24493   6.235   5.120   3.914
 7865SOL    HW124494   6.135   5.123   3.926
 7865SOL    HW224495   6.272   5.212   3.930
 7866SOL     OW24496   1.122   0.966   5.413
 7866SOL    HW124497   1.153   0.917   5.332
 7866SOL    HW224498   1.100   1.061   5.389
 7867SOL     OW24499   3.989   5.125   3.085
 7867SOL    HW124500   4.040   5.128   3.171
 7867SOL    HW224501   4.036   5.180   3.017
 7868SOL     OW24502   3.654   6.126   1.220
 7868SOL    HW124503   3.588   6.055   1.194
 7868SOL    HW224504   3.620   6.175   1.300
 7869SOL     OW24505   5.792   4.735   6.920
 7869SOL    HW124506   5.878   4.785   6.924
 7869SOL    HW224507   5.783   4.692   6.830
 7870SOL     OW24508   6.785   0.097   3.576
 7870SOL    HW124509   6.733   0.180   3.599
 7870SOL    HW224510   6.877   0.103   3.615
 7871SOL     OW24511   4.605   1.126   0.669
 7871SOL    HW124512   4.531   1.190   0.653
 7871SOL    HW224513   4.581   1.037   0.631
 7872SOL     OW24514   6.910   4.520   3.938
 7872SOL    HW124515   6.994   4.489   3.893
 7872SOL    HW224516   6.872   4.446   3.994
 7873SOL     OW24517   4.203   2.501   6.736
 7873SOL    HW124518   4.131   2.437   6.709
 7873SOL    HW224519   4.264   2.517   6.658
 7874SOL     OW24520   6.333   2.600   0.152
 7874SOL    HW124521   6.319   2.655   0.069
 7874SOL    HW224522   6.314   2.504   0.131
 7875SOL     OW24523   6.939   4.857   0.060
 7875SOL    HW124524   6.933   4.848   0.160
 7875SOL    HW224525   6.962   4.769   0.020
 7876SOL     OW24526   1.267   6.588   3.105
 7876SOL    HW124527   1.226   6.584   3.014
 7876SOL    HW224528   1.233   6.512   3.160
 7877SOL     OW24529   0.499   2.820   1.987
 7877SOL    HW124530   0.591   2.827   1.948
 7877SOL    HW224531   0.433   2.862   1.925
 7878SOL     OW24532   3.726   0.513   2.344
 7878SOL    HW124533   3.765   0.460   2.269
 7878SOL    HW224534   3.755   0.474   2.431
 7879SOL     OW24535   2.629   5.788   2.106
 7879SOL    HW124536   2.679   5.815   2.023
 7879SOL    HW224537   2.642   5.690   2.122
 7880SOL     OW24538   1.082   4.481   1.970
 7880SOL    HW124539   1.164   4.499   1.916
 7880SOL    HW224540   1.001   4.515   1.920
 7881SOL     OW24541   5.034   2.819   3.356
 7881SOL    HW124542   5.106   2.863   3.303
 7881SOL    HW224543   5.021   2.869   3.442
 7882SOL     OW24544   0.104   2.589   6.936
 7882SOL    HW124545   0.026   2.645   6.964
 7882SOL    HW224546   0.090   2.495   6.966
 7883SOL     OW24547   0.491   6.843   4.611
 7883SOL    HW124548   0.418   6.776   4.625
 7883SOL    HW224549   0.549   6.814   4.535
 7884SOL     OW24550   1.570   2.836   4.068
 7884SOL    HW124551   1.601   2.917   4.017
 7884SOL    HW224552   1.508   2.865   4.141
 7885SOL     OW24553   0.067   6.046   6.990
 7885SOL    HW124554   0.050   5.959   6.943
 7885SOL    HW224555   7.016   6.112   6.964
 7886SOL     OW24556   4.823   4.094   0.107
 7886SOL    HW124557   4.892   4.082   0.179
 7886SOL    HW224558   4.805   4.006   0.064
 7887SOL     OW24559   4.600   2.107   6.376
 7887SOL    HW124560   4.652   2.066   6.451
 7887SOL    HW224561   4.510   2.065   6.372
 7888SOL     OW24562   3.820   5.603   4.370
 7888SOL    HW124563   3.810   5.700   4.348
 7888SOL    HW224564   3.847   5.553   4.288
 7889SOL     OW24565   6.286   4.856   3.812
 7889SOL    HW124566   6.325   4.814   3.894
 7889SOL    HW224567   6.263   4.951   3.831
 7890SOL     OW24568   2.030   3.890   2.736
 7890SOL    HW124569   2.089   3.942   2.797
 7890SOL    HW224570   1.993   3.951   2.666
 7891SOL     OW24571   0.598   4.249   3.191
 7891SOL    HW124572   0.574   4.190   3.268
 7891SOL    HW224573   0.586   4.345   3.217
 7892SOL     OW24574   2.264   2.059   4.942
 7892SOL    HW124575   2.200   2.053   5.018
 7892SOL    HW224576   2.217   2.096   4.862
 7893SOL     OW24577   5.055   6.864   1.225
 7893SOL    HW124578   5.141   6.847   1.177
 7893SOL    HW224579   5.074   6.887   1.321
 7894SOL     OW24580   2.929   0.243   1.257
 7894SOL    HW124581   3.010   0.208   1.306
 7894SOL    HW224582   2.931   0.343   1.257
 7895SOL     OW24583   0.741   1.583   4.187
 7895SOL    HW124584   0.737   1.657   4.254
 7895SOL    HW224585   0.649   1.556   4.160
 7896SOL     OW24586   3.754   2.325   6.630
 7896SOL    HW124587   3.717   2.234   6.650
 7896SOL    HW224588   3.722   2.389   6.700
 7897SOL     OW24589   3.009   3.567   7.007
 7897SOL    HW124590   3.090   3.609   0.028
 7897SOL    HW224591   3.033   3.476   6.974
 7898SOL     OW24592   5.076   1.399   4.272
 7898SOL    HW124593   5.039   1.337   4.202
 7898SOL    HW224594   5.032   1.379   4.360
 7899SOL     OW24595   4.601   0.959   1.741
 7899SOL    HW124596   4.652   1.044   1.728
 7899SOL    HW224597   4.569   0.926   1.652
 7900SOL     OW24598   0.725   5.867   1.713
 7900SOL    HW124599   0.660   5.924   1.662
 7900SOL    HW224600   0.692   5.855   1.806
 7901SOL     OW24601   6.217   4.881   1.409
 7901SOL    HW124602   6.238   4.786   1.434
 7901SOL    HW224603   6.157   4.882   1.328
 7902SOL     OW24604   5.008   4.351   6.213
 7902SOL    HW124605   4.937   4.345   6.283
 7902SOL    HW224606   4.974   4.312   6.127
 7903SOL     OW24607   0.378   2.631   1.679
 7903SOL    HW124608   0.473   2.624   1.650
 7903SOL    HW224609   0.370   2.597   1.773
 7904SOL     OW24610   5.691   2.515   3.422
 7904SOL    HW124611   5.618   2.463   3.466
 7904SOL    HW224612   5.651   2.587   3.365
 7905SOL     OW24613   1.795   1.447   2.167
 7905SOL    HW124614   1.875   1.454   2.227
 7905SOL    HW224615   1.744   1.533   2.170
 7906SOL     OW24616   1.016   5.049   6.947
 7906SOL    HW124617   1.109   5.048   6.909
 7906SOL    HW224618   0.963   4.974   6.908
 7907SOL     OW24619   0.759   2.660   2.592
 7907SOL    HW124620   0.716   2.733   2.539
 7907SOL    HW224621   0.818   2.606   2.533
 7908SOL     OW24622   0.615   1.453   3.027
 7908SOL    HW124623   0.550   1.481   3.097
 7908SOL    HW224624   0.708   1.456   3.065
 7909SOL     OW24625   4.257   6.418   4.918
 7909SOL    HW124626   4.248   6.512   4.952
 7909SOL    HW224627   4.302   6.362   4.987
 7910SOL     OW24628   6.335   3.041   5.999
 7910SOL    HW124629   6.297   2.963   6.048
 7910SOL    HW224630   6.433   3.027   5.985
 7911SOL     OW24631   0.186   5.742   6.199
 7911SOL    HW124632   0.170   5.795   6.116
 7911SOL    HW224633   0.180   5.644   6.177
 7912SOL     OW24634   7.020   5.850   4.999
 7912SOL    HW124635   0.031   5.906   4.923
 7912SOL    HW224636   6.923   5.828   4.987
 7913SOL     OW24637   1.665   6.399   6.771
 7913SOL    HW124638   1.743   6.439   6.820
 7913SOL    HW224639   1.614   6.472   6.725
 7914SOL     OW24640   6.066   4.795   0.625
 7914SOL    HW124641   6.148   4.764   0.673
 7914SOL    HW224642   6.047   4.733   0.549
 7915SOL     OW24643   2.918   1.044   3.016
 7915SOL    HW124644   2.873   1.108   2.953
 7915SOL    HW224645   2.871   1.044   3.104
 7916SOL     OW24646   4.285   3.790   5.440
 7916SOL    HW124647   4.259   3.812   5.345
 7916SOL    HW224648   4.368   3.735   5.440
 7917SOL     OW24649   3.641   3.981   3.928
 7917SOL    HW124650   3.613   3.885   3.936
 7917SOL    HW224651   3.564   4.035   3.895
 7918SOL     OW24652   5.483   1.964   1.905
 7918SOL    HW124653   5.553   1.982   1.974
 7918SOL    HW224654   5.396   2.006   1.934
 7919SOL     OW24655   5.227   3.844   2.895
 7919SOL    HW124656   5.247   3.934   2.933
 7919SOL    HW224657   5.128   3.831   2.890
 7920SOL     OW24658   0.041   6.590   1.103
 7920SOL    HW124659   0.090   6.514   1.060
 7920SOL    HW224660   7.002   6.555   1.175
 7921SOL     OW24661   3.402   5.229   2.309
 7921SOL    HW124662   3.371   5.261   2.399
 7921SOL    HW224663   3.439   5.136   2.318
 7922SOL     OW24664   1.170   4.363   5.177
 7922SOL    HW124665   1.259   4.389   5.141
 7922SOL    HW224666   1.100   4.425   5.142
 7923SOL     OW24667   1.054   2.169   3.362
 7923SOL    HW124668   1.134   2.219   3.396
 7923SOL    HW224669   0.981   2.234   3.342
 7924SOL     OW24670   2.473   1.218   3.514
 7924SOL    HW124671   2.510   1.311   3.522
 7924SOL    HW224672   2.412   1.199   3.590
 7925SOL     OW24673   0.964   1.293   0.283
 7925SOL    HW124674   0.946   1.195   0.277
 7925SOL    HW224675   0.957   1.334   0.192
 7926SOL     OW24676   3.179   0.527   1.628
 7926SOL    HW124677   3.149   0.585   1.552
 7926SOL    HW224678   3.243   0.578   1.686
 7927SOL     OW24679   4.463   5.420   4.692
 7927SOL    HW124680   4.381   5.473   4.712
 7927SOL    HW224681   4.513   5.404   4.777
 7928SOL     OW24682   0.522   3.946   0.311
 7928SOL    HW124683   0.471   3.978   0.390
 7928SOL    HW224684   0.465   3.954   0.229
 7929SOL     OW24685   3.669   4.132   4.930
 7929SOL    HW124686   3.597   4.130   4.860
 7929SOL    HW224687   3.641   4.191   5.006
 7930SOL     OW24688   4.031   6.949   2.612
 7930SOL    HW124689   3.973   6.886   2.663
 7930SOL    HW224690   4.060   6.906   2.526
 7931SOL     OW24691   2.953   3.034   5.924
 7931SOL    HW124692   2.888   2.981   5.870
 7931SOL    HW224693   3.046   3.016   5.891
 7932SOL     OW24694   3.173   0.989   0.416
 7932SOL    HW124695   3.097   1.034   0.464
 7932SOL    HW224696   3.236   0.950   0.483
 7933SOL     OW24697   2.236   1.262   6.221
 7933SOL    HW124698   2.307   1.290   6.286
 7933SOL    HW224699   2.194   1.343   6.181
 7934SOL     OW24700   4.238   2.048   5.885
 7934SOL    HW124701   4.183   2.034   5.967
 7934SOL    HW224702   4.293   1.967   5.867
 7935SOL     OW24703   4.844   5.738   1.709
 7935SOL    HW124704   4.825   5.643   1.735
 7935SOL    HW224705   4.908   5.739   1.632
 7936SOL     OW24706   3.925   6.165   1.682
 7936SOL    HW124707   3.850   6.230   1.697
 7936SOL    HW224708   4.009   6.200   1.726
 7937SOL     OW24709   6.050   1.721   6.154
 7937SOL    HW124710   6.143   1.752   6.176
 7937SOL    HW224711   6.046   1.694   6.058
 7938SOL     OW24712   6.510   4.459   4.067
 7938SOL    HW124713   6.527   4.498   4.157
 7938SOL    HW224714   6.580   4.391   4.046
 7939SOL     OW24715   6.884   6.249   3.401
 7939SOL    HW124716   6.864   6.347   3.395
 7939SOL    HW224717   6.813   6.197   3.354
 7940SOL     OW24718   2.023   6.172   0.758
 7940SOL    HW124719   1.925   6.161   0.775
 7940SOL    HW224720   2.074   6.136   0.836
 7941SOL     OW24721   0.799   0.724   0.900
 7941SOL    HW124722   0.735   0.722   0.823
 7941SOL    HW224723   0.877   0.784   0.876
 7942SOL     OW24724   1.107   0.120   1.670
 7942SOL    HW124725   1.076   0.077   1.586
 7942SOL    HW224726   1.028   0.139   1.729
 7943SOL     OW24727   5.909   1.994   0.157
 7943SOL    HW124728   5.845   1.963   0.228
 7943SOL    HW224729   5.959   2.074   0.189
 7944SOL     OW24730   6.780   4.273   2.022
 7944SOL    HW124731   6.694   4.240   2.062
 7944SOL    HW224732   6.853   4.265   2.089
 7945SOL     OW24733   5.189   0.139   1.263
 7945SOL    HW124734   5.193   0.059   1.203
 7945SOL    HW224735   5.280   0.157   1.301
 7946SOL     OW24736   2.379   1.491   5.571
 7946SOL    HW124737   2.462   1.542   5.549
 7946SOL    HW224738   2.311   1.505   5.499
 7947SOL     OW24739   4.423   5.350   6.246
 7947SOL    HW124740   4.495   5.291   6.282
 7947SOL    HW224741   4.461   5.440   6.226
 7948SOL     OW24742   0.879   5.218   5.211
 7948SOL    HW124743   0.971   5.250   5.235
 7948SOL    HW224744   0.875   5.119   5.218
 7949SOL     OW24745   6.699   3.134   4.752
 7949SOL    HW124746   6.751   3.181   4.680
 7949SOL    HW224747   6.735   3.159   4.841
 7950SOL     OW24748   3.058   5.120   3.879
 7950SOL    HW124749   3.125   5.193   3.890
 7950SOL    HW224750   2.969   5.160   3.854
 7951SOL     OW24751   2.277   3.396   0.504
 7951SOL    HW124752   2.206   3.400   0.433
 7951SOL    HW224753   2.357   3.347   0.468
 7952SOL     OW24754   5.735   4.233   0.643
 7952SOL    HW124755   5.725   4.226   0.544
 7952SOL    HW224756   5.810   4.174   0.673
 7953SOL     OW24757   2.101   4.264   1.492
 7953SOL    HW124758   2.127   4.225   1.581
 7953SOL    HW224759   2.161   4.226   1.421
 7954SOL     OW24760   5.882   4.772   3.934
 7954SOL    HW124761   5.842   4.854   3.976
 7954SOL    HW224762   5.977   4.762   3.965
 7955SOL     OW24763   1.848   6.474   6.400
 7955SOL    HW124764   1.911   6.475   6.322
 7955SOL    HW224765   1.761   6.434   6.371
 7956SOL     OW24766   5.533   5.744   2.871
 7956SOL    HW124767   5.466   5.670   2.859
 7956SOL    HW224768   5.616   5.722   2.820
 7957SOL     OW24769   2.050   2.389   0.821
 7957SOL    HW124770   1.998   2.307   0.847
 7957SOL    HW224771   2.059   2.449   0.901
 7958SOL     OW24772   2.223   5.418   3.677
 7958SOL    HW124773   2.163   5.426   3.598
 7958SOL    HW224774   2.187   5.349   3.740
 7959SOL     OW24775   4.743   5.458   1.755
 7959SOL    HW124776   4.742   5.391   1.829
 7959SOL    HW224777   4.708   5.416   1.671
 7960SOL     OW24778   1.812   2.500   1.618
 7960SOL    HW124779   1.765   2.587   1.609
 7960SOL    HW224780   1.911   2.515   1.622
 7961SOL     OW24781   0.782   5.842   0.558
 7961SOL    HW124782   0.828   5.827   0.470
 7961SOL    HW224783   0.718   5.767   0.575
 7962SOL     OW24784   1.845   0.028   2.494
 7962SOL    HW124785   1.852   0.127   2.510
 7962SOL    HW224786   1.814   0.013   2.400
 7963SOL     OW24787   0.261   6.176   6.135
 7963SOL    HW124788   0.298   6.181   6.228
 7963SOL    HW224789   0.332   6.202   6.070
 7964SOL     OW24790   6.181   5.425   3.238
 7964SOL    HW124791   6.197   5.384   3.328
 7964SOL    HW224792   6.224   5.368   3.168
 7965SOL     OW24793   4.026   1.521   0.459
 7965SOL    HW124794   3.992   1.547   0.368
 7965SOL    HW224795   3.955   1.469   0.507
 7966SOL     OW24796   0.227   1.151   4.172
 7966SOL    HW124797   0.311   1.195   4.204
 7966SOL    HW224798   0.197   1.194   4.088
 7967SOL     OW24799   2.905   0.912   3.654
 7967SOL    HW124800   2.884   0.904   3.752
 7967SOL    HW224801   2.824   0.887   3.601
 7968SOL     OW24802   2.471   1.087   0.517
 7968SOL    HW124803   2.442   1.182   0.517
 7968SOL    HW224804   2.391   1.027   0.508
 7969SOL     OW24805   3.595   1.604   3.666
 7969SOL    HW124806   3.635   1.693   3.643
 7969SOL    HW224807   3.580   1.599   3.764
 7970SOL     OW24808   0.560   4.508   3.232
 7970SOL    HW124809   0.486   4.503   3.165
 7970SOL    HW224810   0.634   4.565   3.195
 7971SOL     OW24811   3.076   1.870   2.283
 7971SOL    HW124812   3.056   1.779   2.246
 7971SOL    HW224813   3.067   1.938   2.211
 7972SOL     OW24814   5.729   6.019   2.016
 7972SOL    HW124815   5.732   5.919   2.025
 7972SOL    HW224816   5.763   6.045   1.926
 7973SOL     OW24817   5.278   1.779   2.774
 7973SOL    HW124818   5.212   1.853   2.782
 7973SOL    HW224819   5.356   1.797   2.833
 7974SOL     OW24820   5.034   6.139   4.683
 7974SOL    HW124821   5.087   6.186   4.612
 7974SOL    HW224822   4.936   6.145   4.660
 7975SOL     OW24823   1.653   1.685   2.185
 7975SOL    HW124824   1.598   1.734   2.252
 7975SOL    HW224825   1.724   1.746   2.149
 7976SOL     OW24826   1.107   0.089   6.761
 7976SOL    HW124827   1.150   0.008   6.720
 7976SOL    HW224828   1.007   0.081   6.752
 7977SOL     OW24829   5.075   6.506   1.239
 7977SOL    HW124830   5.025   6.421   1.222
 7977SOL    HW224831   5.148   6.516   1.172
 7978SOL     OW24832   3.001   1.746   6.063
 7978SOL    HW124833   2.948   1.781   6.140
 7978SOL    HW224834   3.091   1.789   6.062
 7979SOL     OW24835   4.831   5.817   4.133
 7979SOL    HW124836   4.918   5.822   4.182
 7979SOL    HW224837   4.774   5.896   4.157
 7980SOL     OW24838   2.592   0.525   1.869
 7980SOL    HW124839   2.663   0.584   1.829
 7980SOL    HW224840   2.634   0.441   1.903
 7981SOL     OW24841   0.750   6.400   2.301
 7981SOL    HW124842   0.689   6.337   2.252
 7981SOL    HW224843   0.742   6.385   2.399
 7982SOL     OW24844   0.146   2.785   0.929
 7982SOL    HW124845   0.104   2.812   1.016
 7982SOL    HW224846   0.242   2.762   0.945
 7983SOL     OW24847   5.488   2.374   0.890
 7983SOL    HW124848   5.526   2.282   0.897
 7983SOL    HW224849   5.407   2.372   0.831
 7984SOL     OW24850   6.108   0.402   0.734
 7984SOL    HW124851   6.203   0.427   0.750
 7984SOL    HW224852   6.067   0.370   0.820
 7985SOL     OW24853   1.010   1.317   0.717
 7985SOL    HW124854   0.913   1.295   0.731
 7985SOL    HW224855   1.026   1.413   0.741
 7986SOL     OW24856   4.603   3.695   0.690
 7986SOL    HW124857   4.610   3.687   0.590
 7986SOL    HW224858   4.507   3.707   0.715
 7987SOL     OW24859   0.645   3.318   4.928
 7987SOL    HW124860   0.563   3.308   4.872
 7987SOL    HW224861   0.624   3.296   5.024
 7988SOL     OW24862   2.797   1.277   5.450
 7988SOL    HW124863   2.725   1.268   5.519
 7988SOL    HW224864   2.851   1.193   5.448
 7989SOL     OW24865   3.795   3.572   6.612
 7989SOL    HW124866   3.750   3.490   6.646
 7989SOL    HW224867   3.727   3.638   6.580
 7990SOL     OW24868   2.341   2.740   4.706
 7990SOL    HW124869   2.266   2.799   4.677
 7990SOL    HW224870   2.395   2.712   4.627
 7991SOL     OW24871   2.374   3.088   5.928
 7991SOL    HW124872   2.408   3.182   5.922
 7991SOL    HW224873   2.320   3.078   6.012
 7992SOL     OW24874   2.968   1.473   0.732
 7992SOL    HW124875   2.962   1.505   0.638
 7992SOL    HW224876   2.939   1.377   0.737
 7993SOL     OW24877   2.840   5.429   6.285
 7993SOL    HW124878   2.930   5.388   6.301
 7993SOL    HW224879   2.778   5.402   6.359
 7994SOL     OW24880   5.701   0.437   4.841
 7994SOL    HW124881   5.757   0.380   4.782
 7994SOL    HW224882   5.639   0.492   4.785
 7995SOL     OW24883   3.964   5.394   2.421
 7995SOL    HW124884   3.954   5.410   2.519
 7995SOL    HW224885   4.012   5.470   2.379
 7996SOL     OW24886   4.384   1.547   5.402
 7996SOL    HW124887   4.393   1.453   5.435
 7996SOL    HW224888   4.403   1.611   5.477
 7997SOL     OW24889   5.322   3.065   0.869
 7997SOL    HW124890   5.276   2.976   0.866
 7997SOL    HW224891   5.328   3.096   0.964
 7998SOL     OW24892   6.761   5.086   6.172
 7998SOL    HW124893   6.780   5.179   6.204
 7998SOL    HW224894   6.666   5.081   6.141
 7999SOL     OW24895   2.606   2.514   5.668
 7999SOL    HW124896   2.625   2.602   5.625
 7999SOL    HW224897   2.575   2.449   5.599
 8000SOL     OW24898   4.686   0.355   5.791
 8000SOL    HW124899   4.706   0.305   5.875
 8000SOL    HW224900   4.720   0.449   5.798
 8001SOL     OW24901   2.627   4.745   0.239
 8001SOL    HW124902   2.648   4.688   0.318
 8001SOL    HW224903   2.586   4.831   0.270
 8002SOL     OW24904   4.670   2.179   5.828
 8002SOL    HW124905   4.675   2.185   5.927
 8002SOL    HW224906   4.576   2.197   5.798
 8003SOL     OW24907   4.850   5.293   3.245
 8003SOL    HW124908   4.911   5.289   3.166
 8003SOL    HW224909   4.780   5.222   3.238
 8004SOL     OW24910   0.831   3.955   3.317
 8004SOL    HW124911   0.786   3.892   3.254
 8004SOL    HW224912   0.919   3.983   3.280
 8005SOL     OW24913   1.907   0.795   2.479
 8005SOL    HW124914   1.999   0.783   2.515
 8005SOL    HW224915   1.880   0.891   2.486
 8006SOL     OW24916   4.218   5.741   2.085
 8006SOL    HW124917   4.193   5.689   2.003
 8006SOL    HW224918   4.302   5.793   2.067
 8007SOL     OW24919   0.222   1.492   4.094
 8007SOL    HW124920   0.173   1.409   4.068
 8007SOL    HW224921   0.192   1.521   4.185
 8008SOL     OW24922   5.638   5.841   1.783
 8008SOL    HW124923   5.668   5.907   1.713
 8008SOL    HW224924   5.538   5.841   1.787
 8009SOL     OW24925   6.646   6.863   3.052
 8009SOL    HW124926   6.555   6.827   3.031
 8009SOL    HW224927   6.697   6.875   2.967
 8010SOL     OW24928   1.939   1.969   6.861
 8010SOL    HW124929   1.991   2.031   6.920
 8010SOL    HW224930   1.986   1.960   6.774
 8011SOL     OW24931   2.462   3.098   0.028
 8011SOL    HW124932   2.495   3.014   7.006
 8011SOL    HW224933   2.363   3.096   0.034
 8012SOL     OW24934   2.165   6.401   3.296
 8012SOL    HW124935   2.231   6.368   3.363
 8012SOL    HW224936   2.073   6.394   3.334
 8013SOL     OW24937   6.427   5.390   4.840
 8013SOL    HW124938   6.455   5.430   4.927
 8013SOL    HW224939   6.476   5.303   4.827
 8014SOL     OW24940   2.471   7.008   6.636
 8014SOL    HW124941   2.499   6.913   6.633
 8014SOL    HW224942   2.416   0.010   6.555
 8015SOL     OW24943   1.266   2.127   0.498
 8015SOL    HW124944   1.333   2.052   0.502
 8015SOL    HW224945   1.207   2.114   0.418
 8016SOL     OW24946   4.182   6.222   1.774
 8016SOL    HW124947   4.228   6.133   1.765
 8016SOL    HW224948   4.247   6.291   1.804
 8017SOL     OW24949   6.739   3.825   5.470
 8017SOL    HW124950   6.676   3.785   5.537
 8017SOL    HW224951   6.831   3.789   5.486
 8018SOL     OW24952   4.930   3.366   3.726
 8018SOL    HW124953   4.869   3.438   3.691
 8018SOL    HW224954   4.995   3.340   3.654
 8019SOL     OW24955   3.367   5.282   1.042
 8019SOL    HW124956   3.294   5.348   1.062
 8019SOL    HW224957   3.375   5.217   1.118
 8020SOL     OW24958   5.637   0.316   6.236
 8020SOL    HW124959   5.645   0.238   6.174
 8020SOL    HW224960   5.638   0.285   6.331
 8021SOL     OW24961   6.434   1.251   1.472
 8021SOL    HW124962   6.462   1.247   1.568
 8021SOL    HW224963   6.480   1.328   1.427
 8022SOL     OW24964   5.143   5.166   4.032
 8022SOL    HW124965   5.209   5.096   4.059
 8022SOL    HW224966   5.111   5.214   4.114
 8023SOL     OW24967   0.405   5.746   3.776
 8023SOL    HW124968   0.361   5.822   3.729
 8023SOL    HW224969   0.336   5.682   3.810
 8024SOL     OW24970   4.271   5.604   4.291
 8024SOL    HW124971   4.232   5.562   4.373
 8024SOL    HW224972   4.231   5.563   4.209
 8025SOL     OW24973   3.380   6.017   0.467
 8025SOL    HW124974   3.383   5.943   0.400
 8025SOL    HW224975   3.472   6.034   0.502
 8026SOL     OW24976   2.117   1.958   6.320
 8026SOL    HW124977   2.175   2.023   6.369
 8026SOL    HW224978   2.170   1.915   6.247
 8027SOL     OW24979   4.336   3.331   5.326
 8027SOL    HW124980   4.367   3.339   5.420
 8027SOL    HW224981   4.392   3.264   5.278
 8028SOL     OW24982   6.010   5.027   0.759
 8028SOL    HW124983   6.003   4.945   0.702
 8028SOL    HW224984   5.937   5.091   0.736
 8029SOL     OW24985   3.269   4.203   5.942
 8029SOL    HW124986   3.259   4.279   5.877
 8029SOL    HW224987   3.325   4.232   6.020
 8030SOL     OW24988   6.744   3.514   1.058
 8030SOL    HW124989   6.809   3.440   1.073
 8030SOL    HW224990   6.668   3.481   1.001
 8031SOL     OW24991   3.825   6.546   0.977
 8031SOL    HW124992   3.774   6.520   1.059
 8031SOL    HW224993   3.839   6.645   0.977
 8032SOL     OW24994   4.853   3.781   5.570
 8032SOL    HW124995   4.910   3.863   5.578
 8032SOL    HW224996   4.911   3.700   5.575
 8033SOL     OW24997   6.435   1.550   1.687
 8033SOL    HW124998   6.432   1.557   1.787
 8033SOL    HW224999   6.503   1.612   1.650
 8034SOL     OW25000   6.499   1.965   5.720
 8034SOL    HW125001   6.487   1.908   5.802
 8034SOL    HW225002   6.417   1.961   5.663
 8035SOL     OW25003   5.403   6.127   6.089
 8035SOL    HW125004   5.329   6.062   6.110
 8035SOL    HW225005   5.487   6.098   6.135
 8036SOL     OW25006   1.684   4.456   1.566
 8036SOL    HW125007   1.655   4.509   1.646
 8036SOL    HW225008   1.630   4.371   1.561
 8037SOL     OW25009   2.168   3.291   1.804
 8037SOL    HW125010   2.194   3.372   1.856
 8037SOL    HW225011   2.166   3.313   1.707
 8038SOL     OW25012   5.537   1.082   4.141
 8038SOL    HW125013   5.609   1.101   4.208
 8038SOL    HW225014   5.518   0.983   4.141
 8039SOL     OW25015   2.147   5.864   3.599
 8039SOL    HW125016   2.108   5.772   3.608
 8039SOL    HW225017   2.203   5.884   3.680
 8040SOL     OW25018   5.834   6.156   6.661
 8040SOL    HW125019   5.790   6.218   6.596
 8040SOL    HW225020   5.899   6.098   6.612
 8041SOL     OW25021   3.016   2.397   1.164
 8041SOL    HW125022   3.095   2.337   1.179
 8041SOL    HW225023   3.010   2.464   1.238
 8042SOL     OW25024   2.141   5.232   6.614
 8042SOL    HW125025   2.086   5.161   6.659
 8042SOL    HW225026   2.152   5.310   6.676
 8043SOL     OW25027   2.891   0.520   1.266
 8043SOL    HW125028   2.962   0.570   1.315
 8043SOL    HW225029   2.802   0.536   1.309
 8044SOL     OW25030   3.171   2.923   2.107
 8044SOL    HW125031   3.132   2.936   2.198
 8044SOL    HW225032   3.100   2.934   2.038
 8045SOL     OW25033   6.148   2.747   3.777
 8045SOL    HW125034   6.138   2.773   3.681
 8045SOL    HW225035   6.189   2.822   3.828
 8046SOL     OW25036   6.734   5.414   5.271
 8046SOL    HW125037   6.816   5.390   5.323
 8046SOL    HW225038   6.760   5.437   5.177
 8047SOL     OW25039   2.512   6.952   4.268
 8047SOL    HW125040   2.431   7.001   4.298
 8047SOL    HW225041   2.559   7.004   4.197
 8048SOL     OW25042   5.235   0.061   5.285
 8048SOL    HW125043   5.294   0.104   5.216
 8048SOL    HW225044   5.210   0.129   5.354
 8049SOL     OW25045   1.655   0.298   0.139
 8049SOL    HW125046   1.575   0.331   0.088
 8049SOL    HW225047   1.634   0.209   0.179
 8050SOL     OW25048   0.241   3.112   1.872
 8050SOL    HW125049   0.296   3.138   1.952
 8050SOL    HW225050   0.302   3.091   1.796
 8051SOL     OW25051   2.524   1.789   3.713
 8051SOL    HW125052   2.576   1.703   3.715
 8051SOL    HW225053   2.587   1.866   3.718
 8052SOL     OW25054   3.807   1.752   2.667
 8052SOL    HW125055   3.732   1.689   2.646
 8052SOL    HW225056   3.769   1.840   2.697
 8053SOL     OW25057   4.384   3.526   1.570
 8053SOL    HW125058   4.436   3.491   1.493
 8053SOL    HW225059   4.326   3.453   1.607
 8054SOL     OW25060   4.759   6.164   4.613
 8054SOL    HW125061   4.698   6.210   4.549
 8054SOL    HW225062   4.718   6.078   4.643
 8055SOL     OW25063   1.555   0.025   5.333
 8055SOL    HW125064   1.627   0.004   5.400
 8055SOL    HW225065   1.595   0.027   5.241
 8056SOL     OW25066   4.375   1.100   2.420
 8056SOL    HW125067   4.420   1.181   2.384
 8056SOL    HW225068   4.276   1.110   2.414
 8057SOL     OW25069   3.498   6.989   3.819
 8057SOL    HW125070   3.585   6.996   3.869
 8057SOL    HW225071   3.434   6.932   3.870
 8058SOL     OW25072   1.986   0.099   2.929
 8058SOL    HW125073   2.031   0.116   2.841
 8058SOL    HW225074   1.966   0.187   2.974
 8059SOL     OW25075   1.556   1.214   4.068
 8059SOL    HW125076   1.486   1.262   4.016
 8059SOL    HW225077   1.634   1.275   4.084
 8060SOL     OW25078   0.459   2.701   5.276
 8060SOL    HW125079   0.557   2.693   5.256
 8060SOL    HW225080   0.407   2.647   5.210
 8061SOL     OW25081   5.792   6.706   3.327
 8061SOL    HW125082   5.722   6.753   3.379
 8061SOL    HW225083   5.761   6.693   3.233
 8062SOL     OW25084   1.088   2.978   1.854
 8062SOL    HW125085   1.095   3.043   1.778
 8062SOL    HW225086   1.164   2.912   1.849
 8063SOL     OW25087   2.499   2.944   5.743
 8063SOL    HW125088   2.447   2.990   5.814
 8063SOL    HW225089   2.448   2.864   5.710
 8064SOL     OW25090   5.902   2.554   5.743
 8064SOL    HW125091   5.961   2.515   5.673
 8064SOL    HW225092   5.810   2.566   5.706
 8065SOL     OW25093   4.429   6.990   6.742
 8065SOL    HW125094   4.366   7.003   6.666
 8065SOL    HW225095   4.483   6.907   6.727
 8066SOL     OW25096   1.771   0.209   1.600
 8066SOL    HW125097   1.671   0.209   1.591
 8066SOL    HW225098   1.812   0.223   1.510
 8067SOL     OW25099   4.466   2.405   2.378
 8067SOL    HW125100   4.489   2.501   2.365
 8067SOL    HW225101   4.489   2.377   2.472
 8068SOL     OW25102   6.846   4.645   4.451
 8068SOL    HW125103   6.902   4.699   4.387
 8068SOL    HW225104   6.896   4.633   4.537
 8069SOL     OW25105   0.945   6.583   2.273
 8069SOL    HW125106   0.926   6.634   2.357
 8069SOL    HW225107   0.888   6.500   2.271
 8070SOL     OW25108   3.462   0.526   2.190
 8070SOL    HW125109   3.389   0.476   2.237
 8070SOL    HW225110   3.549   0.510   2.237
 8071SOL     OW25111   5.536   4.759   0.322
 8071SOL    HW125112   5.537   4.718   0.231
 8071SOL    HW225113   5.629   4.785   0.348
 8072SOL     OW25114   3.794   0.712   3.298
 8072SOL    HW125115   3.785   0.678   3.204
 8072SOL    HW225116   3.715   0.684   3.352
 8073SOL     OW25117   4.817   0.148   5.929
 8073SOL    HW125118   4.803   0.055   5.896
 8073SOL    HW225119   4.768   0.162   6.015
 8074SOL     OW25120   2.920   3.990   0.084
 8074SOL    HW125121   2.830   4.021   0.052
 8074SOL    HW225122   2.969   4.066   0.125
 8075SOL     OW25123   6.197   1.553   4.066
 8075SOL    HW125124   6.246   1.479   4.114
 8075SOL    HW225125   6.102   1.555   4.097
 8076SOL     OW25126   4.756   3.291   6.693
 8076SOL    HW125127   4.688   3.219   6.709
 8076SOL    HW225128   4.775   3.298   6.595
 8077SOL     OW25129   0.787   0.818   6.794
 8077SOL    HW125130   0.834   0.730   6.799
 8077SOL    HW225131   0.844   0.888   6.839
 8078SOL     OW25132   5.707   3.468   1.291
 8078SOL    HW125133   5.726   3.534   1.364
 8078SOL    HW225134   5.618   3.489   1.251
 8079SOL     OW25135   1.469   2.433   1.004
 8079SOL    HW125136   1.560   2.408   0.972
 8079SOL    HW225137   1.437   2.514   0.955
 8080SOL     OW25138   4.002   5.271   6.885
 8080SOL    HW125139   4.046   5.232   6.966
 8080SOL    HW225140   3.903   5.257   6.891
 8081SOL     OW25141   5.633   2.333   4.665
 8081SOL    HW125142   5.547   2.371   4.698
 8081SOL    HW225143   5.636   2.235   4.686
 8082SOL     OW25144   6.576   3.708   5.061
 8082SOL    HW125145   6.537   3.624   5.023
 8082SOL    HW225146   6.668   3.721   5.025
 8083SOL     OW25147   5.531   1.754   5.039
 8083SOL    HW125148   5.501   1.677   4.982
 8083SOL    HW225149   5.569   1.826   4.981
 8084SOL     OW25150   5.994   0.449   0.284
 8084SOL    HW125151   5.903   0.461   0.323
 8084SOL    HW225152   6.045   0.381   0.338
 8085SOL     OW25153   4.724   2.332   0.892
 8085SOL    HW125154   4.700   2.323   0.988
 8085SOL    HW225155   4.795   2.265   0.869
 8086SOL     OW25156   2.656   5.324   5.763
 8086SOL    HW125157   2.659   5.416   5.802
 8086SOL    HW225158   2.563   5.288   5.769
 8087SOL     OW25159   2.577   3.586   0.652
 8087SOL    HW125160   2.492   3.576   0.704
 8087SOL    HW225161   2.601   3.498   0.611
 8088SOL     OW25162   4.542   0.311   3.540
 8088SOL    HW125163   4.477   0.386   3.529
 8088SOL    HW225164   4.493   0.229   3.570
 8089SOL     OW25165   6.635   2.714   0.706
 8089SOL    HW125166   6.568   2.640   0.717
 8089SOL    HW225167   6.705   2.706   0.777
 8090SOL     OW25168   4.653   1.553   5.077
 8090SOL    HW125169   4.572   1.590   5.031
 8090SOL    HW225170   4.649   1.453   5.077
 8091SOL     OW25171   1.766   3.721   5.494
 8091SOL    HW125172   1.757   3.798   5.430
 8091SOL    HW225173   1.740   3.751   5.586
 8092SOL     OW25174   6.365   1.870   4.095
 8092SOL    HW125175   6.427   1.875   4.016
 8092SOL    HW225176   6.365   1.957   4.143
 8093SOL     OW25177   5.975   5.319   0.852
 8093SOL    HW125178   5.940   5.299   0.943
 8093SOL    HW225179   5.913   5.280   0.783
 8094SOL     OW25180   0.250   3.339   3.922
 8094SOL    HW125181   0.228   3.348   3.825
 8094SOL    HW225182   0.349   3.327   3.933
 8095SOL     OW25183   6.471   3.184   4.954
 8095SOL    HW125184   6.565   3.220   4.959
 8095SOL    HW225185   6.473   3.085   4.959
 8096SOL     OW25186   4.668   0.326   0.656
 8096SOL    HW125187   4.739   0.395   0.643
 8096SOL    HW225188   4.578   0.366   0.635
 8097SOL     OW25189   4.626   1.773   3.982
 8097SOL    HW125190   4.695   1.743   3.916
 8097SOL    HW225191   4.608   1.870   3.970
 8098SOL     OW25192   2.236   2.040   4.415
 8098SOL    HW125193   2.260   1.966   4.353
 8098SOL    HW225194   2.157   2.090   4.378
 8099SOL     OW25195   3.743   6.409   4.003
 8099SOL    HW125196   3.674   6.476   3.973
 8099SOL    HW225197   3.728   6.387   4.099
 8100SOL     OW25198   6.460   6.164   1.663
 8100SOL    HW125199   6.477   6.141   1.567
 8100SOL    HW225200   6.436   6.260   1.671
 8101SOL     OW25201   0.755   4.726   1.892
 8101SOL    HW125202   0.804   4.697   1.810
 8101SOL    HW225203   0.662   4.754   1.867
 8102SOL     OW25204   6.694   6.795   5.577
 8102SOL    HW125205   6.792   6.817   5.582
 8102SOL    HW225206   6.664   6.799   5.482
 8103SOL     OW25207   2.535   2.406   2.273
 8103SOL    HW125208   2.607   2.400   2.343
 8103SOL    HW225209   2.575   2.396   2.182
 8104SOL     OW25210   2.600   6.906   6.007
 8104SOL    HW125211   2.635   6.929   6.097
 8104SOL    HW225212   2.517   6.959   5.988
 8105SOL     OW25213   2.123   2.574   3.006
 8105SOL    HW125214   2.055   2.647   3.019
 8105SOL    HW225215   2.083   2.486   3.031
 8106SOL     OW25216   0.869   3.861   5.557
 8106SOL    HW125217   0.822   3.914   5.628
 8106SOL    HW225218   0.805   3.840   5.483
 8107SOL     OW25219   1.127   5.354   6.732
 8107SOL    HW125220   1.066   5.277   6.710
 8107SOL    HW225221   1.207   5.320   6.782
 8108SOL     OW25222   2.327   2.690   6.369
 8108SOL    HW125223   2.400   2.747   6.332
 8108SOL    HW225224   2.242   2.744   6.374
 8109SOL     OW25225   0.192   5.551   5.510
 8109SOL    HW125226   0.208   5.614   5.434
 8109SOL    HW225227   0.275   5.543   5.565
 8110SOL     OW25228   1.468   4.979   0.363
 8110SOL    HW125229   1.396   4.911   0.351
 8110SOL    HW225230   1.522   4.985   0.279
 8111SOL     OW25231   3.323   5.916   4.235
 8111SOL    HW125232   3.257   5.969   4.288
 8111SOL    HW225233   3.285   5.897   4.145
 8112SOL     OW25234   3.904   1.360   3.983
 8112SOL    HW125235   3.818   1.310   3.980
 8112SOL    HW225236   3.899   1.430   4.055
 8113SOL     OW25237   2.931   2.358   5.627
 8113SOL    HW125238   2.959   2.404   5.542
 8113SOL    HW225239   3.011   2.343   5.684
 8114SOL     OW25240   3.255   3.755   1.374
 8114SOL    HW125241   3.198   3.816   1.428
 8114SOL    HW225242   3.275   3.672   1.427
 8115SOL     OW25243   4.182   2.716   1.260
 8115SOL    HW125244   4.136   2.644   1.209
 8115SOL    HW225245   4.210   2.788   1.198
 8116SOL     OW25246   5.304   1.671   5.693
 8116SOL    HW125247   5.343   1.753   5.651
 8116SOL    HW225248   5.216   1.650   5.651
 8117SOL     OW25249   2.844   2.640   5.727
 8117SOL    HW125250   2.774   2.573   5.747
 8117SOL    HW225251   2.919   2.632   5.793
 8118SOL     OW25252   1.018   1.867   4.208
 8118SOL    HW125253   0.982   1.955   4.240
 8118SOL    HW225254   1.039   1.873   4.110
 8119SOL     OW25255   1.207   6.764   2.547
 8119SOL    HW125256   1.132   6.822   2.513
 8119SOL    HW225257   1.198   6.673   2.508
 8120SOL     OW25258   4.758   4.231   2.540
 8120SOL    HW125259   4.822   4.280   2.599
 8120SOL    HW225260   4.666   4.271   2.550
 8121SOL     OW25261   6.641   5.837   3.194
 8121SOL    HW125262   6.547   5.826   3.162
 8121SOL    HW225263   6.681   5.747   3.211
 8122SOL     OW25264   7.011   5.254   1.840
 8122SOL    HW125265   7.017   5.246   1.940
 8122SOL    HW225266   7.005   5.350   1.815
 8123SOL     OW25267   1.442   5.431   6.525
 8123SOL    HW125268   1.451   5.475   6.615
 8123SOL    HW225269   1.365   5.368   6.527
 8124SOL     OW25270   1.532   5.918   2.808
 8124SOL    HW125271   1.466   5.915   2.732
 8124SOL    HW225272   1.575   5.828   2.818
 8125SOL     OW25273   5.058   5.240   3.068
 8125SOL    HW125274   5.077   5.149   3.105
 8125SOL    HW225275   5.047   5.234   2.969
 8126SOL     OW25276   0.377   4.681   1.572
 8126SOL    HW125277   0.426   4.684   1.485
 8126SOL    HW225278   0.289   4.635   1.558
 8127SOL     OW25279   4.452   5.492   0.995
 8127SOL    HW125280   4.359   5.474   1.026
 8127SOL    HW225281   4.489   5.411   0.950
 8128SOL     OW25282   3.889   2.084   5.300
 8128SOL    HW125283   3.901   2.004   5.358
 8128SOL    HW225284   3.838   2.058   5.217
 8129SOL     OW25285   4.559   6.083   6.760
 8129SOL    HW125286   4.647   6.040   6.780
 8129SOL    HW225287   4.561   6.122   6.668
 8130SOL     OW25288   0.542   0.571   6.319
 8130SOL    HW125289   0.447   0.552   6.296
 8130SOL    HW225290   0.578   0.498   6.377
 8131SOL     OW25291   2.422   1.660   1.627
 8131SOL    HW125292   2.473   1.607   1.559
 8131SOL    HW225293   2.357   1.719   1.581
 8132SOL     OW25294   5.810   4.442   3.360
 8132SOL    HW125295   5.765   4.402   3.280
 8132SOL    HW225296   5.909   4.436   3.350
 8133SOL     OW25297   0.410   5.533   2.690
 8133SOL    HW125298   0.406   5.504   2.594
 8133SOL    HW225299   0.496   5.581   2.706
 8134SOL     OW25300   2.779   3.295   1.595
 8134SOL    HW125301   2.733   3.207   1.586
 8134SOL    HW225302   2.728   3.353   1.658
 8135SOL     OW25303   3.863   6.396   2.294
 8135SOL    HW125304   3.854   6.383   2.195
 8135SOL    HW225305   3.783   6.356   2.340
 8136SOL     OW25306   2.339   5.743   1.833
 8136SOL    HW125307   2.342   5.775   1.927
 8136SOL    HW225308   2.423   5.693   1.812
 8137SOL     OW25309   3.030   3.589   5.487
 8137SOL    HW125310   3.009   3.595   5.585
 8137SOL    HW225311   2.952   3.623   5.434
 8138SOL     OW25312   4.443   0.939   3.507
 8138SOL    HW125313   4.489   0.898   3.428
 8138SOL    HW225314   4.476   1.032   3.520
 8139SOL     OW25315   1.839   2.981   5.805
 8139SOL    HW125316   1.786   3.055   5.762
 8139SOL    HW225317   1.838   2.900   5.745
 8140SOL     OW25318   5.042   1.795   1.316
 8140SOL    HW125319   5.036   1.722   1.249
 8140SOL    HW225320   5.109   1.863   1.286
 8141SOL     OW25321   5.771   0.663   5.183
 8141SOL    HW125322   5.770   0.760   5.209
 8141SOL    HW225323   5.679   0.626   5.191
 8142SOL     OW25324   3.902   5.932   0.541
 8142SOL    HW125325   3.875   5.874   0.464
 8142SOL    HW225326   3.987   5.980   0.517
 8143SOL     OW25327   5.667   5.102   6.882
 8143SOL    HW125328   5.642   5.120   6.978
 8143SOL    HW225329   5.754   5.053   6.879
 8144SOL     OW25330   1.748   5.606   6.623
 8144SOL    HW125331   1.660   5.631   6.582
 8144SOL    HW225332   1.796   5.544   6.562
 8145SOL     OW25333   5.335   5.784   5.515
 8145SOL    HW125334   5.343   5.752   5.609
 8145SOL    HW225335   5.332   5.884   5.514
 8146SOL     OW25336   6.877   6.226   4.945
 8146SOL    HW125337   6.930   6.302   4.909
 8146SOL    HW225338   6.890   6.220   5.044
 8147SOL     OW25339   2.381   6.952   4.632
 8147SOL    HW125340   2.312   7.016   4.599
 8147SOL    HW225341   2.354   6.859   4.608
 8148SOL     OW25342   5.401   4.418   0.216
 8148SOL    HW125343   5.458   4.433   0.135
 8148SOL    HW225344   5.315   4.376   0.189
 8149SOL     OW25345   1.719   6.651   5.145
 8149SOL    HW125346   1.620   6.653   5.153
 8149SOL    HW225347   1.760   6.628   5.233
 8150SOL     OW25348   0.235   4.378   0.799
 8150SOL    HW125349   0.185   4.422   0.725
 8150SOL    HW225350   0.285   4.299   0.763
 8151SOL     OW25351   6.165   4.063   1.863
 8151SOL    HW125352   6.235   4.131   1.885
 8151SOL    HW225353   6.194   3.973   1.895
 8152SOL     OW25354   5.044   2.025   3.887
 8152SOL    HW125355   4.945   2.021   3.893
 8152SOL    HW225356   5.084   1.947   3.935
 8153SOL     OW25357   0.403   1.691   1.170
 8153SOL    HW125358   0.402   1.766   1.104
 8153SOL    HW225359   0.369   1.724   1.258
 8154SOL     OW25360   0.612   0.842   3.640
 8154SOL    HW125361   0.626   0.754   3.594
 8154SOL    HW225362   0.523   0.879   3.615
 8155SOL     OW25363   0.997   4.728   4.366
 8155SOL    HW125364   1.087   4.763   4.340
 8155SOL    HW225365   0.978   4.644   4.314
 8156SOL     OW25366   1.422   3.901   0.623
 8156SOL    HW125367   1.468   3.961   0.688
 8156SOL    HW225368   1.323   3.908   0.635
 8157SOL     OW25369   6.141   4.351   4.741
 8157SOL    HW125370   6.053   4.397   4.754
 8157SOL    HW225371   6.201   4.410   4.687
 8158SOL     OW25372   6.261   5.288   6.045
 8158SOL    HW125373   6.163   5.271   6.051
 8158SOL    HW225374   6.310   5.221   6.101
 8159SOL     OW25375   2.056   6.679   5.243
 8159SOL    HW125376   2.062   6.735   5.161
 8159SOL    HW225377   2.093   6.731   5.321
 8160SOL     OW25378   5.294   2.755   2.985
 8160SOL    HW125379   5.210   2.757   2.932
 8160SOL    HW225380   5.341   2.668   2.972
 8161SOL     OW25381   0.592   2.211   1.312
 8161SOL    HW125382   0.563   2.191   1.406
 8161SOL    HW225383   0.680   2.167   1.295
 8162SOL     OW25384   0.353   5.996   5.230
 8162SOL    HW125385   0.269   6.023   5.278
 8162SOL    HW225386   0.330   5.963   5.138
 8163SOL     OW25387   3.147   4.990   5.780
 8163SOL    HW125388   3.069   4.927   5.775
 8163SOL    HW225389   3.232   4.938   5.771
 8164SOL     OW25390   5.243   1.954   0.295
 8164SOL    HW125391   5.188   1.909   0.365
 8164SOL    HW225392   5.193   2.033   0.259
 8165SOL     OW25393   0.706   2.728   6.241
 8165SOL    HW125394   0.733   2.654   6.180
 8165SOL    HW225395   0.636   2.785   6.197
 8166SOL     OW25396   3.148   2.178   4.508
 8166SOL    HW125397   3.145   2.138   4.600
 8166SOL    HW225398   3.082   2.252   4.501
 8167SOL     OW25399   1.693   2.757   3.222
 8167SOL    HW125400   1.608   2.730   3.268
 8167SOL    HW225401   1.724   2.844   3.260
 8168SOL     OW25402   1.268   6.180   2.763
 8168SOL    HW125403   1.335   6.251   2.740
 8168SOL    HW225404   1.209   6.163   2.685
 8169SOL     OW25405   5.080   4.858   6.996
 8169SOL    HW125406   5.027   4.929   0.023
 8169SOL    HW225407   5.177   4.873   7.013
 8170SOL     OW25408   6.962   4.422   3.536
 8170SOL    HW125409   6.915   4.510   3.543
 8170SOL    HW225410   6.968   4.397   3.439
 8171SOL     OW25411   1.904   1.595   1.692
 8171SOL    HW125412   1.954   1.676   1.662
 8171SOL    HW225413   1.925   1.577   1.788
 8172SOL     OW25414   1.631   4.896   0.598
 8172SOL    HW125415   1.692   4.828   0.559
 8172SOL    HW225416   1.560   4.920   0.531
 8173SOL     OW25417   5.830   6.593   1.622
 8173SOL    HW125418   5.787   6.509   1.655
 8173SOL    HW225419   5.856   6.581   1.526
 8174SOL     OW25420   2.542   6.634   3.973
 8174SOL    HW125421   2.633   6.607   4.004
 8174SOL    HW225422   2.483   6.649   4.052
 8175SOL     OW25423   0.598   2.119   5.941
 8175SOL    HW125424   0.530   2.168   5.886
 8175SOL    HW225425   0.553   2.046   5.993
 8176SOL     OW25426   2.844   4.621   6.926
 8176SOL    HW125427   2.915   4.551   6.918
 8176SOL    HW225428   2.887   4.711   6.925
 8177SOL     OW25429   3.501   0.805   2.578
 8177SOL    HW125430   3.485   0.904   2.576
 8177SOL    HW225431   3.559   0.779   2.501
 8178SOL     OW25432   2.354   6.141   1.209
 8178SOL    HW125433   2.369   6.048   1.176
 8178SOL    HW225434   2.421   6.163   1.280
 8179SOL     OW25435   6.591   0.020   3.779
 8179SOL    HW125436   6.570   6.944   3.759
 8179SOL    HW225437   6.598   0.071   3.693
 8180SOL     OW25438   4.951   5.285   0.642
 8180SOL    HW125439   4.909   5.252   0.726
 8180SOL    HW225440   5.037   5.236   0.626
 8181SOL     OW25441   6.220   0.682   6.615
 8181SOL    HW125442   6.300   0.635   6.578
 8181SOL    HW225443   6.177   0.626   6.685
 8182SOL     OW25444   3.585   3.769   3.112
 8182SOL    HW125445   3.682   3.780   3.132
 8182SOL    HW225446   3.571   3.772   3.013
 8183SOL     OW25447   0.408   0.347   5.365
 8183SOL    HW125448   0.338   0.307   5.305
 8183SOL    HW225449   0.433   0.280   5.435
 8184SOL     OW25450   6.984   6.038   4.770
 8184SOL    HW125451   6.900   6.024   4.718
 8184SOL    HW225452   6.974   6.118   4.829
 8185SOL     OW25453   0.140   6.229   4.507
 8185SOL    HW125454   0.045   6.200   4.519
 8185SOL    HW225455   0.201   6.162   4.550
 8186SOL     OW25456   1.489   5.789   0.187
 8186SOL    HW125457   1.457   5.878   0.154
 8186SOL    HW225458   1.477   5.785   0.287
 8187SOL     OW25459   1.207   6.634   4.904
 8187SOL    HW125460   1.179   6.555   4.850
 8187SOL    HW225461   1.304   6.652   4.890
 8188SOL     OW25462   1.357   2.654   2.628
 8188SOL    HW125463   1.304   2.676   2.710
 8188SOL    HW225464   1.397   2.738   2.591
 8189SOL     OW25465   6.771   5.350   4.278
 8189SOL    HW125466   6.800   5.281   4.213
 8189SOL    HW225467   6.725   5.425   4.230
 8190SOL     OW25468   5.769   4.117   2.987
 8190SOL    HW125469   5.711   4.137   2.908
 8190SOL    HW225470   5.775   4.018   3.001
 8191SOL     OW25471   5.137   5.262   0.899
 8191SOL    HW125472   5.175   5.234   0.811
 8191SOL    HW225473   5.105   5.357   0.893
 8192SOL     OW25474   6.985   5.728   3.361
 8192SOL    HW125475   6.917   5.765   3.424
 8192SOL    HW225476   6.940   5.697   3.278
 8193SOL     OW25477   0.541   4.774   4.320
 8193SOL    HW125478   0.624   4.769   4.265
 8193SOL    HW225479   0.488   4.854   4.294
 8194SOL     OW25480   5.137   0.255   2.305
 8194SOL    HW125481   5.196   0.302   2.370
 8194SOL    HW225482   5.094   0.176   2.350
 8195SOL     OW25483   6.795   6.639   3.192
 8195SOL    HW125484   6.730   6.564   3.188
 8195SOL    HW225485   6.761   6.716   3.139
 8196SOL     OW25486   4.742   6.849   2.787
 8196SOL    HW125487   4.803   6.912   2.836
 8196SOL    HW225488   4.792   6.765   2.765
 8197SOL     OW25489   3.897   1.259   3.160
 8197SOL    HW125490   3.914   1.203   3.078
 8197SOL    HW225491   3.980   1.264   3.215
 8198SOL     OW25492   2.116   5.263   0.355
 8198SOL    HW125493   2.164   5.310   0.428
 8198SOL    HW225494   2.051   5.326   0.311
 8199SOL     OW25495   6.106   2.613   0.486
 8199SOL    HW125496   6.055   2.617   0.400
 8199SOL    HW225497   6.153   2.700   0.501
 8200SOL     OW25498   6.169   4.751   6.947
 8200SOL    HW125499   6.234   4.693   6.897
 8200SOL    HW225500   6.219   4.826   6.991
 8201SOL     OW25501   5.263   0.648   5.296
 8201SOL    HW125502   5.258   0.568   5.355
 8201SOL    HW225503   5.298   0.726   5.348
 8202SOL     OW25504   0.546   5.545   1.827
 8202SOL    HW125505   0.518   5.588   1.741
 8202SOL    HW225506   0.536   5.611   1.902
 8203SOL     OW25507   1.584   3.248   0.362
 8203SOL    HW125508   1.516   3.183   0.329
 8203SOL    HW225509   1.554   3.341   0.344
 8204SOL     OW25510   1.509   3.593   0.565
 8204SOL    HW125511   1.490   3.669   0.627
 8204SOL    HW225512   1.542   3.515   0.618
 8205SOL     OW25513   0.191   4.153   6.224
 8205SOL    HW125514   0.129   4.078   6.250
 8205SOL    HW225515   0.147   4.210   6.155
 8206SOL     OW25516   3.351   0.694   1.344
 8206SOL    HW125517   3.380   0.700   1.249
 8206SOL    HW225518   3.394   0.615   1.388
 8207SOL     OW25519   4.004   3.712   4.350
 8207SOL    HW125520   3.978   3.808   4.354
 8207SOL    HW225521   4.018   3.677   4.443
 8208SOL     OW25522   2.838   6.961   6.496
 8208SOL    HW125523   2.823   0.039   6.512
 8208SOL    HW225524   2.871   6.919   6.581
 8209SOL     OW25525   6.017   2.344   3.959
 8209SOL    HW125526   6.003   2.442   3.947
 8209SOL    HW225527   6.112   2.327   3.985
 8210SOL     OW25528   2.030   2.395   6.273
 8210SOL    HW125529   1.999   2.436   6.187
 8210SOL    HW225530   2.126   2.369   6.264
 8211SOL     OW25531   3.898   4.673   1.027
 8211SOL    HW125532   3.851   4.585   1.041
 8211SOL    HW225533   3.926   4.710   1.116
 8212SOL     OW25534   1.807   3.420   2.818
 8212SOL    HW125535   1.799   3.373   2.730
 8212SOL    HW225536   1.892   3.472   2.820
 8213SOL     OW25537   6.445   4.924   0.578
 8213SOL    HW125538   6.527   4.868   0.596
 8213SOL    HW225539   6.403   4.894   0.493
 8214SOL     OW25540   4.891   3.486   3.441
 8214SOL    HW125541   4.844   3.548   3.379
 8214SOL    HW225542   4.988   3.507   3.443
 8215SOL     OW25543   3.685   5.092   1.744
 8215SOL    HW125544   3.716   5.020   1.805
 8215SOL    HW225545   3.763   5.129   1.693
 8216SOL     OW25546   5.511   3.485   4.056
 8216SOL    HW125547   5.561   3.409   4.014
 8216SOL    HW225548   5.574   3.541   4.109
 8217SOL     OW25549   2.364   5.630   0.108
 8217SOL    HW125550   2.445   5.587   0.147
 8217SOL    HW225551   2.341   5.712   0.161
 8218SOL     OW25552   4.692   2.267   6.682
 8218SOL    HW125553   4.594   2.278   6.695
 8218SOL    HW225554   4.740   2.292   6.767
 8219SOL     OW25555   5.125   2.173   0.167
 8219SOL    HW125556   5.061   2.212   0.234
 8219SOL    HW225557   5.106   2.211   0.077
 8220SOL     OW25558   3.955   3.533   1.591
 8220SOL    HW125559   3.878   3.507   1.531
 8220SOL    HW225560   3.931   3.513   1.686
 8221SOL     OW25561   5.880   4.074   3.627
 8221SOL    HW125562   5.898   4.067   3.528
 8221SOL    HW225563   5.784   4.055   3.645
 8222SOL     OW25564   6.023   1.072   2.948
 8222SOL    HW125565   6.095   1.005   2.931
 8222SOL    HW225566   5.936   1.037   2.913
 8223SOL     OW25567   0.633   4.965   0.162
 8223SOL    HW125568   0.595   4.977   0.071
 8223SOL    HW225569   0.592   4.885   0.206
 8224SOL     OW25570   0.731   3.979   2.303
 8224SOL    HW125571   0.769   3.893   2.270
 8224SOL    HW225572   0.692   4.030   2.226
 8225SOL     OW25573   5.147   1.226   1.469
 8225SOL    HW125574   5.138   1.136   1.428
 8225SOL    HW225575   5.087   1.291   1.422
 8226SOL     OW25576   3.759   0.431   6.894
 8226SOL    HW125577   3.662   0.407   6.899
 8226SOL    HW225578   3.811   0.354   6.858
 8227SOL     OW25579   6.291   4.265   3.152
 8227SOL    HW125580   6.279   4.224   3.242
 8227SOL    HW225581   6.282   4.194   3.082
 8228SOL     OW25582   0.038   1.350   3.935
 8228SOL    HW125583   0.075   1.365   3.844
 8228SOL    HW225584   6.980   1.288   3.930
 8229SOL     OW25585   5.484   5.556   0.146
 8229SOL    HW125586   5.427   5.539   0.066
 8229SOL    HW225587   5.578   5.573   0.118
 8230SOL     OW25588   5.010   0.039   3.167
 8230SOL    HW125589   4.996   0.000   3.258
 8230SOL    HW225590   5.107   0.034   3.144
 8231SOL     OW25591   3.957   5.754   1.227
 8231SOL    HW125592   3.947   5.853   1.220
 8231SOL    HW225593   4.045   5.731   1.268
 8232SOL     OW25594   2.647   1.402   0.162
 8232SOL    HW125595   2.580   1.335   0.129
 8232SOL    HW225596   2.640   1.411   0.261
 8233SOL     OW25597   0.807   5.753   5.991
 8233SOL    HW125598   0.756   5.839   6.004
 8233SOL    HW225599   0.744   5.676   5.995
 8234SOL     OW25600   2.243   3.327   6.745
 8234SOL    HW125601   2.168   3.262   6.757
 8234SOL    HW225602   2.284   3.314   6.655
 8235SOL     OW25603   4.657   2.364   6.414
 8235SOL    HW125604   4.667   2.346   6.512
 8235SOL    HW225605   4.612   2.286   6.370
 8236SOL     OW25606   6.239   2.467   1.520
 8236SOL    HW125607   6.151   2.453   1.474
 8236SOL    HW225608   6.229   2.445   1.617
 8237SOL     OW25609   3.811   6.097   5.537
 8237SOL    HW125610   3.795   6.106   5.635
 8237SOL    HW225611   3.816   6.187   5.495
 8238SOL     OW25612   1.044   1.042   6.293
 8238SOL    HW125613   1.086   0.985   6.364
 8238SOL    HW225614   0.949   1.013   6.278
 8239SOL     OW25615   5.923   1.206   6.983
 8239SOL    HW125616   5.873   1.151   6.916
 8239SOL    HW225617   5.860   1.237   0.034
 8240SOL     OW25618   3.691   3.300   3.036
 8240SOL    HW125619   3.758   3.311   3.109
 8240SOL    HW225620   3.713   3.218   2.983
 8241SOL     OW25621   4.830   6.209   1.207
 8241SOL    HW125622   4.733   6.219   1.182
 8241SOL    HW225623   4.885   6.207   1.124
 8242SOL     OW25624   1.463   4.046   5.272
 8242SOL    HW125625   1.484   4.120   5.336
 8242SOL    HW225626   1.376   4.064   5.228
 8243SOL     OW25627   0.187   3.139   5.070
 8243SOL    HW125628   0.232   3.228   5.079
 8243SOL    HW225629   0.234   3.072   5.127
 8244SOL     OW25630   2.619   5.273   4.937
 8244SOL    HW125631   2.564   5.225   5.006
 8244SOL    HW225632   2.562   5.342   4.892
 8245SOL     OW25633   4.298   3.865   1.300
 8245SOL    HW125634   4.366   3.794   1.280
 8245SOL    HW225635   4.225   3.827   1.356
 8246SOL     OW25636   5.314   3.521   4.986
 8246SOL    HW125637   5.325   3.561   4.895
 8246SOL    HW225638   5.222   3.539   5.020
 8247SOL     OW25639   1.226   6.385   6.712
 8247SOL    HW125640   1.275   6.464   6.676
 8247SOL    HW225641   1.291   6.319   6.750
 8248SOL     OW25642   0.257   3.965   3.480
 8248SOL    HW125643   0.160   3.968   3.503
 8248SOL    HW225644   0.307   4.029   3.538
 8249SOL     OW25645   1.111   5.491   2.813
 8249SOL    HW125646   1.193   5.520   2.861
 8249SOL    HW225647   1.031   5.504   2.871
 8250SOL     OW25648   3.228   3.424   2.365
 8250SOL    HW125649   3.231   3.432   2.465
 8250SOL    HW225650   3.261   3.509   2.324
 8251SOL     OW25651   5.730   0.806   4.822
 8251SOL    HW125652   5.712   0.722   4.770
 8251SOL    HW225653   5.654   0.824   4.884
 8252SOL     OW25654   0.957   3.695   4.195
 8252SOL    HW125655   0.861   3.683   4.172
 8252SOL    HW225656   0.992   3.779   4.153
 8253SOL     OW25657   3.198   3.387   5.724
 8253SOL    HW125658   3.159   3.313   5.669
 8253SOL    HW225659   3.137   3.467   5.721
 8254SOL     OW25660   4.891   5.584   2.848
 8254SOL    HW125661   4.829   5.631   2.912
 8254SOL    HW225662   4.837   5.543   2.775
 8255SOL     OW25663   4.027   4.995   3.675
 8255SOL    HW125664   3.970   4.934   3.730
 8255SOL    HW225665   3.983   5.084   3.668
 8256SOL     OW25666   5.366   2.558   3.278
 8256SOL    HW125667   5.415   2.477   3.308
 8256SOL    HW225668   5.373   2.567   3.179
 8257SOL     OW25669   6.296   4.290   4.226
 8257SOL    HW125670   6.333   4.380   4.205
 8257SOL    HW225671   6.370   4.229   4.255
 8258SOL     OW25672   5.255   2.064   6.841
 8258SOL    HW125673   5.349   2.078   6.809
 8258SOL    HW225674   5.256   2.023   6.932
 8259SOL     OW25675   4.720   0.879   0.954
 8259SOL    HW125676   4.812   0.862   0.919
 8259SOL    HW225677   4.653   0.859   0.882
 8260SOL     OW25678   3.737   5.825   6.660
 8260SOL    HW125679   3.664   5.759   6.638
 8260SOL    HW225680   3.703   5.891   6.726
 8261SOL     OW25681   4.984   1.338   1.666
 8261SOL    HW125682   5.047   1.311   1.593
 8261SOL    HW225683   5.037   1.360   1.749
 8262SOL     OW25684   6.630   2.247   1.547
 8262SOL    HW125685   6.591   2.188   1.618
 8262SOL    HW225686   6.556   2.289   1.494
 8263SOL     OW25687   5.684   1.642   0.680
 8263SOL    HW125688   5.584   1.649   0.679
 8263SOL    HW225689   5.715   1.604   0.593
 8264SOL     OW25690   1.624   4.178   1.430
 8264SOL    HW125691   1.630   4.236   1.349
 8264SOL    HW225692   1.535   4.132   1.431
 8265SOL     OW25693   1.910   0.541   2.721
 8265SOL    HW125694   1.886   0.635   2.695
 8265SOL    HW225695   1.833   0.499   2.769
 8266SOL     OW25696   3.250   0.733   2.925
 8266SOL    HW125697   3.294   0.822   2.909
 8266SOL    HW225698   3.155   0.738   2.893
 8267SOL     OW25699   0.228   3.839   0.652
 8267SOL    HW125700   0.174   3.843   0.568
 8267SOL    HW225701   0.170   3.864   0.730
 8268SOL     OW25702   3.108   5.160   6.734
 8268SOL    HW125703   3.018   5.121   6.712
 8268SOL    HW225704   3.105   5.200   6.826
 8269SOL     OW25705   6.180   2.129   0.205
 8269SOL    HW125706   6.158   2.173   0.292
 8269SOL    HW225707   6.225   2.041   0.223
 8270SOL     OW25708   2.545   6.163   4.432
 8270SOL    HW125709   2.465   6.117   4.472
 8270SOL    HW225710   2.586   6.104   4.363
 8271SOL     OW25711   0.214   2.261   2.992
 8271SOL    HW125712   0.187   2.339   2.936
 8271SOL    HW225713   0.234   2.182   2.933
 8272SOL     OW25714   3.415   1.467   4.238
 8272SOL    HW125715   3.425   1.369   4.257
 8272SOL    HW225716   3.503   1.505   4.211
 8273SOL     OW25717   1.663   6.453   2.193
 8273SOL    HW125718   1.707   6.542   2.202
 8273SOL    HW225719   1.700   6.391   2.262
 8274SOL     OW25720   5.224   4.072   3.629
 8274SOL    HW125721   5.155   4.050   3.698
 8274SOL    HW225722   5.236   4.171   3.625
 8275SOL     OW25723   5.619   2.201   0.219
 8275SOL    HW125724   5.628   2.301   0.224
 8275SOL    HW225725   5.575   2.176   0.134
 8276SOL     OW25726   0.564   1.713   2.569
 8276SOL    HW125727   0.624   1.637   2.542
 8276SOL    HW225728   0.502   1.683   2.641
 8277SOL     OW25729   0.186   1.473   0.269
 8277SOL    HW125730   0.259   1.415   0.235
 8277SOL    HW225731   0.110   1.474   0.204
 8278SOL     OW25732   1.377   2.607   0.816
 8278SOL    HW125733   1.464   2.623   0.770
 8278SOL    HW225734   1.306   2.591   0.748
 8279SOL     OW25735   0.253   5.941   3.652
 8279SOL    HW125736   0.175   5.985   3.697
 8279SOL    HW225737   0.297   6.006   3.590
 8280SOL     OW25738   3.389   2.583   5.973
 8280SOL    HW125739   3.362   2.569   5.878
 8280SOL    HW225740   3.418   2.678   5.986
 8281SOL     OW25741   4.604   5.357   2.410
 8281SOL    HW125742   4.608   5.257   2.412
 8281SOL    HW225743   4.512   5.387   2.433
 8282SOL     OW25744   6.475   2.824   6.257
 8282SOL    HW125745   6.383   2.834   6.297
 8282SOL    HW225746   6.467   2.804   6.160
 8283SOL     OW25747   2.021   2.858   5.992
 8283SOL    HW125748   1.972   2.930   5.942
 8283SOL    HW225749   2.092   2.820   5.934
 8284SOL     OW25750   6.393   4.491   1.988
 8284SOL    HW125751   6.452   4.553   2.040
 8284SOL    HW225752   6.390   4.520   1.892
 8285SOL     OW25753   4.043   3.425   3.643
 8285SOL    HW125754   4.073   3.429   3.738
 8285SOL    HW225755   3.945   3.443   3.638
 8286SOL     OW25756   0.548   2.585   6.892
 8286SOL    HW125757   0.501   2.672   6.901
 8286SOL    HW225758   0.494   2.513   6.934
 8287SOL     OW25759   1.555   6.944   4.180
 8287SOL    HW125760   1.583   6.972   4.088
 8287SOL    HW225761   1.572   6.847   4.192
 8288SOL     OW25762   2.876   1.814   3.158
 8288SOL    HW125763   2.944   1.867   3.208
 8288SOL    HW225764   2.904   1.718   3.156
 8289SOL     OW25765   0.401   6.245   0.118
 8289SOL    HW125766   0.461   6.325   0.124
 8289SOL    HW225767   0.435   6.183   0.047
 8290SOL     OW25768   6.202   2.341   1.107
 8290SOL    HW125769   6.136   2.413   1.083
 8290SOL    HW225770   6.282   2.383   1.149
 8291SOL     OW25771   4.092   0.918   0.719
 8291SOL    HW125772   4.008   0.972   0.716
 8291SOL    HW225773   4.128   0.917   0.812
 8292SOL     OW25774   2.951   0.436   6.051
 8292SOL    HW125775   2.902   0.458   5.967
 8292SOL    HW225776   2.918   0.349   6.087
 8293SOL     OW25777   6.095   5.248   5.010
 8293SOL    HW125778   6.011   5.266   5.061
 8293SOL    HW225779   6.126   5.333   4.967
 8294SOL     OW25780   6.121   3.252   7.017
 8294SOL    HW125781   6.155   3.336   0.038
 8294SOL    HW225782   6.111   3.265   6.918
 8295SOL     OW25783   4.990   3.125   6.750
 8295SOL    HW125784   4.918   3.193   6.735
 8295SOL    HW225785   4.984   3.091   6.844
 8296SOL     OW25786   1.015   5.144   5.824
 8296SOL    HW125787   1.011   5.140   5.724
 8296SOL    HW225788   1.101   5.102   5.856
 8297SOL     OW25789   1.687   3.016   3.904
 8297SOL    HW125790   1.628   3.071   3.844
 8297SOL    HW225791   1.774   2.999   3.859
 8298SOL     OW25792   4.651   1.629   1.752
 8298SOL    HW125793   4.598   1.710   1.725
 8298SOL    HW225794   4.689   1.586   1.670
 8299SOL     OW25795   5.928   2.389   1.771
 8299SOL    HW125796   6.016   2.431   1.793
 8299SOL    HW225797   5.941   2.291   1.757
 8300SOL     OW25798   1.755   5.371   2.955
 8300SOL    HW125799   1.828   5.432   2.925
 8300SOL    HW225800   1.781   5.327   3.041
 8301SOL     OW25801   2.786   1.860   6.191
 8301SOL    HW125802   2.696   1.858   6.234
 8301SOL    HW225803   2.776   1.878   6.094
 8302SOL     OW25804   5.888   5.808   5.616
 8302SOL    HW125805   5.831   5.772   5.542
 8302SOL    HW225806   5.984   5.790   5.595
 8303SOL     OW25807   6.847   0.109   6.493
 8303SOL    HW125808   6.943   0.095   6.467
 8303SOL    HW225809   6.796   0.025   6.475
 8304SOL     OW25810   0.172   3.204   0.647
 8304SOL    HW125811   0.164   3.293   0.603
 8304SOL    HW225812   0.251   3.155   0.609
 8305SOL     OW25813   3.345   5.410   2.810
 8305SOL    HW125814   3.445   5.403   2.799
 8305SOL    HW225815   3.316   5.349   2.883
 8306SOL     OW25816   1.880   3.118   4.099
 8306SOL    HW125817   1.953   3.065   4.055
 8306SOL    HW225818   1.854   3.194   4.040
 8307SOL     OW25819   4.102   6.005   0.907
 8307SOL    HW125820   4.106   5.920   0.854
 8307SOL    HW225821   4.028   5.999   0.974
 8308SOL     OW25822   2.941   0.641   1.938
 8308SOL    HW125823   2.988   0.714   1.889
 8308SOL    HW225824   2.897   0.580   1.873
 8309SOL     OW25825   5.906   6.789   2.215
 8309SOL    HW125826   5.824   6.757   2.169
 8309SOL    HW225827   5.887   6.802   2.312
 8310SOL     OW25828   6.247   4.789   6.530
 8310SOL    HW125829   6.251   4.883   6.563
 8310SOL    HW225830   6.338   4.748   6.534
 8311SOL     OW25831   6.480   0.129   6.165
 8311SOL    HW125832   6.408   0.164   6.226
 8311SOL    HW225833   6.552   0.197   6.155
 8312SOL     OW25834   4.828   6.416   1.393
 8312SOL    HW125835   4.831   6.337   1.332
 8312SOL    HW225836   4.762   6.483   1.357
 8313SOL     OW25837   4.033   1.656   2.794
 8313SOL    HW125838   4.071   1.721   2.861
 8313SOL    HW225839   3.959   1.699   2.744
 8314SOL     OW25840   0.224   6.860   3.165
 8314SOL    HW125841   0.262   6.771   3.143
 8314SOL    HW225842   0.298   6.924   3.185
 8315SOL     OW25843   5.305   4.559   6.470
 8315SOL    HW125844   5.244   4.598   6.539
 8315SOL    HW225845   5.355   4.632   6.424
 8316SOL     OW25846   2.984   5.441   6.651
 8316SOL    HW125847   3.053   5.369   6.648
 8316SOL    HW225848   2.894   5.400   6.663
 8317SOL     OW25849   2.325   4.450   1.319
 8317SOL    HW125850   2.271   4.513   1.374
 8317SOL    HW225851   2.337   4.364   1.368
 8318SOL     OW25852   2.970   1.238   5.689
 8318SOL    HW125853   2.975   1.158   5.628
 8318SOL    HW225854   2.950   1.320   5.635
 8319SOL     OW25855   2.931   0.524   5.785
 8319SOL    HW125856   2.987   0.462   5.730
 8319SOL    HW225857   2.983   0.608   5.803
 8320SOL     OW25858   4.227   4.927   1.239
 8320SOL    HW125859   4.223   5.027   1.244
 8320SOL    HW225860   4.294   4.899   1.171
 8321SOL     OW25861   6.709   0.843   0.959
 8321SOL    HW125862   6.747   0.880   1.044
 8321SOL    HW225863   6.609   0.850   0.961
 8322SOL     OW25864   5.372   0.072   0.167
 8322SOL    HW125865   5.442   0.090   0.236
 8322SOL    HW225866   5.386   7.001   0.127
 8323SOL     OW25867   1.914   0.753   1.850
 8323SOL    HW125868   1.876   0.804   1.928
 8323SOL    HW225869   1.865   0.666   1.840
 8324SOL     OW25870   6.843   1.017   2.272
 8324SOL    HW125871   6.912   1.088   2.266
 8324SOL    HW225872   6.885   0.928   2.259
 8325SOL     OW25873   3.998   3.957   4.688
 8325SOL    HW125874   4.005   4.042   4.635
 8325SOL    HW225875   4.014   3.879   4.629
 8326SOL     OW25876   4.115   2.837   6.548
 8326SOL    HW125877   4.153   2.929   6.544
 8326SOL    HW225878   4.154   2.788   6.625
 8327SOL     OW25879   5.386   2.556   5.987
 8327SOL    HW125880   5.303   2.585   5.939
 8327SOL    HW225881   5.465   2.602   5.946
 8328SOL     OW25882   2.239   2.837   4.023
 8328SOL    HW125883   2.307   2.767   4.043
 8328SOL    HW225884   2.167   2.834   4.092
 8329SOL     OW25885   0.525   2.611   4.893
 8329SOL    HW125886   0.575   2.654   4.818
 8329SOL    HW225887   0.577   2.533   4.927
 8330SOL     OW25888   2.239   6.746   0.438
 8330SOL    HW125889   2.271   6.825   0.386
 8330SOL    HW225890   2.317   6.696   0.476
 8331SOL     OW25891   2.816   0.032   1.131
 8331SOL    HW125892   2.878   0.087   1.188
 8331SOL    HW225893   2.842   0.041   1.035
 8332SOL     OW25894   4.941   6.096   3.532
 8332SOL    HW125895   4.849   6.061   3.516
 8332SOL    HW225896   4.949   6.131   3.625
 8333SOL     OW25897   1.849   5.232   5.703
 8333SOL    HW125898   1.884   5.200   5.790
 8333SOL    HW225899   1.795   5.316   5.717
 8334SOL     OW25900   6.624   6.902   4.099
 8334SOL    HW125901   6.652   6.979   4.041
 8334SOL    HW225902   6.692   6.891   4.172
 8335SOL     OW25903   6.436   6.294   5.244
 8335SOL    HW125904   6.393   6.303   5.335
 8335SOL    HW225905   6.463   6.199   5.229
 8336SOL     OW25906   0.979   1.953   2.733
 8336SOL    HW125907   0.933   1.956   2.645
 8336SOL    HW225908   1.051   2.022   2.736
 8337SOL     OW25909   0.465   6.592   2.287
 8337SOL    HW125910   0.512   6.569   2.372
 8337SOL    HW225911   0.499   6.533   2.214
 8338SOL     OW25912   2.265   5.162   0.667
 8338SOL    HW125913   2.256   5.190   0.763
 8338SOL    HW225914   2.234   5.067   0.657
 8339SOL     OW25915   5.819   0.715   3.263
 8339SOL    HW125916   5.759   0.761   3.329
 8339SOL    HW225917   5.803   0.753   3.172
 8340SOL     OW25918   4.487   3.946   1.675
 8340SOL    HW125919   4.454   4.036   1.646
 8340SOL    HW225920   4.410   3.882   1.677
 8341SOL     OW25921   2.330   0.027   0.644
 8341SOL    HW125922   2.307   0.013   0.547
 8341SOL    HW225923   2.429   0.038   0.653
 8342SOL     OW25924   4.981   6.960   1.497
 8342SOL    HW125925   5.034   6.935   1.578
 8342SOL    HW225926   4.946   0.032   1.507
 8343SOL     OW25927   0.409   5.012   5.719
 8343SOL    HW125928   0.429   5.063   5.636
 8343SOL    HW225929   0.478   4.940   5.731
 8344SOL     OW25930   3.850   6.964   4.891
 8344SOL    HW125931   3.858   0.006   4.813
 8344SOL    HW225932   3.817   7.014   4.970
 8345SOL     OW25933   6.434   1.583   3.023
 8345SOL    HW125934   6.369   1.578   3.099
 8345SOL    HW225935   6.513   1.637   3.050
 8346SOL     OW25936   3.770   5.156   2.292
 8346SOL    HW125937   3.694   5.164   2.228
 8346SOL    HW225938   3.799   5.060   2.298
 8347SOL     OW25939   3.096   5.196   4.559
 8347SOL    HW125940   3.135   5.116   4.605
 8347SOL    HW225941   3.018   5.168   4.504
 8348SOL     OW25942   1.839   0.612   0.734
 8348SOL    HW125943   1.794   0.701   0.726
 8348SOL    HW225944   1.769   0.541   0.739
 8349SOL     OW25945   6.413   5.467   1.704
 8349SOL    HW125946   6.331   5.451   1.758
 8349SOL    HW225947   6.396   5.540   1.637
 8350SOL     OW25948   6.323   0.728   4.836
 8350SOL    HW125949   6.381   0.661   4.883
 8350SOL    HW225950   6.241   0.682   4.802
 8351SOL     OW25951   2.943   5.912   2.113
 8351SOL    HW125952   2.952   5.987   2.047
 8351SOL    HW225953   2.942   5.949   2.205
 8352SOL     OW25954   6.606   6.000   2.123
 8352SOL    HW125955   6.557   5.984   2.037
 8352SOL    HW225956   6.541   6.027   2.194
 8353SOL     OW25957   1.507   3.282   2.185
 8353SOL    HW125958   1.412   3.312   2.200
 8353SOL    HW225959   1.517   3.253   2.090
 8354SOL     OW25960   3.017   0.668   0.284
 8354SOL    HW125961   3.092   0.634   0.341
 8354SOL    HW225962   2.958   0.592   0.258
 8355SOL     OW25963   3.277   1.012   0.705
 8355SOL    HW125964   3.374   1.032   0.689
 8355SOL    HW225965   3.265   0.914   0.722
 8356SOL     OW25966   3.038   5.542   0.341
 8356SOL    HW125967   3.040   5.531   0.440
 8356SOL    HW225968   3.035   5.640   0.318
 8357SOL     OW25969   4.239   5.984   3.099
 8357SOL    HW125970   4.253   5.933   3.184
 8357SOL    HW225971   4.168   5.939   3.045
 8358SOL     OW25972   3.073   2.011   5.083
 8358SOL    HW125973   3.145   1.952   5.120
 8358SOL    HW225974   3.104   2.106   5.085
 8359SOL     OW25975   4.173   4.761   3.651
 8359SOL    HW125976   4.210   4.759   3.558
 8359SOL    HW225977   4.127   4.848   3.667
 8360SOL     OW25978   4.150   0.407   2.971
 8360SOL    HW125979   4.190   0.348   2.901
 8360SOL    HW225980   4.150   0.359   3.059
 8361SOL     OW25981   1.418   0.380   2.887
 8361SOL    HW125982   1.322   0.372   2.858
 8361SOL    HW225983   1.430   0.466   2.938
 8362SOL     OW25984   2.169   2.989   0.590
 8362SOL    HW125985   2.191   2.922   0.661
 8362SOL    HW225986   2.175   3.081   0.629
 8363SOL     OW25987   0.479   3.545   1.325
 8363SOL    HW125988   0.568   3.546   1.370
 8363SOL    HW225989   0.451   3.451   1.309
 8364SOL     OW25990   6.713   4.372   5.194
 8364SOL    HW125991   6.740   4.301   5.259
 8364SOL    HW225992   6.717   4.334   5.101
 8365SOL     OW25993   1.326   3.737   6.075
 8365SOL    HW125994   1.272   3.668   6.123
 8365SOL    HW225995   1.293   3.747   5.981
 8366SOL     OW25996   2.370   6.973   2.574
 8366SOL    HW125997   2.467   6.988   2.555
 8366SOL    HW225998   2.358   6.951   2.671
 8367SOL     OW25999   5.047   5.534   3.767
 8367SOL    HW126000   5.038   5.624   3.726
 8367SOL    HW226001   4.967   5.516   3.825
 8368SOL     OW26002   3.303   5.782   6.139
 8368SOL    HW126003   3.397   5.771   6.106
 8368SOL    HW226004   3.245   5.712   6.098
 8369SOL     OW26005   2.677   1.729   1.388
 8369SOL    HW126006   2.612   1.799   1.419
 8369SOL    HW226007   2.752   1.721   1.455
 8370SOL     OW26008   2.018   1.153   6.918
 8370SOL    HW126009   2.107   1.161   6.874
 8370SOL    HW226010   1.954   1.217   6.876
 8371SOL     OW26011   1.541   2.212   0.328
 8371SOL    HW126012   1.462   2.209   0.267
 8371SOL    HW226013   1.551   2.123   0.374
 8372SOL     OW26014   6.885   0.387   0.818
 8372SOL    HW126015   6.826   0.328   0.873
 8372SOL    HW226016   6.962   0.335   0.784
 8373SOL     OW26017   1.637   6.535   4.327
 8373SOL    HW126018   1.606   6.441   4.314
 8373SOL    HW226019   1.565   6.598   4.300
 8374SOL     OW26020   6.738   0.683   6.012
 8374SOL    HW126021   6.759   0.680   6.110
 8374SOL    HW226022   6.742   0.591   5.975
 8375SOL     OW26023   4.165   0.590   6.071
 8375SOL    HW126024   4.177   0.671   6.128
 8375SOL    HW226025   4.158   0.509   6.129
 8376SOL     OW26026   4.253   0.318   4.450
 8376SOL    HW126027   4.224   0.354   4.362
 8376SOL    HW226028   4.352   0.303   4.450
 8377SOL     OW26029   5.752   5.088   1.175
 8377SOL    HW126030   5.719   5.091   1.269
 8377SOL    HW226031   5.851   5.097   1.174
 8378SOL     OW26032   4.776   2.959   3.496
 8378SOL    HW126033   4.817   3.015   3.424
 8378SOL    HW226034   4.848   2.909   3.544
 8379SOL     OW26035   5.043   2.872   2.193
 8379SOL    HW126036   5.088   2.793   2.235
 8379SOL    HW226037   5.112   2.937   2.162
 8380SOL     OW26038   5.595   1.484   3.681
 8380SOL    HW126039   5.660   1.417   3.715
 8380SOL    HW226040   5.581   1.471   3.583
 8381SOL     OW26041   1.999   5.361   4.116
 8381SOL    HW126042   2.031   5.453   4.139
 8381SOL    HW226043   1.903   5.366   4.086
 8382SOL     OW26044   0.724   4.574   2.127
 8382SOL    HW126045   0.748   4.612   2.037
 8382SOL    HW226046   0.653   4.630   2.169
 8383SOL     OW26047   3.387   1.323   5.426
 8383SOL    HW126048   3.481   1.300   5.400
 8383SOL    HW226049   3.347   1.246   5.475
 8384SOL     OW26050   0.919   6.865   1.608
 8384SOL    HW126051   0.838   6.807   1.609
 8384SOL    HW226052   0.927   6.913   1.695
 8385SOL     OW26053   4.225   1.805   0.936
 8385SOL    HW126054   4.275   1.882   0.977
 8385SOL    HW226055   4.197   1.830   0.843
 8386SOL     OW26056   0.544   3.690   2.328
 8386SOL    HW126057   0.623   3.629   2.332
 8386SOL    HW226058   0.528   3.718   2.233
 8387SOL     OW26059   1.212   2.052   1.876
 8387SOL    HW126060   1.195   2.080   1.970
 8387SOL    HW226061   1.183   1.957   1.864
 8388SOL     OW26062   0.844   6.575   2.953
 8388SOL    HW126063   0.852   6.531   3.043
 8388SOL    HW226064   0.911   6.650   2.947
 8389SOL     OW26065   5.870   2.917   3.431
 8389SOL    HW126066   5.856   3.016   3.430
 8389SOL    HW226067   5.817   2.876   3.505
 8390SOL     OW26068   5.834   2.092   6.733
 8390SOL    HW126069   5.864   2.001   6.763
 8390SOL    HW226070   5.810   2.089   6.636
 8391SOL     OW26071   6.657   7.018   1.281
 8391SOL    HW126072   6.738   0.057   1.278
 8391SOL    HW226073   6.595   0.030   1.353
 8392SOL     OW26074   3.429   3.178   5.006
 8392SOL    HW126075   3.513   3.137   4.971
 8392SOL    HW226076   3.354   3.161   4.941
 8393SOL     OW26077   5.511   6.959   1.230
 8393SOL    HW126078   5.501   6.888   1.299
 8393SOL    HW226079   5.517   0.028   1.274
 8394SOL     OW26080   5.856   2.855   2.363
 8394SOL    HW126081   5.878   2.800   2.282
 8394SOL    HW226082   5.941   2.887   2.405
 8395SOL     OW26083   2.382   0.745   4.694
 8395SOL    HW126084   2.371   0.674   4.624
 8395SOL    HW226085   2.437   0.708   4.769
 8396SOL     OW26086   5.032   5.062   4.328
 8396SOL    HW126087   4.945   5.110   4.344
 8396SOL    HW226088   5.015   4.964   4.322
 8397SOL     OW26089   6.368   6.741   2.657
 8397SOL    HW126090   6.404   6.687   2.581
 8397SOL    HW226091   6.272   6.715   2.673
 8398SOL     OW26092   5.892   1.899   6.557
 8398SOL    HW126093   5.920   1.808   6.589
 8398SOL    HW226094   5.961   1.935   6.494
 8399SOL     OW26095   0.407   4.481   2.243
 8399SOL    HW126096   0.343   4.551   2.272
 8399SOL    HW226097   0.466   4.456   2.320
 8400SOL     OW26098   1.047   1.043   4.948
 8400SOL    HW126099   1.132   1.010   4.990
 8400SOL    HW226100   1.026   1.134   4.984
 8401SOL     OW26101   2.099   0.403   5.836
 8401SOL    HW126102   2.090   0.304   5.852
 8401SOL    HW226103   2.190   0.432   5.862
 8402SOL     OW26104   2.953   0.306   6.398
 8402SOL    HW126105   2.955   0.405   6.388
 8402SOL    HW226106   3.045   0.272   6.419
 8403SOL     OW26107   5.675   5.081   5.024
 8403SOL    HW126108   5.583   5.061   5.058
 8403SOL    HW226109   5.684   5.045   4.931
 8404SOL     OW26110   1.309   1.420   0.221
 8404SOL    HW126111   1.385   1.358   0.205
 8404SOL    HW226112   1.259   1.392   0.302
 8405SOL     OW26113   4.100   6.902   5.453
 8405SOL    HW126114   4.113   6.807   5.481
 8405SOL    HW226115   4.028   6.907   5.384
 8406SOL     OW26116   5.761   0.398   5.878
 8406SOL    HW126117   5.787   0.473   5.817
 8406SOL    HW226118   5.693   0.431   5.944
 8407SOL     OW26119   4.367   0.729   4.490
 8407SOL    HW126120   4.406   0.818   4.512
 8407SOL    HW226121   4.268   0.730   4.509
 8408SOL     OW26122   4.097   1.943   1.480
 8408SOL    HW126123   4.155   1.868   1.447
 8408SOL    HW226124   4.147   1.996   1.548
 8409SOL     OW26125   4.306   2.368   1.943
 8409SOL    HW126126   4.361   2.450   1.927
 8409SOL    HW226127   4.317   2.339   2.038
 8410SOL     OW26128   0.020   1.675   1.510
 8410SOL    HW126129   6.972   1.719   1.452
 8410SOL    HW226130   0.105   1.663   1.459
 8411SOL     OW26131   1.036   5.853   1.167
 8411SOL    HW126132   1.032   5.800   1.082
 8411SOL    HW226133   1.058   5.793   1.243
 8412SOL     OW26134   2.576   2.866   6.936
 8412SOL    HW126135   2.524   2.845   6.853
 8412SOL    HW226136   2.669   2.892   6.912
 8413SOL     OW26137   3.644   5.697   4.684
 8413SOL    HW126138   3.664   5.604   4.652
 8413SOL    HW226139   3.723   5.734   4.732
 8414SOL     OW26140   1.814   6.822   0.715
 8414SOL    HW126141   1.862   6.894   0.666
 8414SOL    HW226142   1.792   6.853   0.807
 8415SOL     OW26143   3.339   1.563   6.297
 8415SOL    HW126144   3.412   1.529   6.237
 8415SOL    HW226145   3.266   1.495   6.302
 8416SOL     OW26146   0.772   2.477   5.101
 8416SOL    HW126147   0.861   2.437   5.077
 8416SOL    HW226148   0.787   2.552   5.165
 8417SOL     OW26149   1.887   3.436   5.906
 8417SOL    HW126150   1.865   3.367   5.974
 8417SOL    HW226151   1.954   3.399   5.841
 8418SOL     OW26152   0.536   6.040   2.315
 8418SOL    HW126153   0.601   6.090   2.373
 8418SOL    HW226154   0.529   5.945   2.347
 8419SOL     OW26155   3.411   1.602   4.479
 8419SOL    HW126156   3.340   1.672   4.491
 8419SOL    HW226157   3.412   1.573   4.383
 8420SOL     OW26158   3.474   1.102   2.272
 8420SOL    HW126159   3.567   1.138   2.266
 8420SOL    HW226160   3.408   1.177   2.269
 8421SOL     OW26161   4.712   0.072   6.787
 8421SOL    HW126162   4.614   0.086   6.772
 8421SOL    HW226163   4.750   0.023   6.708
 8422SOL     OW26164   5.183   2.225   4.078
 8422SOL    HW126165   5.115   2.215   4.150
 8422SOL    HW226166   5.160   2.167   4.000
 8423SOL     OW26167   6.314   5.842   0.370
 8423SOL    HW126168   6.406   5.869   0.343
 8423SOL    HW226169   6.319   5.774   0.443
 8424SOL     OW26170   3.166   0.469   5.295
 8424SOL    HW126171   3.163   0.559   5.337
 8424SOL    HW226172   3.074   0.445   5.263
 8425SOL     OW26173   3.731   3.637   2.133
 8425SOL    HW126174   3.672   3.713   2.110
 8425SOL    HW226175   3.677   3.561   2.169
 8426SOL     OW26176   3.630   3.246   1.852
 8426SOL    HW126177   3.571   3.187   1.797
 8426SOL    HW226178   3.592   3.338   1.853
 8427SOL     OW26179   3.983   3.277   2.862
 8427SOL    HW126180   4.038   3.287   2.779
 8427SOL    HW226181   3.886   3.284   2.839
 8428SOL     OW26182   5.931   0.162   2.099
 8428SOL    HW126183   5.987   0.101   2.044
 8428SOL    HW226184   5.870   0.108   2.158
 8429SOL     OW26185   3.173   5.972   5.266
 8429SOL    HW126186   3.252   5.962   5.205
 8429SOL    HW226187   3.201   6.014   5.352
 8430SOL     OW26188   5.034   6.454   5.221
 8430SOL    HW126189   5.050   6.514   5.143
 8430SOL    HW226190   4.938   6.427   5.224
 8431SOL     OW26191   2.159   3.072   6.111
 8431SOL    HW126192   2.109   2.986   6.112
 8431SOL    HW226193   2.099   3.145   6.077
 8432SOL     OW26194   6.567   5.324   5.927
 8432SOL    HW126195   6.513   5.260   5.982
 8432SOL    HW226196   6.589   5.405   5.982
 8433SOL     OW26197   4.945   2.053   1.114
 8433SOL    HW126198   4.969   2.113   1.190
 8433SOL    HW226199   4.872   1.991   1.142
 8434SOL     OW26200   2.872   6.182   4.870
 8434SOL    HW126201   2.860   6.213   4.964
 8434SOL    HW226202   2.966   6.149   4.858
 8435SOL     OW26203   6.275   2.007   2.946
 8435SOL    HW126204   6.251   1.951   2.867
 8435SOL    HW226205   6.356   2.062   2.926
 8436SOL     OW26206   1.747   5.394   2.545
 8436SOL    HW126207   1.676   5.335   2.507
 8436SOL    HW226208   1.744   5.390   2.645
 8437SOL     OW26209   1.801   5.974   0.636
 8437SOL    HW126210   1.889   5.947   0.596
 8437SOL    HW226211   1.731   5.907   0.611
 8438SOL     OW26212   1.088   4.233   2.585
 8438SOL    HW126213   1.120   4.141   2.565
 8438SOL    HW226214   1.002   4.229   2.635
 8439SOL     OW26215   6.365   4.287   2.488
 8439SOL    HW126216   6.441   4.323   2.433
 8439SOL    HW226217   6.401   4.229   2.561
 8440SOL     OW26218   1.731   1.898   2.389
 8440SOL    HW126219   1.748   1.892   2.488
 8440SOL    HW226220   1.772   1.982   2.354
 8441SOL     OW26221   6.839   2.588   5.774
 8441SOL    HW126222   6.900   2.524   5.728
 8441SOL    HW226223   6.750   2.588   5.728
 8442SOL     OW26224   3.798   2.678   0.047
 8442SOL    HW126225   3.727   2.640   7.008
 8442SOL    HW226226   3.854   2.743   7.016
 8443SOL     OW26227   1.954   4.497   2.832
 8443SOL    HW126228   2.020   4.516   2.759
 8443SOL    HW226229   1.972   4.556   2.910
 8444SOL     OW26230   5.807   5.328   4.733
 8444SOL    HW126231   5.835   5.392   4.662
 8444SOL    HW226232   5.820   5.234   4.702
 8445SOL     OW26233   4.515   6.527   6.918
 8445SOL    HW126234   4.505   6.605   6.856
 8445SOL    HW226235   4.435   6.523   6.979
 8446SOL     OW26236   6.529   5.495   4.600
 8446SOL    HW126237   6.614   5.541   4.623
 8446SOL    HW226238   6.487   5.457   4.683
 8447SOL     OW26239   3.800   1.881   4.203
 8447SOL    HW126240   3.750   1.892   4.289
 8447SOL    HW226241   3.801   1.967   4.154
 8448SOL     OW26242   3.227   6.142   3.011
 8448SOL    HW126243   3.320   6.174   2.997
 8448SOL    HW226244   3.171   6.217   3.047
 8449SOL     OW26245   1.550   2.367   3.923
 8449SOL    HW126246   1.643   2.333   3.937
 8449SOL    HW226247   1.538   2.451   3.977
 8450SOL     OW26248   6.709   0.866   0.542
 8450SOL    HW126249   6.638   0.926   0.579
 8450SOL    HW226250   6.745   0.906   0.457
 8451SOL     OW26251   4.030   2.734   1.517
 8451SOL    HW126252   3.956   2.800   1.527
 8451SOL    HW226253   4.084   2.758   1.436
 8452SOL     OW26254   5.138   1.156   5.888
 8452SOL    HW126255   5.174   1.154   5.794
 8452SOL    HW226256   5.069   1.228   5.896
 8453SOL     OW26257   0.034   0.335   0.163
 8453SOL    HW126258   0.116   0.389   0.181
 8453SOL    HW226259   6.983   0.361   0.228
 8454SOL     OW26260   6.203   6.080   6.453
 8454SOL    HW126261   6.274   6.011   6.465
 8454SOL    HW226262   6.228   6.141   6.378
 8455SOL     OW26263   6.386   0.799   2.609
 8455SOL    HW126264   6.434   0.838   2.530
 8455SOL    HW226265   6.339   0.715   2.583
 8456SOL     OW26266   6.977   0.359   1.976
 8456SOL    HW126267   0.016   0.435   1.949
 8456SOL    HW226268   6.920   0.387   2.053
 8457SOL     OW26269   6.878   0.272   4.834
 8457SOL    HW126270   6.972   0.273   4.866
 8457SOL    HW226271   6.858   0.185   4.790
 8458SOL     OW26272   0.862   6.873   6.870
 8458SOL    HW126273   0.777   6.882   6.817
 8458SOL    HW226274   0.868   6.947   6.936
 8459SOL     OW26275   0.802   5.779   3.050
 8459SOL    HW126276   0.878   5.818   3.104
 8459SOL    HW226277   0.720   5.775   3.107
 8460SOL     OW26278   4.133   3.603   3.186
 8460SOL    HW126279   4.109   3.609   3.089
 8460SOL    HW226280   4.152   3.695   3.221
 8461SOL     OW26281   6.269   3.370   3.784
 8461SOL    HW126282   6.216   3.380   3.868
 8461SOL    HW226283   6.274   3.273   3.760
 8462SOL     OW26284   2.742   2.465   1.707
 8462SOL    HW126285   2.808   2.442   1.778
 8462SOL    HW226286   2.649   2.453   1.742
 8463SOL     OW26287   6.054   0.757   1.590
 8463SOL    HW126288   6.128   0.747   1.656
 8463SOL    HW226289   6.090   0.798   1.506
 8464SOL     OW26290   6.781   1.181   4.477
 8464SOL    HW126291   6.845   1.246   4.437
 8464SOL    HW226292   6.831   1.104   4.517
 8465SOL     OW26293   1.968   1.704   0.443
 8465SOL    HW126294   1.875   1.697   0.480
 8465SOL    HW226295   2.031   1.728   0.517
 8466SOL     OW26296   0.729   0.112   4.448
 8466SOL    HW126297   0.704   0.049   4.521
 8466SOL    HW226298   0.731   0.063   4.361
 8467SOL     OW26299   4.211   5.479   0.746
 8467SOL    HW126300   4.284   5.449   0.684
 8467SOL    HW226301   4.215   5.578   0.757
 8468SOL     OW26302   3.538   2.599   0.165
 8468SOL    HW126303   3.454   2.650   0.181
 8468SOL    HW226304   3.567   2.611   0.070
 8469SOL     OW26305   4.412   2.232   5.786
 8469SOL    HW126306   4.360   2.317   5.794
 8469SOL    HW226307   4.373   2.163   5.846
 8470SOL     OW26308   1.902   3.023   7.013
 8470SOL    HW126309   1.853   3.107   0.014
 8470SOL    HW226310   1.842   2.944   0.009
 8471SOL     OW26311   4.470   1.793   4.831
 8471SOL    HW126312   4.414   1.728   4.778
 8471SOL    HW226313   4.430   1.884   4.824
 8472SOL     OW26314   1.251   6.557   2.810
 8472SOL    HW126315   1.298   6.645   2.804
 8472SOL    HW226316   1.317   6.483   2.795
 8473SOL     OW26317   6.609   5.991   6.601
 8473SOL    HW126318   6.618   6.075   6.546
 8473SOL    HW226319   6.535   5.935   6.565
 8474SOL     OW26320   4.150   5.749   0.415
 8474SOL    HW126321   4.139   5.680   0.486
 8474SOL    HW226322   4.216   5.818   0.444
 8475SOL     OW26323   4.742   2.135   2.572
 8475SOL    HW126324   4.751   2.076   2.492
 8475SOL    HW226325   4.702   2.083   2.648
 8476SOL     OW26326   4.602   0.340   2.882
 8476SOL    HW126327   4.638   0.382   2.965
 8476SOL    HW226328   4.502   0.347   2.882
 8477SOL     OW26329   3.273   6.724   3.181
 8477SOL    HW126330   3.179   6.729   3.215
 8477SOL    HW226331   3.282   6.778   3.098
 8478SOL     OW26332   1.361   0.234   5.751
 8478SOL    HW126333   1.389   0.294   5.676
 8478SOL    HW226334   1.311   0.287   5.820
 8479SOL     OW26335   5.541   0.658   2.449
 8479SOL    HW126336   5.529   0.728   2.519
 8479SOL    HW226337   5.552   0.568   2.493
 8480SOL     OW26338   1.912   1.434   1.251
 8480SOL    HW126339   1.821   1.436   1.211
 8480SOL    HW226340   1.906   1.396   1.344
 8481SOL     OW26341   4.220   0.413   5.787
 8481SOL    HW126342   4.284   0.477   5.744
 8481SOL    HW226343   4.157   0.377   5.718
 8482SOL     OW26344   0.196   0.574   1.532
 8482SOL    HW126345   0.264   0.512   1.494
 8482SOL    HW226346   0.220   0.668   1.509
 8483SOL     OW26347   5.031   6.270   1.764
 8483SOL    HW126348   5.039   6.193   1.702
 8483SOL    HW226349   5.055   6.241   1.857
 8484SOL     OW26350   7.007   4.751   5.594
 8484SOL    HW126351   6.929   4.742   5.656
 8484SOL    HW226352   0.069   4.774   5.647
 8485SOL     OW26353   1.917   3.237   6.082
 8485SOL    HW126354   1.860   3.176   6.136
 8485SOL    HW226355   1.953   3.310   6.141
 8486SOL     OW26356   4.448   0.870   2.552
 8486SOL    HW126357   4.362   0.821   2.533
 8486SOL    HW226358   4.442   0.962   2.514
 8487SOL     OW26359   4.508   0.771   0.770
 8487SOL    HW126360   4.427   0.799   0.822
 8487SOL    HW226361   4.480   0.742   0.679
 8488SOL     OW26362   6.507   3.786   5.300
 8488SOL    HW126363   6.537   3.753   5.211
 8488SOL    HW226364   6.586   3.793   5.361
 8489SOL     OW26365   3.000   6.792   3.217
 8489SOL    HW126366   2.993   6.757   3.124
 8489SOL    HW226367   2.958   6.726   3.280
 8490SOL     OW26368   4.048   5.150   2.738
 8490SOL    HW126369   4.069   5.054   2.724
 8490SOL    HW226370   3.974   5.178   2.677
 8491SOL     OW26371   1.057   1.125   1.336
 8491SOL    HW126372   1.005   1.040   1.321
 8491SOL    HW226373   0.993   1.201   1.349
 8492SOL     OW26374   5.862   3.918   4.595
 8492SOL    HW126375   5.929   3.844   4.592
 8492SOL    HW226376   5.836   3.944   4.502
 8493SOL     OW26377   3.512   2.852   1.290
 8493SOL    HW126378   3.462   2.906   1.358
 8493SOL    HW226379   3.449   2.827   1.216
 8494SOL     OW26380   3.355   6.261   6.653
 8494SOL    HW126381   3.391   6.312   6.731
 8494SOL    HW226382   3.368   6.315   6.570
 8495SOL     OW26383   0.770   2.683   6.749
 8495SOL    HW126384   0.755   2.700   6.652
 8495SOL    HW226385   0.696   2.627   6.785
 8496SOL     OW26386   0.963   2.110   3.605
 8496SOL    HW126387   0.912   2.028   3.631
 8496SOL    HW226388   1.010   2.094   3.518
 8497SOL     OW26389   5.647   3.850   3.454
 8497SOL    HW126390   5.658   3.923   3.388
 8497SOL    HW226391   5.587   3.880   3.528
 8498SOL     OW26392   6.733   0.759   1.567
 8498SOL    HW126393   6.685   0.841   1.600
 8498SOL    HW226394   6.762   0.774   1.473
 8499SOL     OW26395   0.233   4.317   0.464
 8499SOL    HW126396   0.221   4.390   0.397
 8499SOL    HW226397   0.330   4.307   0.486
 8500SOL     OW26398   2.719   0.376   5.624
 8500SOL    HW126399   2.760   0.447   5.681
 8500SOL    HW226400   2.660   0.318   5.680
 8501SOL     OW26401   2.504   3.638   6.123
 8501SOL    HW126402   2.456   3.698   6.186
 8501SOL    HW226403   2.539   3.691   6.045
 8502SOL     OW26404   0.698   6.724   1.573
 8502SOL    HW126405   0.709   6.626   1.588
 8502SOL    HW226406   0.627   6.739   1.504
 8503SOL     OW26407   3.743   5.638   3.393
 8503SOL    HW126408   3.675   5.583   3.441
 8503SOL    HW226409   3.751   5.606   3.298
 8504SOL     OW26410   1.307   5.111   3.041
 8504SOL    HW126411   1.284   5.120   3.137
 8504SOL    HW226412   1.401   5.078   3.032
 8505SOL     OW26413   4.593   2.065   3.332
 8505SOL    HW126414   4.671   2.125   3.314
 8505SOL    HW226415   4.626   1.973   3.354
 8506SOL     OW26416   0.866   5.672   6.780
 8506SOL    HW126417   0.886   5.721   6.865
 8506SOL    HW226418   0.860   5.737   6.705
 8507SOL     OW26419   1.568   0.470   4.757
 8507SOL    HW126420   1.473   0.496   4.739
 8507SOL    HW226421   1.583   0.376   4.727
 8508SOL     OW26422   0.550   3.536   5.401
 8508SOL    HW126423   0.571   3.474   5.326
 8508SOL    HW226424   0.496   3.488   5.470
 8509SOL     OW26425   5.863   2.052   5.081
 8509SOL    HW126426   5.874   1.982   5.010
 8509SOL    HW226427   5.766   2.071   5.095
 8510SOL     OW26428   5.005   0.184   2.754
 8510SOL    HW126429   4.939   0.258   2.741
 8510SOL    HW226430   4.999   0.121   2.676
 8511SOL     OW26431   6.637   5.355   1.833
 8511SOL    HW126432   6.693   5.316   1.760
 8511SOL    HW226433   6.552   5.391   1.793
 8512SOL     OW26434   3.924   2.916   0.974
 8512SOL    HW126435   3.876   2.942   1.058
 8512SOL    HW226436   3.869   2.941   0.895
 8513SOL     OW26437   0.626   3.225   0.691
 8513SOL    HW126438   0.711   3.203   0.643
 8513SOL    HW226439   0.618   3.168   0.773
 8514SOL     OW26440   2.289   2.763   4.974
 8514SOL    HW126441   2.313   2.762   4.877
 8514SOL    HW226442   2.339   2.837   5.020
 8515SOL     OW26443   2.801   0.870   0.344
 8515SOL    HW126444   2.889   0.825   0.331
 8515SOL    HW226445   2.727   0.803   0.335
 8516SOL     OW26446   6.252   3.254   4.822
 8516SOL    HW126447   6.167   3.299   4.848
 8516SOL    HW226448   6.317   3.259   4.897
 8517SOL     OW26449   1.590   1.838   5.941
 8517SOL    HW126450   1.496   1.823   5.909
 8517SOL    HW226451   1.609   1.936   5.944
 8518SOL     OW26452   5.539   4.707   0.003
 8518SOL    HW126453   5.474   4.638   6.993
 8518SOL    HW226454   5.625   4.695   6.974
 8519SOL     OW26455   0.647   3.732   0.443
 8519SOL    HW126456   0.617   3.640   0.418
 8519SOL    HW226457   0.587   3.799   0.399
 8520SOL     OW26458   3.163   3.736   5.907
 8520SOL    HW126459   3.153   3.828   5.869
 8520SOL    HW226460   3.257   3.705   5.896
 8521SOL     OW26461   2.006   6.704   4.776
 8521SOL    HW126462   2.003   6.617   4.726
 8521SOL    HW226463   2.070   6.696   4.853
 8522SOL     OW26464   0.446   0.712   6.936
 8522SOL    HW126465   0.437   0.654   7.017
 8522SOL    HW226466   0.517   0.781   6.951
 8523SOL     OW26467   3.976   1.671   1.274
 8523SOL    HW126468   3.957   1.652   1.370
 8523SOL    HW226469   3.968   1.769   1.257
 8524SOL     OW26470   3.107   6.248   5.100
 8524SOL    HW126471   3.009   6.266   5.100
 8524SOL    HW226472   3.123   6.151   5.116
 8525SOL     OW26473   6.108   2.969   2.442
 8525SOL    HW126474   6.160   2.915   2.508
 8525SOL    HW226475   6.139   3.064   2.445
 8526SOL     OW26476   0.403   4.805   6.785
 8526SOL    HW126477   0.478   4.773   6.842
 8526SOL    HW226478   0.415   4.771   6.692
 8527SOL     OW26479   2.859   0.622   6.233
 8527SOL    HW126480   2.915   0.548   6.197
 8527SOL    HW226481   2.901   0.710   6.211
 8528SOL     OW26482   5.704   0.897   1.055
 8528SOL    HW126483   5.620   0.843   1.050
 8528SOL    HW226484   5.753   0.875   1.140
 8529SOL     OW26485   0.805   6.366   6.291
 8529SOL    HW126486   0.797   6.430   6.215
 8529SOL    HW226487   0.827   6.415   6.375
 8530SOL     OW26488   3.747   3.531   2.538
 8530SOL    HW126489   3.739   3.484   2.626
 8530SOL    HW226490   3.784   3.468   2.469
 8531SOL     OW26491   6.324   5.699   3.021
 8531SOL    HW126492   6.368   5.737   2.939
 8531SOL    HW226493   6.232   5.737   3.029
 8532SOL     OW26494   3.647   5.358   0.404
 8532SOL    HW126495   3.609   5.292   0.340
 8532SOL    HW226496   3.581   5.431   0.420
 8533SOL     OW26497   2.499   6.212   5.121
 8533SOL    HW126498   2.401   6.201   5.134
 8533SOL    HW226499   2.543   6.230   5.209
 8534SOL     OW26500   1.843   3.127   2.135
 8534SOL    HW126501   1.918   3.146   2.197
 8534SOL    HW226502   1.770   3.079   2.185
 8535SOL     OW26503   6.308   0.205   2.231
 8535SOL    HW126504   6.360   0.168   2.308
 8535SOL    HW226505   6.230   0.256   2.267
 8536SOL     OW26506   1.499   1.075   3.811
 8536SOL    HW126507   1.410   1.050   3.772
 8536SOL    HW226508   1.520   1.016   3.889
 8537SOL     OW26509   5.814   1.070   3.237
 8537SOL    HW126510   5.749   1.028   3.301
 8537SOL    HW226511   5.886   1.003   3.216
 8538SOL     OW26512   0.846   2.321   6.913
 8538SOL    HW126513   0.906   2.315   6.834
 8538SOL    HW226514   0.898   2.355   6.992
 8539SOL     OW26515   5.186   3.078   2.056
 8539SOL    HW126516   5.185   3.171   2.092
 8539SOL    HW226517   5.192   3.081   1.956
 8540SOL     OW26518   4.091   0.514   1.303
 8540SOL    HW126519   4.155   0.590   1.291
 8540SOL    HW226520   4.006   0.535   1.255
 8541SOL     OW26521   2.202   3.116   3.348
 8541SOL    HW126522   2.214   3.020   3.320
 8541SOL    HW226523   2.199   3.121   3.448
 8542SOL     OW26524   2.921   4.621   6.468
 8542SOL    HW126525   2.982   4.548   6.499
 8542SOL    HW226526   2.829   4.607   6.506
 8543SOL     OW26527   3.876   1.974   6.499
 8543SOL    HW126528   3.780   1.980   6.526
 8543SOL    HW226529   3.933   1.957   6.580
 8544SOL     OW26530   6.362   1.669   4.332
 8544SOL    HW126531   6.415   1.586   4.314
 8544SOL    HW226532   6.354   1.722   4.248
 8545SOL     OW26533   4.170   6.478   5.227
 8545SOL    HW126534   4.090   6.421   5.211
 8545SOL    HW226535   4.253   6.423   5.218
 8546SOL     OW26536   3.783   2.150   0.014
 8546SOL    HW126537   3.881   2.144   7.015
 8546SOL    HW226538   3.767   2.223   0.081
 8547SOL     OW26539   1.771   4.326   2.021
 8547SOL    HW126540   1.745   4.421   2.039
 8547SOL    HW226541   1.713   4.264   2.073
 8548SOL     OW26542   6.106   2.141   5.723
 8548SOL    HW126543   6.045   2.073   5.765
 8548SOL    HW226544   6.091   2.230   5.765
 8549SOL     OW26545   5.223   2.910   5.430
 8549SOL    HW126546   5.307   2.860   5.407
 8549SOL    HW226547   5.221   2.996   5.379
 8550SOL     OW26548   1.476   4.540   5.482
 8550SOL    HW126549   1.412   4.579   5.415
 8550SOL    HW226550   1.545   4.608   5.506
 8551SOL     OW26551   2.274   4.129   1.281
 8551SOL    HW126552   2.320   4.161   1.198
 8551SOL    HW226553   2.281   4.029   1.287
 8552SOL     OW26554   2.949   6.485   4.593
 8552SOL    HW126555   2.918   6.531   4.676
 8552SOL    HW226556   2.962   6.552   4.520
 8553SOL     OW26557   6.319   5.805   6.897
 8553SOL    HW126558   6.341   5.755   6.981
 8553SOL    HW226559   6.396   5.864   6.873
 8554SOL     OW26560   5.923   3.839   0.494
 8554SOL    HW126561   5.970   3.809   0.411
 8554SOL    HW226562   5.858   3.769   0.522
 8555SOL     OW26563   2.276   6.723   4.526
 8555SOL    HW126564   2.254   6.635   4.567
 8555SOL    HW226565   2.199   6.755   4.471
 8556SOL     OW26566   5.966   6.801   4.536
 8556SOL    HW126567   5.974   6.715   4.486
 8556SOL    HW226568   5.932   6.873   4.475
 8557SOL     OW26569   6.725   1.925   0.978
 8557SOL    HW126570   6.819   1.943   1.009
 8557SOL    HW226571   6.707   1.827   0.981
 8558SOL     OW26572   1.551   4.215   2.486
 8558SOL    HW126573   1.487   4.139   2.478
 8558SOL    HW226574   1.555   4.246   2.581
 8559SOL     OW26575   0.905   1.575   5.356
 8559SOL    HW126576   0.933   1.671   5.347
 8559SOL    HW226577   0.874   1.558   5.449
 8560SOL     OW26578   6.500   2.636   6.746
 8560SOL    HW126579   6.579   2.651   6.686
 8560SOL    HW226580   6.514   2.685   6.832
 8561SOL     OW26581   4.648   6.015   6.420
 8561SOL    HW126582   4.620   6.109   6.439
 8561SOL    HW226583   4.746   6.006   6.433
 8562SOL     OW26584   4.023   0.189   4.455
 8562SOL    HW126585   3.978   0.218   4.370
 8562SOL    HW226586   4.114   0.231   4.460
 8563SOL     OW26587   2.823   2.816   6.699
 8563SOL    HW126588   2.808   2.722   6.729
 8563SOL    HW226589   2.834   2.875   6.779
 8564SOL     OW26590   0.883   6.174   3.265
 8564SOL    HW126591   0.944   6.184   3.186
 8564SOL    HW226592   0.798   6.129   3.236
 8565SOL     OW26593   3.544   1.086   1.456
 8565SOL    HW126594   3.523   1.151   1.529
 8565SOL    HW226595   3.551   0.994   1.494
 8566SOL     OW26596   1.868   3.796   4.055
 8566SOL    HW126597   1.813   3.870   4.017
 8566SOL    HW226598   1.896   3.734   3.982
 8567SOL     OW26599   5.245   6.757   6.274
 8567SOL    HW126600   5.212   6.663   6.278
 8567SOL    HW226601   5.302   6.776   6.354
 8568SOL     OW26602   5.424   0.316   0.641
 8568SOL    HW126603   5.488   0.369   0.696
 8568SOL    HW226604   5.335   0.362   0.639
 8569SOL     OW26605   3.566   0.728   5.328
 8569SOL    HW126606   3.527   0.658   5.268
 8569SOL    HW226607   3.660   0.702   5.351
 8570SOL     OW26608   6.343   3.415   6.464
 8570SOL    HW126609   6.366   3.378   6.374
 8570SOL    HW226610   6.400   3.372   6.534
 8571SOL     OW26611   7.014   4.446   5.758
 8571SOL    HW126612   6.975   4.434   5.667
 8571SOL    HW226613   0.076   4.390   5.766
 8572SOL     OW26614   2.614   5.071   6.055
 8572SOL    HW126615   2.627   5.132   5.977
 8572SOL    HW226616   2.683   5.091   6.124
 8573SOL     OW26617   3.394   5.882   3.890
 8573SOL    HW126618   3.481   5.844   3.922
 8573SOL    HW226619   3.320   5.850   3.949
 8574SOL     OW26620   0.826   4.013   4.248
 8574SOL    HW126621   0.742   3.973   4.286
 8574SOL    HW226622   0.805   4.055   4.159
 8575SOL     OW26623   2.871   3.198   6.397
 8575SOL    HW126624   2.902   3.221   6.305
 8575SOL    HW226625   2.776   3.226   6.409
 8576SOL     OW26626   2.069   0.198   0.818
 8576SOL    HW126627   2.014   0.151   0.749
 8576SOL    HW226628   2.011   0.224   0.895
 8577SOL     OW26629   6.405   5.585   4.348
 8577SOL    HW126630   6.417   5.564   4.445
 8577SOL    HW226631   6.364   5.675   4.339
 8578SOL     OW26632   4.293   0.467   3.504
 8578SOL    HW126633   4.232   0.409   3.449
 8578SOL    HW226634   4.261   0.561   3.503
 8579SOL     OW26635   0.865   4.678   2.344
 8579SOL    HW126636   0.893   4.604   2.406
 8579SOL    HW226637   0.818   4.639   2.266
 8580SOL     OW26638   2.741   5.522   5.947
 8580SOL    HW126639   2.671   5.551   6.011
 8580SOL    HW226640   2.823   5.495   5.996
 8581SOL     OW26641   3.530   3.405   0.389
 8581SOL    HW126642   3.511   3.353   0.471
 8581SOL    HW226643   3.466   3.482   0.383
 8582SOL     OW26644   3.817   4.928   0.152
 8582SOL    HW126645   3.826   4.927   0.053
 8582SOL    HW226646   3.824   5.023   0.184
 8583SOL     OW26647   5.648   6.840   4.587
 8583SOL    HW126648   5.648   6.781   4.506
 8583SOL    HW226649   5.742   6.857   4.616
 8584SOL     OW26650   0.257   5.405   6.395
 8584SOL    HW126651   0.227   5.423   6.301
 8584SOL    HW226652   0.352   5.372   6.393
 8585SOL     OW26653   1.586   1.980   0.972
 8585SOL    HW126654   1.590   1.931   0.885
 8585SOL    HW226655   1.619   2.073   0.959
 8586SOL     OW26656   4.033   5.133   4.019
 8586SOL    HW126657   4.086   5.136   4.104
 8586SOL    HW226658   4.031   5.039   3.984
 8587SOL     OW26659   6.393   1.848   1.203
 8587SOL    HW126660   6.426   1.937   1.169
 8587SOL    HW226661   6.382   1.853   1.302
 8588SOL     OW26662   3.626   2.783   6.236
 8588SOL    HW126663   3.563   2.804   6.161
 8588SOL    HW226664   3.699   2.723   6.204
 8589SOL     OW26665   2.615   1.711   4.581
 8589SOL    HW126666   2.527   1.662   4.589
 8589SOL    HW226667   2.659   1.686   4.496
 8590SOL     OW26668   5.545   5.216   5.311
 8590SOL    HW126669   5.531   5.124   5.349
 8590SOL    HW226670   5.638   5.223   5.274
 8591SOL     OW26671   0.667   2.947   0.492
 8591SOL    HW126672   0.595   2.911   0.551
 8591SOL    HW226673   0.740   2.879   0.482
 8592SOL     OW26674   6.383   6.306   6.834
 8592SOL    HW126675   6.418   6.369   6.764
 8592SOL    HW226676   6.438   6.316   6.918
 8593SOL     OW26677   0.366   5.264   3.340
 8593SOL    HW126678   0.350   5.340   3.403
 8593SOL    HW226679   0.293   5.263   3.271
 8594SOL     OW26680   3.995   3.769   2.982
 8594SOL    HW126681   3.937   3.735   3.056
 8594SOL    HW226682   4.044   3.693   2.940
 8595SOL     OW26683   1.309   2.770   1.850
 8595SOL    HW126684   1.376   2.708   1.890
 8595SOL    HW226685   1.225   2.720   1.830
 8596SOL     OW26686   6.681   4.187   2.397
 8596SOL    HW126687   6.755   4.227   2.450
 8596SOL    HW226688   6.609   4.256   2.383
 8597SOL     OW26689   1.911   1.565   0.771
 8597SOL    HW126690   1.977   1.495   0.797
 8597SOL    HW226691   1.897   1.562   0.672
 8598SOL     OW26692   6.070   2.924   1.936
 8598SOL    HW126693   5.996   2.961   1.879
 8598SOL    HW226694   6.132   2.870   1.880
 8599SOL     OW26695   0.866   2.784   0.742
 8599SOL    HW126696   0.935   2.712   0.751
 8599SOL    HW226697   0.862   2.815   0.647
 8600SOL     OW26698   6.709   2.344   5.905
 8600SOL    HW126699   6.800   2.385   5.907
 8600SOL    HW226700   6.644   2.404   5.952
 8601SOL     OW26701   0.614   0.511   4.850
 8601SOL    HW126702   0.651   0.573   4.780
 8601SOL    HW226703   0.659   0.422   4.843
 8602SOL     OW26704   1.417   6.659   1.954
 8602SOL    HW126705   1.355   6.601   2.008
 8602SOL    HW226706   1.364   6.717   1.892
 8603SOL     OW26707   4.890   3.751   1.625
 8603SOL    HW126708   4.799   3.718   1.651
 8603SOL    HW226709   4.921   3.819   1.691
 8604SOL     OW26710   6.165   2.684   3.084
 8604SOL    HW126711   6.096   2.674   3.156
 8604SOL    HW226712   6.168   2.779   3.053
 8605SOL     OW26713   2.828   5.154   1.579
 8605SOL    HW126714   2.888   5.075   1.580
 8605SOL    HW226715   2.841   5.207   1.663
 8606SOL     OW26716   4.079   5.126   4.605
 8606SOL    HW126717   4.149   5.063   4.570
 8606SOL    HW226718   4.111   5.166   4.690
 8607SOL     OW26719   2.638   6.459   0.687
 8607SOL    HW126720   2.578   6.457   0.767
 8607SOL    HW226721   2.731   6.485   0.715
 8608SOL     OW26722   5.394   6.686   2.572
 8608SOL    HW126723   5.447   6.709   2.490
 8608SOL    HW226724   5.422   6.744   2.648
 8609SOL     OW26725   5.379   0.339   5.824
 8609SOL    HW126726   5.289   0.373   5.851
 8609SOL    HW226727   5.442   0.416   5.812
 8610SOL     OW26728   6.683   6.333   5.440
 8610SOL    HW126729   6.744   6.381   5.378
 8610SOL    HW226730   6.606   6.392   5.465
 8611SOL     OW26731   1.575   2.170   3.235
 8611SOL    HW126732   1.488   2.127   3.260
 8611SOL    HW226733   1.564   2.270   3.238
 8612SOL     OW26734   5.217   3.349   4.522
 8612SOL    HW126735   5.122   3.322   4.507
 8612SOL    HW226736   5.264   3.353   4.434
 8613SOL     OW26737   1.082   0.300   0.408
 8613SOL    HW126738   1.169   0.250   0.414
 8613SOL    HW226739   1.037   0.300   0.497
 8614SOL     OW26740   1.542   2.311   3.558
 8614SOL    HW126741   1.629   2.356   3.576
 8614SOL    HW226742   1.530   2.234   3.621
 8615SOL     OW26743   4.922   1.724   5.953
 8615SOL    HW126744   5.007   1.773   5.970
 8615SOL    HW226745   4.858   1.785   5.906
 8616SOL     OW26746   0.659   3.183   0.323
 8616SOL    HW126747   0.634   3.097   0.368
 8616SOL    HW226748   0.745   3.217   0.360
 8617SOL     OW26749   6.095   3.193   0.604
 8617SOL    HW126750   6.011   3.144   0.625
 8617SOL    HW226751   6.122   3.174   0.509
 8618SOL     OW26752   3.429   1.521   2.793
 8618SOL    HW126753   3.502   1.461   2.827
 8618SOL    HW226754   3.357   1.528   2.862
 8619SOL     OW26755   3.870   6.893   0.634
 8619SOL    HW126756   3.886   6.902   0.732
 8619SOL    HW226757   3.801   6.960   0.606
 8620SOL     OW26758   6.187   5.843   3.860
 8620SOL    HW126759   6.132   5.853   3.778
 8620SOL    HW226760   6.129   5.813   3.936
 8621SOL     OW26761   5.102   0.941   3.633
 8621SOL    HW126762   5.081   0.973   3.540
 8621SOL    HW226763   5.051   0.997   3.699
 8622SOL     OW26764   4.951   5.738   6.232
 8622SOL    HW126765   4.885   5.746   6.157
 8622SOL    HW226766   5.018   5.667   6.211
 8623SOL     OW26767   6.143   1.668   3.804
 8623SOL    HW126768   6.161   1.651   3.901
 8623SOL    HW226769   6.074   1.741   3.795
 8624SOL     OW26770   6.151   3.096   3.669
 8624SOL    HW126771   6.052   3.109   3.682
 8624SOL    HW226772   6.168   3.008   3.624
 8625SOL     OW26773   3.732   1.292   6.194
 8625SOL    HW126774   3.828   1.312   6.175
 8625SOL    HW226775   3.702   1.346   6.273
 8626SOL     OW26776   2.962   3.651   2.133
 8626SOL    HW126777   2.957   3.599   2.219
 8626SOL    HW226778   2.997   3.743   2.152
 8627SOL     OW26779   2.759   0.320   6.866
 8627SOL    HW126780   2.779   0.417   6.854
 8627SOL    HW226781   2.777   0.294   6.961
 8628SOL     OW26782   6.180   1.716   1.091
 8628SOL    HW126783   6.261   1.773   1.106
 8628SOL    HW226784   6.208   1.631   1.045
 8629SOL     OW26785   1.468   5.749   3.368
 8629SOL    HW126786   1.414   5.781   3.290
 8629SOL    HW226787   1.413   5.753   3.451
 8630SOL     OW26788   5.103   4.773   4.232
 8630SOL    HW126789   5.058   4.726   4.309
 8630SOL    HW226790   5.040   4.778   4.155
 8631SOL     OW26791   4.141   6.364   3.549
 8631SOL    HW126792   4.210   6.311   3.598
 8631SOL    HW226793   4.149   6.347   3.451
 8632SOL     OW26794   3.309   0.998   3.000
 8632SOL    HW126795   3.264   1.075   2.956
 8632SOL    HW226796   3.257   0.970   3.081
 8633SOL     OW26797   6.678   6.557   2.590
 8633SOL    HW126798   6.642   6.544   2.683
 8633SOL    HW226799   6.603   6.575   2.527
 8634SOL     OW26800   6.442   6.022   1.900
 8634SOL    HW126801   6.384   5.942   1.882
 8634SOL    HW226802   6.452   6.075   1.816
 8635SOL     OW26803   6.081   3.661   5.585
 8635SOL    HW126804   6.157   3.599   5.604
 8635SOL    HW226805   6.089   3.742   5.643
 8636SOL     OW26806   6.228   5.056   0.917
 8636SOL    HW126807   6.283   5.119   0.862
 8636SOL    HW226808   6.137   5.047   0.876
 8637SOL     OW26809   1.223   0.765   1.686
 8637SOL    HW126810   1.275   0.830   1.630
 8637SOL    HW226811   1.283   0.690   1.715
 8638SOL     OW26812   5.742   4.609   1.249
 8638SOL    HW126813   5.747   4.669   1.170
 8638SOL    HW226814   5.766   4.661   1.332
 8639SOL     OW26815   5.830   2.693   2.022
 8639SOL    HW126816   5.797   2.779   1.983
 8639SOL    HW226817   5.753   2.629   2.031
 8640SOL     OW26818   5.002   6.066   1.593
 8640SOL    HW126819   5.041   6.101   1.508
 8640SOL    HW226820   4.904   6.085   1.594
 8641SOL     OW26821   5.122   4.612   3.701
 8641SOL    HW126822   5.168   4.650   3.620
 8641SOL    HW226823   5.035   4.659   3.715
 8642SOL     OW26824   4.257   1.168   1.575
 8642SOL    HW126825   4.221   1.155   1.667
 8642SOL    HW226826   4.277   1.079   1.533
 8643SOL     OW26827   4.705   6.923   0.003
 8643SOL    HW126828   4.775   6.972   0.056
 8643SOL    HW226829   4.719   6.940   6.926
 8644SOL     OW26830   6.622   3.444   5.370
 8644SOL    HW126831   6.590   3.355   5.338
 8644SOL    HW226832   6.559   3.515   5.340
 8645SOL     OW26833   6.393   3.575   1.637
 8645SOL    HW126834   6.467   3.509   1.645
 8645SOL    HW226835   6.375   3.617   1.725
 8646SOL     OW26836   4.966   6.555   0.809
 8646SOL    HW126837   5.027   6.490   0.764
 8646SOL    HW226838   4.945   6.630   0.746
 8647SOL     OW26839   4.870   5.123   2.277
 8647SOL    HW126840   4.955   5.108   2.328
 8647SOL    HW226841   4.875   5.073   2.190
 8648SOL     OW26842   5.834   0.596   3.847
 8648SOL    HW126843   5.834   0.501   3.877
 8648SOL    HW226844   5.831   0.599   3.747
 8649SOL     OW26845   6.241   4.276   5.630
 8649SOL    HW126846   6.177   4.261   5.705
 8649SOL    HW226847   6.275   4.188   5.596
 8650SOL     OW26848   0.429   5.565   1.341
 8650SOL    HW126849   0.403   5.471   1.363
 8650SOL    HW226850   0.412   5.624   1.421
 8651SOL     OW26851   4.255   3.168   1.065
 8651SOL    HW126852   4.340   3.217   1.083
 8651SOL    HW226853   4.178   3.232   1.071
 8652SOL     OW26854   0.715   2.587   4.006
 8652SOL    HW126855   0.774   2.586   4.088
 8652SOL    HW226856   0.702   2.682   3.976
 8653SOL     OW26857   5.280   2.846   6.522
 8653SOL    HW126858   5.315   2.872   6.432
 8653SOL    HW226859   5.354   2.810   6.578
 8654SOL     OW26860   1.417   4.969   1.432
 8654SOL    HW126861   1.423   4.902   1.358
 8654SOL    HW226862   1.370   4.929   1.510
 8655SOL     OW26863   5.629   6.017   2.814
 8655SOL    HW126864   5.566   5.988   2.742
 8655SOL    HW226865   5.658   5.938   2.868
 8656SOL     OW26866   6.360   2.351   1.958
 8656SOL    HW126867   6.374   2.252   1.965
 8656SOL    HW226868   6.313   2.384   2.039
 8657SOL     OW26869   3.219   5.055   0.961
 8657SOL    HW126870   3.284   5.131   0.956
 8657SOL    HW226871   3.258   4.981   1.014
 8658SOL     OW26872   1.316   5.542   6.010
 8658SOL    HW126873   1.318   5.523   6.108
 8658SOL    HW226874   1.271   5.629   5.993
 8659SOL     OW26875   4.260   6.911   4.655
 8659SOL    HW126876   4.198   6.950   4.724
 8659SOL    HW226877   4.326   6.851   4.700
 8660SOL     OW26878   5.411   4.462   6.925
 8660SOL    HW126879   5.431   4.488   6.831
 8660SOL    HW226880   5.407   4.363   6.932
 8661SOL     OW26881   6.166   3.303   1.891
 8661SOL    HW126882   6.141   3.376   1.955
 8661SOL    HW226883   6.253   3.263   1.918
 8662SOL     OW26884   0.298   1.042   6.729
 8662SOL    HW126885   0.198   1.051   6.735
 8662SOL    HW226886   0.341   1.125   6.762
 8663SOL     OW26887   2.666   5.206   1.058
 8663SOL    HW126888   2.691   5.172   1.148
 8663SOL    HW226889   2.748   5.206   0.999
 8664SOL     OW26890   4.623   4.885   1.585
 8664SOL    HW126891   4.683   4.962   1.564
 8664SOL    HW226892   4.667   4.800   1.558
 8665SOL     OW26893   5.125   5.190   4.564
 8665SOL    HW126894   5.063   5.219   4.637
 8665SOL    HW226895   5.078   5.196   4.476
 8666SOL     OW26896   6.532   4.591   4.305
 8666SOL    HW126897   6.538   4.691   4.309
 8666SOL    HW226898   6.572   4.552   4.387
 8667SOL     OW26899   5.575   2.175   3.230
 8667SOL    HW126900   5.498   2.187   3.167
 8667SOL    HW226901   5.540   2.163   3.323
 8668SOL     OW26902   3.419   0.773   4.745
 8668SOL    HW126903   3.381   0.686   4.779
 8668SOL    HW226904   3.347   0.843   4.748
 8669SOL     OW26905   4.167   6.724   6.540
 8669SOL    HW126906   4.105   6.701   6.615
 8669SOL    HW226907   4.119   6.717   6.453
 8670SOL     OW26908   4.391   4.571   2.692
 8670SOL    HW126909   4.330   4.648   2.675
 8670SOL    HW226910   4.421   4.572   2.787
 8671SOL     OW26911   6.040   6.189   2.506
 8671SOL    HW126912   6.098   6.120   2.550
 8671SOL    HW226913   6.064   6.195   2.409
 8672SOL     OW26914   3.622   5.102   4.797
 8672SOL    HW126915   3.682   5.027   4.824
 8672SOL    HW226916   3.668   5.159   4.729
 8673SOL     OW26917   4.783   2.327   6.964
 8673SOL    HW126918   4.737   2.402   7.012
 8673SOL    HW226919   4.792   2.249   0.005
 8674SOL     OW26920   0.844   0.026   3.221
 8674SOL    HW126921   0.829   6.949   3.236
 8674SOL    HW226922   0.830   0.047   3.124
 8675SOL     OW26923   2.461   1.805   2.953
 8675SOL    HW126924   2.364   1.828   2.948
 8675SOL    HW226925   2.515   1.882   2.922
 8676SOL     OW26926   4.488   1.109   4.190
 8676SOL    HW126927   4.425   1.179   4.225
 8676SOL    HW226928   4.579   1.149   4.181
 8677SOL     OW26929   2.115   3.897   5.918
 8677SOL    HW126930   2.099   3.913   5.821
 8677SOL    HW226931   2.065   3.815   5.947
 8678SOL     OW26932   1.608   0.692   5.980
 8678SOL    HW126933   1.646   0.767   6.034
 8678SOL    HW226934   1.569   0.623   6.041
 8679SOL     OW26935   5.893   1.858   4.864
 8679SOL    HW126936   5.933   1.887   4.777
 8679SOL    HW226937   5.858   1.765   4.856
 8680SOL     OW26938   0.865   3.844   0.287
 8680SOL    HW126939   0.812   3.791   0.352
 8680SOL    HW226940   0.963   3.830   0.304
 8681SOL     OW26941   4.105   3.695   1.415
 8681SOL    HW126942   4.122   3.661   1.322
 8681SOL    HW226943   4.076   3.620   1.474
 8682SOL     OW26944   1.336   5.858   2.598
 8682SOL    HW126945   1.261   5.922   2.614
 8682SOL    HW226946   1.303   5.765   2.610
 8683SOL     OW26947   4.643   3.036   6.695
 8683SOL    HW126948   4.689   2.962   6.743
 8683SOL    HW226949   4.551   3.006   6.667
 8684SOL     OW26950   6.194   2.874   3.521
 8684SOL    HW126951   6.270   2.888   3.457
 8684SOL    HW226952   6.109   2.861   3.469
 8685SOL     OW26953   0.083   1.449   5.623
 8685SOL    HW126954   0.096   1.351   5.606
 8685SOL    HW226955   0.089   1.498   5.536
 8686SOL     OW26956   6.424   1.565   3.879
 8686SOL    HW126957   6.411   1.584   3.977
 8686SOL    HW226958   6.361   1.622   3.826
 8687SOL     OW26959   3.563   1.003   2.805
 8687SOL    HW126960   3.500   1.039   2.736
 8687SOL    HW226961   3.510   0.968   2.882
 8688SOL     OW26962   1.121   6.864   2.133
 8688SOL    HW126963   1.208   6.824   2.160
 8688SOL    HW226964   1.065   6.795   2.086
 8689SOL     OW26965   4.949   4.563   1.286
 8689SOL    HW126966   4.889   4.484   1.275
 8689SOL    HW226967   4.965   4.605   1.197
 8690SOL     OW26968   1.570   1.099   2.383
 8690SOL    HW126969   1.551   1.190   2.344
 8690SOL    HW226970   1.548   1.029   2.315
 8691SOL     OW26971   6.072   1.489   0.547
 8691SOL    HW126972   6.085   1.524   0.640
 8691SOL    HW226973   6.139   1.531   0.486
 8692SOL     OW26974   1.608   1.299   3.670
 8692SOL    HW126975   1.594   1.217   3.724
 8692SOL    HW226976   1.520   1.344   3.654
 8693SOL     OW26977   5.058   2.146   6.439
 8693SOL    HW126978   4.980   2.193   6.399
 8693SOL    HW226979   5.137   2.207   6.440
 8694SOL     OW26980   3.889   6.839   6.969
 8694SOL    HW126981   3.899   6.741   6.949
 8694SOL    HW226982   3.793   6.863   6.968
 8695SOL     OW26983   4.612   4.394   5.454
 8695SOL    HW126984   4.613   4.398   5.354
 8695SOL    HW226985   4.605   4.299   5.484
 8696SOL     OW26986   2.360   5.367   0.479
 8696SOL    HW126987   2.458   5.390   0.474
 8696SOL    HW226988   2.346   5.301   0.552
 8697SOL     OW26989   5.044   4.932   6.592
 8697SOL    HW126990   5.007   5.002   6.654
 8697SOL    HW226991   5.100   4.977   6.522
 8698SOL     OW26992   5.848   5.905   5.019
 8698SOL    HW126993   5.779   5.833   5.017
 8698SOL    HW226994   5.811   5.985   5.065
 8699SOL     OW26995   1.539   1.558   4.978
 8699SOL    HW126996   1.484   1.476   4.966
 8699SOL    HW226997   1.605   1.544   5.052
 8700SOL     OW26998   2.827   2.342   6.051
 8700SOL    HW126999   2.772   2.308   5.974
 8700SOL    HW227000   2.880   2.266   6.089
 8701SOL     OW27001   1.298   1.005   3.656
 8701SOL    HW127002   1.329   1.054   3.575
 8701SOL    HW227003   1.258   0.918   3.629
 8702SOL     OW27004   5.081   6.535   6.932
 8702SOL    HW127005   5.084   6.460   6.866
 8702SOL    HW227006   5.160   6.529   6.993
 8703SOL     OW27007   1.552   5.238   1.446
 8703SOL    HW127008   1.489   5.310   1.416
 8703SOL    HW227009   1.504   5.150   1.442
 8704SOL     OW27010   1.111   4.347   1.668
 8704SOL    HW127011   1.169   4.412   1.717
 8704SOL    HW227012   1.018   4.351   1.706
 8705SOL     OW27013   4.673   6.638   4.218
 8705SOL    HW127014   4.719   6.587   4.291
 8705SOL    HW227015   4.708   6.608   4.129
 8706SOL     OW27016   4.964   0.946   5.726
 8706SOL    HW127017   5.024   0.884   5.676
 8706SOL    HW227018   5.018   1.004   5.786
 8707SOL     OW27019   4.263   1.895   5.477
 8707SOL    HW127020   4.237   1.838   5.555
 8707SOL    HW227021   4.214   1.982   5.481
 8708SOL     OW27022   4.065   1.738   0.709
 8708SOL    HW127023   4.074   1.650   0.661
 8708SOL    HW227024   4.051   1.721   0.807
 8709SOL     OW27025   5.311   3.385   0.482
 8709SOL    HW127026   5.300   3.294   0.520
 8709SOL    HW227027   5.408   3.412   0.487
 8710SOL     OW27028   6.254   2.987   3.889
 8710SOL    HW127029   6.222   3.040   3.811
 8710SOL    HW227030   6.235   3.036   3.974
 8711SOL     OW27031   1.160   1.199   4.543
 8711SOL    HW127032   1.133   1.250   4.462
 8711SOL    HW227033   1.218   1.122   4.516
 8712SOL     OW27034   3.506   0.332   6.913
 8712SOL    HW127035   3.407   0.346   6.916
 8712SOL    HW227036   3.539   0.312   7.005
 8713SOL     OW27037   6.139   4.904   2.812
 8713SOL    HW127038   6.174   4.811   2.823
 8713SOL    HW227039   6.134   4.926   2.714
 8714SOL     OW27040   1.656   1.703   4.300
 8714SOL    HW127041   1.649   1.654   4.387
 8714SOL    HW227042   1.739   1.675   4.252
 8715SOL     OW27043   5.684   1.076   2.597
 8715SOL    HW127044   5.654   1.170   2.611
 8715SOL    HW227045   5.655   1.044   2.507
 8716SOL     OW27046   0.467   1.280   2.120
 8716SOL    HW127047   0.467   1.361   2.180
 8716SOL    HW227048   0.491   1.199   2.174
 8717SOL     OW27049   4.255   3.534   0.869
 8717SOL    HW127050   4.218   3.443   0.853
 8717SOL    HW227051   4.326   3.530   0.939
 8718SOL     OW27052   6.937   2.816   5.677
 8718SOL    HW127053   7.002   2.871   5.729
 8718SOL    HW227054   6.907   2.738   5.732
 8719SOL     OW27055   5.858   0.687   5.826
 8719SOL    HW127056   5.946   0.675   5.779
 8719SOL    HW227057   5.833   0.783   5.826
 8720SOL     OW27058   4.964   3.506   5.604
 8720SOL    HW127059   5.024   3.498   5.524
 8720SOL    HW227060   5.015   3.482   5.686
 8721SOL     OW27061   6.845   0.804   5.041
 8721SOL    HW127062   6.795   0.781   5.125
 8721SOL    HW227063   6.934   0.758   5.041
 8722SOL     OW27064   3.205   2.972   0.924
 8722SOL    HW127065   3.226   2.883   0.964
 8722SOL    HW227066   3.115   2.968   0.880
 8723SOL     OW27067   0.219   5.917   0.547
 8723SOL    HW127068   0.314   5.948   0.543
 8723SOL    HW227069   0.158   5.995   0.534
 8724SOL     OW27070   4.807   5.973   6.725
 8724SOL    HW127071   4.783   5.876   6.724
 8724SOL    HW227072   4.852   5.997   6.639
 8725SOL     OW27073   2.385   6.405   1.126
 8725SOL    HW127074   2.377   6.323   1.183
 8725SOL    HW227075   2.294   6.443   1.110
 8726SOL     OW27076   0.010   0.930   1.268
 8726SOL    HW127077   0.074   0.953   1.341
 8726SOL    HW227078   0.023   0.835   1.240
 8727SOL     OW27079   5.634   6.676   1.147
 8727SOL    HW127080   5.599   6.619   1.222
 8727SOL    HW227081   5.559   6.698   1.084
 8728SOL     OW27082   2.548   5.918   5.316
 8728SOL    HW127083   2.647   5.909   5.308
 8728SOL    HW227084   2.507   5.919   5.225
 8729SOL     OW27085   4.701   5.880   4.697
 8729SOL    HW127086   4.611   5.840   4.681
 8729SOL    HW227087   4.767   5.841   4.633
 8730SOL     OW27088   6.156   5.921   0.923
 8730SOL    HW127089   6.160   5.830   0.965
 8730SOL    HW227090   6.245   5.942   0.882
 8731SOL     OW27091   0.450   1.534   2.298
 8731SOL    HW127092   0.463   1.631   2.278
 8731SOL    HW227093   0.537   1.495   2.330
 8732SOL     OW27094   6.701   6.274   2.178
 8732SOL    HW127095   6.682   6.194   2.120
 8732SOL    HW227096   6.614   6.314   2.208
 8733SOL     OW27097   0.031   0.105   0.938
 8733SOL    HW127098   0.099   0.136   1.005
 8733SOL    HW227099   6.960   0.126   0.970
 8734SOL     OW27100   6.608   6.514   0.929
 8734SOL    HW127101   6.551   6.509   0.847
 8734SOL    HW227102   6.559   6.564   1.001
 8735SOL     OW27103   0.535   2.940   6.585
 8735SOL    HW127104   0.577   2.994   6.512
 8735SOL    HW227105   0.565   2.974   6.674
 8736SOL     OW27106   0.198   4.845   6.008
 8736SOL    HW127107   0.259   4.845   6.087
 8736SOL    HW227108   0.111   4.803   6.033
 8737SOL     OW27109   3.876   6.141   6.860
 8737SOL    HW127110   3.971   6.115   6.839
 8737SOL    HW227111   3.875   6.190   6.948
 8738SOL     OW27112   0.747   3.978   5.774
 8738SOL    HW127113   0.703   4.055   5.728
 8738SOL    HW227114   0.738   3.988   5.873
 8739SOL     OW27115   1.258   3.707   5.800
 8739SOL    HW127116   1.158   3.713   5.794
 8739SOL    HW227117   1.294   3.675   5.713
 8740SOL     OW27118   1.635   6.397   0.599
 8740SOL    HW127119   1.565   6.363   0.536
 8740SOL    HW227120   1.609   6.377   0.693
 8741SOL     OW27121   1.731   3.627   2.006
 8741SOL    HW127122   1.785   3.544   2.014
 8741SOL    HW227123   1.761   3.679   1.926
 8742SOL     OW27124   4.628   5.738   2.171
 8742SOL    HW127125   4.600   5.755   2.076
 8742SOL    HW227126   4.721   5.703   2.172
 8743SOL     OW27127   2.491   4.897   2.288
 8743SOL    HW127128   2.553   4.948   2.348
 8743SOL    HW227129   2.450   4.959   2.221
 8744SOL     OW27130   3.012   3.305   5.516
 8744SOL    HW127131   2.973   3.252   5.441
 8744SOL    HW227132   2.998   3.403   5.499
 8745SOL     OW27133   5.950   1.653   6.676
 8745SOL    HW127134   5.992   1.719   6.737
 8745SOL    HW227135   5.942   1.564   6.722
 8746SOL     OW27136   5.197   3.587   4.676
 8746SOL    HW127137   5.251   3.503   4.677
 8746SOL    HW227138   5.243   3.657   4.731
 8747SOL     OW27139   0.398   1.987   3.874
 8747SOL    HW127140   0.472   1.937   3.918
 8747SOL    HW227141   0.401   2.083   3.902
 8748SOL     OW27142   2.945   6.888   0.094
 8748SOL    HW127143   3.017   6.905   0.027
 8748SOL    HW227144   2.865   6.849   0.049
 8749SOL     OW27145   3.893   1.702   3.506
 8749SOL    HW127146   3.802   1.743   3.515
 8749SOL    HW227147   3.890   1.629   3.439
 8750SOL     OW27148   1.990   0.688   4.976
 8750SOL    HW127149   1.954   0.703   5.068
 8750SOL    HW227150   1.914   0.686   4.911
 8751SOL     OW27151   1.699   6.322   3.075
 8751SOL    HW127152   1.730   6.327   3.170
 8751SOL    HW227153   1.640   6.399   3.054
 8752SOL     OW27154   2.432   0.717   5.907
 8752SOL    HW127155   2.510   0.755   5.955
 8752SOL    HW227156   2.357   0.784   5.906
 8753SOL     OW27157   5.582   1.118   5.060
 8753SOL    HW127158   5.585   1.184   4.985
 8753SOL    HW227159   5.551   1.164   5.143
 8754SOL     OW27160   2.040   1.039   5.645
 8754SOL    HW127161   1.989   1.033   5.560
 8754SOL    HW227162   2.119   0.977   5.641
 8755SOL     OW27163   2.318   2.140   0.271
 8755SOL    HW127164   2.370   2.109   0.350
 8755SOL    HW227165   2.327   2.073   0.197
 8756SOL     OW27166   2.036   4.727   4.262
 8756SOL    HW127167   1.968   4.771   4.321
 8756SOL    HW227168   2.015   4.746   4.167
 8757SOL     OW27169   3.305   5.275   3.909
 8757SOL    HW127170   3.405   5.270   3.902
 8757SOL    HW227171   3.279   5.305   4.000
 8758SOL     OW27172   5.044   6.373   2.544
 8758SOL    HW127173   4.951   6.403   2.526
 8758SOL    HW227174   5.095   6.447   2.589
 8759SOL     OW27175   5.439   0.504   6.137
 8759SOL    HW127176   5.370   0.455   6.084
 8759SOL    HW227177   5.515   0.442   6.157
 8760SOL     OW27178   2.199   3.091   3.629
 8760SOL    HW127179   2.162   3.051   3.713
 8760SOL    HW227180   2.297   3.076   3.625
 8761SOL     OW27181   5.208   6.258   1.530
 8761SOL    HW127182   5.167   6.265   1.622
 8761SOL    HW227183   5.256   6.344   1.509
 8762SOL     OW27184   1.152   4.933   1.243
 8762SOL    HW127185   1.117   4.944   1.336
 8762SOL    HW227186   1.160   5.023   1.200
 8763SOL     OW27187   0.455   6.226   6.694
 8763SOL    HW127188   0.480   6.278   6.612
 8763SOL    HW227189   0.355   6.227   6.704
 8764SOL     OW27190   3.383   1.884   6.163
 8764SOL    HW127191   3.338   1.829   6.232
 8764SOL    HW227192   3.411   1.825   6.086
 8765SOL     OW27193   6.394   0.474   4.736
 8765SOL    HW127194   6.483   0.493   4.777
 8765SOL    HW227195   6.343   0.412   4.795
 8766SOL     OW27196   2.172   4.514   2.134
 8766SOL    HW127197   2.188   4.613   2.132
 8766SOL    HW227198   2.171   4.482   2.229
 8767SOL     OW27199   4.891   0.363   5.446
 8767SOL    HW127200   4.866   0.388   5.352
 8767SOL    HW227201   4.816   0.314   5.488
 8768SOL     OW27202   0.747   4.362   0.069
 8768SOL    HW127203   0.776   4.432   0.135
 8768SOL    HW227204   0.807   4.283   0.076
 8769SOL     OW27205   1.856   0.664   6.211
 8769SOL    HW127206   1.777   0.687   6.268
 8769SOL    HW227207   1.847   0.569   6.180
 8770SOL     OW27208   5.634   1.679   3.129
 8770SOL    HW127209   5.652   1.617   3.206
 8770SOL    HW227210   5.672   1.769   3.149
 8771SOL     OW27211   2.881   2.919   5.386
 8771SOL    HW127212   2.958   2.941   5.326
 8771SOL    HW227213   2.821   2.998   5.394
 8772SOL     OW27214   6.775   6.763   6.723
 8772SOL    HW127215   6.751   6.807   6.809
 8772SOL    HW227216   6.754   6.825   6.647
 8773SOL     OW27217   2.623   2.051   2.876
 8773SOL    HW127218   2.678   1.993   2.815
 8773SOL    HW227219   2.638   2.147   2.853
 8774SOL     OW27220   1.224   1.232   6.868
 8774SOL    HW127221   1.311   1.278   6.883
 8774SOL    HW227222   1.232   1.135   6.894
 8775SOL     OW27223   6.450   5.999   4.135
 8775SOL    HW127224   6.455   5.901   4.116
 8775SOL    HW227225   6.389   6.043   4.070
 8776SOL     OW27226   3.094   3.956   5.277
 8776SOL    HW127227   3.193   3.945   5.268
 8776SOL    HW227228   3.050   3.867   5.285
 8777SOL     OW27229   5.824   5.852   2.969
 8777SOL    HW127230   5.881   5.934   2.960
 8777SOL    HW227231   5.809   5.832   3.066
 8778SOL     OW27232   1.415   3.062   2.843
 8778SOL    HW127233   1.438   3.148   2.797
 8778SOL    HW227234   1.498   3.023   2.883
 8779SOL     OW27235   1.898   4.576   1.149
 8779SOL    HW127236   1.963   4.650   1.134
 8779SOL    HW227237   1.915   4.533   1.238
 8780SOL     OW27238   1.902   5.740   4.960
 8780SOL    HW127239   1.873   5.699   4.873
 8780SOL    HW227240   1.876   5.681   5.036
 8781SOL     OW27241   1.052   2.357   2.767
 8781SOL    HW127242   1.027   2.420   2.840
 8781SOL    HW227243   0.970   2.316   2.728
 8782SOL     OW27244   5.344   1.359   3.669
 8782SOL    HW127245   5.302   1.307   3.744
 8782SOL    HW227246   5.439   1.381   3.693
 8783SOL     OW27247   6.246   2.852   5.548
 8783SOL    HW127248   6.331   2.813   5.583
 8783SOL    HW227249   6.227   2.939   5.593
 8784SOL     OW27250   6.098   4.185   5.834
 8784SOL    HW127251   6.134   4.203   5.926
 8784SOL    HW227252   5.998   4.180   5.838
 8785SOL     OW27253   5.348   4.130   6.046
 8785SOL    HW127254   5.439   4.155   6.012
 8785SOL    HW227255   5.279   4.153   5.977
 8786SOL     OW27256   1.694   6.271   7.014
 8786SOL    HW127257   1.657   6.313   6.932
 8786SOL    HW227258   1.714   6.341   0.062
 8787SOL     OW27259   1.327   2.936   6.746
 8787SOL    HW127260   1.350   2.898   6.656
 8787SOL    HW227261   1.263   2.874   6.793
 8788SOL     OW27262   1.329   2.008   5.385
 8788SOL    HW127263   1.247   2.021   5.330
 8788SOL    HW227264   1.399   2.073   5.355
 8789SOL     OW27265   0.023   1.181   0.456
 8789SOL    HW127266   0.041   1.279   0.453
 8789SOL    HW227267   6.954   1.165   0.499
 8790SOL     OW27268   3.988   0.997   6.265
 8790SOL    HW127269   3.913   0.983   6.201
 8790SOL    HW227270   3.977   1.086   6.310
 8791SOL     OW27271   5.153   5.983   5.227
 8791SOL    HW127272   5.128   6.063   5.282
 8791SOL    HW227273   5.252   5.971   5.229
 8792SOL     OW27274   5.097   6.814   2.743
 8792SOL    HW127275   5.168   6.872   2.784
 8792SOL    HW227276   5.010   6.830   2.789
 8793SOL     OW27277   0.988   4.278   3.384
 8793SOL    HW127278   0.949   4.369   3.368
 8793SOL    HW227279   1.032   4.276   3.474
 8794SOL     OW27280   2.784   5.881   2.759
 8794SOL    HW127281   2.721   5.803   2.765
 8794SOL    HW227282   2.732   5.966   2.763
 8795SOL     OW27283   3.113   6.266   4.521
 8795SOL    HW127284   3.067   6.351   4.546
 8795SOL    HW227285   3.127   6.210   4.602
 8796SOL     OW27286   5.051   2.127   4.572
 8796SOL    HW127287   5.097   2.199   4.623
 8796SOL    HW227288   5.049   2.150   4.475
 8797SOL     OW27289   0.682   5.693   6.492
 8797SOL    HW127290   0.647   5.684   6.399
 8797SOL    HW227291   0.636   5.626   6.551
 8798SOL     OW27292   3.100   3.262   5.244
 8798SOL    HW127293   3.161   3.192   5.282
 8798SOL    HW227294   3.152   3.324   5.186
 8799SOL     OW27295   3.452   0.788   2.114
 8799SOL    HW127296   3.432   0.697   2.150
 8799SOL    HW227297   3.463   0.852   2.189
 8800SOL     OW27298   3.814   3.880   0.693
 8800SOL    HW127299   3.800   3.832   0.606
 8800SOL    HW227300   3.798   3.816   0.769
 8801SOL     OW27301   3.421   6.593   5.658
 8801SOL    HW127302   3.481   6.629   5.586
 8801SOL    HW227303   3.387   6.503   5.632
 8802SOL     OW27304   2.039   6.051   1.480
 8802SOL    HW127305   1.962   6.076   1.538
 8802SOL    HW227306   2.118   6.108   1.502
 8803SOL     OW27307   3.970   5.923   1.965
 8803SOL    HW127308   4.068   5.931   1.946
 8803SOL    HW227309   3.920   5.920   1.879
 8804SOL     OW27310   2.598   0.852   1.803
 8804SOL    HW127311   2.674   0.791   1.781
 8804SOL    HW227312   2.511   0.803   1.791
 8805SOL     OW27313   0.768   0.079   3.846
 8805SOL    HW127314   0.851   0.101   3.796
 8805SOL    HW227315   0.771   7.004   3.876
 8806SOL     OW27316   1.991   5.051   6.755
 8806SOL    HW127317   2.047   5.080   6.833
 8806SOL    HW227318   1.906   5.104   6.753
 8807SOL     OW27319   2.560   5.172   6.368
 8807SOL    HW127320   2.594   5.261   6.396
 8807SOL    HW227321   2.464   5.180   6.340
 8808SOL     OW27322   5.782   2.700   0.813
 8808SOL    HW127323   5.699   2.742   0.850
 8808SOL    HW227324   5.777   2.601   0.825
 8809SOL     OW27325   6.251   4.975   0.099
 8809SOL    HW127326   6.252   4.944   0.194
 8809SOL    HW227327   6.327   5.039   0.084
 8810SOL     OW27328   4.976   1.366   3.753
 8810SOL    HW127329   4.898   1.400   3.806
 8810SOL    HW227330   5.012   1.441   3.698
 8811SOL     OW27331   1.062   0.760   3.383
 8811SOL    HW127332   1.018   0.815   3.454
 8811SOL    HW227333   1.042   0.801   3.293
 8812SOL     OW27334   2.855   1.219   0.033
 8812SOL    HW127335   2.921   1.147   0.052
 8812SOL    HW227336   2.868   1.294   0.098
 8813SOL     OW27337   1.138   5.642   1.298
 8813SOL    HW127338   1.116   5.548   1.272
 8813SOL    HW227339   1.237   5.654   1.301
 8814SOL     OW27340   5.600   6.912   5.456
 8814SOL    HW127341   5.628   6.886   5.363
 8814SOL    HW227342   5.643   6.851   5.522
 8815SOL     OW27343   5.883   5.284   2.986
 8815SOL    HW127344   5.879   5.187   2.962
 8815SOL    HW227345   5.808   5.333   2.942
 8816SOL     OW27346   0.683   5.360   2.364
 8816SOL    HW127347   0.729   5.354   2.275
 8816SOL    HW227348   0.726   5.432   2.419
 8817SOL     OW27349   2.151   3.845   5.167
 8817SOL    HW127350   2.237   3.895   5.162
 8817SOL    HW227351   2.163   3.762   5.220
 8818SOL     OW27352   6.935   4.587   5.379
 8818SOL    HW127353   6.938   4.632   5.290
 8818SOL    HW227354   6.949   4.656   5.451
 8819SOL     OW27355   6.588   0.532   4.424
 8819SOL    HW127356   6.674   0.582   4.416
 8819SOL    HW227357   6.579   0.495   4.516
 8820SOL     OW27358   1.002   2.481   3.275
 8820SOL    HW127359   0.976   2.557   3.333
 8820SOL    HW227360   1.099   2.489   3.250
 8821SOL     OW27361   1.257   6.912   6.635
 8821SOL    HW127362   1.338   6.968   6.616
 8821SOL    HW227363   1.278   6.816   6.616
 8822SOL     OW27364   1.459   2.801   3.821
 8822SOL    HW127365   1.404   2.884   3.826
 8822SOL    HW227366   1.510   2.789   3.906
 8823SOL     OW27367   2.448   5.064   0.993
 8823SOL    HW127368   2.527   5.120   1.019
 8823SOL    HW227369   2.480   4.975   0.959
 8824SOL     OW27370   4.854   4.315   1.258
 8824SOL    HW127371   4.795   4.243   1.222
 8824SOL    HW227372   4.896   4.286   1.344
 8825SOL     OW27373   2.562   2.074   6.971
 8825SOL    HW127374   2.481   2.018   6.986
 8825SOL    HW227375   2.577   2.134   0.029
 8826SOL     OW27376   5.435   0.220   1.768
 8826SOL    HW127377   5.365   0.217   1.696
 8826SOL    HW227378   5.434   0.310   1.812
 8827SOL     OW27379   6.162   1.547   3.574
 8827SOL    HW127380   6.191   1.620   3.512
 8827SOL    HW227381   6.169   1.581   3.669
 8828SOL     OW27382   1.654   5.856   3.695
 8828SOL    HW127383   1.676   5.856   3.597
 8828SOL    HW227384   1.660   5.949   3.731
 8829SOL     OW27385   1.508   0.666   1.414
 8829SOL    HW127386   1.442   0.718   1.360
 8829SOL    HW227387   1.543   0.590   1.360
 8830SOL     OW27388   1.412   1.318   0.545
 8830SOL    HW127389   1.407   1.240   0.483
 8830SOL    HW227390   1.333   1.378   0.529
 8831SOL     OW27391   6.257   0.735   1.781
 8831SOL    HW127392   6.330   0.678   1.744
 8831SOL    HW227393   6.290   0.785   1.861
 8832SOL     OW27394   6.040   1.691   2.281
 8832SOL    HW127395   5.997   1.723   2.366
 8832SOL    HW227396   6.059   1.593   2.289
 8833SOL     OW27397   1.005   5.407   2.232
 8833SOL    HW127398   1.104   5.402   2.218
 8833SOL    HW227399   0.960   5.336   2.178
 8834SOL     OW27400   6.239   4.142   3.398
 8834SOL    HW127401   6.248   4.050   3.436
 8834SOL    HW227402   6.149   4.152   3.356
 8835SOL     OW27403   0.436   1.465   0.637
 8835SOL    HW127404   0.461   1.519   0.717
 8835SOL    HW227405   0.483   1.501   0.557
 8836SOL     OW27406   4.810   1.539   1.969
 8836SOL    HW127407   4.755   1.586   1.900
 8836SOL    HW227408   4.907   1.546   1.945
 8837SOL     OW27409   0.172   2.454   2.399
 8837SOL    HW127410   0.149   2.551   2.388
 8837SOL    HW227411   0.126   2.401   2.328
 8838SOL     OW27412   1.348   6.864   3.788
 8838SOL    HW127413   1.251   6.874   3.811
 8838SOL    HW227414   1.357   6.838   3.692
 8839SOL     OW27415   5.527   5.350   4.749
 8839SOL    HW127416   5.625   5.349   4.730
 8839SOL    HW227417   5.512   5.355   4.848
 8840SOL     OW27418   4.025   0.963   2.018
 8840SOL    HW127419   3.952   1.022   1.982
 8840SOL    HW227420   4.066   1.006   2.098
 8841SOL     OW27421   3.737   6.787   3.573
 8841SOL    HW127422   3.828   6.761   3.604
 8841SOL    HW227423   3.733   6.887   3.560
 8842SOL     OW27424   1.470   2.137   1.911
 8842SOL    HW127425   1.511   2.170   1.826
 8842SOL    HW227426   1.405   2.064   1.891
 8843SOL     OW27427   6.802   2.776   4.246
 8843SOL    HW127428   6.802   2.713   4.168
 8843SOL    HW227429   6.892   2.776   4.289
 8844SOL     OW27430   6.042   1.736   0.242
 8844SOL    HW127431   5.985   1.816   0.230
 8844SOL    HW227432   6.114   1.734   0.172
 8845SOL     OW27433   5.038   2.495   7.015
 8845SOL    HW127434   4.955   2.473   6.963
 8845SOL    HW227435   5.013   2.544   0.078
 8846SOL     OW27436   2.979   4.818   4.209
 8846SOL    HW127437   3.054   4.791   4.270
 8846SOL    HW227438   2.960   4.915   4.220
 8847SOL     OW27439   1.208   1.395   3.444
 8847SOL    HW127440   1.221   1.485   3.402
 8847SOL    HW227441   1.118   1.393   3.489
 8848SOL     OW27442   0.313   1.139   3.804
 8848SOL    HW127443   0.306   1.237   3.785
 8848SOL    HW227444   0.332   1.090   3.719
 8849SOL     OW27445   3.034   6.833   1.176
 8849SOL    HW127446   2.940   6.866   1.166
 8849SOL    HW227447   3.096   6.911   1.182
 8850SOL     OW27448   3.278   2.146   6.969
 8850SOL    HW127449   3.300   2.176   0.042
 8850SOL    HW227450   3.187   2.179   6.944
 8851SOL     OW27451   2.103   3.604   2.265
 8851SOL    HW127452   2.013   3.565   2.249
 8851SOL    HW227453   2.169   3.564   2.202
 8852SOL     OW27454   0.901   2.479   4.628
 8852SOL    HW127455   0.826   2.428   4.584
 8852SOL    HW227456   0.868   2.517   4.715
 8853SOL     OW27457   4.404   0.587   1.692
 8853SOL    HW127458   4.443   0.617   1.605
 8853SOL    HW227459   4.477   0.581   1.761
 8854SOL     OW27460   6.815   2.332   4.935
 8854SOL    HW127461   6.868   2.266   4.989
 8854SOL    HW227462   6.878   2.393   4.886
 8855SOL     OW27463   4.802   4.909   1.175
 8855SOL    HW127464   4.714   4.863   1.189
 8855SOL    HW227465   4.856   4.858   1.108
 8856SOL     OW27466   5.853   0.512   5.404
 8856SOL    HW127467   5.836   0.553   5.315
 8856SOL    HW227468   5.952   0.505   5.419
 8857SOL     OW27469   6.602   2.273   6.671
 8857SOL    HW127470   6.612   2.362   6.627
 8857SOL    HW227471   6.505   2.248   6.674
 8858SOL     OW27472   6.671   5.243   4.945
 8858SOL    HW127473   6.730   5.200   5.013
 8858SOL    HW227474   6.694   5.210   4.854
 8859SOL     OW27475   0.641   5.500   3.024
 8859SOL    HW127476   0.629   5.409   3.066
 8859SOL    HW227477   0.625   5.570   3.093
 8860SOL     OW27478   6.268   2.730   2.086
 8860SOL    HW127479   6.361   2.759   2.105
 8860SOL    HW227480   6.245   2.753   1.991
 8861SOL     OW27481   2.969   2.545   1.375
 8861SOL    HW127482   2.909   2.618   1.409
 8861SOL    HW227483   3.039   2.525   1.443
 8862SOL     OW27484   4.554   4.816   4.917
 8862SOL    HW127485   4.576   4.903   4.873
 8862SOL    HW227486   4.473   4.827   4.975
 8863SOL     OW27487   1.438   3.483   1.805
 8863SOL    HW127488   1.435   3.512   1.900
 8863SOL    HW227489   1.523   3.514   1.763
 8864SOL     OW27490   6.218   1.782   4.783
 8864SOL    HW127491   6.138   1.822   4.828
 8864SOL    HW227492   6.193   1.694   4.744
 8865SOL     OW27493   3.077   1.177   0.662
 8865SOL    HW127494   3.010   1.124   0.715
 8865SOL    HW227495   3.164   1.127   0.660
 8866SOL     OW27496   6.113   0.030   1.765
 8866SOL    HW127497   6.041   7.017   1.705
 8866SOL    HW227498   6.104   7.008   1.855
 8867SOL     OW27499   5.944   2.687   3.253
 8867SOL    HW127500   5.864   2.646   3.209
 8867SOL    HW227501   5.917   2.771   3.299
 8868SOL     OW27502   0.470   2.737   3.464
 8868SOL    HW127503   0.456   2.777   3.373
 8868SOL    HW227504   0.415   2.654   3.472
 8869SOL     OW27505   4.406   6.929   3.834
 8869SOL    HW127506   4.377   6.835   3.816
 8869SOL    HW227507   4.459   6.932   3.918
 8870SOL     OW27508   0.811   0.701   1.726
 8870SOL    HW127509   0.862   0.625   1.767
 8870SOL    HW227510   0.860   0.735   1.646
 8871SOL     OW27511   0.393   6.551   1.306
 8871SOL    HW127512   0.358   6.549   1.400
 8871SOL    HW227513   0.477   6.498   1.301
 8872SOL     OW27514   6.787   4.670   3.589
 8872SOL    HW127515   6.871   4.687   3.641
 8872SOL    HW227516   6.726   4.612   3.643
 8873SOL     OW27517   1.808   1.538   3.652
 8873SOL    HW127518   1.794   1.590   3.568
 8873SOL    HW227519   1.759   1.451   3.646
 8874SOL     OW27520   2.879   5.849   0.487
 8874SOL    HW127521   2.971   5.848   0.527
 8874SOL    HW227522   2.812   5.865   0.560
 8875SOL     OW27523   6.124   2.709   4.289
 8875SOL    HW127524   6.153   2.640   4.355
 8875SOL    HW227525   6.111   2.667   4.199
 8876SOL     OW27526   4.626   0.544   0.884
 8876SOL    HW127527   4.721   0.540   0.852
 8876SOL    HW227528   4.578   0.619   0.838
 8877SOL     OW27529   0.786   4.548   1.258
 8877SOL    HW127530   0.854   4.496   1.206
 8877SOL    HW227531   0.781   4.512   1.351
 8878SOL     OW27532   4.965   3.874   2.236
 8878SOL    HW127533   4.905   3.904   2.161
 8878SOL    HW227534   4.963   3.774   2.242
 8879SOL     OW27535   6.999   4.189   4.117
 8879SOL    HW127536   7.012   4.153   4.024
 8879SOL    HW227537   0.051   4.256   4.137
 8880SOL     OW27538   4.353   1.813   2.743
 8880SOL    HW127539   4.451   1.820   2.721
 8880SOL    HW227540   4.303   1.884   2.693
 8881SOL     OW27541   3.769   5.285   3.233
 8881SOL    HW127542   3.835   5.274   3.159
 8881SOL    HW227543   3.817   5.304   3.319
 8882SOL     OW27544   3.934   1.490   0.177
 8882SOL    HW127545   3.996   1.438   0.118
 8882SOL    HW227546   3.840   1.457   0.163
 8883SOL     OW27547   0.539   6.439   3.057
 8883SOL    HW127548   0.622   6.417   3.109
 8883SOL    HW227549   0.485   6.357   3.043
 8884SOL     OW27550   4.373   2.302   6.211
 8884SOL    HW127551   4.308   2.363   6.165
 8884SOL    HW227552   4.454   2.290   6.153
 8885SOL     OW27553   6.035   4.858   1.188
 8885SOL    HW127554   5.964   4.922   1.158
 8885SOL    HW227555   6.009   4.765   1.164
 8886SOL     OW27556   5.033   6.479   0.283
 8886SOL    HW127557   5.021   6.428   0.198
 8886SOL    HW227558   4.954   6.463   0.343
 8887SOL     OW27559   3.791   0.576   1.825
 8887SOL    HW127560   3.867   0.637   1.806
 8887SOL    HW227561   3.788   0.504   1.757
 8888SOL     OW27562   3.944   2.139   2.038
 8888SOL    HW127563   3.942   2.039   2.047
 8888SOL    HW227564   3.850   2.174   2.046
 8889SOL     OW27565   1.576   4.535   6.608
 8889SOL    HW127566   1.655   4.582   6.570
 8889SOL    HW227567   1.505   4.526   6.539
 8890SOL     OW27568   1.723   5.974   0.063
 8890SOL    HW127569   1.722   6.074   0.066
 8890SOL    HW227570   1.692   5.938   0.151
 8891SOL     OW27571   5.884   3.452   5.563
 8891SOL    HW127572   5.915   3.399   5.642
 8891SOL    HW227573   5.948   3.527   5.545
 8892SOL     OW27574   2.239   5.445   4.757
 8892SOL    HW127575   2.282   5.361   4.789
 8892SOL    HW227576   2.211   5.434   4.661
 8893SOL     OW27577   0.745   4.714   5.269
 8893SOL    HW127578   0.684   4.696   5.192
 8893SOL    HW227579   0.693   4.716   5.354
 8894SOL     OW27580   5.311   2.298   1.549
 8894SOL    HW127581   5.299   2.199   1.550
 8894SOL    HW227582   5.406   2.320   1.526
 8895SOL     OW27583   0.135   3.568   1.624
 8895SOL    HW127584   0.137   3.667   1.632
 8895SOL    HW227585   0.041   3.535   1.632
 8896SOL     OW27586   0.884   1.177   3.742
 8896SOL    HW127587   0.850   1.222   3.659
 8896SOL    HW227588   0.806   1.139   3.793
 8897SOL     OW27589   1.584   5.254   4.222
 8897SOL    HW127590   1.548   5.331   4.275
 8897SOL    HW227591   1.669   5.221   4.264
 8898SOL     OW27592   5.683   4.917   2.753
 8898SOL    HW127593   5.698   4.910   2.654
 8898SOL    HW227594   5.594   4.961   2.770
 8899SOL     OW27595   2.148   4.622   1.503
 8899SOL    HW127596   2.061   4.584   1.471
 8899SOL    HW227597   2.159   4.603   1.600
 8900SOL     OW27598   3.848   1.697   4.705
 8900SOL    HW127599   3.828   1.793   4.686
 8900SOL    HW227600   3.762   1.647   4.714
 8901SOL     OW27601   1.325   5.012   5.041
 8901SOL    HW127602   1.314   4.979   4.947
 8901SOL    HW227603   1.254   4.973   5.099
 8902SOL     OW27604   0.490   5.168   6.717
 8902SOL    HW127605   0.520   5.241   6.778
 8902SOL    HW227606   0.393   5.179   6.696
 8903SOL     OW27607   0.674   0.557   4.478
 8903SOL    HW127608   0.606   0.616   4.435
 8903SOL    HW227609   0.702   0.486   4.413
 8904SOL     OW27610   0.086   1.141   3.085
 8904SOL    HW127611   0.161   1.197   3.051
 8904SOL    HW227612   0.111   1.100   3.172
 8905SOL     OW27613   1.959   5.056   1.593
 8905SOL    HW127614   1.887   5.090   1.532
 8905SOL    HW227615   1.994   4.969   1.559
 8906SOL     OW27616   6.027   0.620   6.811
 8906SOL    HW127617   6.004   0.711   6.845
 8906SOL    HW227618   6.025   0.555   6.887
 8907SOL     OW27619   2.706   3.134   5.321
 8907SOL    HW127620   2.642   3.090   5.258
 8907SOL    HW227621   2.671   3.125   5.414
 8908SOL     OW27622   1.571   5.733   5.784
 8908SOL    HW127623   1.517   5.817   5.781
 8908SOL    HW227624   1.654   5.745   5.730
 8909SOL     OW27625   2.300   6.144   1.920
 8909SOL    HW127626   2.360   6.105   1.991
 8909SOL    HW227627   2.320   6.099   1.833
 8910SOL     OW27628   1.074   0.999   3.817
 8910SOL    HW127629   1.014   1.069   3.778
 8910SOL    HW227630   1.164   1.005   3.774
 8911SOL     OW27631   5.261   3.062   4.159
 8911SOL    HW127632   5.220   2.978   4.194
 8911SOL    HW227633   5.189   3.119   4.119
 8912SOL     OW27634   3.861   2.975   3.690
 8912SOL    HW127635   3.890   2.946   3.599
 8912SOL    HW227636   3.765   3.002   3.688
 8913SOL     OW27637   5.250   5.810   1.058
 8913SOL    HW127638   5.177   5.768   1.111
 8913SOL    HW227639   5.301   5.873   1.117
 8914SOL     OW27640   5.166   5.170   5.212
 8914SOL    HW127641   5.203   5.201   5.299
 8914SOL    HW227642   5.241   5.152   5.149
 8915SOL     OW27643   2.377   0.820   3.720
 8915SOL    HW127644   2.407   0.865   3.636
 8915SOL    HW227645   2.313   0.880   3.768
 8916SOL     OW27646   6.111   0.617   2.250
 8916SOL    HW127647   6.086   0.706   2.287
 8916SOL    HW227648   6.091   0.614   2.152
 8917SOL     OW27649   5.787   2.238   0.572
 8917SOL    HW127650   5.850   2.273   0.641
 8917SOL    HW227651   5.706   2.297   0.568
 8918SOL     OW27652   1.592   3.257   2.760
 8918SOL    HW127653   1.670   3.263   2.696
 8918SOL    HW227654   1.626   3.236   2.852
 8919SOL     OW27655   6.248   2.832   2.625
 8919SOL    HW127656   6.329   2.863   2.575
 8919SOL    HW227657   6.275   2.769   2.698
 8920SOL     OW27658   0.929   1.980   0.589
 8920SOL    HW127659   0.850   2.000   0.531
 8920SOL    HW227660   0.936   1.881   0.602
 8921SOL     OW27661   1.003   2.476   1.122
 8921SOL    HW127662   1.022   2.454   1.218
 8921SOL    HW227663   1.071   2.432   1.064
 8922SOL     OW27664   2.969   4.935   3.529
 8922SOL    HW127665   3.019   4.854   3.498
 8922SOL    HW227666   2.942   4.922   3.624
 8923SOL     OW27667   2.546   1.466   3.520
 8923SOL    HW127668   2.528   1.483   3.617
 8923SOL    HW227669   2.486   1.523   3.465
 8924SOL     OW27670   6.128   4.863   4.848
 8924SOL    HW127671   6.161   4.956   4.834
 8924SOL    HW227672   6.064   4.839   4.775
 8925SOL     OW27673   0.526   6.514   3.792
 8925SOL    HW127674   0.429   6.537   3.797
 8925SOL    HW227675   0.543   6.430   3.844
 8926SOL     OW27676   5.683   2.216   6.926
 8926SOL    HW127677   5.745   2.180   6.857
 8926SOL    HW227678   5.736   2.269   6.993
 8927SOL     OW27679   1.214   1.612   6.544
 8927SOL    HW127680   1.156   1.618   6.463
 8927SOL    HW227681   1.172   1.550   6.610
 8928SOL     OW27682   1.182   6.871   5.429
 8928SOL    HW127683   1.238   6.858   5.347
 8928SOL    HW227684   1.241   6.892   5.507
 8929SOL     OW27685   6.639   1.280   3.565
 8929SOL    HW127686   6.649   1.314   3.659
 8929SOL    HW227687   6.610   1.354   3.505
 8930SOL     OW27688   2.321   5.531   2.743
 8930SOL    HW127689   2.316   5.432   2.729
 8930SOL    HW227690   2.253   5.576   2.684
 8931SOL     OW27691   4.339   3.021   6.958
 8931SOL    HW127692   4.413   3.090   6.955
 8931SOL    HW227693   4.259   3.061   7.001
 8932SOL     OW27694   0.227   3.866   2.426
 8932SOL    HW127695   0.313   3.910   2.399
 8932SOL    HW227696   0.168   3.856   2.346
 8933SOL     OW27697   4.998   2.038   6.009
 8933SOL    HW127698   4.927   2.002   6.070
 8933SOL    HW227699   5.088   2.016   6.046
 8934SOL     OW27700   2.314   6.298   2.883
 8934SOL    HW127701   2.325   6.384   2.833
 8934SOL    HW227702   2.256   6.312   2.963
 8935SOL     OW27703   0.231   5.639   6.728
 8935SOL    HW127704   0.181   5.562   6.768
 8935SOL    HW227705   0.200   5.653   6.634
 8936SOL     OW27706   4.572   2.955   0.854
 8936SOL    HW127707   4.597   2.896   0.930
 8936SOL    HW227708   4.505   2.908   0.796
 8937SOL     OW27709   6.996   1.324   6.352
 8937SOL    HW127710   0.032   1.340   6.433
 8937SOL    HW227711   6.960   1.231   6.355
 8938SOL     OW27712   4.592   5.828   1.775
 8938SOL    HW127713   4.679   5.784   1.752
 8938SOL    HW227714   4.545   5.854   1.691
 8939SOL     OW27715   5.604   2.033   4.379
 8939SOL    HW127716   5.505   2.041   4.386
 8939SOL    HW227717   5.647   2.086   4.452
 8940SOL     OW27718   5.424   6.910   2.761
 8940SOL    HW127719   5.425   6.965   2.845
 8940SOL    HW227720   5.475   6.959   2.689
 8941SOL     OW27721   3.811   1.794   0.064
 8941SOL    HW127722   3.886   1.858   0.080
 8941SOL    HW227723   3.848   1.706   0.034
 8942SOL     OW27724   1.406   2.251   5.792
 8942SOL    HW127725   1.462   2.173   5.821
 8942SOL    HW227726   1.360   2.228   5.706
 8943SOL     OW27727   5.149   3.845   0.701
 8943SOL    HW127728   5.051   3.828   0.704
 8943SOL    HW227729   5.176   3.899   0.781
 8944SOL     OW27730   4.189   5.695   1.355
 8944SOL    HW127731   4.212   5.759   1.428
 8944SOL    HW227732   4.255   5.704   1.280
 8945SOL     OW27733   2.257   1.299   3.929
 8945SOL    HW127734   2.316   1.369   3.970
 8945SOL    HW227735   2.162   1.329   3.934
 8946SOL     OW27736   3.756   1.073   4.722
 8946SOL    HW127737   3.730   1.113   4.810
 8946SOL    HW227738   3.855   1.062   4.718
 8947SOL     OW27739   3.779   3.408   5.313
 8947SOL    HW127740   3.812   3.355   5.235
 8947SOL    HW227741   3.788   3.506   5.292
 8948SOL     OW27742   5.435   4.648   3.284
 8948SOL    HW127743   5.532   4.668   3.299
 8948SOL    HW227744   5.393   4.723   3.234
 8949SOL     OW27745   1.627   5.584   6.002
 8949SOL    HW127746   1.623   5.656   5.932
 8949SOL    HW227747   1.536   5.544   6.014
 8950SOL     OW27748   4.711   2.817   4.432
 8950SOL    HW127749   4.724   2.767   4.517
 8950SOL    HW227750   4.787   2.880   4.418
 8951SOL     OW27751   2.969   2.013   5.637
 8951SOL    HW127752   2.888   2.008   5.578
 8951SOL    HW227753   3.018   2.098   5.618
 8952SOL     OW27754   6.327   6.833   3.251
 8952SOL    HW127755   6.339   6.929   3.228
 8952SOL    HW227756   6.241   6.821   3.300
 8953SOL     OW27757   1.281   5.126   5.540
 8953SOL    HW127758   1.280   5.075   5.626
 8953SOL    HW227759   1.365   5.105   5.490
 8954SOL     OW27760   2.479   6.275   6.067
 8954SOL    HW127761   2.577   6.292   6.072
 8954SOL    HW227762   2.435   6.308   6.151
 8955SOL     OW27763   0.302   3.823   4.290
 8955SOL    HW127764   0.253   3.775   4.362
 8955SOL    HW227765   0.376   3.765   4.256
 8956SOL     OW27766   0.765   0.698   4.695
 8956SOL    HW127767   0.860   0.673   4.677
 8956SOL    HW227768   0.710   0.680   4.613
 8957SOL     OW27769   3.343   6.003   1.904
 8957SOL    HW127770   3.259   6.023   1.852
 8957SOL    HW227771   3.350   6.067   1.980
 8958SOL     OW27772   3.198   0.585   4.759
 8958SOL    HW127773   3.140   0.523   4.812
 8958SOL    HW227774   3.141   0.645   4.704
 8959SOL     OW27775   3.626   5.439   0.094
 8959SOL    HW127776   3.666   5.482   0.175
 8959SOL    HW227777   3.674   5.469   0.012
 8960SOL     OW27778   4.372   5.826   0.732
 8960SOL    HW127779   4.384   5.891   0.807
 8960SOL    HW227780   4.372   5.874   0.645
 8961SOL     OW27781   0.839   2.996   4.047
 8961SOL    HW127782   0.852   3.082   4.097
 8961SOL    HW227783   0.741   2.974   4.045
 8962SOL     OW27784   4.938   0.474   4.000
 8962SOL    HW127785   4.944   0.435   3.908
 8962SOL    HW227786   4.843   0.495   4.021
 8963SOL     OW27787   0.871   1.195   4.294
 8963SOL    HW127788   0.958   1.240   4.273
 8963SOL    HW227789   0.840   1.143   4.215
 8964SOL     OW27790   0.405   2.817   3.215
 8964SOL    HW127791   0.341   2.881   3.173
 8964SOL    HW227792   0.394   2.727   3.174
 8965SOL     OW27793   1.993   5.027   1.222
 8965SOL    HW127794   1.982   5.065   1.130
 8965SOL    HW227795   1.944   5.083   1.288
 8966SOL     OW27796   3.880   2.008   4.828
 8966SOL    HW127797   3.890   2.066   4.908
 8966SOL    HW227798   3.904   2.059   4.746
 8967SOL     OW27799   5.338   6.575   0.532
 8967SOL    HW127800   5.264   6.518   0.567
 8967SOL    HW227801   5.390   6.523   0.463
 8968SOL     OW27802   5.620   4.163   3.663
 8968SOL    HW127803   5.563   4.222   3.720
 8968SOL    HW227804   5.595   4.174   3.567
 8969SOL     OW27805   6.795   0.101   3.989
 8969SOL    HW127806   6.766   0.080   3.895
 8969SOL    HW227807   6.894   0.088   3.996
 8970SOL     OW27808   3.087   2.825   1.237
 8970SOL    HW127809   2.992   2.796   1.246
 8970SOL    HW227810   3.101   2.911   1.287
 8971SOL     OW27811   3.455   6.383   2.718
 8971SOL    HW127812   3.405   6.434   2.787
 8971SOL    HW227813   3.553   6.403   2.726
 8972SOL     OW27814   4.881   0.280   4.750
 8972SOL    HW127815   4.787   0.256   4.727
 8972SOL    HW227816   4.919   0.211   4.813
 8973SOL     OW27817   2.065   4.706   6.428
 8973SOL    HW127818   2.093   4.800   6.446
 8973SOL    HW227819   2.016   4.703   6.341
 8974SOL     OW27820   0.231   2.714   4.089
 8974SOL    HW127821   0.151   2.665   4.056
 8974SOL    HW227822   0.313   2.659   4.074
 8975SOL     OW27823   3.580   0.704   5.872
 8975SOL    HW127824   3.679   0.712   5.857
 8975SOL    HW227825   3.541   0.794   5.887
 8976SOL     OW27826   1.480   5.640   3.958
 8976SOL    HW127827   1.573   5.625   3.992
 8976SOL    HW227828   1.482   5.649   3.858
 8977SOL     OW27829   5.592   1.614   0.012
 8977SOL    HW127830   5.625   1.706   7.012
 8977SOL    HW227831   5.508   1.596   6.980
 8978SOL     OW27832   5.731   5.383   1.304
 8978SOL    HW127833   5.644   5.415   1.267
 8978SOL    HW227834   5.721   5.290   1.338
 8979SOL     OW27835   0.945   4.718   4.900
 8979SOL    HW127836   0.846   4.730   4.899
 8979SOL    HW227837   0.970   4.645   4.836
 8980SOL     OW27838   3.240   3.154   4.176
 8980SOL    HW127839   3.279   3.064   4.153
 8980SOL    HW227840   3.164   3.173   4.114
 8981SOL     OW27841   2.785   1.963   5.425
 8981SOL    HW127842   2.715   1.892   5.421
 8981SOL    HW227843   2.807   1.993   5.332
 8982SOL     OW27844   3.602   4.805   0.511
 8982SOL    HW127845   3.625   4.715   0.474
 8982SOL    HW227846   3.686   4.858   0.525
 8983SOL     OW27847   4.736   4.488   0.795
 8983SOL    HW127848   4.795   4.492   0.715
 8983SOL    HW227849   4.641   4.496   0.767
 8984SOL     OW27850   1.550   6.713   3.441
 8984SOL    HW127851   1.598   6.659   3.511
 8984SOL    HW227852   1.616   6.761   3.385
 8985SOL     OW27853   3.258   3.126   6.136
 8985SOL    HW127854   3.165   3.162   6.144
 8985SOL    HW227855   3.278   3.067   6.213
 8986SOL     OW27856   2.505   6.097   2.093
 8986SOL    HW127857   2.580   6.102   2.027
 8986SOL    HW227858   2.539   6.059   2.179
 8987SOL     OW27859   5.115   6.807   2.416
 8987SOL    HW127860   5.165   6.732   2.459
 8987SOL    HW227861   5.078   6.868   2.487
 8988SOL     OW27862   0.903   4.461   4.551
 8988SOL    HW127863   0.960   4.478   4.632
 8988SOL    HW227864   0.815   4.507   4.564
 8989SOL     OW27865   2.279   2.025   6.770
 8989SOL    HW127866   2.324   1.987   6.688
 8989SOL    HW227867   2.293   2.124   6.773
 8990SOL     OW27868   0.188   4.731   4.258
 8990SOL    HW127869   0.249   4.659   4.225
 8990SOL    HW227870   0.238   4.817   4.265
 8991SOL     OW27871   1.378   2.384   5.399
 8991SOL    HW127872   1.455   2.440   5.428
 8991SOL    HW227873   1.411   2.305   5.347
 8992SOL     OW27874   6.003   2.158   1.594
 8992SOL    HW127875   6.071   2.098   1.637
 8992SOL    HW227876   6.015   2.155   1.495
 8993SOL     OW27877   4.419   2.257   0.733
 8993SOL    HW127878   4.469   2.343   0.717
 8993SOL    HW227879   4.423   2.201   0.651
 8994SOL     OW27880   1.489   5.598   2.440
 8994SOL    HW127881   1.391   5.589   2.461
 8994SOL    HW227882   1.542   5.540   2.502
 8995SOL     OW27883   0.571   0.209   1.636
 8995SOL    HW127884   0.532   0.120   1.612
 8995SOL    HW227885   0.508   0.259   1.695
 8996SOL     OW27886   4.104   5.963   5.604
 8996SOL    HW127887   4.072   5.981   5.697
 8996SOL    HW227888   4.077   5.871   5.576
 8997SOL     OW27889   6.266   0.274   4.906
 8997SOL    HW127890   6.323   0.192   4.918
 8997SOL    HW227891   6.268   0.329   4.989
 8998SOL     OW27892   6.973   4.364   4.956
 8998SOL    HW127893   6.914   4.285   4.972
 8998SOL    HW227894   6.916   4.446   4.947
 8999SOL     OW27895   4.159   6.087   6.522
 8999SOL    HW127896   4.200   6.009   6.474
 8999SOL    HW227897   4.061   6.089   6.505
 9000SOL     OW27898   0.749   4.174   0.939
 9000SOL    HW127899   0.793   4.088   0.916
 9000SOL    HW227900   0.689   4.161   1.017
 9001SOL     OW27901   1.626   5.694   0.865
 9001SOL    HW127902   1.598   5.610   0.911
 9001SOL    HW227903   1.724   5.691   0.848
 9002SOL     OW27904   6.977   5.462   6.045
 9002SOL    HW127905   6.886   5.499   6.027
 9002SOL    HW227906   6.982   5.369   6.008
 9003SOL     OW27907   4.963   0.028   0.578
 9003SOL    HW127908   4.972   0.014   0.479
 9003SOL    HW227909   4.968   6.961   0.625
 9004SOL     OW27910   6.103   5.193   1.461
 9004SOL    HW127911   6.117   5.095   1.446
 9004SOL    HW227912   6.065   5.207   1.553
 9005SOL     OW27913   4.825   0.878   4.880
 9005SOL    HW127914   4.896   0.948   4.888
 9005SOL    HW227915   4.863   0.797   4.834
 9006SOL     OW27916   3.699   6.273   0.526
 9006SOL    HW127917   3.736   6.284   0.433
 9006SOL    HW227918   3.603   6.301   0.526
 9007SOL     OW27919   0.490   1.045   3.249
 9007SOL    HW127920   0.452   0.967   3.200
 9007SOL    HW227921   0.426   1.121   3.246
 9008SOL     OW27922   0.014   5.189   2.545
 9008SOL    HW127923   7.016   5.190   2.643
 9008SOL    HW227924   0.109   5.162   2.530
 9009SOL     OW27925   2.828   6.526   1.959
 9009SOL    HW127926   2.732   6.511   1.934
 9009SOL    HW227927   2.842   6.622   1.982
 9010SOL     OW27928   1.467   5.738   4.464
 9010SOL    HW127929   1.496   5.650   4.426
 9010SOL    HW227930   1.367   5.743   4.463
 9011SOL     OW27931   1.862   2.107   2.241
 9011SOL    HW127932   1.921   2.187   2.250
 9011SOL    HW227933   1.806   2.116   2.158
 9012SOL     OW27934   2.451   5.791   6.716
 9012SOL    HW127935   2.510   5.828   6.787
 9012SOL    HW227936   2.359   5.830   6.726
 9013SOL     OW27937   1.941   0.637   4.575
 9013SOL    HW127938   1.957   0.553   4.625
 9013SOL    HW227939   2.015   0.651   4.509
 9014SOL     OW27940   5.154   3.237   3.556
 9014SOL    HW127941   5.242   3.241   3.510
 9014SOL    HW227942   5.080   3.236   3.489
 9015SOL     OW27943   4.516   7.020   6.033
 9015SOL    HW127944   4.465   0.052   5.965
 9015SOL    HW227945   4.602   6.988   5.992
 9016SOL     OW27946   5.044   4.474   5.849
 9016SOL    HW127947   5.007   4.558   5.809
 9016SOL    HW227948   5.084   4.494   5.938
 9017SOL     OW27949   2.878   0.430   5.164
 9017SOL    HW127950   2.824   0.353   5.197
 9017SOL    HW227951   2.890   0.496   5.238
 9018SOL     OW27952   3.892   4.683   0.622
 9018SOL    HW127953   3.992   4.677   0.625
 9018SOL    HW227954   3.858   4.637   0.540
 9019SOL     OW27955   0.591   3.198   4.228
 9019SOL    HW127956   0.690   3.211   4.241
 9019SOL    HW227957   0.558   3.129   4.293
 9020SOL     OW27958   5.701   4.696   3.294
 9020SOL    HW127959   5.764   4.735   3.227
 9020SOL    HW227960   5.742   4.613   3.333
 9021SOL     OW27961   6.927   1.483   4.277
 9021SOL    HW127962   6.893   1.524   4.362
 9021SOL    HW227963   0.005   1.470   4.283
 9022SOL     OW27964   4.775   3.543   0.032
 9022SOL    HW127965   4.723   3.511   6.973
 9022SOL    HW227966   4.871   3.516   0.022
 9023SOL     OW27967   0.027   4.858   0.786
 9023SOL    HW127968   0.085   4.782   0.814
 9023SOL    HW227969   6.953   4.839   0.811
 9024SOL     OW27970   2.195   4.719   6.152
 9024SOL    HW127971   2.118   4.775   6.123
 9024SOL    HW227972   2.280   4.770   6.138
 9025SOL     OW27973   0.761   6.207   0.980
 9025SOL    HW127974   0.753   6.214   0.880
 9025SOL    HW227975   0.701   6.135   1.013
 9026SOL     OW27976   5.885   0.986   0.324
 9026SOL    HW127977   5.954   0.935   0.376
 9026SOL    HW227978   5.916   1.080   0.311
 9027SOL     OW27979   0.175   3.727   2.922
 9027SOL    HW127980   0.215   3.638   2.901
 9027SOL    HW227981   0.178   3.785   2.840
 9028SOL     OW27982   3.349   4.762   6.769
 9028SOL    HW127983   3.331   4.700   6.846
 9028SOL    HW227984   3.262   4.793   6.731
 9029SOL     OW27985   4.335   6.353   4.676
 9029SOL    HW127986   4.294   6.379   4.764
 9029SOL    HW227987   4.419   6.405   4.662
 9030SOL     OW27988   2.888   2.216   2.287
 9030SOL    HW127989   2.977   2.210   2.331
 9030SOL    HW227990   2.891   2.284   2.214
 9031SOL     OW27991   5.059   6.981   5.097
 9031SOL    HW127992   5.001   0.042   5.092
 9031SOL    HW227993   5.129   6.993   5.167
 9032SOL     OW27994   5.334   2.648   1.001
 9032SOL    HW127995   5.284   2.681   1.082
 9032SOL    HW227996   5.361   2.553   1.016
 9033SOL     OW27997   1.466   6.398   2.718
 9033SOL    HW127998   1.485   6.457   2.640
 9033SOL    HW227999   1.550   6.381   2.769
 9034SOL     OW28000   4.545   6.515   4.576
 9034SOL    HW128001   4.568   6.573   4.654
 9034SOL    HW228002   4.537   6.572   4.493
 9035SOL     OW28003   3.174   5.168   5.999
 9035SOL    HW128004   3.152   5.120   5.914
 9035SOL    HW228005   3.272   5.189   6.002
 9036SOL     OW28006   0.670   4.959   5.504
 9036SOL    HW128007   0.757   5.009   5.504
 9036SOL    HW228008   0.595   5.023   5.519
 9037SOL     OW28009   0.111   0.610   2.165
 9037SOL    HW128010   0.081   0.522   2.201
 9037SOL    HW228011   0.158   0.595   2.078
 9038SOL     OW28012   3.936   3.281   5.780
 9038SOL    HW128013   3.919   3.377   5.801
 9038SOL    HW228014   3.970   3.274   5.686
 9039SOL     OW28015   4.167   6.383   6.831
 9039SOL    HW128016   4.225   6.429   6.764
 9039SOL    HW228017   4.141   6.293   6.797
 9040SOL     OW28018   2.067   2.139   1.642
 9040SOL    HW128019   2.041   2.084   1.722
 9040SOL    HW228020   2.150   2.101   1.601
 9041SOL     OW28021   6.108   2.415   2.622
 9041SOL    HW128022   6.188   2.402   2.562
 9041SOL    HW228023   6.125   2.371   2.710
 9042SOL     OW28024   5.314   5.778   6.554
 9042SOL    HW128025   5.364   5.712   6.610
 9042SOL    HW228026   5.238   5.815   6.607
 9043SOL     OW28027   2.817   2.897   1.714
 9043SOL    HW128028   2.741   2.961   1.703
 9043SOL    HW228029   2.807   2.821   1.650
 9044SOL     OW28030   1.433   0.412   0.051
 9044SOL    HW128031   1.356   0.376   7.019
 9044SOL    HW228032   1.480   0.482   7.017
 9045SOL     OW28033   3.707   0.660   3.610
 9045SOL    HW128034   3.640   0.618   3.671
 9045SOL    HW228035   3.678   0.753   3.588
 9046SOL     OW28036   3.933   3.506   2.267
 9046SOL    HW128037   3.940   3.418   2.220
 9046SOL    HW228038   3.888   3.573   2.208
 9047SOL     OW28039   0.490   4.502   5.812
 9047SOL    HW128040   0.568   4.547   5.855
 9047SOL    HW228041   0.440   4.449   5.881
 9048SOL     OW28042   6.891   1.772   5.177
 9048SOL    HW128043   6.816   1.838   5.184
 9048SOL    HW228044   6.909   1.753   5.080
 9049SOL     OW28045   1.826   6.761   5.433
 9049SOL    HW128046   1.887   6.744   5.356
 9049SOL    HW228047   1.827   6.859   5.455
 9050SOL     OW28048   1.348   4.384   0.469
 9050SOL    HW128049   1.289   4.305   0.488
 9050SOL    HW228050   1.322   4.424   0.381
 9051SOL     OW28051   2.046   0.889   1.649
 9051SOL    HW128052   2.041   0.989   1.653
 9051SOL    HW228053   1.987   0.850   1.719
 9052SOL     OW28054   2.028   3.437   6.236
 9052SOL    HW128055   2.118   3.435   6.192
 9052SOL    HW228056   2.040   3.451   6.334
 9053SOL     OW28057   0.372   1.262   6.884
 9053SOL    HW128058   0.454   1.286   6.833
 9053SOL    HW228059   0.376   1.302   6.975
 9054SOL     OW28060   1.561   5.439   2.786
 9054SOL    HW128061   1.620   5.428   2.866
 9054SOL    HW228062   1.496   5.363   2.782
 9055SOL     OW28063   0.761   2.527   6.063
 9055SOL    HW128064   0.831   2.492   6.001
 9055SOL    HW228065   0.696   2.455   6.086
 9056SOL     OW28066   5.565   1.492   4.159
 9056SOL    HW128067   5.517   1.411   4.126
 9056SOL    HW228068   5.637   1.517   4.095
 9057SOL     OW28069   5.070   1.484   3.460
 9057SOL    HW128070   4.973   1.466   3.444
 9057SOL    HW228071   5.125   1.421   3.406
 9058SOL     OW28072   2.372   0.043   5.982
 9058SOL    HW128073   2.401   0.105   6.054
 9058SOL    HW228074   2.272   0.040   5.979
 9059SOL     OW28075   1.279   2.056   3.860
 9059SOL    HW128076   1.253   2.149   3.834
 9059SOL    HW228077   1.197   2.004   3.883
 9060SOL     OW28078   5.186   2.493   4.978
 9060SOL    HW128079   5.127   2.556   4.928
 9060SOL    HW228080   5.231   2.540   5.053
 9061SOL     OW28081   1.843   4.801   3.499
 9061SOL    HW128082   1.844   4.897   3.471
 9061SOL    HW228083   1.910   4.750   3.445
 9062SOL     OW28084   1.690   5.880   1.555
 9062SOL    HW128085   1.681   5.785   1.582
 9062SOL    HW228086   1.608   5.931   1.583
 9063SOL     OW28087   3.028   1.594   2.442
 9063SOL    HW128088   3.102   1.657   2.465
 9063SOL    HW228089   3.041   1.561   2.348
 9064SOL     OW28090   4.822   4.243   6.881
 9064SOL    HW128091   4.911   4.201   6.899
 9064SOL    HW228092   4.764   4.234   6.962
 9065SOL     OW28093   2.663   0.971   1.563
 9065SOL    HW128094   2.641   0.876   1.541
 9065SOL    HW228095   2.648   0.987   1.661
 9066SOL     OW28096   4.998   0.033   7.016
 9066SOL    HW128097   5.079   0.091   7.005
 9066SOL    HW228098   5.015   6.963   6.976
 9067SOL     OW28099   1.196   0.393   1.539
 9067SOL    HW128100   1.187   0.335   1.620
 9067SOL    HW228101   1.261   0.467   1.558
 9068SOL     OW28102   1.211   6.374   6.288
 9068SOL    HW128103   1.121   6.334   6.308
 9068SOL    HW228104   1.283   6.312   6.321
 9069SOL     OW28105   1.288   2.358   6.022
 9069SOL    HW128106   1.317   2.334   5.929
 9069SOL    HW228107   1.284   2.275   6.077
 9070SOL     OW28108   1.439   4.608   4.059
 9070SOL    HW128109   1.449   4.688   4.000
 9070SOL    HW228110   1.522   4.596   4.113
 9071SOL     OW28111   5.035   5.350   6.948
 9071SOL    HW128112   5.032   5.266   7.003
 9071SOL    HW228113   4.945   5.391   6.945
 9072SOL     OW28114   5.077   4.395   0.406
 9072SOL    HW128115   5.007   4.405   0.477
 9072SOL    HW228116   5.134   4.477   0.404
 9073SOL     OW28117   2.194   0.289   1.266
 9073SOL    HW128118   2.243   0.282   1.178
 9073SOL    HW228119   2.254   0.259   1.340
 9074SOL     OW28120   0.410   0.373   1.752
 9074SOL    HW128121   0.428   0.470   1.766
 9074SOL    HW228122   0.323   0.349   1.795
 9075SOL     OW28123   0.042   0.305   1.412
 9075SOL    HW128124   0.038   0.245   1.332
 9075SOL    HW228125   0.013   0.397   1.385
 9076SOL     OW28126   1.199   2.288   5.575
 9076SOL    HW128127   1.106   2.280   5.538
 9076SOL    HW228128   1.262   2.311   5.500
 9077SOL     OW28129   5.736   6.372   2.476
 9077SOL    HW128130   5.728   6.272   2.484
 9077SOL    HW228131   5.705   6.400   2.385
 9078SOL     OW28132   4.741   3.333   5.474
 9078SOL    HW128133   4.817   3.399   5.470
 9078SOL    HW228134   4.727   3.304   5.568
 9079SOL     OW28135   2.632   6.873   5.393
 9079SOL    HW128136   2.561   6.928   5.349
 9079SOL    HW228137   2.680   6.929   5.461
 9080SOL     OW28138   4.452   0.876   0.187
 9080SOL    HW128139   4.508   0.890   0.269
 9080SOL    HW228140   4.374   0.938   0.189
 9081SOL     OW28141   5.453   6.993   3.355
 9081SOL    HW128142   5.397   6.915   3.383
 9081SOL    HW228143   5.442   0.047   3.421
 9082SOL     OW28144   2.254   0.707   2.161
 9082SOL    HW128145   2.213   0.701   2.071
 9082SOL    HW228146   2.241   0.621   2.210
 9083SOL     OW28147   4.436   5.238   3.624
 9083SOL    HW128148   4.370   5.221   3.698
 9083SOL    HW228149   4.390   5.284   3.548
 9084SOL     OW28150   3.616   3.762   2.454
 9084SOL    HW128151   3.681   3.836   2.469
 9084SOL    HW228152   3.651   3.677   2.495
 9085SOL     OW28153   1.111   2.075   0.834
 9085SOL    HW128154   1.192   2.122   0.799
 9085SOL    HW228155   1.057   2.039   0.757
 9086SOL     OW28156   6.750   3.766   6.917
 9086SOL    HW128157   6.662   3.726   6.943
 9086SOL    HW228158   6.758   3.768   6.817
 9087SOL     OW28159   5.182   3.358   2.100
 9087SOL    HW128160   5.092   3.383   2.064
 9087SOL    HW228161   5.219   3.434   2.153
 9088SOL     OW28162   5.769   4.808   2.085
 9088SOL    HW128163   5.729   4.771   2.168
 9088SOL    HW228164   5.744   4.904   2.075
 9089SOL     OW28165   3.997   1.037   5.774
 9089SOL    HW128166   4.077   0.986   5.806
 9089SOL    HW228167   3.983   1.117   5.833
 9090SOL     OW28168   6.333   1.939   3.523
 9090SOL    HW128169   6.414   1.912   3.574
 9090SOL    HW228170   6.284   1.858   3.492
 9091SOL     OW28171   4.186   2.936   5.567
 9091SOL    HW128172   4.089   2.937   5.594
 9091SOL    HW228173   4.241   2.978   5.639
 9092SOL     OW28174   6.737   3.643   6.358
 9092SOL    HW128175   6.781   3.709   6.297
 9092SOL    HW228176   6.641   3.634   6.333
 9093SOL     OW28177   2.504   6.059   4.863
 9093SOL    HW128178   2.513   6.098   4.955
 9093SOL    HW228179   2.410   6.029   4.848
 9094SOL     OW28180   1.947   3.725   0.660
 9094SOL    HW128181   1.991   3.794   0.717
 9094SOL    HW228182   1.963   3.747   0.564
 9095SOL     OW28183   0.505   0.182   6.126
 9095SOL    HW128184   0.582   0.190   6.188
 9095SOL    HW228185   0.536   0.192   6.032
 9096SOL     OW28186   6.482   5.307   3.719
 9096SOL    HW128187   6.487   5.261   3.630
 9096SOL    HW228188   6.563   5.285   3.773
 9097SOL     OW28189   1.092   3.928   6.941
 9097SOL    HW128190   1.059   3.836   6.959
 9097SOL    HW228191   1.175   3.924   6.885
 9098SOL     OW28192   1.822   5.117   3.850
 9098SOL    HW128193   1.799   5.093   3.944
 9098SOL    HW228194   1.742   5.157   3.805
 9099SOL     OW28195   2.407   1.561   6.253
 9099SOL    HW128196   2.465   1.625   6.303
 9099SOL    HW228197   2.339   1.521   6.316
 9100SOL     OW28198   1.796   4.852   4.359
 9100SOL    HW128199   1.698   4.840   4.338
 9100SOL    HW228200   1.813   4.948   4.382
 9101SOL     OW28201   6.959   2.026   1.104
 9101SOL    HW128202   6.934   2.077   1.186
 9101SOL    HW228203   7.016   2.083   1.045
 9102SOL     OW28204   3.666   0.908   3.101
 9102SOL    HW128205   3.751   0.913   3.049
 9102SOL    HW228206   3.616   0.825   3.075
 9103SOL     OW28207   6.443   0.197   1.379
 9103SOL    HW128208   6.432   0.199   1.478
 9103SOL    HW228209   6.360   0.162   1.336
 9104SOL     OW28210   5.635   2.353   5.964
 9104SOL    HW128211   5.558   2.414   5.949
 9104SOL    HW228212   5.649   2.296   5.883
 9105SOL     OW28213   2.808   0.809   7.015
 9105SOL    HW128214   2.851   0.896   0.020
 9105SOL    HW228215   2.788   0.756   0.077
 9106SOL     OW28216   2.403   3.035   6.277
 9106SOL    HW128217   2.316   3.005   6.239
 9106SOL    HW228218   2.478   2.995   6.224
 9107SOL     OW28219   3.657   0.850   1.155
 9107SOL    HW128220   3.687   0.820   1.245
 9107SOL    HW228221   3.735   0.888   1.104
 9108SOL     OW28222   6.356   6.269   5.480
 9108SOL    HW128223   6.382   6.324   5.559
 9108SOL    HW228224   6.311   6.185   5.512
 9109SOL     OW28225   5.498   4.427   3.477
 9109SOL    HW128226   5.455   4.494   3.417
 9109SOL    HW228227   5.598   4.440   3.476
 9110SOL     OW28228   1.468   6.914   2.456
 9110SOL    HW128229   1.493   6.995   2.403
 9110SOL    HW228230   1.405   6.857   2.404
 9111SOL     OW28231   4.322   2.918   5.329
 9111SOL    HW128232   4.405   2.926   5.384
 9111SOL    HW228233   4.242   2.925   5.389
 9112SOL     OW28234   0.594   4.569   1.707
 9112SOL    HW128235   0.579   4.508   1.785
 9112SOL    HW228236   0.509   4.616   1.685
 9113SOL     OW28237   5.607   0.027   4.213
 9113SOL    HW128238   5.697   7.007   4.197
 9113SOL    HW228239   5.554   6.987   4.273
 9114SOL     OW28240   0.479   1.538   6.218
 9114SOL    HW128241   0.414   1.587   6.276
 9114SOL    HW228242   0.563   1.591   6.210
 9115SOL     OW28243   5.346   3.787   4.438
 9115SOL    HW128244   5.298   3.733   4.369
 9115SOL    HW228245   5.375   3.727   4.513
 9116SOL     OW28246   0.507   5.147   3.749
 9116SOL    HW128247   0.505   5.156   3.849
 9116SOL    HW228248   0.455   5.066   3.721
 9117SOL     OW28249   1.948   6.909   0.117
 9117SOL    HW128250   1.977   6.836   0.178
 9117SOL    HW228251   2.024   6.934   0.056
 9118SOL     OW28252   6.813   5.173   1.353
 9118SOL    HW128253   6.848   5.248   1.297
 9118SOL    HW228254   6.716   5.159   1.332
 9119SOL     OW28255   3.515   1.246   1.064
 9119SOL    HW128256   3.439   1.309   1.078
 9119SOL    HW228257   3.556   1.262   0.974
 9120SOL     OW28258   6.204   4.291   4.994
 9120SOL    HW128259   6.171   4.295   4.899
 9120SOL    HW228260   6.304   4.289   4.994
 9121SOL     OW28261   4.355   1.190   4.526
 9121SOL    HW128262   4.334   1.239   4.442
 9121SOL    HW228263   4.271   1.181   4.580
 9122SOL     OW28264   0.070   1.586   2.019
 9122SOL    HW128265   0.042   1.638   1.938
 9122SOL    HW228266   7.011   1.541   2.059
 9123SOL     OW28267   0.492   6.444   4.778
 9123SOL    HW128268   0.587   6.461   4.802
 9123SOL    HW228269   0.465   6.353   4.808
 9124SOL     OW28270   3.431   5.772   0.350
 9124SOL    HW128271   3.429   5.784   0.251
 9124SOL    HW228272   3.449   5.676   0.372
 9125SOL     OW28273   4.988   6.540   1.725
 9125SOL    HW128274   5.000   6.443   1.749
 9125SOL    HW228275   4.947   6.588   1.803
 9126SOL     OW28276   3.819   5.138   0.507
 9126SOL    HW128277   3.768   5.082   0.572
 9126SOL    HW228278   3.773   5.227   0.496
 9127SOL     OW28279   6.476   4.626   5.525
 9127SOL    HW128280   6.440   4.581   5.606
 9127SOL    HW228281   6.557   4.578   5.492
 9128SOL     OW28282   5.329   3.635   6.964
 9128SOL    HW128283   5.314   3.567   6.892
 9128SOL    HW228284   5.273   3.612   0.023
 9129SOL     OW28285   0.498   2.977   1.337
 9129SOL    HW128286   0.455   2.992   1.248
 9129SOL    HW228287   0.440   2.918   1.393
 9130SOL     OW28288   2.654   3.348   6.188
 9130SOL    HW128289   2.609   3.437   6.180
 9130SOL    HW228290   2.675   3.312   6.098
 9131SOL     OW28291   6.353   3.201   0.698
 9131SOL    HW128292   6.395   3.111   0.706
 9131SOL    HW228293   6.259   3.191   0.664
 9132SOL     OW28294   0.952   3.932   3.572
 9132SOL    HW128295   0.935   3.937   3.474
 9132SOL    HW228296   1.029   3.871   3.589
 9133SOL     OW28297   5.136   0.229   0.605
 9133SOL    HW128298   5.177   0.240   0.514
 9133SOL    HW228299   5.077   0.148   0.605
 9134SOL     OW28300   4.935   4.407   6.684
 9134SOL    HW128301   5.035   4.400   6.690
 9134SOL    HW228302   4.894   4.338   6.744
 9135SOL     OW28303   6.756   5.477   2.632
 9135SOL    HW128304   6.799   5.453   2.545
 9135SOL    HW228305   6.796   5.561   2.667
 9136SOL     OW28306   0.779   5.414   6.722
 9136SOL    HW128307   0.803   5.343   6.789
 9136SOL    HW228308   0.816   5.502   6.752
 9137SOL     OW28309   5.509   5.323   5.881
 9137SOL    HW128310   5.476   5.228   5.889
 9137SOL    HW228311   5.597   5.324   5.834
 9138SOL     OW28312   1.561   4.266   6.386
 9138SOL    HW128313   1.572   4.175   6.427
 9138SOL    HW228314   1.644   4.319   6.402
 9139SOL     OW28315   0.307   6.679   1.081
 9139SOL    HW128316   0.354   6.637   1.158
 9139SOL    HW228317   0.214   6.642   1.075
 9140SOL     OW28318   0.761   4.162   2.980
 9140SOL    HW128319   0.798   4.086   3.034
 9140SOL    HW228320   0.675   4.192   3.020
 9141SOL     OW28321   0.398   6.100   4.346
 9141SOL    HW128322   0.342   6.175   4.309
 9141SOL    HW228323   0.399   6.107   4.446
 9142SOL     OW28324   1.166   5.181   3.608
 9142SOL    HW128325   1.098   5.252   3.596
 9142SOL    HW228326   1.210   5.191   3.697
 9143SOL     OW28327   5.528   3.394   2.266
 9143SOL    HW128328   5.432   3.422   2.270
 9143SOL    HW228329   5.559   3.397   2.171
 9144SOL     OW28330   2.569   4.582   5.170
 9144SOL    HW128331   2.618   4.534   5.242
 9144SOL    HW228332   2.630   4.596   5.092
 9145SOL     OW28333   3.073   6.150   6.282
 9145SOL    HW128334   3.085   6.137   6.381
 9145SOL    HW228335   3.120   6.077   6.233
 9146SOL     OW28336   5.533   1.774   4.522
 9146SOL    HW128337   5.585   1.856   4.499
 9146SOL    HW228338   5.435   1.796   4.525
 9147SOL     OW28339   4.426   0.544   6.206
 9147SOL    HW128340   4.421   0.444   6.204
 9147SOL    HW228341   4.412   0.576   6.300
 9148SOL     OW28342   3.710   5.682   2.266
 9148SOL    HW128343   3.610   5.681   2.269
 9148SOL    HW228344   3.741   5.643   2.180
 9149SOL     OW28345   1.186   4.105   1.651
 9149SOL    HW128346   1.150   4.198   1.654
 9149SOL    HW228347   1.286   4.107   1.658
 9150SOL     OW28348   3.946   3.641   6.839
 9150SOL    HW128349   3.900   3.621   6.752
 9150SOL    HW228350   3.910   3.581   6.910
 9151SOL     OW28351   2.168   3.588   4.155
 9151SOL    HW128352   2.160   3.682   4.188
 9151SOL    HW228353   2.160   3.587   4.055
 9152SOL     OW28354   2.067   5.173   1.805
 9152SOL    HW128355   2.011   5.247   1.843
 9152SOL    HW228356   2.013   5.121   1.739
 9153SOL     OW28357   0.856   4.147   0.237
 9153SOL    HW128358   0.818   4.187   0.320
 9153SOL    HW228359   0.822   4.054   0.226
 9154SOL     OW28360   4.451   5.480   2.939
 9154SOL    HW128361   4.387   5.411   2.906
 9154SOL    HW228362   4.514   5.505   2.866
 9155SOL     OW28363   0.958   6.274   2.533
 9155SOL    HW128364   0.980   6.351   2.593
 9155SOL    HW228365   0.863   6.248   2.545
 9156SOL     OW28366   6.680   4.331   5.700
 9156SOL    HW128367   6.662   4.390   5.779
 9156SOL    HW228368   6.684   4.387   5.617
 9157SOL     OW28369   1.874   4.590   5.146
 9157SOL    HW128370   1.867   4.529   5.067
 9157SOL    HW228371   1.883   4.536   5.230
 9158SOL     OW28372   6.858   2.288   3.785
 9158SOL    HW128373   6.770   2.302   3.832
 9158SOL    HW228374   6.870   2.191   3.764
 9159SOL     OW28375   2.217   0.690   3.521
 9159SOL    HW128376   2.249   0.779   3.488
 9159SOL    HW228377   2.251   0.675   3.614
 9160SOL     OW28378   0.698   3.420   6.530
 9160SOL    HW128379   0.788   3.377   6.541
 9160SOL    HW228380   0.672   3.464   6.616
 9161SOL     OW28381   5.805   3.252   2.470
 9161SOL    HW128382   5.825   3.193   2.391
 9161SOL    HW228383   5.709   3.282   2.465
 9162SOL     OW28384   5.170   1.861   2.157
 9162SOL    HW128385   5.123   1.912   2.229
 9162SOL    HW228386   5.103   1.808   2.105
 9163SOL     OW28387   2.146   3.443   3.000
 9163SOL    HW128388   2.100   3.482   2.920
 9163SOL    HW228389   2.146   3.510   3.074
 9164SOL     OW28390   3.521   0.538   0.783
 9164SOL    HW128391   3.519   0.469   0.856
 9164SOL    HW228392   3.611   0.580   0.779
 9165SOL     OW28393   6.123   0.697   6.338
 9165SOL    HW128394   6.082   0.614   6.301
 9165SOL    HW228395   6.159   0.679   6.429
 9166SOL     OW28396   4.255   5.914   1.483
 9166SOL    HW128397   4.292   5.930   1.575
 9166SOL    HW228398   4.193   5.988   1.459
 9167SOL     OW28399   1.156   2.738   4.826
 9167SOL    HW128400   1.106   2.784   4.899
 9167SOL    HW228401   1.121   2.645   4.815
 9168SOL     OW28402   6.021   5.926   4.436
 9168SOL    HW128403   6.065   5.900   4.522
 9168SOL    HW228404   6.037   6.023   4.418
 9169SOL     OW28405   5.983   5.956   0.463
 9169SOL    HW128406   6.061   5.958   0.525
 9169SOL    HW228407   6.013   5.974   0.370
 9170SOL     OW28408   1.375   0.193   5.381
 9170SOL    HW128409   1.447   0.128   5.358
 9170SOL    HW228410   1.408   0.256   5.451
 9171SOL     OW28411   4.744   5.781   0.115
 9171SOL    HW128412   4.761   5.746   0.023
 9171SOL    HW228413   4.655   5.748   0.148
 9172SOL     OW28414   5.238   0.832   5.995
 9172SOL    HW128415   5.192   0.746   5.977
 9172SOL    HW228416   5.189   0.882   6.067
 9173SOL     OW28417   5.911   4.319   6.066
 9173SOL    HW128418   5.956   4.409   6.074
 9173SOL    HW228419   5.980   4.247   6.073
 9174SOL     OW28420   6.148   5.106   6.886
 9174SOL    HW128421   6.219   5.111   6.815
 9174SOL    HW228422   6.183   5.056   6.965
 9175SOL     OW28423   2.151   1.078   1.281
 9175SOL    HW128424   2.132   1.010   1.210
 9175SOL    HW228425   2.234   1.052   1.330
 9176SOL     OW28426   1.595   0.083   2.271
 9176SOL    HW128427   1.635   0.037   2.191
 9176SOL    HW228428   1.541   0.161   2.241
 9177SOL     OW28429   0.446   5.686   3.436
 9177SOL    HW128430   0.414   5.671   3.530
 9177SOL    HW228431   0.410   5.614   3.377
 9178SOL     OW28432   0.756   3.475   1.111
 9178SOL    HW128433   0.721   3.403   1.053
 9178SOL    HW228434   0.764   3.560   1.059
 9179SOL     OW28435   3.855   5.485   2.672
 9179SOL    HW128436   3.888   5.568   2.719
 9179SOL    HW228437   3.785   5.511   2.605
 9180SOL     OW28438   0.267   0.972   5.260
 9180SOL    HW128439   0.215   0.973   5.174
 9180SOL    HW228440   0.286   0.877   5.286
 9181SOL     OW28441   3.100   2.218   3.173
 9181SOL    HW128442   3.177   2.262   3.218
 9181SOL    HW228443   3.129   2.183   3.084
 9182SOL     OW28444   6.799   1.517   3.088
 9182SOL    HW128445   6.716   1.468   3.112
 9182SOL    HW228446   6.857   1.527   3.169
 9183SOL     OW28447   3.230   1.904   5.570
 9183SOL    HW128448   3.315   1.887   5.620
 9183SOL    HW228449   3.196   1.995   5.592
 9184SOL     OW28450   2.933   5.698   1.096
 9184SOL    HW128451   2.843   5.655   1.099
 9184SOL    HW228452   2.941   5.754   1.013
 9185SOL     OW28453   0.503   1.037   5.465
 9185SOL    HW128454   0.546   1.013   5.378
 9185SOL    HW228455   0.459   1.127   5.457
 9186SOL     OW28456   5.365   6.637   5.928
 9186SOL    HW128457   5.273   6.598   5.918
 9186SOL    HW228458   5.393   6.675   5.840
 9187SOL     OW28459   5.101   3.555   1.179
 9187SOL    HW128460   5.062   3.500   1.252
 9187SOL    HW228461   5.157   3.497   1.119
 9188SOL     OW28462   1.128   1.164   2.833
 9188SOL    HW128463   1.060   1.124   2.772
 9188SOL    HW228464   1.219   1.146   2.797
 9189SOL     OW28465   2.837   0.584   6.806
 9189SOL    HW128466   2.852   0.645   6.884
 9189SOL    HW228467   2.827   0.638   6.723
 9190SOL     OW28468   3.844   0.803   5.812
 9190SOL    HW128469   3.877   0.894   5.790
 9190SOL    HW228470   3.922   0.739   5.814
 9191SOL     OW28471   5.206   0.160   1.609
 9191SOL    HW128472   5.203   0.259   1.597
 9191SOL    HW228473   5.139   0.117   1.549
 9192SOL     OW28474   4.536   4.914   4.148
 9192SOL    HW128475   4.596   4.985   4.184
 9192SOL    HW228476   4.498   4.862   4.224
 9193SOL     OW28477   4.071   3.151   2.482
 9193SOL    HW128478   4.025   3.137   2.394
 9193SOL    HW228479   4.166   3.122   2.475
 9194SOL     OW28480   3.073   5.188   3.524
 9194SOL    HW128481   3.039   5.094   3.523
 9194SOL    HW228482   2.996   5.252   3.533
 9195SOL     OW28483   0.125   3.022   3.826
 9195SOL    HW128484   0.103   3.108   3.780
 9195SOL    HW228485   0.170   3.043   3.913
 9196SOL     OW28486   5.448   5.451   3.539
 9196SOL    HW128487   5.348   5.451   3.536
 9196SOL    HW228488   5.483   5.390   3.467
 9197SOL     OW28489   4.440   2.130   6.952
 9197SOL    HW128490   4.504   2.078   7.008
 9197SOL    HW228491   4.347   2.096   6.968
 9198SOL     OW28492   6.292   2.718   4.970
 9198SOL    HW128493   6.271   2.726   4.872
 9198SOL    HW228494   6.375   2.664   4.982
 9199SOL     OW28495   1.006   3.673   6.957
 9199SOL    HW128496   0.909   3.651   6.962
 9199SOL    HW228497   1.046   3.631   6.876
 9200SOL     OW28498   4.442   5.866   1.972
 9200SOL    HW128499   4.499   5.841   1.894
 9200SOL    HW228500   4.464   5.959   2.001
 9201SOL     OW28501   6.823   2.822   2.322
 9201SOL    HW128502   6.794   2.871   2.405
 9201SOL    HW228503   6.862   2.734   2.347
 9202SOL     OW28504   1.715   5.874   3.427
 9202SOL    HW128505   1.769   5.917   3.354
 9202SOL    HW228506   1.630   5.838   3.388
 9203SOL     OW28507   5.004   2.243   0.914
 9203SOL    HW128508   4.976   2.175   0.982
 9203SOL    HW228509   5.011   2.333   0.957
 9204SOL     OW28510   4.648   4.694   1.872
 9204SOL    HW128511   4.564   4.738   1.839
 9204SOL    HW228512   4.626   4.633   1.948
 9205SOL     OW28513   4.325   2.325   0.993
 9205SOL    HW128514   4.347   2.309   0.897
 9205SOL    HW228515   4.227   2.343   1.003
 9206SOL     OW28516   6.966   0.183   5.148
 9206SOL    HW128517   6.994   0.135   5.065
 9206SOL    HW228518   6.897   0.129   5.196
 9207SOL     OW28519   5.823   6.620   0.451
 9207SOL    HW128520   5.861   6.621   0.543
 9207SOL    HW228521   5.791   6.528   0.429
 9208SOL     OW28522   5.778   4.698   1.522
 9208SOL    HW128523   5.765   4.627   1.591
 9208SOL    HW228524   5.850   4.761   1.551
 9209SOL     OW28525   5.340   0.454   4.614
 9209SOL    HW128526   5.364   0.364   4.579
 9209SOL    HW228527   5.241   0.461   4.624
 9210SOL     OW28528   1.430   6.509   0.351
 9210SOL    HW128529   1.360   6.463   0.296
 9210SOL    HW228530   1.397   6.520   0.445
 9211SOL     OW28531   5.476   1.266   6.340
 9211SOL    HW128532   5.437   1.226   6.257
 9211SOL    HW228533   5.439   1.357   6.354
 9212SOL     OW28534   6.328   3.683   6.440
 9212SOL    HW128535   6.312   3.589   6.472
 9212SOL    HW228536   6.244   3.736   6.448
 9213SOL     OW28537   0.101   5.312   3.185
 9213SOL    HW128538   0.021   5.318   3.125
 9213SOL    HW228539   0.176   5.366   3.145
 9214SOL     OW28540   1.832   0.983   5.927
 9214SOL    HW128541   1.747   0.991   5.980
 9214SOL    HW228542   1.896   1.054   5.956
 9215SOL     OW28543   6.572   3.841   3.957
 9215SOL    HW128544   6.497   3.895   3.995
 9215SOL    HW228545   6.653   3.898   3.945
 9216SOL     OW28546   1.986   6.647   3.758
 9216SOL    HW128547   2.040   6.701   3.822
 9216SOL    HW228548   2.040   6.569   3.726
 9217SOL     OW28549   3.164   2.525   0.297
 9217SOL    HW128550   3.071   2.557   0.313
 9217SOL    HW228551   3.202   2.572   0.217
 9218SOL     OW28552   4.654   5.923   5.712
 9218SOL    HW128553   4.593   5.963   5.781
 9218SOL    HW228554   4.747   5.957   5.725
 9219SOL     OW28555   4.085   3.110   6.398
 9219SOL    HW128556   3.985   3.107   6.392
 9219SOL    HW228557   4.112   3.178   6.466
 9220SOL     OW28558   0.871   6.810   3.673
 9220SOL    HW128559   0.839   6.810   3.578
 9220SOL    HW228560   0.955   6.864   3.681
 9221SOL     OW28561   2.610   1.564   1.984
 9221SOL    HW128562   2.607   1.648   2.039
 9221SOL    HW228563   2.629   1.486   2.042
 9222SOL     OW28564   2.064   6.077   3.471
 9222SOL    HW128565   2.097   5.996   3.521
 9222SOL    HW228566   2.063   6.057   3.373
 9223SOL     OW28567   6.057   2.238   4.733
 9223SOL    HW128568   6.001   2.318   4.755
 9223SOL    HW228569   6.121   2.221   4.807
 9224SOL     OW28570   1.704   5.664   2.786
 9224SOL    HW128571   1.749   5.651   2.875
 9224SOL    HW228572   1.644   5.587   2.767
 9225SOL     OW28573   0.368   5.796   5.466
 9225SOL    HW128574   0.455   5.815   5.510
 9225SOL    HW228575   0.374   5.818   5.368
 9226SOL     OW28576   0.848   6.764   4.861
 9226SOL    HW128577   0.855   6.787   4.958
 9226SOL    HW228578   0.939   6.749   4.824
 9227SOL     OW28579   4.166   3.107   0.738
 9227SOL    HW128580   4.248   3.114   0.681
 9227SOL    HW228581   4.173   3.025   0.796
 9228SOL     OW28582   3.833   3.378   4.306
 9228SOL    HW128583   3.931   3.382   4.329
 9228SOL    HW228584   3.815   3.437   4.228
 9229SOL     OW28585   0.290   5.944   1.142
 9229SOL    HW128586   0.299   5.957   1.043
 9229SOL    HW228587   0.304   5.847   1.163
 9230SOL     OW28588   3.590   0.013   6.265
 9230SOL    HW128589   3.519   6.974   6.302
 9230SOL    HW228590   3.568   0.109   6.286
 9231SOL     OW28591   6.117   6.689   1.715
 9231SOL    HW128592   6.025   6.718   1.742
 9231SOL    HW228593   6.185   6.737   1.772
 9232SOL     OW28594   0.987   5.077   1.773
 9232SOL    HW128595   1.057   5.146   1.787
 9232SOL    HW228596   0.959   5.076   1.677
 9233SOL     OW28597   1.324   0.054   6.163
 9233SOL    HW128598   1.401   0.083   6.220
 9233SOL    HW228599   1.355   7.007   6.096
 9234SOL     OW28600   3.397   3.816   6.596
 9234SOL    HW128601   3.357   3.892   6.543
 9234SOL    HW228602   3.332   3.787   6.666
 9235SOL     OW28603   1.971   2.336   3.074
 9235SOL    HW128604   2.013   2.293   2.994
 9235SOL    HW228605   1.928   2.267   3.131
 9236SOL     OW28606   1.804   4.370   6.507
 9236SOL    HW128607   1.757   4.386   6.594
 9236SOL    HW228608   1.900   4.399   6.515
 9237SOL     OW28609   6.962   5.308   3.889
 9237SOL    HW128610   7.003   5.282   3.977
 9237SOL    HW228611   7.010   5.387   3.851
 9238SOL     OW28612   1.885   2.552   5.314
 9238SOL    HW128613   1.938   2.550   5.399
 9238SOL    HW228614   1.877   2.647   5.283
 9239SOL     OW28615   1.815   6.064   6.172
 9239SOL    HW128616   1.894   6.092   6.226
 9239SOL    HW228617   1.735   6.057   6.230
 9240SOL     OW28618   4.081   1.249   4.638
 9240SOL    HW128619   4.116   1.268   4.730
 9240SOL    HW228620   4.060   1.335   4.592
 9241SOL     OW28621   5.577   6.299   0.547
 9241SOL    HW128622   5.643   6.227   0.527
 9241SOL    HW228623   5.573   6.314   0.646
 9242SOL     OW28624   2.698   2.146   6.749
 9242SOL    HW128625   2.650   2.207   6.686
 9242SOL    HW228626   2.635   2.114   6.819
 9243SOL     OW28627   1.969   0.111   0.377
 9243SOL    HW128628   2.002   0.062   0.297
 9243SOL    HW228629   1.869   0.119   0.373
 9244SOL     OW28630   2.916   6.345   6.942
 9244SOL    HW128631   2.969   6.373   6.861
 9244SOL    HW228632   2.864   6.423   6.976
 9245SOL     OW28633   0.824   3.862   2.806
 9245SOL    HW128634   0.817   3.820   2.716
 9245SOL    HW228635   0.733   3.863   2.849
 9246SOL     OW28636   4.915   0.764   6.562
 9246SOL    HW128637   4.884   0.740   6.654
 9246SOL    HW228638   4.848   0.825   6.520
 9247SOL     OW28639   2.791   6.315   2.751
 9247SOL    HW128640   2.847   6.283   2.675
 9247SOL    HW228641   2.720   6.247   2.770
 9248SOL     OW28642   2.923   6.809   6.728
 9248SOL    HW128643   2.984   6.832   6.804
 9248SOL    HW228644   2.973   6.754   6.661
 9249SOL     OW28645   3.622   1.337   0.793
 9249SOL    HW128646   3.574   1.422   0.771
 9249SOL    HW228647   3.583   1.261   0.741
 9250SOL     OW28648   0.735   3.465   1.934
 9250SOL    HW128649   0.674   3.386   1.930
 9250SOL    HW228650   0.727   3.517   1.849
 9251SOL     OW28651   4.372   1.261   0.707
 9251SOL    HW128652   4.309   1.266   0.784
 9251SOL    HW228653   4.337   1.318   0.632
 9252SOL     OW28654   5.536   1.636   4.782
 9252SOL    HW128655   5.541   1.695   4.701
 9252SOL    HW228656   5.498   1.548   4.757
 9253SOL     OW28657   2.641   4.945   3.782
 9253SOL    HW128658   2.660   4.997   3.866
 9253SOL    HW228659   2.593   5.003   3.717
 9254SOL     OW28660   6.652   6.262   2.638
 9254SOL    HW128661   6.622   6.243   2.544
 9254SOL    HW228662   6.695   6.352   2.641
 9255SOL     OW28663   0.144   3.075   1.264
 9255SOL    HW128664   0.064   3.034   1.308
 9255SOL    HW228665   0.138   3.175   1.271
 9256SOL     OW28666   2.016   6.306   1.283
 9256SOL    HW128667   1.942   6.364   1.317
 9256SOL    HW228668   2.090   6.303   1.350
 9257SOL     OW28669   6.550   6.020   5.207
 9257SOL    HW128670   6.607   6.028   5.125
 9257SOL    HW228671   6.477   5.953   5.191
 9258SOL     OW28672   5.265   3.565   2.958
 9258SOL    HW128673   5.285   3.656   2.922
 9258SOL    HW228674   5.345   3.530   3.006
 9259SOL     OW28675   0.981   2.964   6.511
 9259SOL    HW128676   1.077   2.988   6.528
 9259SOL    HW228677   0.972   2.864   6.510
 9260SOL     OW28678   5.233   4.702   5.006
 9260SOL    HW128679   5.309   4.637   5.008
 9260SOL    HW228680   5.204   4.722   5.099
 9261SOL     OW28681   1.660   3.133   1.238
 9261SOL    HW128682   1.633   3.043   1.271
 9261SOL    HW228683   1.628   3.145   1.144
 9262SOL     OW28684   6.687   6.619   6.102
 9262SOL    HW128685   6.634   6.595   6.183
 9262SOL    HW228686   6.670   6.715   6.079
 9263SOL     OW28687   2.594   4.555   3.009
 9263SOL    HW128688   2.682   4.593   2.979
 9263SOL    HW228689   2.565   4.484   2.945
 9264SOL     OW28690   5.916   3.603   5.163
 9264SOL    HW128691   5.926   3.584   5.065
 9264SOL    HW228692   5.907   3.517   5.213
 9265SOL     OW28693   4.606   0.565   1.991
 9265SOL    HW128694   4.607   0.473   2.031
 9265SOL    HW228695   4.572   0.630   2.059
 9266SOL     OW28696   0.509   4.646   0.960
 9266SOL    HW128697   0.515   4.746   0.956
 9266SOL    HW228698   0.532   4.607   0.871
 9267SOL     OW28699   6.877   1.172   3.238
 9267SOL    HW128700   6.778   1.189   3.231
 9267SOL    HW228701   6.912   1.148   3.147
 9268SOL     OW28702   0.145   0.171   1.201
 9268SOL    HW128703   0.197   0.086   1.203
 9268SOL    HW228704   0.208   0.248   1.194
 9269SOL     OW28705   3.182   6.098   1.074
 9269SOL    HW128706   3.090   6.117   1.109
 9269SOL    HW228707   3.238   6.180   1.082
 9270SOL     OW28708   2.131   1.124   5.195
 9270SOL    HW128709   2.073   1.067   5.137
 9270SOL    HW228710   2.075   1.193   5.241
 9271SOL     OW28711   1.527   5.086   5.423
 9271SOL    HW128712   1.557   5.012   5.362
 9271SOL    HW228713   1.587   5.165   5.410
 9272SOL     OW28714   6.175   6.886   5.908
 9272SOL    HW128715   6.127   6.802   5.884
 9272SOL    HW228716   6.111   6.949   5.952
 9273SOL     OW28717   6.507   3.634   3.454
 9273SOL    HW128718   6.562   3.709   3.491
 9273SOL    HW228719   6.516   3.632   3.354
 9274SOL     OW28720   6.881   3.199   0.723
 9274SOL    HW128721   6.879   3.155   0.633
 9274SOL    HW228722   6.960   3.260   0.729
 9275SOL     OW28723   4.801   1.773   0.553
 9275SOL    HW128724   4.712   1.812   0.529
 9275SOL    HW228725   4.816   1.689   0.501
 9276SOL     OW28726   1.589   4.318   0.259
 9276SOL    HW128727   1.650   4.274   0.326
 9276SOL    HW228728   1.611   4.415   0.253
 9277SOL     OW28729   3.194   5.880   2.792
 9277SOL    HW128730   3.243   5.963   2.817
 9277SOL    HW228731   3.226   5.847   2.704
 9278SOL     OW28732   1.714   6.766   4.710
 9278SOL    HW128733   1.638   6.773   4.645
 9278SOL    HW228734   1.798   6.745   4.661
 9279SOL     OW28735   3.518   6.148   1.730
 9279SOL    HW128736   3.490   6.130   1.635
 9279SOL    HW228737   3.449   6.113   1.792
 9280SOL     OW28738   1.444   4.646   1.378
 9280SOL    HW128739   1.412   4.576   1.442
 9280SOL    HW228740   1.541   4.662   1.393
 9281SOL     OW28741   1.301   5.660   0.786
 9281SOL    HW128742   1.218   5.683   0.735
 9281SOL    HW228743   1.377   5.646   0.723
 9282SOL     OW28744   1.924   0.624   3.773
 9282SOL    HW128745   1.880   0.650   3.687
 9282SOL    HW228746   1.862   0.643   3.849
 9283SOL     OW28747   5.467   5.097   6.399
 9283SOL    HW128748   5.488   5.193   6.415
 9283SOL    HW228749   5.485   5.045   6.482
 9284SOL     OW28750   3.791   6.386   1.470
 9284SOL    HW128751   3.780   6.368   1.567
 9284SOL    HW228752   3.888   6.401   1.450
 9285SOL     OW28753   6.788   5.439   3.556
 9285SOL    HW128754   6.776   5.348   3.517
 9285SOL    HW228755   6.719   5.501   3.518
 9286SOL     OW28756   5.564   6.108   1.640
 9286SOL    HW128757   5.503   6.162   1.699
 9286SOL    HW228758   5.510   6.040   1.590
 9287SOL     OW28759   4.254   4.515   0.450
 9287SOL    HW128760   4.353   4.530   0.453
 9287SOL    HW228761   4.235   4.419   0.432
 9288SOL     OW28762   4.035   0.847   3.317
 9288SOL    HW128763   3.952   0.792   3.326
 9288SOL    HW228764   4.052   0.895   3.402
 9289SOL     OW28765   4.312   6.361   2.324
 9289SOL    HW128766   4.245   6.291   2.301
 9289SOL    HW228767   4.381   6.322   2.386
 9290SOL     OW28768   5.615   0.474   3.407
 9290SOL    HW128769   5.566   0.457   3.493
 9290SOL    HW228770   5.652   0.388   3.373
 9291SOL     OW28771   0.310   4.603   5.618
 9291SOL    HW128772   0.282   4.696   5.644
 9291SOL    HW228773   0.382   4.572   5.680
 9292SOL     OW28774   1.798   2.264   0.184
 9292SOL    HW128775   1.700   2.252   0.197
 9292SOL    HW228776   1.844   2.177   0.202
 9293SOL     OW28777   4.235   0.910   5.879
 9293SOL    HW128778   4.236   0.954   5.969
 9293SOL    HW228779   4.297   0.832   5.879
 9294SOL     OW28780   5.652   6.068   6.226
 9294SOL    HW128781   5.709   6.129   6.282
 9294SOL    HW228782   5.590   6.017   6.284
 9295SOL     OW28783   6.180   0.492   3.000
 9295SOL    HW128784   6.102   0.548   2.973
 9295SOL    HW228785   6.264   0.547   2.993
 9296SOL     OW28786   2.484   3.441   5.653
 9296SOL    HW128787   2.529   3.524   5.621
 9296SOL    HW228788   2.490   3.435   5.753
 9297SOL     OW28789   6.857   5.684   2.041
 9297SOL    HW128790   6.816   5.593   2.055
 9297SOL    HW228791   6.836   5.716   1.949
 9298SOL     OW28792   6.713   4.942   6.937
 9298SOL    HW128793   6.713   5.041   6.923
 9298SOL    HW228794   6.788   4.916   6.998
 9299SOL     OW28795   3.235   2.138   4.112
 9299SOL    HW128796   3.283   2.058   4.148
 9299SOL    HW228797   3.161   2.164   4.174
 9300SOL     OW28798   2.665   5.980   6.058
 9300SOL    HW128799   2.719   6.014   6.135
 9300SOL    HW228800   2.721   5.920   6.002
 9301SOL     OW28801   0.168   3.490   4.475
 9301SOL    HW128802   0.130   3.482   4.383
 9301SOL    HW228803   0.251   3.435   4.481
 9302SOL     OW28804   2.849   5.818   3.817
 9302SOL    HW128805   2.904   5.889   3.772
 9302SOL    HW228806   2.856   5.733   3.764
 9303SOL     OW28807   2.816   4.352   6.675
 9303SOL    HW128808   2.755   4.282   6.713
 9303SOL    HW228809   2.762   4.421   6.627
 9304SOL     OW28810   5.992   5.964   6.551
 9304SOL    HW128811   6.015   5.869   6.528
 9304SOL    HW228812   6.069   6.023   6.529
 9305SOL     OW28813   2.120   1.788   0.656
 9305SOL    HW128814   2.131   1.743   0.744
 9305SOL    HW228815   2.063   1.869   0.667
 9306SOL     OW28816   6.862   6.054   3.961
 9306SOL    HW128817   6.800   5.994   3.912
 9306SOL    HW228818   6.809   6.123   4.012
 9307SOL     OW28819   1.857   4.212   1.195
 9307SOL    HW128820   1.847   4.290   1.256
 9307SOL    HW228821   1.784   4.213   1.127
 9308SOL     OW28822   2.426   3.181   1.120
 9308SOL    HW128823   2.429   3.266   1.067
 9308SOL    HW228824   2.332   3.147   1.124
 9309SOL     OW28825   3.691   4.972   5.825
 9309SOL    HW128826   3.649   4.887   5.792
 9309SOL    HW228827   3.741   4.954   5.910
 9310SOL     OW28828   6.200   6.232   5.723
 9310SOL    HW128829   6.205   6.163   5.651
 9310SOL    HW228830   6.292   6.258   5.750
 9311SOL     OW28831   5.713   4.626   6.685
 9311SOL    HW128832   5.776   4.575   6.627
 9311SOL    HW228833   5.622   4.584   6.682
 9312SOL     OW28834   5.859   3.436   4.013
 9312SOL    HW128835   5.820   3.480   4.094
 9312SOL    HW228836   5.798   3.362   3.983
 9313SOL     OW28837   0.254   0.621   1.928
 9313SOL    HW128838   0.209   0.601   1.841
 9313SOL    HW228839   0.288   0.715   1.927
 9314SOL     OW28840   5.089   4.884   1.472
 9314SOL    HW128841   5.178   4.842   1.455
 9314SOL    HW228842   5.084   4.973   1.428
 9315SOL     OW28843   5.614   5.568   5.687
 9315SOL    HW128844   5.686   5.610   5.743
 9315SOL    HW228845   5.525   5.587   5.727
 9316SOL     OW28846   5.426   5.393   6.963
 9316SOL    HW128847   5.382   5.303   6.968
 9316SOL    HW228848   5.467   5.406   6.873
 9317SOL     OW28849   2.749   6.840   3.458
 9317SOL    HW128850   2.682   6.884   3.517
 9317SOL    HW228851   2.803   6.909   3.411
 9318SOL     OW28852   3.070   0.207   3.231
 9318SOL    HW128853   3.016   0.286   3.201
 9318SOL    HW228854   3.168   0.228   3.221
 9319SOL     OW28855   3.922   2.399   0.802
 9319SOL    HW128856   3.879   2.433   0.719
 9319SOL    HW228857   4.015   2.368   0.782
 9320SOL     OW28858   6.406   0.005   6.691
 9320SOL    HW128859   6.505   7.010   6.697
 9320SOL    HW228860   6.370   0.027   6.781
 9321SOL     OW28861   1.090   2.175   4.558
 9321SOL    HW128862   1.184   2.153   4.531
 9321SOL    HW228863   1.070   2.270   4.536
 9322SOL     OW28864   5.214   3.476   0.213
 9322SOL    HW128865   5.168   3.565   0.216
 9322SOL    HW228866   5.232   3.445   0.306
 9323SOL     OW28867   0.847   2.644   4.843
 9323SOL    HW128868   0.838   2.589   4.926
 9323SOL    HW228869   0.802   2.732   4.856
 9324SOL     OW28870   0.796   4.436   0.894
 9324SOL    HW128871   0.851   4.450   0.976
 9324SOL    HW228872   0.778   4.338   0.882
 9325SOL     OW28873   0.334   4.238   3.066
 9325SOL    HW128874   0.337   4.217   2.968
 9325SOL    HW228875   0.428   4.244   3.101
 9326SOL     OW28876   4.470   4.754   1.190
 9326SOL    HW128877   4.506   4.661   1.184
 9326SOL    HW228878   4.436   4.771   1.283
 9327SOL     OW28879   1.629   1.504   3.364
 9327SOL    HW128880   1.683   1.581   3.329
 9327SOL    HW228881   1.605   1.443   3.289
 9328SOL     OW28882   1.322   0.338   3.740
 9328SOL    HW128883   1.395   0.385   3.691
 9328SOL    HW228884   1.359   0.298   3.824
 9329SOL     OW28885   1.486   4.878   6.361
 9329SOL    HW128886   1.432   4.959   6.338
 9329SOL    HW228887   1.448   4.799   6.314
 9330SOL     OW28888   1.035   6.232   0.912
 9330SOL    HW128889   0.944   6.226   0.954
 9330SOL    HW228890   1.102   6.260   0.981
 9331SOL     OW28891   2.129   4.913   4.605
 9331SOL    HW128892   2.031   4.893   4.613
 9331SOL    HW228893   2.177   4.874   4.684
 9332SOL     OW28894   6.283   5.631   0.545
 9332SOL    HW128895   6.244   5.565   0.610
 9332SOL    HW228896   6.380   5.611   0.531
 9333SOL     OW28897   1.756   5.375   0.659
 9333SOL    HW128898   1.714   5.295   0.615
 9333SOL    HW228899   1.856   5.364   0.659
 9334SOL     OW28900   6.981   5.783   0.462
 9334SOL    HW128901   0.010   5.699   0.439
 9334SOL    HW228902   0.026   5.856   0.481
 9335SOL     OW28903   0.061   3.940   0.881
 9335SOL    HW128904   7.015   3.875   0.919
 9335SOL    HW228905   0.012   4.019   0.842
 9336SOL     OW28906   4.179   5.206   5.424
 9336SOL    HW128907   4.211   5.119   5.460
 9336SOL    HW228908   4.179   5.274   5.498
 9337SOL     OW28909   3.224   1.761   4.647
 9337SOL    HW128910   3.172   1.812   4.716
 9337SOL    HW228911   3.209   1.803   4.557
 9338SOL     OW28912   4.190   0.006   1.730
 9338SOL    HW128913   4.187   0.098   1.771
 9338SOL    HW228914   4.133   0.005   1.648
 9339SOL     OW28915   0.121   3.714   4.872
 9339SOL    HW128916   0.103   3.667   4.958
 9339SOL    HW228917   0.113   3.813   4.885
 9340SOL     OW28918   2.512   4.638   2.208
 9340SOL    HW128919   2.516   4.636   2.108
 9340SOL    HW228920   2.495   4.732   2.238
 9341SOL     OW28921   6.143   5.668   1.231
 9341SOL    HW128922   6.185   5.644   1.144
 9341SOL    HW228923   6.115   5.585   1.279
 9342SOL     OW28924   2.980   0.333   4.695
 9342SOL    HW128925   2.988   0.351   4.793
 9342SOL    HW228926   3.063   0.289   4.663
 9343SOL     OW28927   5.340   3.797   1.444
 9343SOL    HW128928   5.282   3.794   1.525
 9343SOL    HW228929   5.422   3.851   1.463
 9344SOL     OW28930   5.844   6.552   4.928
 9344SOL    HW128931   5.882   6.639   4.896
 9344SOL    HW228932   5.746   6.563   4.945
 9345SOL     OW28933   0.038   4.524   6.310
 9345SOL    HW128934   0.004   4.563   6.395
 9345SOL    HW228935   0.130   4.557   6.292
 9346SOL     OW28936   4.874   1.000   1.953
 9346SOL    HW128937   4.942   0.944   1.998
 9346SOL    HW228938   4.783   0.974   1.985
 9347SOL     OW28939   4.695   6.993   2.194
 9347SOL    HW128940   4.676   6.975   2.290
 9347SOL    HW228941   4.612   0.003   2.148
 9348SOL     OW28942   2.577   4.998   1.674
 9348SOL    HW128943   2.590   4.900   1.690
 9348SOL    HW228944   2.653   5.033   1.619
 9349SOL     OW28945   7.013   4.981   1.456
 9349SOL    HW128946   0.058   5.041   1.501
 9349SOL    HW228947   6.946   5.036   1.406
 9350SOL     OW28948   6.369   0.542   6.869
 9350SOL    HW128949   6.296   0.473   6.867
 9350SOL    HW228950   6.358   0.600   6.950
 9351SOL     OW28951   4.552   4.258   6.345
 9351SOL    HW128952   4.610   4.337   6.363
 9351SOL    HW228953   4.540   4.206   6.429
 9352SOL     OW28954   2.909   1.631   6.828
 9352SOL    HW128955   2.814   1.644   6.854
 9352SOL    HW228956   2.922   1.538   6.793
 9353SOL     OW28957   0.930   3.033   2.398
 9353SOL    HW128958   0.974   3.071   2.480
 9353SOL    HW228959   0.995   2.976   2.349
 9354SOL     OW28960   5.962   2.138   2.618
 9354SOL    HW128961   6.043   2.154   2.561
 9354SOL    HW228962   5.950   2.214   2.681
 9355SOL     OW28963   0.229   1.762   2.128
 9355SOL    HW128964   0.167   1.841   2.132
 9355SOL    HW228965   0.179   1.682   2.097
 9356SOL     OW28966   4.729   2.549   2.114
 9356SOL    HW128967   4.823   2.561   2.145
 9356SOL    HW228968   4.666   2.589   2.181
 9357SOL     OW28969   2.549   4.874   6.708
 9357SOL    HW128970   2.589   4.824   6.784
 9357SOL    HW228971   2.477   4.935   6.742
 9358SOL     OW28972   5.426   4.073   2.796
 9358SOL    HW128973   5.350   4.137   2.809
 9358SOL    HW228974   5.404   4.010   2.721
 9359SOL     OW28975   4.584   5.071   5.833
 9359SOL    HW128976   4.651   5.065   5.907
 9359SOL    HW228977   4.617   5.135   5.763
 9360SOL     OW28978   1.091   0.405   5.534
 9360SOL    HW128979   1.106   0.308   5.555
 9360SOL    HW228980   1.019   0.413   5.465
 9361SOL     OW28981   1.569   1.444   2.534
 9361SOL    HW128982   1.555   1.408   2.441
 9361SOL    HW228983   1.482   1.444   2.583
 9362SOL     OW28984   1.466   1.783   3.165
 9362SOL    HW128985   1.435   1.771   3.070
 9362SOL    HW228986   1.565   1.771   3.169
 9363SOL     OW28987   1.344   6.361   2.051
 9363SOL    HW128988   1.405   6.347   2.129
 9363SOL    HW228989   1.375   6.305   1.974
 9364SOL     OW28990   5.415   4.298   1.128
 9364SOL    HW128991   5.486   4.305   1.199
 9364SOL    HW228992   5.441   4.226   1.063
 9365SOL     OW28993   2.136   1.694   4.006
 9365SOL    HW128994   2.094   1.783   4.027
 9365SOL    HW228995   2.079   1.645   3.941
 9366SOL     OW28996   2.662   1.263   1.734
 9366SOL    HW128997   2.658   1.224   1.642
 9366SOL    HW228998   2.694   1.357   1.729
 9367SOL     OW28999   5.597   6.574   3.759
 9367SOL    HW129000   5.580   6.616   3.848
 9367SOL    HW229001   5.569   6.637   3.687
 9368SOL     OW29002   5.538   3.132   0.574
 9368SOL    HW129003   5.564   3.063   0.507
 9368SOL    HW229004   5.438   3.132   0.584
 9369SOL     OW29005   0.352   1.881   5.048
 9369SOL    HW129006   0.425   1.919   5.105
 9369SOL    HW229007   0.297   1.818   5.102
 9370SOL     OW29008   5.871   5.243   2.479
 9370SOL    HW129009   5.916   5.332   2.472
 9370SOL    HW229010   5.788   5.252   2.534
 9371SOL     OW29011   1.997   6.726   0.317
 9371SOL    HW129012   1.931   6.694   0.385
 9371SOL    HW229013   2.087   6.736   0.359
 9372SOL     OW29014   5.602   5.722   0.370
 9372SOL    HW129015   5.699   5.732   0.351
 9372SOL    HW229016   5.557   5.676   0.293
 9373SOL     OW29017   4.910   3.156   4.122
 9373SOL    HW129018   4.917   3.082   4.189
 9373SOL    HW229019   4.846   3.130   4.050
 9374SOL     OW29020   5.271   3.797   6.678
 9374SOL    HW129021   5.308   3.843   6.597
 9374SOL    HW229022   5.321   3.827   6.759
 9375SOL     OW29023   6.058   0.312   4.164
 9375SOL    HW129024   6.101   0.365   4.238
 9375SOL    HW229025   6.126   0.252   4.123
 9376SOL     OW29026   2.605   3.498   1.764
 9376SOL    HW129027   2.675   3.495   1.834
 9376SOL    HW229028   2.515   3.493   1.807
 9377SOL     OW29029   6.632   4.308   3.629
 9377SOL    HW129030   6.591   4.389   3.672
 9377SOL    HW229031   6.692   4.262   3.694
 9378SOL     OW29032   4.079   6.353   0.933
 9378SOL    HW129033   4.039   6.414   1.001
 9378SOL    HW229034   4.014   6.281   0.911
 9379SOL     OW29035   4.692   4.637   5.442
 9379SOL    HW129036   4.654   4.547   5.462
 9379SOL    HW229037   4.790   4.630   5.428
 9380SOL     OW29038   6.666   5.845   5.679
 9380SOL    HW129039   6.748   5.789   5.666
 9380SOL    HW229040   6.662   5.915   5.607
 9381SOL     OW29041   0.932   1.019   6.949
 9381SOL    HW129042   0.909   1.106   6.904
 9381SOL    HW229043   0.908   1.025   0.026
 9382SOL     OW29044   5.685   1.929   2.740
 9382SOL    HW129045   5.686   2.007   2.677
 9382SOL    HW229046   5.687   1.962   2.834
 9383SOL     OW29047   6.800   5.354   6.306
 9383SOL    HW129048   6.843   5.444   6.301
 9383SOL    HW229049   6.704   5.364   6.335
 9384SOL     OW29050   3.717   6.953   2.517
 9384SOL    HW129051   3.627   6.917   2.488
 9384SOL    HW229052   3.750   6.900   2.594
 9385SOL     OW29053   3.642   6.791   3.316
 9385SOL    HW129054   3.689   6.849   3.249
 9385SOL    HW229055   3.683   6.807   3.406
 9386SOL     OW29056   3.591   0.365   5.277
 9386SOL    HW129057   3.650   0.357   5.357
 9386SOL    HW229058   3.646   0.358   5.194
 9387SOL     OW29059   4.959   5.564   0.646
 9387SOL    HW129060   4.937   5.467   0.633
 9387SOL    HW229061   4.986   5.580   0.741
 9388SOL     OW29062   0.015   0.008   1.785
 9388SOL    HW129063   6.951   6.977   1.772
 9388SOL    HW229064   0.043   0.048   1.697
 9389SOL     OW29065   2.785   0.540   0.528
 9389SOL    HW129066   2.814   0.631   0.558
 9389SOL    HW229067   2.699   0.516   0.573
 9390SOL     OW29068   3.879   5.520   1.078
 9390SOL    HW129069   3.922   5.591   1.135
 9390SOL    HW229070   3.884   5.547   0.982
 9391SOL     OW29071   6.049   1.026   3.898
 9391SOL    HW129072   6.022   1.114   3.937
 9391SOL    HW229073   6.089   1.040   3.807
 9392SOL     OW29074   0.767   6.780   5.403
 9392SOL    HW129075   0.686   6.760   5.457
 9392SOL    HW229076   0.841   6.810   5.463
 9393SOL     OW29077   4.410   1.273   5.688
 9393SOL    HW129078   4.477   1.282   5.614
 9393SOL    HW229079   4.449   1.220   5.763
 9394SOL     OW29080   6.355   1.696   2.331
 9394SOL    HW129081   6.420   1.744   2.390
 9394SOL    HW229082   6.345   1.602   2.362
 9395SOL     OW29083   1.922   2.609   6.429
 9395SOL    HW129084   1.884   2.596   6.521
 9395SOL    HW229085   1.983   2.534   6.407
 9396SOL     OW29086   0.057   1.026   6.120
 9396SOL    HW129087   0.151   1.024   6.154
 9396SOL    HW229088   0.042   1.111   6.070
 9397SOL     OW29089   2.057   1.869   0.264
 9397SOL    HW129090   2.018   1.806   0.332
 9397SOL    HW229091   2.038   1.963   0.292
 9398SOL     OW29092   2.702   1.570   1.743
 9398SOL    HW129093   2.657   1.563   1.832
 9398SOL    HW229094   2.779   1.632   1.749
 9399SOL     OW29095   0.097   0.717   6.155
 9399SOL    HW129096   0.094   0.713   6.055
 9399SOL    HW229097   0.126   0.809   6.183
 9400SOL     OW29098   3.882   1.669   3.872
 9400SOL    HW129099   3.860   1.667   3.775
 9400SOL    HW229100   3.836   1.593   3.918
 9401SOL     OW29101   4.576   6.334   4.168
 9401SOL    HW129102   4.566   6.368   4.075
 9401SOL    HW229103   4.495   6.357   4.222
 9402SOL     OW29104   2.992   4.858   6.354
 9402SOL    HW129105   2.966   4.766   6.384
 9402SOL    HW229106   2.941   4.925   6.407
 9403SOL     OW29107   6.131   6.838   4.072
 9403SOL    HW129108   6.148   6.935   4.093
 9403SOL    HW229109   6.032   6.821   4.071
 9404SOL     OW29110   1.664   4.310   5.166
 9404SOL    HW129111   1.714   4.251   5.103
 9404SOL    HW229112   1.690   4.287   5.260
 9405SOL     OW29113   0.639   0.558   1.065
 9405SOL    HW129114   0.666   0.529   1.156
 9405SOL    HW229115   0.709   0.619   1.027
 9406SOL     OW29116   6.704   1.060   5.025
 9406SOL    HW129117   6.779   1.127   5.022
 9406SOL    HW229118   6.742   0.968   5.033
 9407SOL     OW29119   3.506   5.614   3.184
 9407SOL    HW129120   3.526   5.690   3.246
 9407SOL    HW229121   3.455   5.649   3.105
 9408SOL     OW29122   3.828   2.155   6.302
 9408SOL    HW129123   3.732   2.183   6.294
 9408SOL    HW229124   3.838   2.091   6.378
 9409SOL     OW29125   6.108   3.784   3.309
 9409SOL    HW129126   6.064   3.817   3.226
 9409SOL    HW229127   6.102   3.684   3.312
 9410SOL     OW29128   4.118   6.792   1.802
 9410SOL    HW129129   4.198   6.736   1.821
 9410SOL    HW229130   4.147   6.886   1.781
 9411SOL     OW29131   5.199   5.307   2.243
 9411SOL    HW129132   5.212   5.251   2.324
 9411SOL    HW229133   5.253   5.269   2.167
 9412SOL     OW29134   6.295   2.417   3.007
 9412SOL    HW129135   6.375   2.406   3.066
 9412SOL    HW229136   6.227   2.474   3.054
 9413SOL     OW29137   3.816   5.629   3.097
 9413SOL    HW129138   3.756   5.591   3.027
 9413SOL    HW229139   3.896   5.570   3.108
 9414SOL     OW29140   2.390   0.303   2.284
 9414SOL    HW129141   2.418   0.208   2.271
 9414SOL    HW229142   2.325   0.328   2.212
 9415SOL     OW29143   1.781   0.523   1.759
 9415SOL    HW129144   1.819   0.431   1.751
 9415SOL    HW229145   1.690   0.525   1.717
 9416SOL     OW29146   1.329   2.252   1.469
 9416SOL    HW129147   1.313   2.164   1.513
 9416SOL    HW229148   1.293   2.326   1.526
 9417SOL     OW29149   1.311   0.517   4.726
 9417SOL    HW129150   1.317   0.569   4.810
 9417SOL    HW229151   1.235   0.452   4.732
 9418SOL     OW29152   4.285   4.135   0.928
 9418SOL    HW129153   4.338   4.094   0.853
 9418SOL    HW229154   4.206   4.183   0.889
 9419SOL     OW29155   2.778   5.547   3.758
 9419SOL    HW129156   2.782   5.517   3.854
 9419SOL    HW229157   2.692   5.517   3.717
 9420SOL     OW29158   2.102   0.615   3.287
 9420SOL    HW129159   2.149   0.629   3.374
 9420SOL    HW229160   2.051   0.698   3.262
 9421SOL     OW29161   1.818   5.109   5.051
 9421SOL    HW129162   1.887   5.161   5.100
 9421SOL    HW229163   1.808   5.019   5.092
 9422SOL     OW29164   4.038   1.136   2.983
 9422SOL    HW129165   4.072   1.050   2.944
 9422SOL    HW229166   4.109   1.206   2.976
 9423SOL     OW29167   4.392   0.218   4.706
 9423SOL    HW129168   4.371   0.288   4.637
 9423SOL    HW229169   4.321   0.148   4.703
 9424SOL     OW29170   3.182   5.738   3.529
 9424SOL    HW129171   3.120   5.703   3.459
 9424SOL    HW229172   3.265   5.774   3.485
 9425SOL     OW29173   0.991   5.258   2.725
 9425SOL    HW129174   0.949   5.243   2.635
 9425SOL    HW229175   1.021   5.353   2.732
 9426SOL     OW29176   3.862   6.294   0.776
 9426SOL    HW129177   3.867   6.390   0.803
 9426SOL    HW229178   3.837   6.288   0.679
 9427SOL     OW29179   2.404   5.147   4.161
 9427SOL    HW129180   2.324   5.092   4.138
 9427SOL    HW229181   2.474   5.088   4.203
 9428SOL     OW29182   4.788   6.488   2.499
 9428SOL    HW129183   4.704   6.442   2.528
 9428SOL    HW229184   4.792   6.491   2.400
 9429SOL     OW29185   0.792   3.397   2.740
 9429SOL    HW129186   0.831   3.370   2.829
 9429SOL    HW229187   0.693   3.387   2.743
 9430SOL     OW29188   6.574   6.466   1.793
 9430SOL    HW129189   6.485   6.439   1.829
 9430SOL    HW229190   6.570   6.559   1.756
 9431SOL     OW29191   6.849   4.256   0.363
 9431SOL    HW129192   6.753   4.263   0.391
 9431SOL    HW229193   6.872   4.334   0.305
 9432SOL     OW29194   6.889   6.838   4.228
 9432SOL    HW129195   6.925   6.746   4.220
 9432SOL    HW229196   6.938   6.899   4.166
 9433SOL     OW29197   2.508   5.722   4.078
 9433SOL    HW129198   2.497   5.801   4.139
 9433SOL    HW229199   2.465   5.642   4.119
 9434SOL     OW29200   6.303   4.601   3.313
 9434SOL    HW129201   6.378   4.570   3.372
 9434SOL    HW229202   6.226   4.631   3.370
 9435SOL     OW29203   2.499   2.033   5.298
 9435SOL    HW129204   2.471   2.103   5.233
 9435SOL    HW229205   2.571   2.069   5.357
 9436SOL     OW29206   3.740   1.739   5.616
 9436SOL    HW129207   3.717   1.690   5.532
 9436SOL    HW229208   3.698   1.693   5.695
 9437SOL     OW29209   0.339   6.066   4.623
 9437SOL    HW129210   0.356   6.109   4.712
 9437SOL    HW229211   0.314   5.971   4.637
 9438SOL     OW29212   0.457   6.291   1.843
 9438SOL    HW129213   0.557   6.292   1.834
 9438SOL    HW229214   0.418   6.238   1.767
 9439SOL     OW29215   1.923   3.246   1.283
 9439SOL    HW129216   1.826   3.232   1.265
 9439SOL    HW229217   1.977   3.191   1.219
 9440SOL     OW29218   3.117   5.637   3.780
 9440SOL    HW129219   3.096   5.674   3.690
 9440SOL    HW229220   3.157   5.546   3.770
 9441SOL     OW29221   1.510   5.424   5.449
 9441SOL    HW129222   1.413   5.433   5.470
 9441SOL    HW229223   1.558   5.388   5.529
 9442SOL     OW29224   0.432   3.706   1.121
 9442SOL    HW129225   0.505   3.774   1.115
 9442SOL    HW229226   0.447   3.649   1.202
 9443SOL     OW29227   1.306   2.491   1.667
 9443SOL    HW129228   1.290   2.576   1.616
 9443SOL    HW229229   1.370   2.509   1.742
 9444SOL     OW29230   1.317   4.338   5.746
 9444SOL    HW129231   1.229   4.367   5.785
 9444SOL    HW229232   1.304   4.254   5.694
 9445SOL     OW29233   6.177   2.497   1.789
 9445SOL    HW129234   6.232   2.434   1.843
 9445SOL    HW229235   6.208   2.591   1.807
 9446SOL     OW29236   5.752   4.246   6.858
 9446SOL    HW129237   5.765   4.235   6.957
 9446SOL    HW229238   5.790   4.334   6.830
 9447SOL     OW29239   5.863   1.033   1.732
 9447SOL    HW129240   5.864   1.133   1.742
 9447SOL    HW229241   5.787   0.995   1.785
 9448SOL     OW29242   6.196   6.305   0.762
 9448SOL    HW129243   6.287   6.277   0.730
 9448SOL    HW229244   6.129   6.289   0.690
 9449SOL     OW29245   5.786   5.654   5.134
 9449SOL    HW129246   5.860   5.719   5.123
 9449SOL    HW229247   5.779   5.597   5.052
 9450SOL     OW29248   1.962   5.893   3.874
 9450SOL    HW129249   1.926   5.800   3.863
 9450SOL    HW229250   2.061   5.889   3.890
 9451SOL     OW29251   3.731   3.730   5.476
 9451SOL    HW129252   3.798   3.717   5.403
 9451SOL    HW229253   3.684   3.644   5.494
 9452SOL     OW29254   3.279   4.210   0.901
 9452SOL    HW129255   3.342   4.196   0.977
 9452SOL    HW229256   3.188   4.229   0.937
 9453SOL     OW29257   3.529   5.546   1.207
 9453SOL    HW129258   3.456   5.527   1.272
 9453SOL    HW229259   3.577   5.462   1.185
 9454SOL     OW29260   2.267   2.262   6.258
 9454SOL    HW129261   2.313   2.239   6.172
 9454SOL    HW229262   2.304   2.205   6.331
 9455SOL     OW29263   1.388   2.161   2.555
 9455SOL    HW129264   1.437   2.246   2.538
 9455SOL    HW229265   1.386   2.106   2.471
 9456SOL     OW29266   1.173   3.362   0.385
 9456SOL    HW129267   1.265   3.399   0.371
 9456SOL    HW229268   1.132   3.340   0.296
 9457SOL     OW29269   5.928   3.735   0.236
 9457SOL    HW129270   6.017   3.779   0.244
 9457SOL    HW229271   5.856   3.805   0.235
 9458SOL     OW29272   1.299   6.392   4.062
 9458SOL    HW129273   1.250   6.306   4.048
 9458SOL    HW229274   1.253   6.445   4.133
 9459SOL     OW29275   4.527   6.288   0.755
 9459SOL    HW129276   4.614   6.325   0.788
 9459SOL    HW229277   4.544   6.222   0.681
 9460SOL     OW29278   1.391   3.946   5.596
 9460SOL    HW129279   1.377   3.852   5.564
 9460SOL    HW229280   1.306   3.998   5.587
 9461SOL     OW29281   1.575   0.188   2.588
 9461SOL    HW129282   1.571   0.108   2.528
 9461SOL    HW229283   1.668   0.224   2.590
 9462SOL     OW29284   0.553   2.911   3.652
 9462SOL    HW129285   0.650   2.892   3.664
 9462SOL    HW229286   0.514   2.847   3.586
 9463SOL     OW29287   5.615   2.531   6.596
 9463SOL    HW129288   5.636   2.463   6.525
 9463SOL    HW229289   5.651   2.499   6.684
 9464SOL     OW29290   4.198   6.358   6.168
 9464SOL    HW129291   4.163   6.452   6.174
 9464SOL    HW229292   4.241   6.344   6.079
 9465SOL     OW29293   4.794   6.494   4.412
 9465SOL    HW129294   4.816   6.397   4.416
 9465SOL    HW229295   4.744   6.521   4.494
 9466SOL     OW29296   3.567   1.733   6.935
 9466SOL    HW129297   3.608   1.696   6.852
 9466SOL    HW229298   3.638   1.774   6.992
 9467SOL     OW29299   1.780   2.814   2.358
 9467SOL    HW129300   1.848   2.792   2.288
 9467SOL    HW229301   1.746   2.907   2.343
 9468SOL     OW29302   0.851   2.238   5.880
 9468SOL    HW129303   0.908   2.207   5.956
 9468SOL    HW229304   0.757   2.207   5.894
 9469SOL     OW29305   6.971   4.147   2.631
 9469SOL    HW129306   6.966   4.136   2.731
 9469SOL    HW229307   6.917   4.227   2.604
 9470SOL     OW29308   6.922   3.500   1.399
 9470SOL    HW129309   7.016   3.487   1.431
 9470SOL    HW229310   6.894   3.420   1.346
 9471SOL     OW29311   0.238   2.598   5.919
 9471SOL    HW129312   0.331   2.631   5.935
 9471SOL    HW229313   0.177   2.633   5.990
 9472SOL     OW29314   6.502   2.197   5.267
 9472SOL    HW129315   6.406   2.169   5.276
 9472SOL    HW229316   6.544   2.202   5.358
 9473SOL     OW29317   2.819   5.109   5.506
 9473SOL    HW129318   2.907   5.062   5.512
 9473SOL    HW229319   2.788   5.111   5.411
 9474SOL     OW29320   3.467   5.547   3.719
 9474SOL    HW129321   3.469   5.522   3.622
 9474SOL    HW229322   3.416   5.632   3.731
 9475SOL     OW29323   2.098   3.263   1.522
 9475SOL    HW129324   2.033   3.286   1.450
 9475SOL    HW229325   2.125   3.167   1.513
 9476SOL     OW29326   2.393   4.014   5.484
 9476SOL    HW129327   2.371   3.945   5.416
 9476SOL    HW229328   2.401   3.971   5.574
 9477SOL     OW29329   0.621   2.190   0.407
 9477SOL    HW129330   0.632   2.258   0.335
 9477SOL    HW229331   0.566   2.229   0.481
 9478SOL     OW29332   5.747   3.989   6.131
 9478SOL    HW129333   5.818   3.985   6.201
 9478SOL    HW229334   5.723   4.085   6.113
 9479SOL     OW29335   5.403   5.006   5.074
 9479SOL    HW129336   5.330   4.961   5.125
 9479SOL    HW229337   5.364   5.052   4.994
 9480SOL     OW29338   6.712   3.839   6.547
 9480SOL    HW129339   6.629   3.872   6.592
 9480SOL    HW229340   6.705   3.741   6.530
 9481SOL     OW29341   0.143   2.469   2.809
 9481SOL    HW129342   0.215   2.519   2.857
 9481SOL    HW229343   0.178   2.435   2.722
 9482SOL     OW29344   4.812   0.466   2.456
 9482SOL    HW129345   4.714   0.483   2.452
 9482SOL    HW229346   4.861   0.541   2.409
 9483SOL     OW29347   1.153   1.391   0.474
 9483SOL    HW129348   1.087   1.321   0.446
 9483SOL    HW229349   1.108   1.480   0.474
 9484SOL     OW29350   5.712   0.235   3.703
 9484SOL    HW129351   5.757   0.251   3.615
 9484SOL    HW229352   5.661   0.317   3.730
 9485SOL     OW29353   0.734   0.115   2.718
 9485SOL    HW129354   0.649   0.134   2.669
 9485SOL    HW229355   0.812   0.151   2.666
 9486SOL     OW29356   2.495   6.549   2.107
 9486SOL    HW129357   2.557   6.533   2.184
 9486SOL    HW229358   2.434   6.625   2.129
 9487SOL     OW29359   3.470   3.522   3.671
 9487SOL    HW129360   3.559   3.566   3.676
 9487SOL    HW229361   3.400   3.589   3.645
 9488SOL     OW29362   1.537   0.809   1.642
 9488SOL    HW129363   1.522   0.757   1.558
 9488SOL    HW229364   1.568   0.901   1.619
 9489SOL     OW29365   2.931   4.556   0.333
 9489SOL    HW129366   2.911   4.654   0.331
 9489SOL    HW229367   2.974   4.533   0.420
 9490SOL     OW29368   4.852   1.360   6.943
 9490SOL    HW129369   4.949   1.334   6.944
 9490SOL    HW229370   4.829   1.398   6.853
 9491SOL     OW29371   5.947   5.796   6.273
 9491SOL    HW129372   5.882   5.778   6.347
 9491SOL    HW229373   5.938   5.890   6.243
 9492SOL     OW29374   2.557   4.682   1.195
 9492SOL    HW129375   2.581   4.586   1.178
 9492SOL    HW229376   2.495   4.686   1.274
 9493SOL     OW29377   5.232   6.178   2.506
 9493SOL    HW129378   5.275   6.179   2.596
 9493SOL    HW229379   5.158   6.245   2.503
 9494SOL     OW29380   3.989   3.449   6.463
 9494SOL    HW129381   3.914   3.497   6.509
 9494SOL    HW229382   4.069   3.447   6.523
 9495SOL     OW29383   5.226   2.769   4.284
 9495SOL    HW129384   5.199   2.766   4.188
 9495SOL    HW229385   5.323   2.748   4.291
 9496SOL     OW29386   6.291   4.317   0.171
 9496SOL    HW129387   6.351   4.391   0.140
 9496SOL    HW229388   6.229   4.291   0.097
 9497SOL     OW29389   0.958   6.093   6.051
 9497SOL    HW129390   1.042   6.055   6.012
 9497SOL    HW229391   0.883   6.082   5.986
 9498SOL     OW29392   4.201   0.000   6.560
 9498SOL    HW129393   4.156   6.985   6.641
 9498SOL    HW229394   4.166   6.974   6.478
 9499SOL     OW29395   4.617   3.860   5.717
 9499SOL    HW129396   4.618   3.914   5.801
 9499SOL    HW229397   4.709   3.824   5.700
 9500SOL     OW29398   4.999   5.687   1.177
 9500SOL    HW129399   5.011   5.780   1.211
 9500SOL    HW229400   4.906   5.677   1.140
 9501SOL     OW29401   3.386   2.039   4.916
 9501SOL    HW129402   3.393   1.991   5.004
 9501SOL    HW229403   3.338   2.125   4.930
 9502SOL     OW29404   3.470   3.322   5.611
 9502SOL    HW129405   3.452   3.345   5.515
 9502SOL    HW229406   3.384   3.317   5.661
 9503SOL     OW29407   1.288   6.949   1.479
 9503SOL    HW129408   1.216   6.881   1.462
 9503SOL    HW229409   1.377   6.910   1.456
 9504SOL     OW29410   0.391   3.078   0.525
 9504SOL    HW129411   0.375   3.099   0.429
 9504SOL    HW229412   0.449   3.148   0.565
 9505SOL     OW29413   5.252   3.067   2.757
 9505SOL    HW129414   5.198   3.059   2.673
 9505SOL    HW229415   5.344   3.100   2.734
 9506SOL     OW29416   6.694   2.123   1.332
 9506SOL    HW129417   6.723   2.032   1.361
 9506SOL    HW229418   6.688   2.183   1.411
 9507SOL     OW29419   1.044   2.691   5.175
 9507SOL    HW129420   0.951   2.675   5.207
 9507SOL    HW229421   1.046   2.774   5.119
 9508SOL     OW29422   4.892   1.017   6.030
 9508SOL    HW129423   4.824   1.043   6.098
 9508SOL    HW229424   4.910   1.095   5.970
 9509SOL     OW29425   3.852   6.892   6.233
 9509SOL    HW129426   3.762   6.926   6.262
 9509SOL    HW229427   3.840   6.804   6.186
 9510SOL     OW29428   5.961   3.808   2.844
 9510SOL    HW129429   5.910   3.806   2.758
 9510SOL    HW229430   6.056   3.782   2.828
 9511SOL     OW29431   2.293   1.589   1.173
 9511SOL    HW129432   2.215   1.648   1.196
 9511SOL    HW229433   2.262   1.495   1.163
 9512SOL     OW29434   1.388   3.773   5.334
 9512SOL    HW129435   1.302   3.752   5.288
 9512SOL    HW229436   1.402   3.872   5.334
 9513SOL     OW29437   2.346   4.348   4.598
 9513SOL    HW129438   2.391   4.315   4.515
 9513SOL    HW229439   2.307   4.270   4.648
 9514SOL     OW29440   3.158   2.933   5.744
 9514SOL    HW129441   3.252   2.966   5.740
 9514SOL    HW229442   3.140   2.875   5.665
 9515SOL     OW29443   2.243   5.811   5.836
 9515SOL    HW129444   2.309   5.739   5.815
 9515SOL    HW229445   2.292   5.894   5.864
 9516SOL     OW29446   5.687   4.624   4.685
 9516SOL    HW129447   5.715   4.661   4.596
 9516SOL    HW229448   5.601   4.575   4.675
 9517SOL     OW29449   0.590   5.237   3.080
 9517SOL    HW129450   0.508   5.183   3.099
 9517SOL    HW229451   0.671   5.181   3.096
 9518SOL     OW29452   1.001   2.897   5.724
 9518SOL    HW129453   1.085   2.897   5.670
 9518SOL    HW229454   0.942   2.972   5.695
 9519SOL     OW29455   3.222   3.220   3.536
 9519SOL    HW129456   3.262   3.248   3.448
 9519SOL    HW229457   3.144   3.279   3.558
 9520SOL     OW29458   5.382   0.688   6.765
 9520SOL    HW129459   5.438   0.713   6.687
 9520SOL    HW229460   5.287   0.714   6.748
 9521SOL     OW29461   3.752   1.146   1.157
 9521SOL    HW129462   3.753   1.080   1.232
 9521SOL    HW229463   3.659   1.177   1.141
 9522SOL     OW29464   3.712   6.414   1.188
 9522SOL    HW129465   3.729   6.410   1.287
 9522SOL    HW229466   3.656   6.336   1.161
 9523SOL     OW29467   2.492   4.925   4.933
 9523SOL    HW129468   2.587   4.955   4.933
 9523SOL    HW229469   2.451   4.945   5.022
 9524SOL     OW29470   2.052   4.360   0.297
 9524SOL    HW129471   2.072   4.403   0.385
 9524SOL    HW229472   2.129   4.372   0.235
 9525SOL     OW29473   2.257   3.201   6.468
 9525SOL    HW129474   2.242   3.260   6.388
 9525SOL    HW229475   2.331   3.137   6.448
 9526SOL     OW29476   5.243   5.216   6.111
 9526SOL    HW129477   5.230   5.258   6.201
 9526SOL    HW229478   5.333   5.173   6.108
 9527SOL     OW29479   3.738   6.739   4.573
 9527SOL    HW129480   3.785   6.666   4.623
 9527SOL    HW229481   3.704   6.807   4.637
 9528SOL     OW29482   4.935   2.301   0.327
 9528SOL    HW129483   4.865   2.271   0.391
 9528SOL    HW229484   4.892   2.350   0.251
 9529SOL     OW29485   5.530   0.686   1.817
 9529SOL    HW129486   5.438   0.715   1.789
 9529SOL    HW229487   5.585   0.767   1.839
 9530SOL     OW29488   0.793   5.704   3.948
 9530SOL    HW129489   0.892   5.720   3.941
 9530SOL    HW229490   0.745   5.787   3.920
 9531SOL     OW29491   3.170   5.389   1.747
 9531SOL    HW129492   3.234   5.312   1.749
 9531SOL    HW229493   3.078   5.357   1.770
 9532SOL     OW29494   0.048   4.821   4.476
 9532SOL    HW129495   0.097   4.805   4.562
 9532SOL    HW229496   0.104   4.791   4.399
 9533SOL     OW29497   1.159   3.776   3.647
 9533SOL    HW129498   1.159   3.695   3.705
 9533SOL    HW229499   1.201   3.852   3.697
 9534SOL     OW29500   4.369   5.863   4.214
 9534SOL    HW129501   4.321   5.778   4.236
 9534SOL    HW229502   4.310   5.941   4.237
 9535SOL     OW29503   0.349   1.321   4.468
 9535SOL    HW129504   0.430   1.304   4.412
 9535SOL    HW229505   0.377   1.337   4.563
 9536SOL     OW29506   3.651   3.540   5.650
 9536SOL    HW129507   3.614   3.624   5.689
 9536SOL    HW229508   3.579   3.470   5.647
 9537SOL     OW29509   6.919   1.126   4.056
 9537SOL    HW129510   6.875   1.040   4.031
 9537SOL    HW229511   6.870   1.168   4.132
 9538SOL     OW29512   5.640   0.354   5.130
 9538SOL    HW129513   5.690   0.300   5.198
 9538SOL    HW229514   5.695   0.361   5.047
 9539SOL     OW29515   3.777   3.977   2.668
 9539SOL    HW129516   3.814   3.988   2.760
 9539SOL    HW229517   3.850   3.954   2.604
 9540SOL     OW29518   4.332   4.864   3.395
 9540SOL    HW129519   4.246   4.896   3.355
 9540SOL    HW229520   4.399   4.938   3.393
 9541SOL     OW29521   1.426   5.967   5.752
 9541SOL    HW129522   1.361   5.899   5.719
 9541SOL    HW229523   1.442   6.036   5.681
 9542SOL     OW29524   6.205   4.013   2.984
 9542SOL    HW129525   6.130   4.076   2.961
 9542SOL    HW229526   6.225   3.955   2.906
 9543SOL     OW29527   2.345   0.473   5.954
 9543SOL    HW129528   2.272   0.485   6.021
 9543SOL    HW229529   2.378   0.562   5.924
 9544SOL     OW29530   6.253   3.513   4.547
 9544SOL    HW129531   6.273   3.436   4.607
 9544SOL    HW229532   6.172   3.494   4.492
 9545SOL     OW29533   6.532   4.219   2.125
 9545SOL    HW129534   6.503   4.291   2.189
 9545SOL    HW229535   6.500   4.130   2.157
 9546SOL     OW29536   2.782   2.867   1.231
 9546SOL    HW129537   2.727   2.834   1.307
 9546SOL    HW229538   2.726   2.923   1.170
 9547SOL     OW29539   4.137   0.506   3.720
 9547SOL    HW129540   4.228   0.508   3.677
 9547SOL    HW229541   4.076   0.567   3.669
 9548SOL     OW29542   0.934   5.306   6.038
 9548SOL    HW129543   0.946   5.241   5.964
 9548SOL    HW229544   0.860   5.275   6.098
 9549SOL     OW29545   4.016   1.634   1.796
 9549SOL    HW129546   4.095   1.578   1.771
 9549SOL    HW229547   4.044   1.706   1.860
 9550SOL     OW29548   6.713   2.640   1.784
 9550SOL    HW129549   6.666   2.555   1.807
 9550SOL    HW229550   6.780   2.623   1.713
 9551SOL     OW29551   5.983   2.957   6.698
 9551SOL    HW129552   5.941   3.023   6.760
 9551SOL    HW229553   5.989   2.868   6.742
 9552SOL     OW29554   3.052   1.635   0.049
 9552SOL    HW129555   3.028   1.562   0.113
 9552SOL    HW229556   2.987   1.637   6.994
 9553SOL     OW29557   5.690   1.333   0.111
 9553SOL    HW129558   5.764   1.398   0.129
 9553SOL    HW229559   5.614   1.380   0.068
 9554SOL     OW29560   2.926   1.098   4.560
 9554SOL    HW129561   2.840   1.103   4.508
 9554SOL    HW229562   3.001   1.076   4.497
 9555SOL     OW29563   0.133   6.152   3.426
 9555SOL    HW129564   0.042   6.187   3.406
 9555SOL    HW229565   0.174   6.205   3.501
 9556SOL     OW29566   2.345   4.566   6.325
 9556SOL    HW129567   2.401   4.497   6.280
 9556SOL    HW229568   2.279   4.604   6.260
 9557SOL     OW29569   5.836   0.771   1.274
 9557SOL    HW129570   5.808   0.786   1.369
 9557SOL    HW229571   5.837   0.673   1.255
 9558SOL     OW29572   5.049   6.289   6.511
 9558SOL    HW129573   5.134   6.247   6.478
 9558SOL    HW229574   5.033   6.374   6.460
 9559SOL     OW29575   2.319   4.869   7.017
 9559SOL    HW129576   2.339   4.791   0.057
 9559SOL    HW229577   2.394   4.880   6.951
 9560SOL     OW29578   2.614   0.028   2.471
 9560SOL    HW129579   2.681   6.981   2.504
 9560SOL    HW229580   2.649   0.120   2.488
 9561SOL     OW29581   6.939   0.632   6.748
 9561SOL    HW129582   7.019   0.653   6.804
 9561SOL    HW229583   6.935   0.533   6.731
 9562SOL     OW29584   1.844   5.849   2.640
 9562SOL    HW129585   1.884   5.876   2.728
 9562SOL    HW229586   1.766   5.789   2.655
 9563SOL     OW29587   1.168   6.025   6.486
 9563SOL    HW129588   1.093   6.068   6.435
 9563SOL    HW229589   1.130   5.973   6.562
 9564SOL     OW29590   1.603   1.435   0.695
 9564SOL    HW129591   1.520   1.400   0.652
 9564SOL    HW229592   1.658   1.358   0.727
 9565SOL     OW29593   2.523   1.980   4.625
 9565SOL    HW129594   2.499   2.047   4.555
 9565SOL    HW229595   2.563   1.899   4.582
 9566SOL     OW29596   3.146   0.160   0.150
 9566SOL    HW129597   3.207   0.086   0.180
 9566SOL    HW229598   3.131   0.223   0.226
 9567SOL     OW29599   0.152   4.378   1.327
 9567SOL    HW129600   0.054   4.360   1.328
 9567SOL    HW229601   0.192   4.337   1.245
 9568SOL     OW29602   4.440   1.781   6.140
 9568SOL    HW129603   4.437   1.858   6.203
 9568SOL    HW229604   4.482   1.702   6.186
 9569SOL     OW29605   5.720   0.009   2.197
 9569SOL    HW129606   5.737   6.935   2.227
 9569SOL    HW229607   5.646   0.009   2.129
 9570SOL     OW29608   0.914   3.830   1.847
 9570SOL    HW129609   0.998   3.804   1.895
 9570SOL    HW229610   0.835   3.804   1.902
 9571SOL     OW29611   1.591   1.479   6.703
 9571SOL    HW129612   1.562   1.445   6.614
 9571SOL    HW229613   1.527   1.549   6.735
 9572SOL     OW29614   1.959   4.839   4.007
 9572SOL    HW129615   1.937   4.797   3.919
 9572SOL    HW229616   1.880   4.891   4.040
 9573SOL     OW29617   5.955   0.072   4.539
 9573SOL    HW129618   6.017   0.151   4.539
 9573SOL    HW229619   5.860   0.104   4.531
 9574SOL     OW29620   4.523   3.041   0.279
 9574SOL    HW129621   4.488   3.130   0.251
 9574SOL    HW229622   4.622   3.047   0.294
 9575SOL     OW29623   5.381   6.859   2.318
 9575SOL    HW129624   5.291   6.877   2.356
 9575SOL    HW229625   5.401   6.926   2.246
 9576SOL     OW29626   1.329   1.340   6.310
 9576SOL    HW129627   1.297   1.328   6.404
 9576SOL    HW229628   1.252   1.325   6.248
 9577SOL     OW29629   6.495   4.959   3.388
 9577SOL    HW129630   6.489   4.886   3.320
 9577SOL    HW229631   6.548   4.927   3.467
 9578SOL     OW29632   2.078   3.334   2.485
 9578SOL    HW129633   2.122   3.420   2.510
 9578SOL    HW229634   2.112   3.261   2.543
 9579SOL     OW29635   6.261   5.919   2.589
 9579SOL    HW129636   6.361   5.921   2.596
 9579SOL    HW229637   6.222   5.901   2.680
 9580SOL     OW29638   4.706   4.150   3.333
 9580SOL    HW129639   4.671   4.106   3.416
 9580SOL    HW229640   4.655   4.234   3.315
 9581SOL     OW29641   5.550   2.130   6.456
 9581SOL    HW129642   5.542   2.116   6.555
 9581SOL    HW229643   5.460   2.148   6.418
 9582SOL     OW29644   4.937   6.692   4.716
 9582SOL    HW129645   4.993   6.615   4.683
 9582SOL    HW229646   4.994   6.756   4.767
 9583SOL     OW29647   3.289   4.899   1.567
 9583SOL    HW129648   3.201   4.906   1.613
 9583SOL    HW229649   3.362   4.886   1.635
 9584SOL     OW29650   2.399   5.273   4.382
 9584SOL    HW129651   2.425   5.218   4.303
 9584SOL    HW229652   2.472   5.267   4.451
 9585SOL     OW29653   4.622   6.737   0.819
 9585SOL    HW129654   4.580   6.824   0.847
 9585SOL    HW229655   4.596   6.666   0.884
 9586SOL     OW29656   3.097   5.487   2.730
 9586SOL    HW129657   3.194   5.493   2.755
 9586SOL    HW229658   3.047   5.436   2.800
 9587SOL     OW29659   3.252   6.515   0.601
 9587SOL    HW129660   3.153   6.502   0.591
 9587SOL    HW229661   3.283   6.584   0.536
 9588SOL     OW29662   6.611   6.044   0.174
 9588SOL    HW129663   6.574   5.951   0.166
 9588SOL    HW229664   6.711   6.040   0.176
 9589SOL     OW29665   1.611   2.125   6.306
 9589SOL    HW129666   1.629   2.218   6.273
 9589SOL    HW229667   1.686   2.065   6.279
 9590SOL     OW29668   6.383   0.620   1.139
 9590SOL    HW129669   6.322   0.565   1.195
 9590SOL    HW229670   6.410   0.702   1.189
 9591SOL     OW29671   5.231   0.958   0.540
 9591SOL    HW129672   5.259   1.040   0.491
 9591SOL    HW229673   5.313   0.913   0.578
 9592SOL     OW29674   2.398   6.136   5.429
 9592SOL    HW129675   2.387   6.108   5.525
 9592SOL    HW229676   2.463   6.074   5.384
 9593SOL     OW29677   2.190   2.409   4.160
 9593SOL    HW129678   2.202   2.497   4.205
 9593SOL    HW229679   2.149   2.344   4.224
 9594SOL     OW29680   0.147   6.625   3.467
 9594SOL    HW129681   0.053   6.658   3.481
 9594SOL    HW229682   0.148   6.557   3.394
 9595SOL     OW29683   0.535   3.528   3.773
 9595SOL    HW129684   0.520   3.439   3.730
 9595SOL    HW229685   0.464   3.545   3.840
 9596SOL     OW29686   1.539   6.776   0.696
 9596SOL    HW129687   1.476   6.736   0.762
 9596SOL    HW229688   1.628   6.791   0.740
 9597SOL     OW29689   1.073   3.416   1.856
 9597SOL    HW129690   0.976   3.391   1.854
 9597SOL    HW229691   1.106   3.426   1.762
 9598SOL     OW29692   2.325   4.231   4.306
 9598SOL    HW129693   2.235   4.265   4.332
 9598SOL    HW229694   2.350   4.269   4.217
 9599SOL     OW29695   4.540   0.049   4.476
 9599SOL    HW129696   4.553   0.057   4.575
 9599SOL    HW229697   4.606   7.004   4.439
 9600SOL     OW29698   3.852   1.338   0.948
 9600SOL    HW129699   3.771   1.334   0.890
 9600SOL    HW229700   3.840   1.277   1.026
 9601SOL     OW29701   0.909   3.565   0.677
 9601SOL    HW129702   0.828   3.615   0.707
 9601SOL    HW229703   0.965   3.623   0.617
 9602SOL     OW29704   4.246   4.396   5.523
 9602SOL    HW129705   4.164   4.338   5.527
 9602SOL    HW229706   4.307   4.363   5.451
 9603SOL     OW29707   4.954   6.960   5.731
 9603SOL    HW129708   5.003   0.021   5.761
 9603SOL    HW229709   4.887   6.933   5.800
 9604SOL     OW29710   4.667   0.078   1.703
 9604SOL    HW129711   4.626   0.153   1.753
 9604SOL    HW229712   4.656   0.094   1.604
 9605SOL     OW29713   5.310   5.406   1.565
 9605SOL    HW129714   5.361   5.355   1.635
 9605SOL    HW229715   5.252   5.343   1.514
 9606SOL     OW29716   0.979   1.408   6.470
 9606SOL    HW129717   0.904   1.386   6.407
 9606SOL    HW229718   0.957   1.493   6.518
 9607SOL     OW29719   1.651   2.291   6.643
 9607SOL    HW129720   1.749   2.275   6.631
 9607SOL    HW229721   1.606   2.204   6.663
 9608SOL     OW29722   5.874   2.424   4.798
 9608SOL    HW129723   5.787   2.392   4.762
 9608SOL    HW229724   5.892   2.517   4.765
 9609SOL     OW29725   4.790   3.015   0.328
 9609SOL    HW129726   4.842   3.097   0.307
 9609SOL    HW229727   4.762   3.016   0.424
 9610SOL     OW29728   1.041   4.506   2.771
 9610SOL    HW129729   1.087   4.572   2.830
 9610SOL    HW229730   1.104   4.433   2.746
 9611SOL     OW29731   1.949   0.901   0.426
 9611SOL    HW129732   1.977   0.843   0.350
 9611SOL    HW229733   1.910   0.844   0.498
 9612SOL     OW29734   0.350   1.897   3.608
 9612SOL    HW129735   0.295   1.815   3.593
 9612SOL    HW229736   0.358   1.914   3.706
 9613SOL     OW29737   6.279   4.590   3.729
 9613SOL    HW129738   6.252   4.673   3.779
 9613SOL    HW229739   6.212   4.573   3.656
 9614SOL     OW29740   4.488   2.076   3.075
 9614SOL    HW129741   4.514   2.082   3.171
 9614SOL    HW229742   4.443   2.161   3.047
 9615SOL     OW29743   1.918   4.439   1.424
 9615SOL    HW129744   1.849   4.445   1.496
 9615SOL    HW229745   1.986   4.370   1.449
 9616SOL     OW29746   4.303   3.430   6.286
 9616SOL    HW129747   4.252   3.511   6.257
 9616SOL    HW229748   4.254   3.348   6.257
 9617SOL     OW29749   1.770   3.320   2.572
 9617SOL    HW129750   1.708   3.338   2.495
 9617SOL    HW229751   1.865   3.327   2.541
 9618SOL     OW29752   2.494   2.080   0.447
 9618SOL    HW129753   2.562   2.011   0.422
 9618SOL    HW229754   2.494   2.092   0.547
 9619SOL     OW29755   2.304   0.508   6.985
 9619SOL    HW129756   2.241   0.474   6.915
 9619SOL    HW229757   2.356   0.432   0.002
 9620SOL     OW29758   5.114   0.636   5.082
 9620SOL    HW129759   5.068   0.724   5.068
 9620SOL    HW229760   5.170   0.641   5.164
 9621SOL     OW29761   1.811   3.682   3.039
 9621SOL    HW129762   1.831   3.750   3.110
 9621SOL    HW229763   1.824   3.590   3.077
 9622SOL     OW29764   4.706   0.133   0.228
 9622SOL    HW129765   4.769   0.207   0.203
 9622SOL    HW229766   4.643   0.116   0.152
 9623SOL     OW29767   2.184   3.908   0.253
 9623SOL    HW129768   2.274   3.948   0.268
 9623SOL    HW229769   2.133   3.965   0.188
 9624SOL     OW29770   6.461   2.864   4.014
 9624SOL    HW129771   6.396   2.926   3.969
 9624SOL    HW229772   6.464   2.885   4.112
 9625SOL     OW29773   5.644   6.248   1.422
 9625SOL    HW129774   5.742   6.251   1.443
 9625SOL    HW229775   5.595   6.205   1.498
 9626SOL     OW29776   3.436   0.571   0.533
 9626SOL    HW129777   3.524   0.584   0.487
 9626SOL    HW229778   3.451   0.559   0.631
 9627SOL     OW29779   0.654   0.233   6.924
 9627SOL    HW129780   0.736   0.225   6.868
 9627SOL    HW229781   0.679   0.233   0.000
 9628SOL     OW29782   3.290   7.012   1.999
 9628SOL    HW129783   3.239   0.018   2.080
 9628SOL    HW229784   3.277   0.060   1.927
 9629SOL     OW29785   2.518   0.214   1.107
 9629SOL    HW129786   2.591   0.227   1.040
 9629SOL    HW229787   2.470   0.128   1.088
 9630SOL     OW29788   6.737   2.160   6.443
 9630SOL    HW129789   6.800   2.091   6.407
 9630SOL    HW229790   6.711   2.136   6.537
 9631SOL     OW29791   6.881   6.074   0.194
 9631SOL    HW129792   6.959   6.050   0.136
 9631SOL    HW229793   6.879   6.172   0.209
 9632SOL     OW29794   1.233   5.623   2.511
 9632SOL    HW129795   1.134   5.639   2.503
 9632SOL    HW229796   1.248   5.539   2.564
 9633SOL     OW29797   0.002   5.311   6.476
 9633SOL    HW129798   6.947   5.319   6.410
 9633SOL    HW229799   0.086   5.286   6.427
 9634SOL     OW29800   0.657   6.084   6.035
 9634SOL    HW129801   0.587   6.152   6.013
 9634SOL    HW229802   0.653   6.062   6.133
 9635SOL     OW29803   7.017   6.267   5.178
 9635SOL    HW129804   0.074   6.290   5.120
 9635SOL    HW229805   0.009   6.175   5.215
 9636SOL     OW29806   4.384   1.615   0.315
 9636SOL    HW129807   4.299   1.655   0.281
 9636SOL    HW229808   4.417   1.547   0.250
 9637SOL     OW29809   2.430   0.598   6.244
 9637SOL    HW129810   2.452   0.694   6.225
 9637SOL    HW229811   2.335   0.580   6.217
 9638SOL     OW29812   6.529   2.463   6.967
 9638SOL    HW129813   6.542   2.506   6.877
 9638SOL    HW229814   6.575   2.374   6.968
 9639SOL     OW29815   3.527   0.283   2.512
 9639SOL    HW129816   3.524   0.383   2.514
 9639SOL    HW229817   3.593   0.250   2.579
 9640SOL     OW29818   1.142   1.453   2.874
 9640SOL    HW129819   1.193   1.477   2.956
 9640SOL    HW229820   1.122   1.355   2.874
 9641SOL     OW29821   5.460   5.866   6.328
 9641SOL    HW129822   5.410   5.785   6.298
 9641SOL    HW229823   5.450   5.876   6.427
 9642SOL     OW29824   3.477   6.587   3.275
 9642SOL    HW129825   3.382   6.618   3.265
 9642SOL    HW229826   3.538   6.665   3.262
 9643SOL     OW29827   4.277   4.762   2.982
 9643SOL    HW129828   4.307   4.813   2.901
 9643SOL    HW229829   4.187   4.794   3.010
 9644SOL     OW29830   2.938   1.296   0.433
 9644SOL    HW129831   2.990   1.296   0.518
 9644SOL    HW229832   2.847   1.258   0.449
 9645SOL     OW29833   2.485   5.059   4.697
 9645SOL    HW129834   2.521   5.004   4.772
 9645SOL    HW229835   2.550   5.131   4.673
 9646SOL     OW29836   3.596   5.241   4.013
 9646SOL    HW129837   3.593   5.325   4.067
 9646SOL    HW229838   3.633   5.167   4.069
 9647SOL     OW29839   6.607   3.037   5.940
 9647SOL    HW129840   6.648   2.956   5.899
 9647SOL    HW229841   6.639   3.118   5.891
 9648SOL     OW29842   4.255   3.865   0.991
 9648SOL    HW129843   4.259   3.964   1.003
 9648SOL    HW229844   4.285   3.820   1.075
 9649SOL     OW29845   2.239   5.332   2.006
 9649SOL    HW129846   2.307   5.307   2.075
 9649SOL    HW229847   2.209   5.250   1.957
 9650SOL     OW29848   1.355   0.315   1.091
 9650SOL    HW129849   1.413   0.379   1.142
 9650SOL    HW229850   1.265   0.311   1.134
 9651SOL     OW29851   0.340   1.717   0.102
 9651SOL    HW129852   0.319   1.717   0.004
 9651SOL    HW229853   0.369   1.625   0.130
 9652SOL     OW29854   1.297   4.888   1.704
 9652SOL    HW129855   1.287   4.905   1.802
 9652SOL    HW229856   1.209   4.856   1.667
 9653SOL     OW29857   5.495   6.259   4.422
 9653SOL    HW129858   5.546   6.224   4.500
 9653SOL    HW229859   5.447   6.343   4.449
 9654SOL     OW29860   2.252   2.953   2.436
 9654SOL    HW129861   2.314   2.987   2.365
 9654SOL    HW229862   2.273   2.999   2.523
 9655SOL     OW29863   6.118   2.074   6.911
 9655SOL    HW129864   6.132   2.104   7.005
 9655SOL    HW229865   6.045   2.128   6.869
 9656SOL     OW29866   2.739   1.961   3.342
 9656SOL    HW129867   2.765   1.890   3.277
 9656SOL    HW229868   2.726   2.048   3.295
 9657SOL     OW29869   0.020   0.600   4.842
 9657SOL    HW129870   6.946   0.576   4.819
 9657SOL    HW229871   0.073   0.609   4.758
 9658SOL     OW29872   5.940   1.629   2.763
 9658SOL    HW129873   5.853   1.585   2.788
 9658SOL    HW229874   6.015   1.579   2.806
 9659SOL     OW29875   1.279   5.165   6.900
 9659SOL    HW129876   1.310   5.256   6.931
 9659SOL    HW229877   1.358   5.105   6.892
 9660SOL     OW29878   1.099   5.477   0.303
 9660SOL    HW129879   1.076   5.382   0.281
 9660SOL    HW229880   1.192   5.497   0.273
 9661SOL     OW29881   4.029   0.722   0.516
 9661SOL    HW129882   4.052   0.782   0.593
 9661SOL    HW229883   4.098   0.731   0.445
 9662SOL     OW29884   5.809   1.708   4.068
 9662SOL    HW129885   5.756   1.790   4.089
 9662SOL    HW229886   5.860   1.722   3.983
 9663SOL     OW29887   2.285   5.799   3.232
 9663SOL    HW129888   2.299   5.817   3.329
 9663SOL    HW229889   2.321   5.708   3.210
 9664SOL     OW29890   2.698   5.728   1.553
 9664SOL    HW129891   2.730   5.733   1.458
 9664SOL    HW229892   2.672   5.634   1.574
 9665SOL     OW29893   5.221   4.352   3.633
 9665SOL    HW129894   5.185   4.442   3.657
 9665SOL    HW229895   5.195   4.330   3.539
 9666SOL     OW29896   5.766   4.810   4.466
 9666SOL    HW129897   5.774   4.713   4.444
 9666SOL    HW229898   5.806   4.864   4.392
 9667SOL     OW29899   2.949   3.286   3.805
 9667SOL    HW129900   3.009   3.358   3.770
 9667SOL    HW229901   3.000   3.200   3.812
 9668SOL     OW29902   0.065   1.658   5.393
 9668SOL    HW129903   6.993   1.637   5.359
 9668SOL    HW229904   0.058   1.703   5.482
 9669SOL     OW29905   1.658   6.478   0.163
 9669SOL    HW129906   1.609   6.523   0.088
 9669SOL    HW229907   1.592   6.442   0.229
 9670SOL     OW29908   6.005   4.197   6.480
 9670SOL    HW129909   5.993   4.148   6.567
 9670SOL    HW229910   5.948   4.279   6.480
 9671SOL     OW29911   6.836   0.877   6.890
 9671SOL    HW129912   6.873   0.915   6.974
 9671SOL    HW229913   6.886   0.794   6.866
 9672SOL     OW29914   1.187   6.466   5.149
 9672SOL    HW129915   1.267   6.524   5.129
 9672SOL    HW229916   1.116   6.521   5.192
 9673SOL     OW29917   2.223   2.481   6.532
 9673SOL    HW129918   2.240   2.398   6.479
 9673SOL    HW229919   2.258   2.560   6.483
 9674SOL     OW29920   2.595   6.542   2.391
 9674SOL    HW129921   2.600   6.550   2.491
 9674SOL    HW229922   2.577   6.446   2.366
 9675SOL     OW29923   0.213   2.140   2.611
 9675SOL    HW129924   0.285   2.204   2.636
 9675SOL    HW229925   0.139   2.189   2.565
 9676SOL     OW29926   6.681   2.530   4.767
 9676SOL    HW129927   6.680   2.473   4.850
 9676SOL    HW229928   6.587   2.548   4.738
 9677SOL     OW29929   1.667   3.214   5.748
 9677SOL    HW129930   1.654   3.246   5.842
 9677SOL    HW229931   1.580   3.178   5.713
 9678SOL     OW29932   3.585   3.538   3.356
 9678SOL    HW129933   3.555   3.629   3.385
 9678SOL    HW229934   3.669   3.546   3.303
 9679SOL     OW29935   0.771   3.902   0.903
 9679SOL    HW129936   0.694   3.913   0.965
 9679SOL    HW229937   0.743   3.851   0.822
 9680SOL     OW29938   4.776   4.992   2.684
 9680SOL    HW129939   4.757   5.039   2.770
 9680SOL    HW229940   4.722   5.034   2.610
 9681SOL     OW29941   0.687   0.948   4.361
 9681SOL    HW129942   0.730   0.967   4.449
 9681SOL    HW229943   0.610   0.886   4.373
 9682SOL     OW29944   0.467   4.228   2.543
 9682SOL    HW129945   0.543   4.164   2.534
 9682SOL    HW229946   0.496   4.320   2.516
 9683SOL     OW29947   4.552   7.007   5.472
 9683SOL    HW129948   4.607   6.993   5.390
 9683SOL    HW229949   4.596   0.055   5.531
 9684SOL     OW29950   1.024   4.193   3.650
 9684SOL    HW129951   0.985   4.195   3.742
 9684SOL    HW229952   1.048   4.099   3.626
 9685SOL     OW29953   2.173   1.741   6.546
 9685SOL    HW129954   2.214   1.779   6.464
 9685SOL    HW229955   2.141   1.648   6.528
 9686SOL     OW29956   5.493   2.859   1.992
 9686SOL    HW129957   5.561   2.854   1.919
 9686SOL    HW229958   5.408   2.816   1.961
 9687SOL     OW29959   3.476   1.207   4.316
 9687SOL    HW129960   3.490   1.108   4.321
 9687SOL    HW229961   3.533   1.253   4.384
 9688SOL     OW29962   5.700   1.581   4.404
 9688SOL    HW129963   5.648   1.652   4.452
 9688SOL    HW229964   5.664   1.570   4.311
 9689SOL     OW29965   2.488   5.177   5.153
 9689SOL    HW129966   2.550   5.145   5.225
 9689SOL    HW229967   2.394   5.152   5.175
 9690SOL     OW29968   6.387   3.794   0.390
 9690SOL    HW129969   6.330   3.712   0.391
 9690SOL    HW229970   6.418   3.814   0.483
 9691SOL     OW29971   1.797   4.646   0.562
 9691SOL    HW129972   1.830   4.630   0.469
 9691SOL    HW229973   1.738   4.570   0.591
 9692SOL     OW29974   3.031   5.476   0.630
 9692SOL    HW129975   3.034   5.407   0.703
 9692SOL    HW229976   2.941   5.520   0.630
 9693SOL     OW29977   6.117   5.777   1.690
 9693SOL    HW129978   6.167   5.790   1.776
 9693SOL    HW229979   6.103   5.866   1.646
 9694SOL     OW29980   1.037   1.663   0.448
 9694SOL    HW129981   1.083   1.696   0.365
 9694SOL    HW229982   0.938   1.677   0.439
 9695SOL     OW29983   6.695   4.530   0.213
 9695SOL    HW129984   6.747   4.610   0.242
 9695SOL    HW229985   6.631   4.503   0.285
 9696SOL     OW29986   3.888   4.350   0.266
 9696SOL    HW129987   3.793   4.319   0.275
 9696SOL    HW229988   3.890   4.448   0.249
 9697SOL     OW29989   0.307   6.095   6.418
 9697SOL    HW129990   0.339   6.004   6.391
 9697SOL    HW229991   0.213   6.090   6.452
 9698SOL     OW29992   4.955   1.198   5.284
 9698SOL    HW129993   4.969   1.272   5.219
 9698SOL    HW229994   4.858   1.194   5.310
 9699SOL     OW29995   1.544   2.414   6.400
 9699SOL    HW129996   1.447   2.418   6.424
 9699SOL    HW229997   1.593   2.359   6.467
 9700SOL     OW29998   4.078   3.381   3.344
 9700SOL    HW129999   4.099   3.464   3.292
 9700SOL    HW230000   4.054   3.406   3.438
 9701SOL     OW30001   4.674   4.583   4.342
 9701SOL    HW130002   4.619   4.575   4.425
 9701SOL    HW230003   4.748   4.516   4.345
 9702SOL     OW30004   5.472   0.403   1.194
 9702SOL    HW130005   5.526   0.441   1.269
 9702SOL    HW230006   5.530   0.391   1.114
 9703SOL     OW30007   2.305   5.922   4.199
 9703SOL    HW130008   2.208   5.931   4.179
 9703SOL    HW230009   2.355   5.997   4.155
 9704SOL     OW30010   1.980   1.312   3.900
 9704SOL    HW130011   1.988   1.387   3.835
 9704SOL    HW230012   1.938   1.234   3.855
 9705SOL     OW30013   3.423   4.016   0.750
 9705SOL    HW130014   3.390   4.085   0.814
 9705SOL    HW230015   3.489   3.956   0.795
 9706SOL     OW30016   7.001   2.471   3.633
 9706SOL    HW130017   0.057   2.526   3.666
 9706SOL    HW230018   6.962   2.418   3.708
 9707SOL     OW30019   2.588   5.496   2.144
 9707SOL    HW130020   2.581   5.505   2.243
 9707SOL    HW230021   2.562   5.403   2.117
 9708SOL     OW30022   2.022   1.946   1.799
 9708SOL    HW130023   2.093   1.894   1.846
 9708SOL    HW230024   1.979   1.889   1.729
 9709SOL     OW30025   1.704   6.572   3.611
 9709SOL    HW130026   1.692   6.479   3.645
 9709SOL    HW230027   1.793   6.607   3.640
 9710SOL     OW30028   1.128   6.956   3.935
 9710SOL    HW130029   1.135   6.987   3.841
 9710SOL    HW230030   1.160   0.008   3.997
 9711SOL     OW30031   1.485   3.135   6.536
 9711SOL    HW130032   1.567   3.079   6.549
 9711SOL    HW230033   1.443   3.113   6.448
 9712SOL     OW30034   4.904   3.724   4.762
 9712SOL    HW130035   4.861   3.668   4.833
 9712SOL    HW230036   4.924   3.668   4.682
 9713SOL     OW30037   6.928   4.922   3.096
 9713SOL    HW130038   6.857   4.992   3.104
 9713SOL    HW230039   6.933   4.870   3.181
 9714SOL     OW30040   2.147   1.786   2.546
 9714SOL    HW130041   2.141   1.814   2.450
 9714SOL    HW230042   2.177   1.690   2.551
 9715SOL     OW30043   6.092   5.647   5.866
 9715SOL    HW130044   5.992   5.646   5.861
 9715SOL    HW230045   6.128   5.565   5.820
 9716SOL     OW30046   3.179   1.043   6.067
 9716SOL    HW130047   3.277   1.037   6.086
 9716SOL    HW230048   3.144   1.131   6.099
 9717SOL     OW30049   5.505   5.067   3.032
 9717SOL    HW130050   5.605   5.062   3.026
 9717SOL    HW230051   5.476   5.162   3.027
 9718SOL     OW30052   5.170   3.078   1.774
 9718SOL    HW130053   5.154   3.104   1.678
 9718SOL    HW230054   5.092   3.024   1.807
 9719SOL     OW30055   0.014   1.428   0.057
 9719SOL    HW130056   0.041   1.343   0.013
 9719SOL    HW230057   0.014   1.503   7.011
 9720SOL     OW30058   0.707   0.437   0.573
 9720SOL    HW130059   0.730   0.526   0.535
 9720SOL    HW230060   0.738   0.431   0.668
 9721SOL     OW30061   0.289   2.523   3.408
 9721SOL    HW130062   0.311   2.438   3.456
 9721SOL    HW230063   0.251   2.502   3.318
 9722SOL     OW30064   0.381   0.270   4.535
 9722SOL    HW130065   0.299   0.212   4.535
 9722SOL    HW230066   0.460   0.216   4.562
 9723SOL     OW30067   6.680   0.334   4.120
 9723SOL    HW130068   6.590   0.321   4.162
 9723SOL    HW230069   6.702   0.254   4.064
 9724SOL     OW30070   4.106   2.475   1.572
 9724SOL    HW130071   4.020   2.429   1.593
 9724SOL    HW230072   4.089   2.572   1.556
 9725SOL     OW30073   3.707   3.180   5.691
 9725SOL    HW130074   3.658   3.251   5.640
 9725SOL    HW230075   3.794   3.217   5.724
 9726SOL     OW30076   5.384   6.178   4.739
 9726SOL    HW130077   5.460   6.221   4.789
 9726SOL    HW230078   5.332   6.121   4.801
 9727SOL     OW30079   1.177   0.478   6.710
 9727SOL    HW130080   1.234   0.557   6.686
 9727SOL    HW230081   1.167   0.418   6.630
 9728SOL     OW30082   3.505   6.019   6.376
 9728SOL    HW130083   3.444   6.060   6.309
 9728SOL    HW230084   3.567   6.089   6.412
 9729SOL     OW30085   3.006   5.224   2.578
 9729SOL    HW130086   2.975   5.158   2.646
 9729SOL    HW230087   3.051   5.176   2.502
 9730SOL     OW30088   5.675   3.718   3.205
 9730SOL    HW130089   5.623   3.760   3.131
 9730SOL    HW230090   5.633   3.743   3.293
 9731SOL     OW30091   5.290   5.282   1.164
 9731SOL    HW130092   5.346   5.201   1.144
 9731SOL    HW230093   5.216   5.288   1.098
 9732SOL     OW30094   4.677   6.613   4.833
 9732SOL    HW130095   4.767   6.591   4.796
 9732SOL    HW230096   4.687   6.652   4.924
 9733SOL     OW30097   5.325   4.443   5.241
 9733SOL    HW130098   5.309   4.470   5.336
 9733SOL    HW230099   5.424   4.440   5.224
 9734SOL     OW30100   6.048   1.674   5.875
 9734SOL    HW130101   6.142   1.693   5.848
 9734SOL    HW230102   6.000   1.627   5.800
 9735SOL     OW30103   3.274   4.847   1.139
 9735SOL    HW130104   3.326   4.807   1.063
 9735SOL    HW230105   3.238   4.774   1.197
 9736SOL     OW30106   3.039   1.601   2.146
 9736SOL    HW130107   2.972   1.657   2.097
 9736SOL    HW230108   3.006   1.507   2.153
 9737SOL     OW30109   4.402   1.978   4.422
 9737SOL    HW130110   4.449   1.896   4.455
 9737SOL    HW230111   4.339   1.953   4.348
 9738SOL     OW30112   2.201   1.116   2.084
 9738SOL    HW130113   2.299   1.132   2.084
 9738SOL    HW230114   2.162   1.145   2.172
 9739SOL     OW30115   5.474   4.389   2.094
 9739SOL    HW130116   5.511   4.358   2.006
 9739SOL    HW230117   5.440   4.310   2.145
 9740SOL     OW30118   6.525   2.666   2.521
 9740SOL    HW130119   6.586   2.746   2.521
 9740SOL    HW230120   6.528   2.622   2.432
 9741SOL     OW30121   3.942   2.113   2.535
 9741SOL    HW130122   3.877   2.091   2.462
 9741SOL    HW230123   3.891   2.136   2.618
 9742SOL     OW30124   4.089   1.479   3.647
 9742SOL    HW130125   4.113   1.467   3.551
 9742SOL    HW230126   3.991   1.460   3.660
 9743SOL     OW30127   1.609   1.195   5.120
 9743SOL    HW130128   1.634   1.291   5.132
 9743SOL    HW230129   1.575   1.158   5.206
 9744SOL     OW30130   2.647   0.214   1.365
 9744SOL    HW130131   2.743   0.217   1.337
 9744SOL    HW230132   2.589   0.195   1.285
 9745SOL     OW30133   0.256   0.734   4.552
 9745SOL    HW130134   0.323   0.808   4.558
 9745SOL    HW230135   0.286   0.656   4.608
 9746SOL     OW30136   6.232   0.455   4.330
 9746SOL    HW130137   6.304   0.513   4.293
 9746SOL    HW230138   6.194   0.497   4.412
 9747SOL     OW30139   0.261   0.245   6.216
 9747SOL    HW130140   0.276   0.341   6.241
 9747SOL    HW230141   0.345   0.207   6.177
 9748SOL     OW30142   1.439   4.077   4.344
 9748SOL    HW130143   1.489   4.132   4.277
 9748SOL    HW230144   1.494   3.998   4.370
 9749SOL     OW30145   0.364   4.929   4.566
 9749SOL    HW130146   0.359   4.831   4.548
 9749SOL    HW230147   0.441   4.969   4.517
 9750SOL     OW30148   2.389   5.701   2.479
 9750SOL    HW130149   2.333   5.723   2.399
 9750SOL    HW230150   2.429   5.785   2.516
 9751SOL     OW30151   1.428   2.546   0.503
 9751SOL    HW130152   1.525   2.527   0.489
 9751SOL    HW230153   1.390   2.590   0.421
 9752SOL     OW30154   3.761   0.088   6.032
 9752SOL    HW130155   3.852   0.129   6.043
 9752SOL    HW230156   3.719   0.076   6.122
 9753SOL     OW30157   6.835   6.627   0.133
 9753SOL    HW130158   6.852   6.620   0.035
 9753SOL    HW230159   6.839   6.536   0.174
 9754SOL     OW30160   6.771   3.094   6.732
 9754SOL    HW130161   6.734   3.186   6.747
 9754SOL    HW230162   6.864   3.089   6.768
 9755SOL     OW30163   3.830   5.776   5.074
 9755SOL    HW130164   3.920   5.796   5.111
 9755SOL    HW230165   3.838   5.707   5.002
 9756SOL     OW30166   5.000   2.913   6.475
 9756SOL    HW130167   4.996   3.010   6.449
 9756SOL    HW230168   5.096   2.888   6.492
 9757SOL     OW30169   6.367   1.005   3.967
 9757SOL    HW130170   6.417   0.967   3.888
 9757SOL    HW230171   6.328   1.093   3.942
 9758SOL     OW30172   3.520   0.947   0.385
 9758SOL    HW130173   3.533   0.875   0.317
 9758SOL    HW230174   3.501   1.034   0.340
 9759SOL     OW30175   2.824   5.868   1.791
 9759SOL    HW130176   2.759   5.820   1.733
 9759SOL    HW230177   2.895   5.804   1.820
 9760SOL     OW30178   5.505   4.225   5.777
 9760SOL    HW130179   5.459   4.304   5.736
 9760SOL    HW230180   5.483   4.143   5.724
 9761SOL     OW30181   5.290   5.461   2.660
 9761SOL    HW130182   5.227   5.520   2.710
 9761SOL    HW230183   5.273   5.471   2.562
 9762SOL     OW30184   3.295   0.423   2.378
 9762SOL    HW130185   3.340   0.347   2.426
 9762SOL    HW230186   3.229   0.387   2.312
 9763SOL     OW30187   2.345   2.098   1.587
 9763SOL    HW130188   2.363   2.000   1.594
 9763SOL    HW230189   2.389   2.145   1.664
 9764SOL     OW30190   0.807   2.530   3.743
 9764SOL    HW130191   0.787   2.531   3.841
 9764SOL    HW230192   0.885   2.470   3.724
 9765SOL     OW30193   0.579   0.636   6.052
 9765SOL    HW130194   0.631   0.560   6.014
 9765SOL    HW230195   0.569   0.624   6.150
 9766SOL     OW30196   2.573   0.638   2.407
 9766SOL    HW130197   2.663   0.597   2.399
 9766SOL    HW230198   2.504   0.567   2.422
 9767SOL     OW30199   4.760   0.488   5.209
 9767SOL    HW130200   4.726   0.542   5.286
 9767SOL    HW230201   4.716   0.519   5.124
 9768SOL     OW30202   4.847   1.753   3.784
 9768SOL    HW130203   4.938   1.739   3.823
 9768SOL    HW230204   4.838   1.848   3.755
 9769SOL     OW30205   0.333   2.106   0.826
 9769SOL    HW130206   0.380   2.126   0.912
 9769SOL    HW230207   0.242   2.071   0.845
 9770SOL     OW30208   0.746   2.671   5.639
 9770SOL    HW130209   0.785   2.579   5.645
 9770SOL    HW230210   0.797   2.732   5.700
 9771SOL     OW30211   2.287   6.207   3.834
 9771SOL    HW130212   2.356   6.177   3.768
 9771SOL    HW230213   2.299   6.305   3.851
 9772SOL     OW30214   5.888   6.768   1.132
 9772SOL    HW130215   5.792   6.742   1.121
 9772SOL    HW230216   5.911   6.841   1.068
 9773SOL     OW30217   4.841   5.443   3.976
 9773SOL    HW130218   4.787   5.484   4.050
 9773SOL    HW230219   4.780   5.402   3.909
 9774SOL     OW30220   6.989   5.010   4.702
 9774SOL    HW130221   0.042   4.981   4.762
 9774SOL    HW230222   6.983   4.948   4.624
 9775SOL     OW30223   2.755   1.642   5.089
 9775SOL    HW130224   2.720   1.613   5.179
 9775SOL    HW230225   2.773   1.561   5.033
 9776SOL     OW30226   0.375   4.656   4.480
 9776SOL    HW130227   0.428   4.692   4.403
 9776SOL    HW230228   0.328   4.572   4.451
 9777SOL     OW30229   5.331   6.234   6.493
 9777SOL    HW130230   5.336   6.224   6.592
 9777SOL    HW230231   5.407   6.185   6.450
 9778SOL     OW30232   4.113   0.721   4.655
 9778SOL    HW130233   4.037   0.757   4.708
 9778SOL    HW230234   4.159   0.650   4.707
 9779SOL     OW30235   3.136   2.405   6.789
 9779SOL    HW130236   3.196   2.484   6.801
 9779SOL    HW230237   3.167   2.351   6.711
 9780SOL     OW30238   2.199   3.581   1.135
 9780SOL    HW130239   2.118   3.590   1.076
 9780SOL    HW230240   2.179   3.518   1.210
 9781SOL     OW30241   0.980   0.007   4.596
 9781SOL    HW130242   0.926   0.001   4.513
 9781SOL    HW230243   0.994   6.935   4.634
 9782SOL     OW30244   6.186   6.932   1.292
 9782SOL    HW130245   6.148   6.921   1.201
 9782SOL    HW230246   6.142   6.868   1.355
 9783SOL     OW30247   6.174   6.891   3.586
 9783SOL    HW130248   6.165   6.990   3.577
 9783SOL    HW230249   6.196   6.868   3.681
 9784SOL     OW30250   5.377   0.172   4.553
 9784SOL    HW130251   5.431   0.125   4.484
 9784SOL    HW230252   5.430   0.178   4.638
 9785SOL     OW30253   1.003   2.413   1.415
 9785SOL    HW130254   0.983   2.492   1.473
 9785SOL    HW230255   0.999   2.329   1.470
 9786SOL     OW30256   1.932   0.010   3.964
 9786SOL    HW130257   1.930   0.090   4.024
 9786SOL    HW230258   1.904   0.036   3.872
 9787SOL     OW30259   5.399   4.391   1.533
 9787SOL    HW130260   5.307   4.415   1.501
 9787SOL    HW230261   5.393   4.329   1.611
 9788SOL     OW30262   6.682   0.329   6.130
 9788SOL    HW130263   6.685   0.406   6.193
 9788SOL    HW230264   6.770   0.321   6.083
 9789SOL     OW30265   1.759   4.434   4.705
 9789SOL    HW130266   1.836   4.416   4.644
 9789SOL    HW230267   1.794   4.458   4.796
 9790SOL     OW30268   0.026   1.356   3.656
 9790SOL    HW130269   0.016   1.343   3.558
 9790SOL    HW230270   6.984   1.429   3.686
 9791SOL     OW30271   1.556   2.860   1.022
 9791SOL    HW130272   1.599   2.783   0.975
 9791SOL    HW230273   1.461   2.869   0.992
 9792SOL     OW30274   3.874   5.570   2.075
 9792SOL    HW130275   3.927   5.636   2.021
 9792SOL    HW230276   3.898   5.579   2.172
 9793SOL     OW30277   5.314   6.215   2.207
 9793SOL    HW130278   5.232   6.246   2.158
 9793SOL    HW230279   5.303   6.235   2.305
 9794SOL     OW30280   3.803   3.260   6.769
 9794SOL    HW130281   3.717   3.305   6.743
 9794SOL    HW230282   3.787   3.201   6.849
 9795SOL     OW30283   1.783   4.733   2.828
 9795SOL    HW130284   1.792   4.635   2.810
 9795SOL    HW230285   1.824   4.784   2.752
 9796SOL     OW30286   3.751   5.212   6.865
 9796SOL    HW130287   3.718   5.280   6.800
 9796SOL    HW230288   3.676   5.186   6.926
 9797SOL     OW30289   5.963   3.140   5.179
 9797SOL    HW130290   5.938   3.058   5.128
 9797SOL    HW230291   6.041   3.120   5.238
 9798SOL     OW30292   2.927   1.342   2.172
 9798SOL    HW130293   2.959   1.318   2.264
 9798SOL    HW230294   2.917   1.258   2.118
 9799SOL     OW30295   3.848   3.717   3.211
 9799SOL    HW130296   3.900   3.632   3.218
 9799SOL    HW230297   3.867   3.774   3.290
 9800SOL     OW30298   3.343   6.737   0.427
 9800SOL    HW130299   3.265   6.767   0.372
 9800SOL    HW230300   3.426   6.743   0.373
 9801SOL     OW30301   5.549   4.889   1.536
 9801SOL    HW130302   5.636   4.844   1.517
 9801SOL    HW230303   5.474   4.828   1.509
 9802SOL     OW30304   0.861   5.690   2.131
 9802SOL    HW130305   0.881   5.780   2.170
 9802SOL    HW230306   0.945   5.636   2.126
 9803SOL     OW30307   5.567   0.066   6.481
 9803SOL    HW130308   5.569   0.154   6.528
 9803SOL    HW230309   5.480   0.057   6.432
 9804SOL     OW30310   4.560   5.198   4.543
 9804SOL    HW130311   4.606   5.145   4.614
 9804SOL    HW230312   4.533   5.286   4.580
 9805SOL     OW30313   3.573   3.856   0.902
 9805SOL    HW130314   3.579   3.848   1.001
 9805SOL    HW230315   3.633   3.788   0.859
 9806SOL     OW30316   6.909   1.319   2.260
 9806SOL    HW130317   7.008   1.309   2.272
 9806SOL    HW230318   6.866   1.334   2.349
 9807SOL     OW30319   1.989   3.080   1.056
 9807SOL    HW130320   2.080   3.100   1.021
 9807SOL    HW230321   1.943   3.016   0.994
 9808SOL     OW30322   2.207   2.473   3.772
 9808SOL    HW130323   2.210   2.398   3.839
 9808SOL    HW230324   2.149   2.445   3.695
 9809SOL     OW30325   0.561   0.249   4.132
 9809SOL    HW130326   0.486   0.306   4.167
 9809SOL    HW230327   0.522   0.168   4.088
 9810SOL     OW30328   4.416   1.842   2.417
 9810SOL    HW130329   4.465   1.812   2.499
 9810SOL    HW230330   4.353   1.770   2.387
 9811SOL     OW30331   1.613   0.871   3.211
 9811SOL    HW130332   1.680   0.910   3.148
 9811SOL    HW230333   1.652   0.791   3.256
 9812SOL     OW30334   5.736   3.245   6.381
 9812SOL    HW130335   5.665   3.214   6.319
 9812SOL    HW230336   5.790   3.166   6.412
 9813SOL     OW30337   6.196   4.590   0.344
 9813SOL    HW130338   6.154   4.584   0.253
 9813SOL    HW230339   6.130   4.559   0.412
 9814SOL     OW30340   6.216   0.949   5.832
 9814SOL    HW130341   6.264   1.008   5.766
 9814SOL    HW230342   6.266   0.949   5.918
 9815SOL     OW30343   0.261   4.906   2.073
 9815SOL    HW130344   0.231   4.910   2.168
 9815SOL    HW230345   0.244   4.815   2.035
 9816SOL     OW30346   6.406   1.667   4.967
 9816SOL    HW130347   6.326   1.712   4.927
 9816SOL    HW230348   6.489   1.702   4.924
 9817SOL     OW30349   2.653   1.385   0.431
 9817SOL    HW130350   2.592   1.423   0.501
 9817SOL    HW230351   2.665   1.288   0.447
 9818SOL     OW30352   0.800   0.386   2.409
 9818SOL    HW130353   0.725   0.320   2.422
 9818SOL    HW230354   0.850   0.363   2.325
 9819SOL     OW30355   5.553   1.394   4.612
 9819SOL    HW130356   5.591   1.463   4.551
 9819SOL    HW230357   5.466   1.361   4.575
 9820SOL     OW30358   3.555   0.446   6.612
 9820SOL    HW130359   3.547   0.475   6.707
 9820SOL    HW230360   3.562   0.527   6.553
 9821SOL     OW30361   4.791   3.971   6.751
 9821SOL    HW130362   4.794   4.002   6.847
 9821SOL    HW230363   4.850   3.892   6.739
 9822SOL     OW30364   2.919   5.506   3.991
 9822SOL    HW130365   2.968   5.472   4.071
 9822SOL    HW230366   2.982   5.512   3.913
 9823SOL     OW30367   4.659   6.013   3.320
 9823SOL    HW130368   4.712   5.941   3.364
 9823SOL    HW230369   4.708   6.100   3.327
 9824SOL     OW30370   1.210   5.779   5.704
 9824SOL    HW130371   1.154   5.726   5.767
 9824SOL    HW230372   1.185   5.756   5.610
 9825SOL     OW30373   0.972   6.431   4.663
 9825SOL    HW130374   1.061   6.387   4.656
 9825SOL    HW230375   0.913   6.378   4.724
 9826SOL     OW30376   1.873   5.829   6.052
 9826SOL    HW130377   1.893   5.753   6.114
 9826SOL    HW230378   1.858   5.912   6.105
 9827SOL     OW30379   1.712   4.889   2.076
 9827SOL    HW130380   1.639   4.958   2.083
 9827SOL    HW230381   1.742   4.882   1.981
 9828SOL     OW30382   4.982   2.242   4.282
 9828SOL    HW130383   4.932   2.327   4.264
 9828SOL    HW230384   4.918   2.166   4.283
 9829SOL     OW30385   5.631   4.318   5.467
 9829SOL    HW130386   5.698   4.263   5.517
 9829SOL    HW230387   5.636   4.295   5.370
 9830SOL     OW30388   6.264   1.219   2.790
 9830SOL    HW130389   6.288   1.168   2.707
 9830SOL    HW230390   6.209   1.160   2.850
 9831SOL     OW30391   0.848   5.055   1.501
 9831SOL    HW130392   0.945   5.064   1.477
 9831SOL    HW230393   0.822   4.958   1.497
 9832SOL     OW30394   5.184   5.459   5.003
 9832SOL    HW130395   5.199   5.459   4.904
 9832SOL    HW230396   5.217   5.544   5.042
 9833SOL     OW30397   3.565   2.888   4.200
 9833SOL    HW130398   3.605   2.903   4.110
 9833SOL    HW230399   3.635   2.903   4.270
 9834SOL     OW30400   3.701   5.820   6.276
 9834SOL    HW130401   3.626   5.878   6.306
 9834SOL    HW230402   3.755   5.867   6.206
 9835SOL     OW30403   3.692   3.332   3.493
 9835SOL    HW130404   3.622   3.401   3.475
 9835SOL    HW230405   3.709   3.326   3.591
 9836SOL     OW30406   6.266   2.781   6.030
 9836SOL    HW130407   6.210   2.771   5.947
 9836SOL    HW230408   6.259   2.699   6.086
 9837SOL     OW30409   6.539   0.849   4.126
 9837SOL    HW130410   6.576   0.903   4.201
 9837SOL    HW230411   6.483   0.907   4.067
 9838SOL     OW30412   0.558   6.041   1.087
 9838SOL    HW130413   0.470   6.050   1.042
 9838SOL    HW230414   0.574   5.944   1.110
 9839SOL     OW30415   3.869   6.381   3.599
 9839SOL    HW130416   3.960   6.392   3.558
 9839SOL    HW230417   3.878   6.378   3.698
 9840SOL     OW30418   6.279   2.227   6.449
 9840SOL    HW130419   6.279   2.214   6.548
 9840SOL    HW230420   6.293   2.324   6.427
 9841SOL     OW30421   0.136   5.619   2.404
 9841SOL    HW130422   0.162   5.532   2.448
 9841SOL    HW230423   0.102   5.601   2.312
 9842SOL     OW30424   3.872   0.312   0.362
 9842SOL    HW130425   3.852   0.233   0.304
 9842SOL    HW230426   3.929   0.283   0.439
 9843SOL     OW30427   0.533   0.248   0.496
 9843SOL    HW130428   0.617   0.299   0.515
 9843SOL    HW230429   0.553   0.171   0.436
 9844SOL     OW30430   5.023   0.997   4.592
 9844SOL    HW130431   5.114   1.036   4.574
 9844SOL    HW230432   5.033   0.908   4.636
 9845SOL     OW30433   1.046   3.567   2.149
 9845SOL    HW130434   0.956   3.525   2.137
 9845SOL    HW230435   1.114   3.514   2.099
 9846SOL     OW30436   5.901   2.375   2.415
 9846SOL    HW130437   5.930   2.388   2.320
 9846SOL    HW230438   5.978   2.392   2.476
 9847SOL     OW30439   4.063   4.427   7.012
 9847SOL    HW130440   4.012   4.345   0.018
 9847SOL    HW230441   4.139   4.441   0.055
 9848SOL     OW30442   2.963   3.603   5.759
 9848SOL    HW130443   3.037   3.634   5.818
 9848SOL    HW230444   2.892   3.673   5.754
 9849SOL     OW30445   1.486   1.955   2.114
 9849SOL    HW130446   1.496   1.974   2.211
 9849SOL    HW230447   1.475   2.040   2.063
 9850SOL     OW30448   1.705   0.732   3.938
 9850SOL    HW130449   1.608   0.757   3.942
 9850SOL    HW230450   1.760   0.814   3.929
 9851SOL     OW30451   3.319   5.166   3.415
 9851SOL    HW130452   3.230   5.171   3.462
 9851SOL    HW230453   3.392   5.169   3.483
 9852SOL     OW30454   2.492   0.316   0.068
 9852SOL    HW130455   2.436   0.234   0.056
 9852SOL    HW230456   2.572   0.310   0.008
 9853SOL     OW30457   0.258   3.569   4.102
 9853SOL    HW130458   0.174   3.555   4.155
 9853SOL    HW230459   0.269   3.495   4.037
 9854SOL     OW30460   6.284   4.207   6.818
 9854SOL    HW130461   6.281   4.126   6.760
 9854SOL    HW230462   6.367   4.260   6.797
 9855SOL     OW30463   1.343   6.052   0.843
 9855SOL    HW130464   1.297   6.024   0.759
 9855SOL    HW230465   1.411   6.122   0.821
 9856SOL     OW30466   4.844   4.688   2.967
 9856SOL    HW130467   4.882   4.619   3.029
 9856SOL    HW230468   4.768   4.734   3.013
 9857SOL     OW30469   5.134   0.241   5.466
 9857SOL    HW130470   5.044   0.281   5.446
 9857SOL    HW230471   5.137   0.213   5.562
 9858SOL     OW30472   0.051   5.185   2.854
 9858SOL    HW130473   0.057   5.096   2.900
 9858SOL    HW230474   7.004   5.242   2.900
 9859SOL     OW30475   0.632   5.683   2.759
 9859SOL    HW130476   0.639   5.657   2.855
 9859SOL    HW230477   0.679   5.770   2.745
 9860SOL     OW30478   1.640   3.107   3.257
 9860SOL    HW130479   1.636   3.202   3.286
 9860SOL    HW230480   1.735   3.075   3.260
 9861SOL     OW30481   3.869   2.153   4.267
 9861SOL    HW130482   3.930   2.162   4.346
 9861SOL    HW230483   3.906   2.206   4.190
 9862SOL     OW30484   1.871   2.571   6.725
 9862SOL    HW130485   1.772   2.560   6.736
 9862SOL    HW230486   1.903   2.643   6.787
 9863SOL     OW30487   3.764   5.962   1.785
 9863SOL    HW130488   3.809   6.026   1.723
 9863SOL    HW230489   3.695   6.010   1.839
 9864SOL     OW30490   2.856   5.636   5.243
 9864SOL    HW130491   2.849   5.715   5.182
 9864SOL    HW230492   2.790   5.566   5.214
 9865SOL     OW30493   2.424   6.009   5.879
 9865SOL    HW130494   2.452   6.069   5.804
 9865SOL    HW230495   2.498   6.003   5.946
 9866SOL     OW30496   0.035   5.662   5.868
 9866SOL    HW130497   0.061   5.750   5.909
 9866SOL    HW230498   7.008   5.606   5.936
 9867SOL     OW30499   4.938   0.851   2.703
 9867SOL    HW130500   4.844   0.855   2.668
 9867SOL    HW230501   4.954   0.761   2.744
 9868SOL     OW30502   2.416   4.412   3.387
 9868SOL    HW130503   2.413   4.331   3.328
 9868SOL    HW230504   2.385   4.388   3.479
 9869SOL     OW30505   5.418   2.198   2.668
 9869SOL    HW130506   5.515   2.217   2.653
 9869SOL    HW230507   5.397   2.105   2.638
 9870SOL     OW30508   1.894   2.853   2.850
 9870SOL    HW130509   1.799   2.861   2.820
 9870SOL    HW230510   1.953   2.833   2.772
 9871SOL     OW30511   5.827   5.230   3.485
 9871SOL    HW130512   5.876   5.268   3.407
 9871SOL    HW230513   5.890   5.224   3.563
 9872SOL     OW30514   0.815   6.246   5.239
 9872SOL    HW130515   0.852   6.185   5.168
 9872SOL    HW230516   0.717   6.231   5.248
 9873SOL     OW30517   0.516   0.720   5.074
 9873SOL    HW130518   0.609   0.710   5.037
 9873SOL    HW230519   0.461   0.774   5.011
 9874SOL     OW30520   6.580   1.826   3.612
 9874SOL    HW130521   6.659   1.883   3.637
 9874SOL    HW230522   6.606   1.730   3.612
 9875SOL     OW30523   6.067   6.084   1.108
 9875SOL    HW130524   6.116   6.032   1.038
 9875SOL    HW230525   6.031   6.021   1.177
 9876SOL     OW30526   0.494   0.373   3.396
 9876SOL    HW130527   0.443   0.391   3.311
 9876SOL    HW230528   0.583   0.333   3.373
 9877SOL     OW30529   1.415   5.876   4.944
 9877SOL    HW130530   1.371   5.955   4.985
 9877SOL    HW230531   1.445   5.813   5.016
 9878SOL     OW30532   4.251   3.762   0.234
 9878SOL    HW130533   4.191   3.722   0.164
 9878SOL    HW230534   4.204   3.761   0.322
 9879SOL     OW30535   5.561   5.485   4.289
 9879SOL    HW130536   5.484   5.421   4.293
 9879SOL    HW230537   5.621   5.468   4.367
 9880SOL     OW30538   2.882   1.029   0.790
 9880SOL    HW130539   2.808   0.977   0.748
 9880SOL    HW230540   2.883   1.014   0.889
 9881SOL     OW30541   6.539   6.948   2.697
 9881SOL    HW130542   6.633   6.923   2.718
 9881SOL    HW230543   6.484   6.866   2.685
 9882SOL     OW30544   3.402   3.968   4.256
 9882SOL    HW130545   3.370   4.007   4.170
 9882SOL    HW230546   3.389   3.869   4.255
 9883SOL     OW30547   1.774   6.132   2.639
 9883SOL    HW130548   1.794   6.036   2.623
 9883SOL    HW230549   1.852   6.176   2.683
 9884SOL     OW30550   3.038   2.481   5.405
 9884SOL    HW130551   2.959   2.529   5.367
 9884SOL    HW230552   3.085   2.430   5.333
 9885SOL     OW30553   4.943   2.110   4.918
 9885SOL    HW130554   5.015   2.159   4.967
 9885SOL    HW230555   4.984   2.048   4.850
 9886SOL     OW30556   2.621   6.459   1.511
 9886SOL    HW130557   2.715   6.485   1.530
 9886SOL    HW230558   2.581   6.524   1.446
 9887SOL     OW30559   3.711   1.174   0.065
 9887SOL    HW130560   3.677   1.109   7.017
 9887SOL    HW230561   3.799   1.143   0.100
 9888SOL     OW30562   6.410   6.702   4.114
 9888SOL    HW130563   6.328   6.758   4.129
 9888SOL    HW230564   6.484   6.760   4.081
 9889SOL     OW30565   6.822   5.893   2.226
 9889SOL    HW130566   6.749   5.956   2.195
 9889SOL    HW230567   6.827   5.816   2.163
 9890SOL     OW30568   1.675   3.185   2.990
 9890SOL    HW130569   1.748   3.119   3.007
 9890SOL    HW230570   1.620   3.195   3.073
 9891SOL     OW30571   3.498   0.136   1.783
 9891SOL    HW130572   3.537   0.130   1.691
 9891SOL    HW230573   3.500   0.045   1.826
 9892SOL     OW30574   1.835   5.901   3.181
 9892SOL    HW130575   1.926   5.930   3.207
 9892SOL    HW230576   1.801   5.959   3.107
 9893SOL     OW30577   5.705   4.808   4.869
 9893SOL    HW130578   5.800   4.823   4.897
 9893SOL    HW230579   5.701   4.733   4.803
 9894SOL     OW30580   4.266   4.115   5.739
 9894SOL    HW130581   4.317   4.080   5.660
 9894SOL    HW230582   4.175   4.144   5.711
 9895SOL     OW30583   4.933   2.295   5.869
 9895SOL    HW130584   4.846   2.247   5.855
 9895SOL    HW230585   4.980   2.255   5.948
 9896SOL     OW30586   4.352   4.074   6.916
 9896SOL    HW130587   4.283   4.122   6.862
 9896SOL    HW230588   4.356   3.978   6.889
 9897SOL     OW30589   1.278   1.464   2.397
 9897SOL    HW130590   1.308   1.551   2.356
 9897SOL    HW230591   1.216   1.482   2.473
 9898SOL     OW30592   0.017   5.345   0.139
 9898SOL    HW130593   0.050   5.439   0.133
 9898SOL    HW230594   6.967   5.339   0.209
 9899SOL     OW30595   4.354   5.773   1.094
 9899SOL    HW130596   4.441   5.748   1.051
 9899SOL    HW230597   4.278   5.746   1.035
 9900SOL     OW30598   1.803   5.670   3.048
 9900SOL    HW130599   1.817   5.739   3.119
 9900SOL    HW230600   1.890   5.646   3.007
 9901SOL     OW30601   3.028   1.327   6.097
 9901SOL    HW130602   3.067   1.358   6.011
 9901SOL    HW230603   2.955   1.390   6.125
 9902SOL     OW30604   4.170   4.286   0.274
 9902SOL    HW130605   4.082   4.317   0.240
 9902SOL    HW230606   4.187   4.192   0.245
 9903SOL     OW30607   2.533   1.101   1.171
 9903SOL    HW130608   2.597   1.143   1.106
 9903SOL    HW230609   2.445   1.148   1.167
 9904SOL     OW30610   6.443   6.356   2.248
 9904SOL    HW130611   6.437   6.448   2.208
 9904SOL    HW230612   6.358   6.336   2.296
 9905SOL     OW30613   2.330   6.668   0.123
 9905SOL    HW130614   2.349   6.570   0.115
 9905SOL    HW230615   2.343   6.697   0.218
 9906SOL     OW30616   3.815   3.828   6.061
 9906SOL    HW130617   3.822   3.905   6.124
 9906SOL    HW230618   3.729   3.833   6.011
 9907SOL     OW30619   0.812   6.408   3.162
 9907SOL    HW130620   0.807   6.463   3.246
 9907SOL    HW230621   0.839   6.314   3.186
 9908SOL     OW30622   6.502   2.842   5.653
 9908SOL    HW130623   6.480   2.936   5.628
 9908SOL    HW230624   6.556   2.842   5.737
 9909SOL     OW30625   2.085   6.037   3.192
 9909SOL    HW130626   2.122   6.128   3.175
 9909SOL    HW230627   2.133   5.970   3.135
 9910SOL     OW30628   1.193   5.415   0.881
 9910SOL    HW130629   1.221   5.321   0.864
 9910SOL    HW230630   1.267   5.477   0.854
 9911SOL     OW30631   3.274   4.922   2.182
 9911SOL    HW130632   3.227   4.914   2.094
 9911SOL    HW230633   3.372   4.928   2.167
 9912SOL     OW30634   5.777   6.681   6.969
 9912SOL    HW130635   5.826   6.687   0.035
 9912SOL    HW230636   5.822   6.739   6.901
 9913SOL     OW30637   6.294   1.772   2.788
 9913SOL    HW130638   6.197   1.771   2.761
 9913SOL    HW230639   6.310   1.701   2.856
 9914SOL     OW30640   1.631   5.400   3.791
 9914SOL    HW130641   1.577   5.316   3.787
 9914SOL    HW230642   1.572   5.479   3.774
 9915SOL     OW30643   6.220   4.850   4.462
 9915SOL    HW130644   6.286   4.924   4.449
 9915SOL    HW230645   6.245   4.772   4.405
 9916SOL     OW30646   2.012   3.485   0.798
 9916SOL    HW130647   1.932   3.453   0.848
 9916SOL    HW230648   1.992   3.573   0.755
 9917SOL     OW30649   1.831   3.675   4.484
 9917SOL    HW130650   1.891   3.733   4.538
 9917SOL    HW230651   1.784   3.611   4.544
 9918SOL     OW30652   2.032   1.819   4.488
 9918SOL    HW130653   1.986   1.740   4.529
 9918SOL    HW230654   2.031   1.895   4.553
 9919SOL     OW30655   0.660   6.080   1.370
 9919SOL    HW130656   0.755   6.050   1.370
 9919SOL    HW230657   0.627   6.085   1.276
 9920SOL     OW30658   2.711   0.849   3.462
 9920SOL    HW130659   2.616   0.877   3.448
 9920SOL    HW230660   2.726   0.759   3.421
 9921SOL     OW30661   5.054   0.510   2.212
 9921SOL    HW130662   5.008   0.528   2.125
 9921SOL    HW230663   5.021   0.424   2.250
 9922SOL     OW30664   6.259   3.036   2.196
 9922SOL    HW130665   6.186   3.083   2.245
 9922SOL    HW230666   6.236   2.939   2.187
 9923SOL     OW30667   5.748   0.224   6.679
 9923SOL    HW130668   5.712   0.315   6.660
 9923SOL    HW230669   5.676   0.167   6.718
 9924SOL     OW30670   5.639   0.215   3.384
 9924SOL    HW130671   5.637   0.133   3.328
 9924SOL    HW230672   5.567   0.210   3.453
 9925SOL     OW30673   4.003   2.169   5.006
 9925SOL    HW130674   4.007   2.264   4.976
 9925SOL    HW230675   4.031   2.163   5.101
 9926SOL     OW30676   2.223   0.888   5.933
 9926SOL    HW130677   2.160   0.945   5.987
 9926SOL    HW230678   2.186   0.877   5.841
 9927SOL     OW30679   1.565   3.673   3.844
 9927SOL    HW130680   1.467   3.660   3.863
 9927SOL    HW230681   1.612   3.585   3.851
 9928SOL     OW30682   6.635   3.002   2.788
 9928SOL    HW130683   6.734   3.003   2.801
 9928SOL    HW230684   6.592   3.065   2.852
 9929SOL     OW30685   1.575   5.078   4.923
 9929SOL    HW130686   1.660   5.059   4.973
 9929SOL    HW230687   1.509   5.119   4.985
 9930SOL     OW30688   0.159   5.661   6.471
 9930SOL    HW130689   0.170   5.719   6.390
 9930SOL    HW230690   0.207   5.575   6.457
 9931SOL     OW30691   2.210   4.419   0.072
 9931SOL    HW130692   2.244   4.329   0.042
 9931SOL    HW230693   2.167   4.465   7.015
 9932SOL     OW30694   2.029   2.401   1.244
 9932SOL    HW130695   2.032   2.303   1.227
 9932SOL    HW230696   2.073   2.422   1.332
 9933SOL     OW30697   1.166   1.782   3.523
 9933SOL    HW130698   1.202   1.721   3.452
 9933SOL    HW230699   1.100   1.845   3.481
 9934SOL     OW30700   4.975   0.377   5.907
 9934SOL    HW130701   4.928   0.434   5.841
 9934SOL    HW230702   4.928   0.289   5.915
 9935SOL     OW30703   3.204   2.909   0.344
 9935SOL    HW130704   3.261   2.927   0.264
 9935SOL    HW230705   3.142   2.986   0.359
 9936SOL     OW30706   4.841   6.006   0.252
 9936SOL    HW130707   4.764   6.070   0.254
 9936SOL    HW230708   4.815   5.925   0.199
 9937SOL     OW30709   1.717   7.017   4.855
 9937SOL    HW130710   1.683   6.927   4.827
 9937SOL    HW230711   1.728   0.055   4.775
 9938SOL     OW30712   0.575   1.708   3.214
 9938SOL    HW130713   0.488   1.726   3.260
 9938SOL    HW230714   0.571   1.739   3.119
 9939SOL     OW30715   2.992   3.824   1.122
 9939SOL    HW130716   3.061   3.752   1.121
 9939SOL    HW230717   2.958   3.839   1.029
 9940SOL     OW30718   6.761   0.822   2.959
 9940SOL    HW130719   6.687   0.875   2.917
 9940SOL    HW230720   6.780   0.858   3.051
 9941SOL     OW30721   5.691   3.702   0.570
 9941SOL    HW130722   5.607   3.714   0.517
 9941SOL    HW230723   5.706   3.604   0.587
 9942SOL     OW30724   6.094   5.460   2.452
 9942SOL    HW130725   6.133   5.546   2.419
 9942SOL    HW230726   6.064   5.471   2.546
 9943SOL     OW30727   1.113   4.724   5.127
 9943SOL    HW130728   1.057   4.690   5.052
 9943SOL    HW230729   1.063   4.714   5.213
 9944SOL     OW30730   2.308   5.592   6.439
 9944SOL    HW130731   2.264   5.504   6.422
 9944SOL    HW230732   2.406   5.579   6.452
 9945SOL     OW30733   6.120   3.092   5.644
 9945SOL    HW130734   6.100   3.038   5.726
 9945SOL    HW230735   6.070   3.178   5.649
 9946SOL     OW30736   5.770   1.612   1.064
 9946SOL    HW130737   5.724   1.700   1.070
 9946SOL    HW230738   5.812   1.590   1.152
 9947SOL     OW30739   0.772   0.272   3.333
 9947SOL    HW130740   0.808   0.192   3.284
 9947SOL    HW230741   0.798   0.355   3.283
 9948SOL     OW30742   4.856   0.783   5.122
 9948SOL    HW130743   4.804   0.698   5.126
 9948SOL    HW230744   4.841   0.828   5.034
 9949SOL     OW30745   6.646   2.925   2.508
 9949SOL    HW130746   6.643   2.957   2.603
 9949SOL    HW230747   6.627   3.002   2.446
 9950SOL     OW30748   5.501   4.729   6.312
 9950SOL    HW130749   5.494   4.827   6.333
 9950SOL    HW230750   5.506   4.718   6.212
 9951SOL     OW30751   6.908   2.011   2.686
 9951SOL    HW130752   6.995   2.061   2.680
 9951SOL    HW230753   6.877   2.010   2.781
 9952SOL     OW30754   1.719   4.674   1.411
 9952SOL    HW130755   1.801   4.656   1.357
 9952SOL    HW230756   1.721   4.621   1.496
 9953SOL     OW30757   5.918   4.510   4.803
 9953SOL    HW130758   5.839   4.542   4.751
 9953SOL    HW230759   5.912   4.543   4.897
 9954SOL     OW30760   4.320   1.771   1.422
 9954SOL    HW130761   4.297   1.691   1.477
 9954SOL    HW230762   4.314   1.748   1.325
 9955SOL     OW30763   6.330   5.385   1.391
 9955SOL    HW130764   6.290   5.460   1.443
 9955SOL    HW230765   6.289   5.299   1.420
 9956SOL     OW30766   1.550   3.864   3.305
 9956SOL    HW130767   1.549   3.819   3.394
 9956SOL    HW230768   1.642   3.898   3.285
 9957SOL     OW30769   5.899   6.728   0.210
 9957SOL    HW130770   5.880   6.826   0.220
 9957SOL    HW230771   5.868   6.680   0.292
 9958SOL     OW30772   6.629   6.063   5.460
 9958SOL    HW130773   6.600   6.156   5.482
 9958SOL    HW230774   6.594   6.038   5.370
 9959SOL     OW30775   6.577   5.927   6.870
 9959SOL    HW130776   6.572   5.947   6.772
 9959SOL    HW230777   6.664   5.880   6.890
 9960SOL     OW30778   6.275   0.227   6.329
 9960SOL    HW130779   6.180   0.219   6.300
 9960SOL    HW230780   6.281   0.281   6.413
 9961SOL     OW30781   2.989   6.508   0.544
 9961SOL    HW130782   2.944   6.511   0.633
 9961SOL    HW230783   2.964   6.423   0.496
 9962SOL     OW30784   3.462   0.472   1.432
 9962SOL    HW130785   3.437   0.431   1.344
 9962SOL    HW230786   3.431   0.412   1.507
 9963SOL     OW30787   0.662   0.367   6.458
 9963SOL    HW130788   0.626   0.289   6.510
 9963SOL    HW230789   0.749   0.341   6.416
 9964SOL     OW30790   4.771   5.175   5.420
 9964SOL    HW130791   4.685   5.217   5.449
 9964SOL    HW230792   4.846   5.239   5.437
 9965SOL     OW30793   1.938   5.358   4.622
 9965SOL    HW130794   1.923   5.275   4.676
 9965SOL    HW230795   2.033   5.362   4.592
 9966SOL     OW30796   1.659   4.613   1.787
 9966SOL    HW130797   1.656   4.582   1.882
 9966SOL    HW230798   1.726   4.687   1.779
 9967SOL     OW30799   6.639   0.364   2.320
 9967SOL    HW130800   6.683   0.279   2.294
 9967SOL    HW230801   6.558   0.345   2.375
 9968SOL     OW30802   4.869   6.276   0.434
 9968SOL    HW130803   4.783   6.238   0.399
 9968SOL    HW230804   4.938   6.204   0.439
 9969SOL     OW30805   0.215   6.448   3.278
 9969SOL    HW130806   0.220   6.502   3.195
 9969SOL    HW230807   0.285   6.377   3.277
 9970SOL     OW30808   0.173   3.343   1.219
 9970SOL    HW130809   0.210   3.392   1.140
 9970SOL    HW230810   0.228   3.365   1.300
 9971SOL     OW30811   6.834   5.303   5.760
 9971SOL    HW130812   6.907   5.259   5.813
 9971SOL    HW230813   6.753   5.313   5.818
 9972SOL     OW30814   3.013   4.387   5.817
 9972SOL    HW130815   3.023   4.482   5.847
 9972SOL    HW230816   2.941   4.381   5.749
 9973SOL     OW30817   2.800   2.295   2.895
 9973SOL    HW130818   2.842   2.258   2.812
 9973SOL    HW230819   2.725   2.356   2.870
 9974SOL     OW30820   0.760   3.280   3.337
 9974SOL    HW130821   0.830   3.237   3.280
 9974SOL    HW230822   0.684   3.216   3.350
 9975SOL     OW30823   0.843   4.654   0.172
 9975SOL    HW130824   0.905   4.711   0.224
 9975SOL    HW230825   0.750   4.690   0.178
 9976SOL     OW30826   4.511   6.075   5.134
 9976SOL    HW130827   4.591   6.081   5.194
 9976SOL    HW230828   4.524   6.001   5.068
 9977SOL     OW30829   4.279   0.063   5.573
 9977SOL    HW130830   4.215   7.011   5.547
 9977SOL    HW230831   4.366   0.050   5.525
 9978SOL     OW30832   6.680   2.790   0.451
 9978SOL    HW130833   6.682   2.735   0.535
 9978SOL    HW230834   6.761   2.771   0.397
 9979SOL     OW30835   3.649   4.169   3.631
 9979SOL    HW130836   3.597   4.171   3.716
 9979SOL    HW230837   3.669   4.262   3.601
 9980SOL     OW30838   0.253   0.018   6.882
 9980SOL    HW130839   0.174   6.985   6.913
 9980SOL    HW230840   0.336   7.002   6.924
 9981SOL     OW30841   5.590   1.292   1.230
 9981SOL    HW130842   5.501   1.279   1.274
 9981SOL    HW230843   5.651   1.217   1.256
 9982SOL     OW30844   2.807   2.040   5.136
 9982SOL    HW130845   2.739   1.981   5.094
 9982SOL    HW230846   2.899   2.010   5.109
 9983SOL     OW30847   0.239   2.830   1.914
 9983SOL    HW130848   0.191   2.912   1.882
 9983SOL    HW230849   0.173   2.767   1.954
 9984SOL     OW30850   1.016   4.458   1.094
 9984SOL    HW130851   1.082   4.400   1.046
 9984SOL    HW230852   1.063   4.534   1.137
 9985SOL     OW30853   4.695   4.400   5.911
 9985SOL    HW130854   4.781   4.348   5.917
 9985SOL    HW230855   4.618   4.339   5.927
 9986SOL     OW30856   5.929   4.078   6.714
 9986SOL    HW130857   5.879   4.134   6.780
 9986SOL    HW230858   5.866   4.023   6.661
 9987SOL     OW30859   5.027   2.177   0.656
 9987SOL    HW130860   5.080   2.239   0.598
 9987SOL    HW230861   5.055   2.187   0.751
 9988SOL     OW30862   5.747   6.462   3.578
 9988SOL    HW130863   5.810   6.395   3.619
 9988SOL    HW230864   5.689   6.501   3.650
 9989SOL     OW30865   6.430   5.812   2.302
 9989SOL    HW130866   6.419   5.910   2.320
 9989SOL    HW230867   6.343   5.765   2.320
 9990SOL     OW30868   0.192   5.816   3.164
 9990SOL    HW130869   0.240   5.833   3.250
 9990SOL    HW230870   0.104   5.864   3.165
 9991SOL     OW30871   1.938   3.407   2.026
 9991SOL    HW130872   1.904   3.314   2.036
 9991SOL    HW230873   2.038   3.406   2.027
 9992SOL     OW30874   2.372   4.627   0.157
 9992SOL    HW130875   2.467   4.607   0.179
 9992SOL    HW230876   2.325   4.542   0.133
 9993SOL     OW30877   3.540   0.123   4.197
 9993SOL    HW130878   3.489   0.037   4.194
 9993SOL    HW230879   3.567   0.148   4.104
 9994SOL     OW30880   5.802   5.015   5.272
 9994SOL    HW130881   5.737   5.011   5.196
 9994SOL    HW230882   5.818   4.923   5.308
 9995SOL     OW30883   4.172   1.374   5.758
 9995SOL    HW130884   4.095   1.361   5.696
 9995SOL    HW230885   4.256   1.344   5.713
 9996SOL     OW30886   2.939   4.890   0.874
 9996SOL    HW130887   3.016   4.900   0.937
 9996SOL    HW230888   2.935   4.795   0.841
 9997SOL     OW30889   5.902   0.707   2.648
 9997SOL    HW130890   5.806   0.704   2.676
 9997SOL    HW230891   5.956   0.650   2.710
 9998SOL     OW30892   5.201   3.629   2.269
 9998SOL    HW130893   5.114   3.602   2.228
 9998SOL    HW230894   5.198   3.612   2.367
 9999SOL     OW30895   0.574   6.942   5.056
 9999SOL    HW130896   0.651   6.905   5.108
 9999SOL    HW230897   0.555   6.882   4.979
10000SOL     OW30898   4.608   3.390   1.465
10000SOL    HW130899   4.637   3.334   1.543
10000SOL    HW230900   4.647   3.353   1.381
10001SOL     OW30901   3.738   6.876   1.526
10001SOL    HW130902   3.642   6.858   1.508
10001SOL    HW230903   3.761   6.845   1.619
10002SOL     OW30904   1.842   6.676   2.819
10002SOL    HW130905   1.759   6.728   2.839
10002SOL    HW230906   1.858   6.676   2.720
10003SOL     OW30907   0.690   1.203   2.633
10003SOL    HW130908   0.633   1.137   2.682
10003SOL    HW230909   0.633   1.277   2.597
10004SOL     OW30910   0.168   3.038   3.132
10004SOL    HW130911   0.255   3.089   3.129
10004SOL    HW230912   0.109   3.077   3.202
10005SOL     OW30913   2.356   5.935   2.617
10005SOL    HW130914   2.364   6.026   2.577
10005SOL    HW230915   2.261   5.920   2.646
10006SOL     OW30916   5.537   2.046   6.094
10006SOL    HW130917   5.510   2.126   6.147
10006SOL    HW230918   5.598   1.989   6.148
10007SOL     OW30919   1.084   4.877   3.639
10007SOL    HW130920   1.070   4.813   3.563
10007SOL    HW230921   1.136   4.956   3.607
10008SOL     OW30922   3.915   0.607   5.520
10008SOL    HW130923   3.936   0.687   5.463
10008SOL    HW230924   3.955   0.620   5.611
10009SOL     OW30925   1.495   5.082   1.859
10009SOL    HW130926   1.413   5.025   1.870
10009SOL    HW230927   1.524   5.116   1.948
10010SOL     OW30928   2.200   4.901   0.652
10010SOL    HW130929   2.126   4.888   0.718
10010SOL    HW230930   2.185   4.841   0.573
10011SOL     OW30931   3.419   3.491   6.924
10011SOL    HW130932   3.412   3.424   6.998
10011SOL    HW230933   3.486   3.561   6.949
10012SOL     OW30934   5.710   2.012   3.019
10012SOL    HW130935   5.767   2.085   2.982
10012SOL    HW230936   5.652   2.048   3.092
10013SOL     OW30937   0.374   6.233   5.428
10013SOL    HW130938   0.429   6.308   5.466
10013SOL    HW230939   0.434   6.166   5.384
10014SOL     OW30940   1.763   1.054   2.933
10014SOL    HW130941   1.778   1.130   2.869
10014SOL    HW230942   1.765   1.089   3.027
10015SOL     OW30943   4.393   0.394   6.701
10015SOL    HW130944   4.449   0.355   6.628
10015SOL    HW230945   4.305   0.346   6.705
10016SOL     OW30946   3.178   1.070   4.758
10016SOL    HW130947   3.134   1.099   4.673
10016SOL    HW230948   3.135   0.985   4.790
10017SOL     OW30949   3.154   1.232   2.968
10017SOL    HW130950   3.225   1.302   2.968
10017SOL    HW230951   3.111   1.229   2.877
10018SOL     OW30952   0.246   5.100   5.928
10018SOL    HW130953   0.215   5.007   5.948
10018SOL    HW230954   0.324   5.097   5.864
10019SOL     OW30955   0.020   1.803   3.054
10019SOL    HW130956   6.996   1.882   3.014
10019SOL    HW230957   7.001   1.719   3.016
10020SOL     OW30958   6.620   0.676   2.751
10020SOL    HW130959   6.627   0.740   2.827
10020SOL    HW230960   6.553   0.709   2.684
10021SOL     OW30961   1.632   3.317   1.429
10021SOL    HW130962   1.590   3.395   1.384
10021SOL    HW230963   1.654   3.247   1.361
10022SOL     OW30964   0.945   6.388   6.013
10022SOL    HW130965   0.954   6.295   6.050
10022SOL    HW230966   1.002   6.450   6.066
10023SOL     OW30967   1.282   1.548   5.420
10023SOL    HW130968   1.300   1.637   5.462
10023SOL    HW230969   1.282   1.477   5.491
10024SOL     OW30970   2.263   4.352   3.588
10024SOL    HW130971   2.174   4.371   3.548
10024SOL    HW230972   2.253   4.291   3.666
10025SOL     OW30973   0.404   2.712   1.020
10025SOL    HW130974   0.402   2.808   1.049
10025SOL    HW230975   0.468   2.701   0.944
10026SOL     OW30976   6.818   0.986   4.757
10026SOL    HW130977   6.762   1.069   4.767
10026SOL    HW230978   6.839   0.949   4.847
10027SOL     OW30979   3.226   0.952   5.806
10027SOL    HW130980   3.163   0.877   5.825
10027SOL    HW230981   3.208   1.028   5.869
10028SOL     OW30982   3.808   6.777   2.684
10028SOL    HW130983   3.857   6.700   2.642
10028SOL    HW230984   3.772   6.749   2.773
10029SOL     OW30985   6.810   4.973   4.235
10029SOL    HW130986   6.841   4.884   4.202
10029SOL    HW230987   6.801   4.970   4.335
10030SOL     OW30988   2.996   0.043   4.342
10030SOL    HW130989   3.040   6.976   4.319
10030SOL    HW230990   2.967   0.089   4.257
10031SOL     OW30991   1.979   6.597   4.184
10031SOL    HW130992   1.915   6.672   4.164
10031SOL    HW230993   1.979   6.579   4.282
10032SOL     OW30994   2.856   5.887   4.087
10032SOL    HW130995   2.864   5.858   3.992
10032SOL    HW230996   2.891   5.815   4.147
10033SOL     OW30997   2.555   1.083   4.832
10033SOL    HW130998   2.524   1.057   4.923
10033SOL    HW230999   2.655   1.089   4.831
10034SOL     OW31000   2.173   1.353   1.922
10034SOL    HW131001   2.169   1.270   1.978
10034SOL    HW231002   2.269   1.379   1.909
10035SOL     OW31003   0.392   3.264   2.102
10035SOL    HW131004   0.455   3.255   2.025
10035SOL    HW231005   0.358   3.358   2.108
10036SOL     OW31006   0.302   1.653   6.824
10036SOL    HW131007   0.398   1.626   6.831
10036SOL    HW231008   0.268   1.630   6.732
10037SOL     OW31009   5.997   0.546   6.033
10037SOL    HW131010   5.958   0.608   5.965
10037SOL    HW231011   6.044   0.471   5.987
10038SOL     OW31012   5.130   6.792   6.905
10038SOL    HW131013   5.091   6.702   6.924
10038SOL    HW231014   5.183   6.822   6.984
10039SOL     OW31015   0.126   5.151   1.620
10039SOL    HW131016   0.159   5.225   1.562
10039SOL    HW231017   0.104   5.187   1.711
10040SOL     OW31018   2.543   6.957   7.014
10040SOL    HW131019   2.540   0.008   6.943
10040SOL    HW231020   2.557   7.000   0.083
10041SOL     OW31021   5.504   4.969   5.474
10041SOL    HW131022   5.505   5.019   5.560
10041SOL    HW231023   5.548   4.880   5.488
10042SOL     OW31024   6.213   0.750   5.498
10042SOL    HW131025   6.153   0.823   5.466
10042SOL    HW231026   6.184   0.721   5.589
10043SOL     OW31027   0.739   0.468   2.882
10043SOL    HW131028   0.807   0.413   2.833
10043SOL    HW231029   0.651   0.462   2.833
10044SOL     OW31030   2.942   2.210   6.858
10044SOL    HW131031   2.867   2.188   6.795
10044SOL    HW231032   3.021   2.243   6.806
10045SOL     OW31033   4.169   0.090   4.119
10045SOL    HW131034   4.256   0.042   4.114
10045SOL    HW231035   4.170   0.153   4.196
10046SOL     OW31036   6.824   1.958   1.525
10046SOL    HW131037   6.917   1.963   1.487
10046SOL    HW231038   6.820   2.010   1.610
10047SOL     OW31039   1.546   2.696   2.982
10047SOL    HW131040   1.469   2.759   2.994
10047SOL    HW231041   1.601   2.696   3.066
10048SOL     OW31042   3.449   2.451   1.696
10048SOL    HW131043   3.478   2.547   1.699
10048SOL    HW231044   3.522   2.394   1.734
10049SOL     OW31045   1.502   5.480   4.403
10049SOL    HW131046   1.601   5.493   4.411
10049SOL    HW231047   1.467   5.438   4.486
10050SOL     OW31048   5.791   1.615   4.860
10050SOL    HW131049   5.692   1.624   4.848
10050SOL    HW231050   5.817   1.520   4.846
10051SOL     OW31051   6.345   1.720   0.758
10051SOL    HW131052   6.326   1.641   0.816
10051SOL    HW231053   6.283   1.795   0.783
10052SOL     OW31054   1.952   5.093   0.965
10052SOL    HW131055   1.898   5.032   0.907
10052SOL    HW231056   1.920   5.187   0.953
10053SOL     OW31057   2.849   6.115   3.320
10053SOL    HW131058   2.869   6.106   3.222
10053SOL    HW231059   2.933   6.099   3.373
10054SOL     OW31060   4.654   5.315   3.814
10054SOL    HW131061   4.628   5.283   3.905
10054SOL    HW231062   4.576   5.308   3.752
10055SOL     OW31063   4.997   3.043   6.998
10055SOL    HW131064   5.014   2.946   7.018
10055SOL    HW231065   5.060   3.100   0.030
10056SOL     OW31066   5.092   4.267   3.076
10056SOL    HW131067   5.120   4.321   2.997
10056SOL    HW231068   4.993   4.254   3.075
10057SOL     OW31069   2.414   2.484   3.055
10057SOL    HW131070   2.320   2.512   3.072
10057SOL    HW231071   2.418   2.424   2.975
10058SOL     OW31072   0.871   5.061   4.179
10058SOL    HW131073   0.930   5.111   4.242
10058SOL    HW231074   0.775   5.080   4.201
10059SOL     OW31075   4.858   6.664   1.914
10059SOL    HW131076   4.862   6.628   2.007
10059SOL    HW231077   4.816   6.755   1.915
10060SOL     OW31078   2.372   2.640   2.208
10060SOL    HW131079   2.420   2.554   2.224
10060SOL    HW231080   2.399   2.707   2.278
10061SOL     OW31081   6.703   1.890   5.558
10061SOL    HW131082   6.624   1.912   5.615
10061SOL    HW231083   6.729   1.795   5.572
10062SOL     OW31084   5.020   5.911   3.015
10062SOL    HW131085   5.053   5.860   3.094
10062SOL    HW231086   5.085   5.901   2.939
10063SOL     OW31087   0.638   2.655   2.194
10063SOL    HW131088   0.572   2.685   2.125
10063SOL    HW231089   0.641   2.721   2.269
10064SOL     OW31090   4.930   4.968   5.513
10064SOL    HW131091   4.884   4.879   5.501
10064SOL    HW231092   4.866   5.041   5.490
10065SOL     OW31093   0.531   0.255   2.567
10065SOL    HW131094   0.465   0.301   2.627
10065SOL    HW231095   0.486   0.180   2.519
10066SOL     OW31096   0.318   0.954   4.022
10066SOL    HW131097   0.304   0.999   3.934
10066SOL    HW231098   0.287   1.015   4.096
10067SOL     OW31099   4.854   6.420   3.653
10067SOL    HW131100   4.770   6.403   3.602
10067SOL    HW231101   4.881   6.337   3.702
10068SOL     OW31102   5.250   3.450   5.665
10068SOL    HW131103   5.186   3.434   5.740
10068SOL    HW231104   5.213   3.413   5.580
10069SOL     OW31105   5.228   1.199   3.854
10069SOL    HW131106   5.132   1.216   3.831
10069SOL    HW231107   5.244   1.100   3.858
10070SOL     OW31108   1.219   0.093   4.496
10070SOL    HW131109   1.247   0.011   4.447
10070SOL    HW231110   1.140   0.073   4.554
10071SOL     OW31111   4.976   4.625   5.415
10071SOL    HW131112   4.938   4.539   5.450
10071SOL    HW231113   5.075   4.625   5.427
10072SOL     OW31114   1.015   6.749   4.303
10072SOL    HW131115   0.937   6.760   4.364
10072SOL    HW231116   0.989   6.774   4.210
10073SOL     OW31117   6.832   5.637   6.316
10073SOL    HW131118   6.899   5.708   6.338
10073SOL    HW231119   6.787   5.659   6.230
10074SOL     OW31120   2.457   0.031   4.874
10074SOL    HW131121   2.388   6.986   4.908
10074SOL    HW231122   2.463   0.024   4.775
10075SOL     OW31123   1.407   2.680   4.347
10075SOL    HW131124   1.358   2.647   4.427
10075SOL    HW231125   1.497   2.714   4.375
10076SOL     OW31126   5.953   0.038   3.801
10076SOL    HW131127   5.854   0.049   3.810
10076SOL    HW231128   5.973   6.967   3.766
10077SOL     OW31129   3.291   1.803   6.411
10077SOL    HW131130   3.307   1.707   6.389
10077SOL    HW231131   3.312   1.819   6.508
10078SOL     OW31132   5.336   6.045   5.577
10078SOL    HW131133   5.417   6.071   5.630
10078SOL    HW231134   5.291   6.127   5.542
10079SOL     OW31135   0.085   2.639   6.196
10079SOL    HW131136   0.037   2.695   6.128
10079SOL    HW231137   0.019   2.598   6.258
10080SOL     OW31138   1.194   2.831   5.507
10080SOL    HW131139   1.208   2.744   5.555
10080SOL    HW231140   1.117   2.822   5.444
10081SOL     OW31141   0.412   1.324   0.156
10081SOL    HW131142   0.506   1.340   0.185
10081SOL    HW231143   0.380   1.236   0.192
10082SOL     OW31144   6.855   0.420   0.344
10082SOL    HW131145   6.840   0.485   0.418
10082SOL    HW231146   6.768   0.395   0.302
10083SOL     OW31147   5.293   1.562   4.274
10083SOL    HW131148   5.207   1.510   4.272
10083SOL    HW231149   5.362   1.515   4.218
10084SOL     OW31150   2.552   0.518   6.487
10084SOL    HW131151   2.537   0.512   6.388
10084SOL    HW231152   2.629   0.579   6.506
10085SOL     OW31153   1.210   4.891   2.630
10085SOL    HW131154   1.295   4.943   2.632
10085SOL    HW231155   1.161   4.904   2.716
10086SOL     OW31156   6.952   3.471   1.778
10086SOL    HW131157   6.885   3.543   1.761
10086SOL    HW231158   6.982   3.475   1.873
10087SOL     OW31159   1.928   0.807   3.179
10087SOL    HW131160   1.929   0.799   3.079
10087SOL    HW231161   1.940   0.903   3.204
10088SOL     OW31162   5.766   0.272   4.587
10088SOL    HW131163   5.692   0.253   4.522
10088SOL    HW231164   5.829   0.339   4.547
10089SOL     OW31165   2.203   2.353   1.878
10089SOL    HW131166   2.155   2.288   1.818
10089SOL    HW231167   2.212   2.314   1.969
10090SOL     OW31168   0.714   5.337   1.937
10090SOL    HW131169   0.699   5.268   1.866
10090SOL    HW231170   0.653   5.414   1.922
10091SOL     OW31171   0.182   1.754   4.234
10091SOL    HW131172   0.128   1.746   4.151
10091SOL    HW231173   0.146   1.692   4.304
10092SOL     OW31174   1.779   2.977   5.350
10092SOL    HW131175   1.781   3.061   5.405
10092SOL    HW231176   1.688   2.967   5.308
10093SOL     OW31177   6.927   6.196   6.329
10093SOL    HW131178   6.938   6.230   6.235
10093SOL    HW231179   6.849   6.242   6.372
10094SOL     OW31180   1.536   0.488   1.626
10094SOL    HW131181   1.508   0.557   1.559
10094SOL    HW231182   1.540   0.398   1.583
10095SOL     OW31183   6.926   2.141   5.057
10095SOL    HW131184   0.003   2.120   5.051
10095SOL    HW231185   6.886   2.093   5.135
10096SOL     OW31186   6.957   5.918   3.086
10096SOL    HW131187   6.871   5.880   3.121
10096SOL    HW231188   6.985   5.867   3.005
10097SOL     OW31189   1.161   2.586   5.645
10097SOL    HW131190   1.062   2.572   5.639
10097SOL    HW231191   1.208   2.508   5.605
10098SOL     OW31192   3.751   5.204   6.357
10098SOL    HW131193   3.803   5.234   6.438
10098SOL    HW231194   3.659   5.241   6.361
10099SOL     OW31195   0.405   4.548   4.769
10099SOL    HW131196   0.354   4.603   4.836
10099SOL    HW231197   0.414   4.600   4.684
10100SOL     OW31198   4.640   0.254   5.522
10100SOL    HW131199   4.645   0.281   5.618
10100SOL    HW231200   4.564   0.301   5.477
10101SOL     OW31201   6.936   4.807   2.589
10101SOL    HW131202   0.008   4.837   2.563
10101SOL    HW231203   6.942   4.744   2.667
10102SOL     OW31204   3.835   0.575   4.075
10102SOL    HW131205   3.889   0.581   4.159
10102SOL    HW231206   3.750   0.627   4.086
10103SOL     OW31207   0.877   2.525   0.573
10103SOL    HW131208   0.778   2.519   0.586
10103SOL    HW231209   0.921   2.442   0.607
10104SOL     OW31210   1.969   5.815   5.811
10104SOL    HW131211   2.068   5.825   5.809
10104SOL    HW231212   1.938   5.813   5.906
10105SOL     OW31213   3.552   0.345   0.162
10105SOL    HW131214   3.456   0.371   0.154
10105SOL    HW231215   3.603   0.419   0.205
10106SOL     OW31216   4.946   5.097   1.351
10106SOL    HW131217   4.896   5.130   1.271
10106SOL    HW231218   4.918   5.003   1.370
10107SOL     OW31219   5.559   1.009   5.978
10107SOL    HW131220   5.615   1.008   5.896
10107SOL    HW231221   5.580   0.928   6.033
10108SOL     OW31222   5.595   6.457   6.653
10108SOL    HW131223   5.611   6.503   6.566
10108SOL    HW231224   5.680   6.454   6.705
10109SOL     OW31225   4.800   5.560   3.321
10109SOL    HW131226   4.727   5.581   3.256
10109SOL    HW231227   4.849   5.477   3.292
10110SOL     OW31228   3.394   1.514   5.610
10110SOL    HW131229   3.324   1.583   5.591
10110SOL    HW231230   3.382   1.437   5.548
10111SOL     OW31231   6.760   2.587   2.096
10111SOL    HW131232   6.856   2.603   2.075
10111SOL    HW231233   6.723   2.518   2.033
10112SOL     OW31234   4.859   3.266   6.262
10112SOL    HW131235   4.803   3.348   6.264
10112SOL    HW231236   4.823   3.200   6.329
10113SOL     OW31237   4.141   6.791   0.998
10113SOL    HW131238   4.128   6.761   0.903
10113SOL    HW231239   4.236   6.820   1.011
10114SOL     OW31240   4.700   1.313   2.123
10114SOL    HW131241   4.762   1.379   2.080
10114SOL    HW231242   4.651   1.358   2.198
10115SOL     OW31243   1.055   1.929   4.757
10115SOL    HW131244   1.122   1.947   4.686
10115SOL    HW231245   1.038   1.830   4.763
10116SOL     OW31246   0.396   0.424   0.851
10116SOL    HW131247   0.384   0.392   0.945
10116SOL    HW231248   0.462   0.499   0.850
10117SOL     OW31249   4.532   6.875   5.726
10117SOL    HW131250   4.494   6.966   5.741
10117SOL    HW231251   4.553   6.864   5.629
10118SOL     OW31252   6.171   5.724   2.388
10118SOL    HW131253   6.101   5.774   2.339
10118SOL    HW231254   6.193   5.771   2.474
10119SOL     OW31255   2.116   6.958   6.088
10119SOL    HW131256   2.043   6.966   6.156
10119SOL    HW231257   2.077   6.930   6.000
10120SOL     OW31258   5.553   3.081   3.393
10120SOL    HW131259   5.624   3.028   3.345
10120SOL    HW231260   5.537   3.039   3.483
10121SOL     OW31261   5.889   4.711   3.683
10121SOL    HW131262   5.820   4.768   3.639
10121SOL    HW231263   5.885   4.724   3.782
10122SOL     OW31264   5.242   2.634   0.320
10122SOL    HW131265   5.307   2.666   0.251
10122SOL    HW231266   5.158   2.688   0.315
10123SOL     OW31267   0.235   0.136   0.151
10123SOL    HW131268   0.310   0.138   0.084
10123SOL    HW231269   0.180   0.219   0.141
10124SOL     OW31270   3.034   4.256   0.997
10124SOL    HW131271   2.950   4.309   1.013
10124SOL    HW231272   3.091   4.259   1.079
10125SOL     OW31273   2.119   0.406   0.383
10125SOL    HW131274   2.111   0.407   0.482
10125SOL    HW231275   2.042   0.354   0.344
10126SOL     OW31276   5.509   5.357   6.509
10126SOL    HW131277   5.534   5.376   6.604
10126SOL    HW231278   5.569   5.409   6.448
10127SOL     OW31279   3.749   4.952   5.142
10127SOL    HW131280   3.799   4.885   5.196
10127SOL    HW231281   3.781   5.044   5.166
10128SOL     OW31282   0.907   1.487   0.992
10128SOL    HW131283   0.987   1.532   1.034
10128SOL    HW231284   0.880   1.537   0.910
10129SOL     OW31285   5.461   2.541   3.031
10129SOL    HW131286   5.408   2.474   2.979
10129SOL    HW231287   5.554   2.546   2.996
10130SOL     OW31288   6.506   5.766   1.587
10130SOL    HW131289   6.512   5.791   1.684
10130SOL    HW231290   6.589   5.795   1.540
10131SOL     OW31291   0.663   0.446   0.169
10131SOL    HW131292   0.572   0.483   0.152
10131SOL    HW231293   0.671   0.417   0.264
10132SOL     OW31294   2.770   6.762   2.357
10132SOL    HW131295   2.741   6.669   2.336
10132SOL    HW231296   2.762   6.778   2.455
10133SOL     OW31297   6.148   4.909   2.536
10133SOL    HW131298   6.176   4.873   2.447
10133SOL    HW231299   6.194   4.996   2.553
10134SOL     OW31300   0.623   1.686   1.933
10134SOL    HW131301   0.699   1.621   1.935
10134SOL    HW231302   0.539   1.637   1.911
10135SOL     OW31303   2.964   5.865   2.963
10135SOL    HW131304   3.050   5.873   2.912
10135SOL    HW231305   2.890   5.839   2.901
10136SOL     OW31306   6.464   6.589   2.437
10136SOL    HW131307   6.485   6.660   2.369
10136SOL    HW231308   6.399   6.524   2.398
10137SOL     OW31309   5.678   5.235   4.419
10137SOL    HW131310   5.593   5.186   4.397
10137SOL    HW231311   5.722   5.191   4.497
10138SOL     OW31312   6.018   3.206   6.035
10138SOL    HW131313   6.118   3.206   6.046
10138SOL    HW231314   5.986   3.112   6.025
10139SOL     OW31315   3.872   3.091   3.382
10139SOL    HW131316   3.863   3.148   3.464
10139SOL    HW231317   3.939   3.131   3.320
10140SOL     OW31318   1.117   4.794   4.070
10140SOL    HW131319   1.187   4.806   4.140
10140SOL    HW231320   1.051   4.868   4.075
10141SOL     OW31321   2.250   0.594   3.905
10141SOL    HW131322   2.332   0.646   3.928
10141SOL    HW231323   2.275   0.503   3.873
10142SOL     OW31324   5.327   5.660   4.417
10142SOL    HW131325   5.410   5.612   4.390
10142SOL    HW231326   5.251   5.595   4.426
10143SOL     OW31327   4.549   6.256   1.116
10143SOL    HW131328   4.461   6.285   1.078
10143SOL    HW231329   4.574   6.167   1.079
10144SOL     OW31330   2.758   4.876   3.343
10144SOL    HW131331   2.828   4.865   3.414
10144SOL    HW231332   2.700   4.794   3.341
10145SOL     OW31333   2.724   6.972   6.262
10145SOL    HW131334   2.633   6.947   6.295
10145SOL    HW231335   2.793   6.943   6.328
10146SOL     OW31336   4.858   4.382   4.361
10146SOL    HW131337   4.818   4.291   4.365
10146SOL    HW231338   4.954   4.377   4.391
10147SOL     OW31339   5.077   5.795   4.334
10147SOL    HW131340   5.120   5.777   4.246
10147SOL    HW231341   5.070   5.709   4.386
10148SOL     OW31342   6.191   5.440   0.726
10148SOL    HW131343   6.264   5.386   0.770
10148SOL    HW231344   6.103   5.397   0.742
10149SOL     OW31345   4.410   3.294   1.288
10149SOL    HW131346   4.437   3.198   1.296
10149SOL    HW231347   4.455   3.347   1.359
10150SOL     OW31348   5.507   4.109   0.935
10150SOL    HW131349   5.577   4.173   0.905
10150SOL    HW231350   5.534   4.016   0.909
10151SOL     OW31351   0.602   5.845   5.640
10151SOL    HW131352   0.697   5.816   5.656
10151SOL    HW231353   0.556   5.857   5.728
10152SOL     OW31354   0.585   5.769   4.427
10152SOL    HW131355   0.557   5.711   4.351
10152SOL    HW231356   0.577   5.865   4.400
10153SOL     OW31357   5.031   5.430   4.167
10153SOL    HW131358   4.964   5.428   4.093
10153SOL    HW231359   5.087   5.512   4.160
10154SOL     OW31360   6.810   5.840   6.029
10154SOL    HW131361   6.869   5.896   5.970
10154SOL    HW231362   6.830   5.862   6.125
10155SOL     OW31363   3.779   0.922   6.097
10155SOL    HW131364   3.808   0.827   6.080
10155SOL    HW231365   3.746   0.962   6.012
10156SOL     OW31366   6.005   0.375   2.526
10156SOL    HW131367   6.001   0.316   2.446
10156SOL    HW231368   5.984   0.323   2.608
10157SOL     OW31369   5.134   0.701   3.980
10157SOL    HW131370   5.225   0.659   3.974
10157SOL    HW231371   5.065   0.630   3.992
10158SOL     OW31372   5.108   3.375   6.181
10158SOL    HW131373   5.027   3.323   6.207
10158SOL    HW231374   5.081   3.468   6.158
10159SOL     OW31375   1.655   1.259   6.481
10159SOL    HW131376   1.737   1.214   6.515
10159SOL    HW231377   1.575   1.203   6.501
10160SOL     OW31378   0.514   5.969   3.472
10160SOL    HW131379   0.582   6.011   3.532
10160SOL    HW231380   0.499   5.874   3.501
10161SOL     OW31381   2.452   5.776   5.078
10161SOL    HW131382   2.416   5.791   4.986
10161SOL    HW231383   2.438   5.680   5.104
10162SOL     OW31384   3.363   2.832   6.698
10162SOL    HW131385   3.446   2.888   6.688
10162SOL    HW231386   3.331   2.804   6.608
10163SOL     OW31387   0.490   3.140   6.069
10163SOL    HW131388   0.452   3.061   6.116
10163SOL    HW231389   0.431   3.219   6.083
10164SOL     OW31390   1.557   2.526   5.956
10164SOL    HW131391   1.550   2.427   5.961
10164SOL    HW231392   1.472   2.563   5.918
10165SOL     OW31393   0.296   1.669   3.362
10165SOL    HW131394   0.302   1.744   3.297
10165SOL    HW231395   0.209   1.673   3.410
10166SOL     OW31396   0.697   1.204   1.945
10166SOL    HW131397   0.724   1.108   1.945
10166SOL    HW231398   0.611   1.214   1.996
10167SOL     OW31399   5.057   1.135   0.792
10167SOL    HW131400   4.968   1.105   0.757
10167SOL    HW231401   5.127   1.070   0.763
10168SOL     OW31402   6.559   4.475   4.759
10168SOL    HW131403   6.488   4.524   4.809
10168SOL    HW231404   6.530   4.462   4.664
10169SOL     OW31405   6.767   4.297   4.711
10169SOL    HW131406   6.689   4.342   4.667
10169SOL    HW231407   6.764   4.315   4.809
10170SOL     OW31408   1.454   4.155   4.754
10170SOL    HW131409   1.500   4.091   4.692
10170SOL    HW231410   1.495   4.147   4.845
10171SOL     OW31411   5.835   2.995   6.476
10171SOL    HW131412   5.887   2.963   6.556
10171SOL    HW231413   5.762   2.930   6.456
10172SOL     OW31414   4.775   0.730   4.272
10172SOL    HW131415   4.792   0.740   4.370
10172SOL    HW231416   4.828   0.799   4.222
10173SOL     OW31417   2.294   2.391   2.761
10173SOL    HW131418   2.274   2.487   2.782
10173SOL    HW231419   2.222   2.333   2.800
10174SOL     OW31420   6.073   4.390   0.823
10174SOL    HW131421   6.077   4.326   0.900
10174SOL    HW231422   6.003   4.459   0.842
10175SOL     OW31423   5.489   2.785   5.706
10175SOL    HW131424   5.405   2.789   5.761
10175SOL    HW231425   5.536   2.873   5.712
10176SOL     OW31426   2.092   3.250   0.681
10176SOL    HW131427   2.087   3.332   0.738
10176SOL    HW231428   2.135   3.274   0.593
10177SOL     OW31429   2.090   0.285   5.390
10177SOL    HW131430   2.189   0.298   5.392
10177SOL    HW231431   2.057   0.299   5.297
10178SOL     OW31432   4.915   2.758   5.528
10178SOL    HW131433   4.855   2.820   5.478
10178SOL    HW231434   4.974   2.811   5.589
10179SOL     OW31435   7.011   3.492   6.884
10179SOL    HW131436   0.077   3.538   6.907
10179SOL    HW231437   6.992   3.504   6.786
10180SOL     OW31438   1.983   6.873   5.860
10180SOL    HW131439   1.966   6.781   5.896
10180SOL    HW231440   1.899   6.909   5.819
10181SOL     OW31441   5.961   3.651   1.832
10181SOL    HW131442   5.925   3.579   1.772
10181SOL    HW231443   5.885   3.695   1.880
10182SOL     OW31444   4.481   1.201   0.163
10182SOL    HW131445   4.565   1.152   0.141
10182SOL    HW231446   4.501   1.276   0.226
10183SOL     OW31447   2.200   1.448   6.477
10183SOL    HW131448   2.107   1.460   6.443
10183SOL    HW231449   2.205   1.363   6.530
10184SOL     OW31450   4.815   0.601   6.849
10184SOL    HW131451   4.717   0.617   6.837
10184SOL    HW231452   4.845   0.527   6.789
10185SOL     OW31453   4.758   1.133   0.102
10185SOL    HW131454   4.791   1.215   0.054
10185SOL    HW231455   4.786   1.052   0.052
10186SOL     OW31456   5.023   2.171   2.814
10186SOL    HW131457   5.045   2.248   2.753
10186SOL    HW231458   4.959   2.202   2.884
10187SOL     OW31459   0.892   2.022   2.486
10187SOL    HW131460   0.808   2.008   2.434
10187SOL    HW231461   0.943   2.098   2.447
10188SOL     OW31462   3.998   4.953   0.654
10188SOL    HW131463   3.969   4.866   0.616
10188SOL    HW231464   3.956   5.028   0.602
10189SOL     OW31465   1.355   6.897   5.213
10189SOL    HW131466   1.437   6.931   5.259
10189SOL    HW231467   1.307   6.973   5.169
10190SOL     OW31468   5.053   2.760   6.913
10190SOL    HW131469   4.986   2.781   6.842
10190SOL    HW231470   5.050   2.662   6.932
10191SOL     OW31471   6.999   4.707   6.518
10191SOL    HW131472   0.060   4.764   6.534
10191SOL    HW231473   6.922   4.744   6.569
10192SOL     OW31474   3.640   1.824   0.271
10192SOL    HW131475   3.611   1.730   0.289
10192SOL    HW231476   3.695   1.826   0.187
10193SOL     OW31477   4.398   4.229   0.519
10193SOL    HW131478   4.392   4.133   0.494
10193SOL    HW231479   4.307   4.265   0.537
10194SOL     OW31480   4.672   2.735   5.161
10194SOL    HW131481   4.584   2.719   5.204
10194SOL    HW231482   4.731   2.655   5.172
10195SOL     OW31483   5.584   4.290   1.845
10195SOL    HW131484   5.546   4.203   1.814
10195SOL    HW231485   5.670   4.273   1.894
10196SOL     OW31486   0.104   1.997   4.379
10196SOL    HW131487   0.070   2.073   4.322
10196SOL    HW231488   0.116   1.916   4.322
10197SOL     OW31489   5.543   0.764   0.088
10197SOL    HW131490   5.456   0.794   0.127
10197SOL    HW231491   5.553   0.665   0.102
10198SOL     OW31492   4.207   6.609   3.585
10198SOL    HW131493   4.168   6.523   3.554
10198SOL    HW231494   4.179   6.627   3.679
10199SOL     OW31495   0.705   2.131   5.483
10199SOL    HW131496   0.619   2.176   5.461
10199SOL    HW231497   0.699   2.089   5.573
10200SOL     OW31498   5.010   1.949   1.912
10200SOL    HW131499   5.007   2.021   1.843
10200SOL    HW231500   4.918   1.930   1.945
10201SOL     OW31501   1.588   3.582   0.883
10201SOL    HW131502   1.625   3.663   0.838
10201SOL    HW231503   1.537   3.609   0.965
10202SOL     OW31504   5.448   0.458   3.631
10202SOL    HW131505   5.389   0.538   3.626
10202SOL    HW231506   5.428   0.406   3.714
10203SOL     OW31507   0.092   2.684   4.931
10203SOL    HW131508   0.061   2.767   4.886
10203SOL    HW231509   0.050   2.605   4.888
10204SOL     OW31510   6.008   4.704   6.667
10204SOL    HW131511   6.078   4.712   6.596
10204SOL    HW231512   6.014   4.783   6.728
10205SOL     OW31513   0.145   1.561   6.602
10205SOL    HW131514   0.153   1.464   6.628
10205SOL    HW231515   0.051   1.579   6.572
10206SOL     OW31516   2.162   1.510   4.628
10206SOL    HW131517   2.069   1.538   4.654
10206SOL    HW231518   2.156   1.434   4.563
10207SOL     OW31519   2.438   2.346   5.799
10207SOL    HW131520   2.497   2.420   5.767
10207SOL    HW231521   2.396   2.299   5.721
10208SOL     OW31522   6.973   6.653   5.805
10208SOL    HW131523   6.964   6.608   5.894
10208SOL    HW231524   6.929   6.597   5.735
10209SOL     OW31525   6.476   6.525   5.576
10209SOL    HW131526   6.386   6.562   5.555
10209SOL    HW231527   6.507   6.559   5.665
10210SOL     OW31528   3.720   0.483   1.565
10210SOL    HW131529   3.632   0.511   1.527
10210SOL    HW231530   3.787   0.475   1.492
10211SOL     OW31531   5.122   5.523   6.138
10211SOL    HW131532   5.084   5.438   6.175
10211SOL    HW231533   5.087   5.537   6.045
10212SOL     OW31534   0.336   0.780   6.666
10212SOL    HW131535   0.338   0.876   6.694
10212SOL    HW231536   0.365   0.722   6.742
10213SOL     OW31537   6.653   2.605   1.311
10213SOL    HW131538   6.702   2.682   1.353
10213SOL    HW231539   6.718   2.535   1.284
10214SOL     OW31540   1.682   2.824   0.024
10214SOL    HW131541   1.640   2.734   0.018
10214SOL    HW231542   1.635   2.887   6.983
10215SOL     OW31543   3.300   4.139   2.829
10215SOL    HW131544   3.359   4.208   2.788
10215SOL    HW231545   3.355   4.061   2.859
10216SOL     OW31546   0.603   6.113   2.069
10216SOL    HW131547   0.554   6.198   2.050
10216SOL    HW231548   0.583   6.084   2.162
10217SOL     OW31549   4.433   1.816   5.254
10217SOL    HW131550   4.364   1.845   5.321
10217SOL    HW231551   4.450   1.718   5.264
10218SOL     OW31552   1.215   2.727   2.837
10218SOL    HW131553   1.122   2.748   2.809
10218SOL    HW231554   1.226   2.741   2.935
10219SOL     OW31555   0.115   6.152   3.093
10219SOL    HW131556   0.054   6.076   3.074
10219SOL    HW231557   0.105   6.179   3.189
10220SOL     OW31558   3.413   3.154   6.905
10220SOL    HW131559   3.403   3.223   6.978
10220SOL    HW231560   3.334   3.159   6.844
10221SOL     OW31561   1.251   5.159   3.336
10221SOL    HW131562   1.198   5.150   3.421
10221SOL    HW231563   1.208   5.226   3.276
10222SOL     OW31564   2.982   3.819   3.772
10222SOL    HW131565   2.921   3.741   3.754
10222SOL    HW231566   3.077   3.787   3.776
10223SOL     OW31567   2.456   6.737   0.849
10223SOL    HW131568   2.374   6.786   0.877
10223SOL    HW231569   2.433   6.641   0.831
10224SOL     OW31570   6.837   3.498   3.144
10224SOL    HW131571   6.835   3.592   3.178
10224SOL    HW231572   6.913   3.487   3.080
10225SOL     OW31573   1.654   3.795   5.729
10225SOL    HW131574   1.569   3.811   5.680
10225SOL    HW231575   1.649   3.836   5.820
10226SOL     OW31576   4.656   4.499   6.976
10226SOL    HW131577   4.650   4.552   0.040
10226SOL    HW231578   4.581   4.432   6.974
10227SOL     OW31579   5.556   3.973   1.575
10227SOL    HW131580   5.611   3.983   1.491
10227SOL    HW231581   5.614   3.989   1.655
10228SOL     OW31582   5.409   0.543   0.908
10228SOL    HW131583   5.342   0.472   0.888
10228SOL    HW231584   5.500   0.512   0.880
10229SOL     OW31585   0.329   2.168   4.749
10229SOL    HW131586   0.360   2.260   4.773
10229SOL    HW231587   0.405   2.103   4.759
10230SOL     OW31588   6.754   6.246   1.571
10230SOL    HW131589   6.830   6.221   1.632
10230SOL    HW231590   6.667   6.238   1.620
10231SOL     OW31591   0.426   4.048   2.341
10231SOL    HW131592   0.398   4.098   2.423
10231SOL    HW231593   0.485   4.106   2.285
10232SOL     OW31594   4.538   4.828   2.456
10232SOL    HW131595   4.446   4.794   2.438
10232SOL    HW231596   4.602   4.787   2.390
10233SOL     OW31597   2.897   4.121   5.789
10233SOL    HW131598   2.918   4.203   5.841
10233SOL    HW231599   2.982   4.073   5.767
10234SOL     OW31600   0.564   0.863   2.129
10234SOL    HW131601   0.467   0.844   2.141
10234SOL    HW231602   0.590   0.941   2.187
10235SOL     OW31603   1.382   1.126   3.010
10235SOL    HW131604   1.340   1.049   3.059
10235SOL    HW231605   1.385   1.105   2.912
10236SOL     OW31606   0.518   0.529   2.756
10236SOL    HW131607   0.440   0.481   2.717
10236SOL    HW231608   0.506   0.628   2.745
10237SOL     OW31609   7.001   3.269   5.584
10237SOL    HW131610   7.014   3.201   5.512
10237SOL    HW231611   0.031   3.352   5.561
10238SOL     OW31612   2.666   6.611   1.002
10238SOL    HW131613   2.604   6.643   0.930
10238SOL    HW231614   2.685   6.685   1.066
10239SOL     OW31615   1.251   2.528   5.177
10239SOL    HW131616   1.286   2.505   5.268
10239SOL    HW231617   1.166   2.579   5.187
10240SOL     OW31618   2.292   5.840   1.421
10240SOL    HW131619   2.201   5.864   1.387
10240SOL    HW231620   2.342   5.792   1.349
10241SOL     OW31621   4.331   3.742   1.725
10241SOL    HW131622   4.354   3.677   1.652
10241SOL    HW231623   4.282   3.695   1.798
10242SOL     OW31624   6.919   3.719   0.964
10242SOL    HW131625   6.900   3.790   1.031
10242SOL    HW231626   6.869   3.636   0.987
10243SOL     OW31627   3.263   5.390   2.143
10243SOL    HW131628   3.306   5.430   2.062
10243SOL    HW231629   3.320   5.316   2.179
10244SOL     OW31630   3.006   4.931   1.596
10244SOL    HW131631   3.031   4.934   1.499
10244SOL    HW231632   2.964   4.843   1.617
10245SOL     OW31633   5.762   4.208   1.166
10245SOL    HW131634   5.709   4.276   1.216
10245SOL    HW231635   5.744   4.217   1.068
10246SOL     OW31636   3.387   3.270   3.758
10246SOL    HW131637   3.299   3.237   3.722
10246SOL    HW231638   3.408   3.359   3.717
10247SOL     OW31639   0.611   2.703   4.591
10247SOL    HW131640   0.708   2.703   4.615
10247SOL    HW231641   0.599   2.660   4.502
10248SOL     OW31642   0.226   1.696   5.177
10248SOL    HW131643   0.162   1.697   5.254
10248SOL    HW231644   0.216   1.610   5.127
10249SOL     OW31645   2.605   4.628   5.891
10249SOL    HW131646   2.644   4.719   5.904
10249SOL    HW231647   2.645   4.586   5.809
10250SOL     OW31648   2.975   2.965   0.770
10250SOL    HW131649   2.945   3.046   0.719
10250SOL    HW231650   2.895   2.917   0.806
10251SOL     OW31651   1.268   0.928   4.450
10251SOL    HW131652   1.358   0.884   4.451
10251SOL    HW231653   1.221   0.904   4.365
10252SOL     OW31654   4.672   4.620   6.067
10252SOL    HW131655   4.593   4.592   6.121
10252SOL    HW231656   4.695   4.548   6.002
10253SOL     OW31657   3.638   6.007   6.884
10253SOL    HW131658   3.729   6.042   6.864
10253SOL    HW231659   3.576   6.030   6.808
10254SOL     OW31660   6.508   1.415   6.028
10254SOL    HW131661   6.471   1.459   5.947
10254SOL    HW231662   6.564   1.337   6.001
10255SOL     OW31663   4.006   4.647   1.791
10255SOL    HW131664   4.064   4.663   1.872
10255SOL    HW231665   4.004   4.549   1.771
10256SOL     OW31666   2.957   1.520   4.426
10256SOL    HW131667   2.971   1.619   4.421
10256SOL    HW231668   2.877   1.501   4.484
10257SOL     OW31669   3.610   5.599   2.872
10257SOL    HW131670   3.548   5.633   2.801
10257SOL    HW231671   3.609   5.499   2.872
10258SOL     OW31672   2.481   1.487   2.340
10258SOL    HW131673   2.525   1.576   2.355
10258SOL    HW231674   2.512   1.450   2.252
10259SOL     OW31675   1.233   3.714   4.021
10259SOL    HW131676   1.306   3.723   4.089
10259SOL    HW231677   1.168   3.789   4.033
10260SOL     OW31678   0.954   0.346   3.512
10260SOL    HW131679   0.878   0.309   3.457
10260SOL    HW231680   0.925   0.432   3.555
10261SOL     OW31681   6.924   4.177   1.137
10261SOL    HW131682   6.919   4.223   1.048
10261SOL    HW231683   6.929   4.246   1.210
10262SOL     OW31684   3.716   0.691   6.857
10262SOL    HW131685   3.618   0.675   6.870
10262SOL    HW231686   3.766   0.604   6.866
10263SOL     OW31687   5.681   0.164   2.929
10263SOL    HW131688   5.726   0.121   3.008
10263SOL    HW231689   5.586   0.132   2.924
10264SOL     OW31690   6.411   0.362   6.002
10264SOL    HW131691   6.500   0.400   5.975
10264SOL    HW231692   6.426   0.281   6.059
10265SOL     OW31693   1.986   1.528   1.946
10265SOL    HW131694   1.910   1.499   2.004
10265SOL    HW231695   2.060   1.460   1.951
10266SOL     OW31696   2.821   3.578   1.494
10266SOL    HW131697   2.898   3.610   1.549
10266SOL    HW231698   2.815   3.478   1.499
10267SOL     OW31699   6.669   0.246   0.960
10267SOL    HW131700   6.612   0.166   0.937
10267SOL    HW231701   6.659   0.266   1.057
10268SOL     OW31702   2.772   5.442   2.382
10268SOL    HW131703   2.791   5.521   2.323
10268SOL    HW231704   2.677   5.446   2.412
10269SOL     OW31705   2.080   1.183   0.160
10269SOL    HW131706   2.051   1.176   0.064
10269SOL    HW231707   2.171   1.142   0.170
10270SOL     OW31708   2.690   0.220   4.049
10270SOL    HW131709   2.597   0.189   4.069
10270SOL    HW231710   2.690   0.319   4.035
10271SOL     OW31711   1.667   0.808   6.778
10271SOL    HW131712   1.609   0.814   6.697
10271SOL    HW231713   1.754   0.853   6.761
10272SOL     OW31714   6.296   6.685   4.739
10272SOL    HW131715   6.224   6.632   4.785
10272SOL    HW231716   6.255   6.767   4.698
10273SOL     OW31717   1.685   5.351   3.351
10273SOL    HW131718   1.724   5.270   3.307
10273SOL    HW231719   1.740   5.431   3.329
10274SOL     OW31720   1.101   3.729   5.508
10274SOL    HW131721   1.032   3.789   5.549
10274SOL    HW231722   1.154   3.779   5.440
10275SOL     OW31723   6.804   1.103   1.944
10275SOL    HW131724   6.790   1.195   1.908
10275SOL    HW231725   6.791   1.103   2.043
10276SOL     OW31726   2.990   5.403   5.158
10276SOL    HW131727   2.945   5.492   5.169
10276SOL    HW231728   3.024   5.372   5.247
10277SOL     OW31729   1.038   5.170   4.003
10277SOL    HW131730   0.976   5.117   4.061
10277SOL    HW231731   0.998   5.259   3.984
10278SOL     OW31732   6.298   0.151   4.614
10278SOL    HW131733   6.381   0.156   4.670
10278SOL    HW231734   6.318   0.184   4.521
10279SOL     OW31735   0.939   4.578   3.959
10279SOL    HW131736   0.957   4.494   3.908
10279SOL    HW231737   1.025   4.624   3.978
10280SOL     OW31738   5.875   5.712   0.508
10280SOL    HW131739   5.880   5.719   0.607
10280SOL    HW231740   5.915   5.794   0.467
10281SOL     OW31741   6.099   0.753   3.931
10281SOL    HW131742   6.039   0.708   3.997
10281SOL    HW231743   6.096   0.852   3.945
10282SOL     OW31744   4.589   2.567   3.191
10282SOL    HW131745   4.625   2.601   3.104
10282SOL    HW231746   4.625   2.622   3.266
10283SOL     OW31747   0.453   2.173   1.068
10283SOL    HW131748   0.543   2.151   1.030
10283SOL    HW231749   0.463   2.194   1.165
10284SOL     OW31750   0.659   4.642   4.624
10284SOL    HW131751   0.704   4.723   4.585
10284SOL    HW231752   0.590   4.608   4.560
10285SOL     OW31753   0.050   6.705   6.446
10285SOL    HW131754   0.011   6.760   6.373
10285SOL    HW231755   7.001   6.641   6.480
10286SOL     OW31756   2.906   0.942   2.343
10286SOL    HW131757   2.954   0.993   2.271
10286SOL    HW231758   2.916   0.844   2.327
10287SOL     OW31759   0.572   5.989   2.656
10287SOL    HW131760   0.531   5.917   2.600
10287SOL    HW231761   0.655   5.953   2.700
10288SOL     OW31762   3.526   5.734   4.293
10288SOL    HW131763   3.434   5.751   4.257
10288SOL    HW231764   3.532   5.767   4.387
10289SOL     OW31765   4.068   6.146   0.148
10289SOL    HW131766   4.158   6.190   0.146
10289SOL    HW231767   4.076   6.053   0.112
10290SOL     OW31768   2.930   3.525   2.383
10290SOL    HW131769   2.970   3.531   2.474
10290SOL    HW231770   2.928   3.429   2.353
10291SOL     OW31771   2.679   2.068   2.065
10291SOL    HW131772   2.716   2.139   2.125
10291SOL    HW231773   2.679   2.101   1.970
10292SOL     OW31774   6.854   0.065   5.801
10292SOL    HW131775   6.876   7.015   5.734
10292SOL    HW231776   6.914   0.144   5.787
10293SOL     OW31777   0.963   3.333   5.251
10293SOL    HW131778   0.952   3.386   5.166
10293SOL    HW231779   0.972   3.396   5.328
10294SOL     OW31780   2.166   6.994   2.163
10294SOL    HW131781   2.251   7.016   2.209
10294SOL    HW231782   2.171   0.004   2.068
10295SOL     OW31783   1.724   1.652   0.562
10295SOL    HW131784   1.720   1.590   0.641
10295SOL    HW231785   1.643   1.638   0.506
10296SOL     OW31786   6.194   2.395   5.846
10296SOL    HW131787   6.260   2.325   5.876
10296SOL    HW231788   6.231   2.443   5.766
10297SOL     OW31789   4.606   1.008   1.177
10297SOL    HW131790   4.635   0.964   1.092
10297SOL    HW231791   4.594   1.106   1.162
10298SOL     OW31792   1.281   1.651   1.942
10298SOL    HW131793   1.297   1.656   1.843
10298SOL    HW231794   1.185   1.629   1.959
10299SOL     OW31795   4.808   0.362   2.701
10299SOL    HW131796   4.734   0.378   2.767
10299SOL    HW231797   4.772   0.373   2.608
10300SOL     OW31798   1.565   3.119   0.980
10300SOL    HW131799   1.569   3.019   0.987
10300SOL    HW231800   1.621   3.149   0.903
10301SOL     OW31801   3.948   1.127   0.162
10301SOL    HW131802   4.034   1.108   0.209
10301SOL    HW231803   3.955   1.215   0.115
10302SOL     OW31804   3.649   6.360   5.500
10302SOL    HW131805   3.674   6.373   5.404
10302SOL    HW231806   3.557   6.321   5.505
10303SOL     OW31807   0.567   4.347   4.840
10303SOL    HW131808   0.586   4.360   4.938
10303SOL    HW231809   0.520   4.427   4.804
10304SOL     OW31810   5.332   6.510   1.089
10304SOL    HW131811   5.392   6.504   1.169
10304SOL    HW231812   5.378   6.562   1.018
10305SOL     OW31813   2.833   3.827   5.138
10305SOL    HW131814   2.890   3.894   5.091
10305SOL    HW231815   2.832   3.741   5.086
10306SOL     OW31816   4.217   1.061   1.085
10306SOL    HW131817   4.124   1.023   1.090
10306SOL    HW231818   4.213   1.154   1.047
10307SOL     OW31819   1.979   0.236   5.133
10307SOL    HW131820   1.908   0.301   5.108
10307SOL    HW231821   2.060   0.250   5.076
10308SOL     OW31822   3.007   4.446   1.584
10308SOL    HW131823   3.099   4.410   1.576
10308SOL    HW231824   2.975   4.437   1.679
10309SOL     OW31825   0.108   1.016   5.793
10309SOL    HW131826   0.120   0.981   5.886
10309SOL    HW231827   0.194   1.052   5.759
10310SOL     OW31828   3.158   4.000   5.817
10310SOL    HW131829   3.165   4.017   5.719
10310SOL    HW231830   3.206   4.073   5.866
10311SOL     OW31831   5.834   5.870   0.188
10311SOL    HW131832   5.840   5.970   0.186
10311SOL    HW231833   5.926   5.831   0.182
10312SOL     OW31834   2.896   6.929   2.203
10312SOL    HW131835   2.853   7.019   2.197
10312SOL    HW231836   2.848   6.873   2.271
10313SOL     OW31837   4.865   6.617   2.711
10313SOL    HW131838   4.854   6.541   2.774
10313SOL    HW231839   4.826   6.593   2.622
10314SOL     OW31840   0.592   0.000   0.839
10314SOL    HW131841   0.671   7.000   0.781
10314SOL    HW231842   0.546   6.935   0.865
10315SOL     OW31843   5.227   5.202   3.752
10315SOL    HW131844   5.220   5.284   3.694
10315SOL    HW231845   5.155   5.205   3.821
10316SOL     OW31846   0.605   1.928   0.303
10316SOL    HW131847   0.625   2.021   0.333
10316SOL    HW231848   0.578   1.929   0.207
10317SOL     OW31849   3.765   6.026   5.008
10317SOL    HW131850   3.689   6.032   4.943
10317SOL    HW231851   3.799   5.933   5.011
10318SOL     OW31852   6.150   0.279   0.408
10318SOL    HW131853   6.111   0.188   0.390
10318SOL    HW231854   6.249   0.271   0.420
10319SOL     OW31855   0.531   4.385   4.063
10319SOL    HW131856   0.513   4.338   4.149
10319SOL    HW231857   0.538   4.318   3.989
10320SOL     OW31858   6.720   0.289   2.628
10320SOL    HW131859   6.640   0.307   2.685
10320SOL    HW231860   6.717   0.344   2.545
10321SOL     OW31861   5.883   2.786   2.959
10321SOL    HW131862   5.952   2.797   2.888
10321SOL    HW231863   5.842   2.695   2.951
10322SOL     OW31864   4.572   4.468   4.822
10322SOL    HW131865   4.551   4.438   4.729
10322SOL    HW231866   4.487   4.480   4.873
10323SOL     OW31867   1.192   4.373   6.055
10323SOL    HW131868   1.182   4.423   5.969
10323SOL    HW231869   1.288   4.351   6.070
10324SOL     OW31870   2.877   3.461   2.969
10324SOL    HW131871   2.891   3.560   2.977
10324SOL    HW231872   2.806   3.442   2.901
10325SOL     OW31873   5.818   6.135   4.722
10325SOL    HW131874   5.743   6.200   4.724
10325SOL    HW231875   5.819   6.087   4.634
10326SOL     OW31876   5.593   3.118   6.648
10326SOL    HW131877   5.583   3.068   6.562
10326SOL    HW231878   5.554   3.064   6.723
10327SOL     OW31879   1.864   5.802   6.410
10327SOL    HW131880   1.898   5.769   6.322
10327SOL    HW231881   1.919   5.762   6.483
10328SOL     OW31882   5.497   2.295   1.998
10328SOL    HW131883   5.429   2.285   1.926
10328SOL    HW231884   5.472   2.236   2.076
10329SOL     OW31885   3.348   1.915   2.108
10329SOL    HW131886   3.283   1.958   2.045
10329SOL    HW231887   3.338   1.816   2.104
10330SOL     OW31888   5.405   7.008   2.089
10330SOL    HW131889   5.342   0.066   2.096
10330SOL    HW231890   5.405   6.974   1.995
10331SOL     OW31891   5.373   5.749   5.786
10331SOL    HW131892   5.421   5.754   5.873
10331SOL    HW231893   5.275   5.759   5.801
10332SOL     OW31894   1.793   1.869   6.541
10332SOL    HW131895   1.782   1.828   6.450
10332SOL    HW231896   1.876   1.925   6.543
10333SOL     OW31897   1.391   3.422   4.467
10333SOL    HW131898   1.488   3.411   4.444
10333SOL    HW231899   1.336   3.366   4.405
10334SOL     OW31900   3.326   1.803   4.113
10334SOL    HW131901   3.281   1.749   4.042
10334SOL    HW231902   3.363   1.887   4.074
10335SOL     OW31903   1.950   2.803   5.196
10335SOL    HW131904   2.021   2.872   5.211
10335SOL    HW231905   1.862   2.840   5.223
10336SOL     OW31906   5.279   6.544   3.389
10336SOL    HW131907   5.262   6.535   3.291
10336SOL    HW231908   5.370   6.508   3.410
10337SOL     OW31909   6.638   6.213   6.955
10337SOL    HW131910   6.615   6.116   6.943
10337SOL    HW231911   6.636   6.236   0.032
10338SOL     OW31912   1.164   6.689   1.817
10338SOL    HW131913   1.207   6.779   1.813
10338SOL    HW231914   1.075   6.696   1.861
10339SOL     OW31915   5.663   2.661   5.948
10339SOL    HW131916   5.701   2.753   5.947
10339SOL    HW231917   5.690   2.612   5.866
10340SOL     OW31918   2.166   3.912   6.410
10340SOL    HW131919   2.138   3.974   6.337
10340SOL    HW231920   2.122   3.824   6.398
10341SOL     OW31921   2.345   4.615   3.649
10341SOL    HW131922   2.316   4.530   3.605
10341SOL    HW231923   2.441   4.608   3.676
10342SOL     OW31924   0.659   1.039   4.107
10342SOL    HW131925   0.688   0.954   4.063
10342SOL    HW231926   0.664   1.028   4.206
10343SOL     OW31927   3.921   5.165   1.594
10343SOL    HW131928   3.999   5.214   1.635
10343SOL    HW231929   3.946   5.134   1.503
10344SOL     OW31930   4.834   6.962   6.571
10344SOL    HW131931   4.769   6.890   6.546
10344SOL    HW231932   4.927   6.929   6.559
10345SOL     OW31933   1.684   4.183   4.566
10345SOL    HW131934   1.676   4.275   4.604
10345SOL    HW231935   1.745   4.128   4.623
10346SOL     OW31936   0.524   6.062   0.284
10346SOL    HW131937   0.480   6.141   0.241
10346SOL    HW231938   0.491   5.978   0.240
10347SOL     OW31939   5.597   2.121   5.175
10347SOL    HW131940   5.630   2.215   5.177
10347SOL    HW231941   5.568   2.094   5.267
10348SOL     OW31942   0.141   5.204   1.064
10348SOL    HW131943   0.110   5.117   1.103
10348SOL    HW231944   0.241   5.206   1.064
10349SOL     OW31945   6.890   6.789   6.250
10349SOL    HW131946   6.814   6.741   6.205
10349SOL    HW231947   6.905   6.877   6.204
10350SOL     OW31948   3.382   0.318   6.044
10350SOL    HW131949   3.300   0.283   6.090
10350SOL    HW231950   3.462   0.304   6.102
10351SOL     OW31951   4.153   5.381   6.220
10351SOL    HW131952   4.136   5.462   6.163
10351SOL    HW231953   4.250   5.374   6.241
10352SOL     OW31954   3.974   4.517   6.211
10352SOL    HW131955   3.938   4.429   6.243
10352SOL    HW231956   3.921   4.548   6.132
10353SOL     OW31957   0.495   3.243   5.218
10353SOL    HW131958   0.413   3.296   5.241
10353SOL    HW231959   0.471   3.147   5.209
10354SOL     OW31960   5.625   2.104   0.903
10354SOL    HW131961   5.708   2.122   0.957
10354SOL    HW231962   5.650   2.056   0.819
10355SOL     OW31963   1.219   4.355   3.085
10355SOL    HW131964   1.268   4.425   3.033
10355SOL    HW231965   1.237   4.367   3.182
10356SOL     OW31966   0.316   2.576   5.033
10356SOL    HW131967   0.387   2.588   4.963
10356SOL    HW231968   0.231   2.620   5.002
10357SOL     OW31969   3.337   3.005   6.410
10357SOL    HW131970   3.260   3.046   6.459
10357SOL    HW231971   3.423   3.040   6.448
10358SOL     OW31972   0.290   0.844   2.222
10358SOL    HW131973   0.228   0.766   2.232
10358SOL    HW231974   0.346   0.853   2.305
10359SOL     OW31975   0.528   1.532   0.936
10359SOL    HW131976   0.547   1.627   0.911
10359SOL    HW231977   0.579   1.508   1.018
10360SOL     OW31978   0.131   4.424   3.789
10360SOL    HW131979   0.079   4.403   3.706
10360SOL    HW231980   0.228   4.436   3.764
10361SOL     OW31981   2.704   5.272   0.676
10361SOL    HW131982   2.706   5.371   0.691
10361SOL    HW231983   2.747   5.226   0.753
10362SOL     OW31984   1.377   4.695   5.207
10362SOL    HW131985   1.283   4.717   5.181
10362SOL    HW231986   1.405   4.610   5.163
10363SOL     OW31987   5.517   6.778   3.595
10363SOL    HW131988   5.568   6.864   3.593
10363SOL    HW231989   5.422   6.795   3.568
10364SOL     OW31990   1.226   4.301   0.940
10364SOL    HW131991   1.309   4.337   0.898
10364SOL    HW231992   1.154   4.293   0.871
10365SOL     OW31993   4.964   5.147   0.092
10365SOL    HW131994   5.012   5.201   0.161
10365SOL    HW231995   4.882   5.107   0.132
10366SOL     OW31996   3.952   6.788   3.766
10366SOL    HW131997   3.955   6.695   3.803
10366SOL    HW231998   3.960   6.854   3.842
10367SOL     OW31999   6.616   1.127   3.223
10367SOL    HW132000   6.603   1.115   3.124
10367SOL    HW232001   6.556   1.199   3.256
10368SOL     OW32002   2.347   0.298   0.779
10368SOL    HW132003   2.262   0.251   0.803
10368SOL    HW232004   2.422   0.231   0.773
10369SOL     OW32005   3.924   2.854   6.876
10369SOL    HW132006   3.885   2.853   6.784
10369SOL    HW232007   4.009   2.802   6.877
10370SOL     OW32008   3.416   0.966   5.357
10370SOL    HW132009   3.352   0.942   5.430
10370SOL    HW232010   3.494   0.904   5.358
10371SOL     OW32011   4.898   6.597   5.467
10371SOL    HW132012   4.907   6.661   5.390
10371SOL    HW232013   4.847   6.516   5.436
10372SOL     OW32014   0.769   0.894   3.870
10372SOL    HW132015   0.694   0.902   3.806
10372SOL    HW232016   0.799   0.798   3.876
10373SOL     OW32017   1.229   5.485   5.047
10373SOL    HW132018   1.217   5.516   4.952
10373SOL    HW232019   1.268   5.393   5.047
10374SOL     OW32020   3.340   1.872   3.258
10374SOL    HW132021   3.403   1.902   3.330
10374SOL    HW232022   3.282   1.798   3.293
10375SOL     OW32023   0.107   1.976   1.468
10375SOL    HW132024   0.096   1.904   1.399
10375SOL    HW232025   0.105   2.065   1.422
10376SOL     OW32026   6.158   0.141   3.637
10376SOL    HW132027   6.092   0.195   3.586
10376SOL    HW232028   6.153   0.165   3.734
10377SOL     OW32029   0.129   6.350   3.905
10377SOL    HW132030   0.150   6.422   3.839
10377SOL    HW232031   0.110   6.390   3.994
10378SOL     OW32032   5.952   6.328   5.620
10378SOL    HW132033   6.041   6.339   5.662
10378SOL    HW232034   5.962   6.277   5.534
10379SOL     OW32035   4.445   1.514   4.190
10379SOL    HW132036   4.426   1.526   4.092
10379SOL    HW232037   4.542   1.491   4.203
10380SOL     OW32038   3.542   0.914   3.781
10380SOL    HW132039   3.471   0.984   3.768
10380SOL    HW232040   3.628   0.958   3.808
10381SOL     OW32041   3.298   5.323   4.731
10381SOL    HW132042   3.298   5.344   4.829
10381SOL    HW232043   3.204   5.305   4.701
10382SOL     OW32044   0.463   5.727   0.827
10382SOL    HW132045   0.396   5.723   0.902
10382SOL    HW232046   0.555   5.734   0.865
10383SOL     OW32047   5.330   2.893   0.430
10383SOL    HW132048   5.410   2.937   0.390
10383SOL    HW232049   5.357   2.806   0.472
10384SOL     OW32050   5.771   1.153   6.735
10384SOL    HW132051   5.717   1.134   6.653
10384SOL    HW232052   5.763   1.076   6.799
10385SOL     OW32053   0.336   2.742   6.609
10385SOL    HW132054   0.434   2.762   6.602
10385SOL    HW232055   0.288   2.824   6.639
10386SOL     OW32056   6.919   2.117   6.091
10386SOL    HW132057   6.930   2.098   5.994
10386SOL    HW232058   6.863   2.199   6.103
10387SOL     OW32059   1.354   3.918   2.888
10387SOL    HW132060   1.370   3.866   2.972
10387SOL    HW232061   1.423   3.894   2.820
10388SOL     OW32062   1.446   4.455   2.053
10388SOL    HW132063   1.473   4.362   2.082
10388SOL    HW232064   1.418   4.507   2.133
10389SOL     OW32065   0.909   5.464   3.856
10389SOL    HW132066   0.817   5.454   3.820
10389SOL    HW232067   0.909   5.533   3.929
10390SOL     OW32068   2.129   3.625   3.249
10390SOL    HW132069   2.118   3.578   3.337
10390SOL    HW232070   2.149   3.721   3.264
10391SOL     OW32071   3.777   5.849   4.291
10391SOL    HW132072   3.806   5.943   4.273
10391SOL    HW232073   3.677   5.844   4.294
10392SOL     OW32074   6.251   5.768   6.244
10392SOL    HW132075   6.260   5.671   6.226
10392SOL    HW232076   6.157   5.797   6.226
10393SOL     OW32077   0.735   1.342   4.691
10393SOL    HW132078   0.826   1.327   4.652
10393SOL    HW232079   0.721   1.440   4.704
10394SOL     OW32080   3.003   0.248   0.771
10394SOL    HW132081   3.051   0.272   0.855
10394SOL    HW232082   2.966   0.155   0.780
10395SOL     OW32083   1.232   0.661   4.142
10395SOL    HW132084   1.158   0.701   4.088
10395SOL    HW232085   1.225   0.561   4.138
10396SOL     OW32086   0.307   7.008   4.890
10396SOL    HW132087   0.321   6.973   4.983
10396SOL    HW232088   0.280   6.934   4.830
10397SOL     OW32089   4.311   2.286   2.207
10397SOL    HW132090   4.354   2.345   2.276
10397SOL    HW232091   4.230   2.242   2.247
10398SOL     OW32092   6.884   3.032   2.165
10398SOL    HW132093   6.879   2.994   2.073
10398SOL    HW232094   6.845   2.968   2.230
10399SOL     OW32095   6.645   3.357   5.888
10399SOL    HW132096   6.738   3.385   5.869
10399SOL    HW232097   6.629   3.360   5.987
10400SOL     OW32098   1.547   5.107   2.144
10400SOL    HW132099   1.503   5.095   2.233
10400SOL    HW232100   1.620   5.174   2.151
10401SOL     OW32101   1.397   5.753   1.296
10401SOL    HW132102   1.385   5.842   1.251
10401SOL    HW232103   1.417   5.768   1.393
10402SOL     OW32104   1.252   2.028   4.924
10402SOL    HW132105   1.181   2.012   4.855
10402SOL    HW232106   1.253   1.952   4.989
10403SOL     OW32107   5.451   1.094   3.049
10403SOL    HW132108   5.386   1.140   2.989
10403SOL    HW232109   5.434   0.995   3.047
10404SOL     OW32110   6.448   0.065   4.184
10404SOL    HW132111   6.509   7.006   4.194
10404SOL    HW232112   6.390   0.052   4.104
10405SOL     OW32113   3.128   6.890   6.899
10405SOL    HW132114   3.200   6.959   6.897
10405SOL    HW232115   3.169   6.799   6.885
10406SOL     OW32116   1.616   6.050   5.211
10406SOL    HW132117   1.604   5.950   5.214
10406SOL    HW232118   1.619   6.085   5.304
10407SOL     OW32119   2.999   0.769   6.634
10407SOL    HW132120   3.057   0.736   6.559
10407SOL    HW232121   3.053   0.829   6.693
10408SOL     OW32122   3.723   6.917   3.092
10408SOL    HW132123   3.692   6.917   2.997
10408SOL    HW232124   3.783   6.996   3.108
10409SOL     OW32125   0.177   4.870   2.605
10409SOL    HW132126   0.206   4.956   2.563
10409SOL    HW232127   0.220   4.861   2.695
10410SOL     OW32128   4.838   6.011   0.639
10410SOL    HW132129   4.908   6.052   0.579
10410SOL    HW232130   4.809   5.923   0.601
10411SOL     OW32131   2.063   4.825   2.334
10411SOL    HW132132   2.088   4.790   2.244
10411SOL    HW232133   1.996   4.898   2.325
10412SOL     OW32134   0.811   3.121   6.709
10412SOL    HW132135   0.847   3.213   6.721
10412SOL    HW232136   0.873   3.067   6.653
10413SOL     OW32137   6.712   1.495   4.786
10413SOL    HW132138   6.618   1.488   4.753
10413SOL    HW232139   6.734   1.591   4.802
10414SOL     OW32140   5.719   6.119   5.190
10414SOL    HW132141   5.686   6.052   5.256
10414SOL    HW232142   5.663   6.202   5.194
10415SOL     OW32143   0.268   4.721   3.424
10415SOL    HW132144   0.331   4.650   3.455
10415SOL    HW232145   0.249   4.785   3.498
10416SOL     OW32146   4.891   0.820   0.251
10416SOL    HW132147   4.808   0.815   0.306
10416SOL    HW232148   4.971   0.808   0.310
10417SOL     OW32149   5.144   4.696   4.687
10417SOL    HW132150   5.214   4.748   4.735
10417SOL    HW232151   5.178   4.604   4.665
10418SOL     OW32152   6.149   3.458   0.589
10418SOL    HW132153   6.151   3.359   0.604
10418SOL    HW232154   6.079   3.499   0.646
10419SOL     OW32155   1.107   0.323   4.735
10419SOL    HW132156   1.044   0.310   4.658
10419SOL    HW232157   1.061   0.295   4.820
10420SOL     OW32158   6.284   3.783   3.957
10420SOL    HW132159   6.208   3.842   3.929
10420SOL    HW232160   6.249   3.706   4.011
10421SOL     OW32161   0.146   3.728   4.568
10421SOL    HW132162   0.153   3.633   4.538
10421SOL    HW232163   0.171   3.735   4.665
10422SOL     OW32164   5.823   2.824   5.288
10422SOL    HW132165   5.851   2.827   5.192
10422SOL    HW232166   5.903   2.805   5.345
10423SOL     OW32167   2.346   5.769   2.108
10423SOL    HW132168   2.316   5.685   2.153
10423SOL    HW232169   2.443   5.785   2.129
10424SOL     OW32170   4.601   0.939   2.003
10424SOL    HW132171   4.511   0.966   2.038
10424SOL    HW232172   4.599   0.937   1.903
10425SOL     OW32173   0.773   4.267   0.490
10425SOL    HW132174   0.803   4.352   0.446
10425SOL    HW232175   0.849   4.230   0.544
10426SOL     OW32176   6.290   1.903   0.316
10426SOL    HW132177   6.291   1.806   0.342
10426SOL    HW232178   6.333   1.957   0.388
10427SOL     OW32179   6.390   0.384   3.901
10427SOL    HW132180   6.436   0.442   3.968
10427SOL    HW232181   6.375   0.435   3.817
10428SOL     OW32182   1.805   0.132   4.599
10428SOL    HW132183   1.757   0.158   4.515
10428SOL    HW232184   1.842   0.039   4.589
10429SOL     OW32185   2.209   4.601   1.770
10429SOL    HW132186   2.129   4.578   1.826
10429SOL    HW232187   2.259   4.676   1.813
10430SOL     OW32188   3.203   1.134   3.813
10430SOL    HW132189   3.274   1.118   3.881
10430SOL    HW232190   3.116   1.098   3.847
10431SOL     OW32191   4.518   2.262   3.631
10431SOL    HW132192   4.616   2.272   3.612
10431SOL    HW232193   4.468   2.257   3.545
10432SOL     OW32194   0.925   4.725   0.856
10432SOL    HW132195   0.834   4.705   0.820
10432SOL    HW232196   0.960   4.645   0.904
10433SOL     OW32197   3.566   6.343   4.648
10433SOL    HW132198   3.662   6.369   4.656
10433SOL    HW232199   3.557   6.267   4.584
10434SOL     OW32200   4.512   1.826   0.193
10434SOL    HW132201   4.593   1.857   0.242
10434SOL    HW232202   4.470   1.749   0.241
10435SOL     OW32203   2.377   1.272   1.604
10435SOL    HW132204   2.422   1.301   1.519
10435SOL    HW232205   2.437   1.293   1.682
10436SOL     OW32206   0.972   3.673   5.830
10436SOL    HW132207   0.965   3.663   5.731
10436SOL    HW232208   0.958   3.769   5.854
10437SOL     OW32209   0.055   6.977   4.590
10437SOL    HW132210   0.085   0.049   4.612
10437SOL    HW232211   6.985   6.981   4.546
10438SOL     OW32212   0.030   5.823   6.826
10438SOL    HW132213   7.014   5.810   6.734
10438SOL    HW232214   0.099   5.753   6.845
10439SOL     OW32215   5.712   5.520   4.916
10439SOL    HW132216   5.744   5.448   4.854
10439SOL    HW232217   5.627   5.490   4.960
10440SOL     OW32218   6.259   2.719   1.229
10440SOL    HW132219   6.317   2.797   1.253
10440SOL    HW232220   6.167   2.733   1.267
10441SOL     OW32221   4.708   1.437   6.437
10441SOL    HW132222   4.786   1.409   6.380
10441SOL    HW232223   4.641   1.363   6.440
10442SOL     OW32224   2.061   0.621   5.651
10442SOL    HW132225   1.988   0.667   5.702
10442SOL    HW232226   2.090   0.539   5.701
10443SOL     OW32227   0.352   0.863   0.388
10443SOL    HW132228   0.433   0.811   0.360
10443SOL    HW232229   0.274   0.833   0.333
10444SOL     OW32230   4.420   5.564   3.810
10444SOL    HW132231   4.401   5.484   3.867
10444SOL    HW232232   4.431   5.645   3.867
10445SOL     OW32233   1.120   3.565   3.823
10445SOL    HW132234   1.159   3.619   3.897
10445SOL    HW232235   1.023   3.587   3.813
10446SOL     OW32236   2.757   4.776   4.850
10446SOL    HW132237   2.698   4.753   4.772
10446SOL    HW232238   2.762   4.697   4.912
10447SOL     OW32239   1.594   2.344   2.914
10447SOL    HW132240   1.499   2.376   2.913
10447SOL    HW232241   1.646   2.397   2.980
10448SOL     OW32242   0.834   5.101   2.891
10448SOL    HW132243   0.835   5.151   2.977
10448SOL    HW232244   0.891   5.148   2.824
10449SOL     OW32245   3.620   5.046   4.439
10449SOL    HW132246   3.571   5.118   4.489
10449SOL    HW232247   3.683   5.000   4.501
10450SOL     OW32248   0.490   2.115   4.477
10450SOL    HW132249   0.408   2.172   4.474
10450SOL    HW232250   0.488   2.049   4.402
10451SOL     OW32251   2.447   1.476   4.587
10451SOL    HW132252   2.411   1.484   4.494
10451SOL    HW232253   2.374   1.492   4.653
10452SOL     OW32254   6.533   2.938   4.663
10452SOL    HW132255   6.573   3.029   4.670
10452SOL    HW232256   6.465   2.937   4.589
10453SOL     OW32257   2.737   5.589   4.180
10453SOL    HW132258   2.820   5.582   4.125
10453SOL    HW232259   2.666   5.637   4.129
10454SOL     OW32260   6.712   1.603   0.000
10454SOL    HW132261   6.732   1.699   6.999
10454SOL    HW232262   6.745   1.582   0.092
10455SOL     OW32263   0.980   5.748   2.493
10455SOL    HW132264   0.982   5.821   2.425
10455SOL    HW232265   0.949   5.785   2.581
10456SOL     OW32266   1.340   5.526   6.274
10456SOL    HW132267   1.380   5.499   6.361
10456SOL    HW232268   1.287   5.611   6.286
10457SOL     OW32269   4.160   1.327   0.923
10457SOL    HW132270   4.175   1.387   1.002
10457SOL    HW232271   4.062   1.320   0.906
10458SOL     OW32272   1.511   6.781   0.267
10458SOL    HW132273   1.498   6.838   0.348
10458SOL    HW232274   1.497   6.685   0.292
10459SOL     OW32275   5.345   6.268   0.985
10459SOL    HW132276   5.335   6.365   1.005
10459SOL    HW232277   5.409   6.227   1.051
10460SOL     OW32278   6.286   0.968   6.501
10460SOL    HW132279   6.264   1.066   6.497
10460SOL    HW232280   6.201   0.915   6.505
10461SOL     OW32281   0.002   3.893   5.629
10461SOL    HW132282   0.003   3.947   5.714
10461SOL    HW232283   6.997   3.953   5.553
10462SOL     OW32284   4.055   3.698   0.066
10462SOL    HW132285   4.029   3.707   6.991
10462SOL    HW232286   3.996   3.757   0.122
10463SOL     OW32287   4.793   2.253   5.096
10463SOL    HW132288   4.830   2.217   5.011
10463SOL    HW232289   4.828   2.200   5.173
10464SOL     OW32290   6.393   4.862   2.092
10464SOL    HW132291   6.451   4.803   2.036
10464SOL    HW232292   6.353   4.934   2.035
10465SOL     OW32293   5.391   4.522   0.970
10465SOL    HW132294   5.297   4.523   0.935
10465SOL    HW232295   5.401   4.447   1.035
10466SOL     OW32296   6.004   3.787   5.370
10466SOL    HW132297   6.036   3.746   5.456
10466SOL    HW232298   5.987   3.715   5.303
10467SOL     OW32299   0.346   3.250   6.632
10467SOL    HW132300   0.442   3.248   6.602
10467SOL    HW232301   0.312   3.344   6.629
10468SOL     OW32302   1.281   3.955   3.799
10468SOL    HW132303   1.252   3.931   3.892
10468SOL    HW232304   1.336   4.038   3.801
10469SOL     OW32305   1.036   0.929   4.230
10469SOL    HW132306   0.946   0.944   4.271
10469SOL    HW232307   1.026   0.881   4.143
10470SOL     OW32308   2.539   3.976   1.598
10470SOL    HW132309   2.563   3.955   1.503
10470SOL    HW232310   2.594   3.919   1.659
10471SOL     OW32311   2.271   4.648   5.752
10471SOL    HW132312   2.257   4.549   5.763
10471SOL    HW232313   2.351   4.676   5.804
10472SOL     OW32314   4.017   5.229   5.894
10472SOL    HW132315   3.952   5.305   5.884
10472SOL    HW232316   4.022   5.202   5.990
10473SOL     OW32317   6.344   5.642   0.104
10473SOL    HW132318   6.427   5.679   0.146
10473SOL    HW232319   6.282   5.611   0.175
10474SOL     OW32320   6.093   5.999   5.016
10474SOL    HW132321   6.134   6.031   4.931
10474SOL    HW232322   5.996   5.984   5.003
10475SOL     OW32323   0.454   5.702   1.583
10475SOL    HW132324   0.483   5.797   1.592
10475SOL    HW232325   0.359   5.693   1.615
10476SOL     OW32326   4.845   6.742   1.449
10476SOL    HW132327   4.761   6.764   1.499
10476SOL    HW232328   4.905   6.822   1.447
10477SOL     OW32329   6.973   5.559   3.737
10477SOL    HW132330   6.907   5.509   3.682
10477SOL    HW232331   0.021   5.601   3.676
10478SOL     OW32332   6.673   0.718   6.667
10478SOL    HW132333   6.607   0.642   6.665
10478SOL    HW232334   6.753   0.692   6.721
10479SOL     OW32335   6.882   3.918   2.568
10479SOL    HW132336   6.953   3.848   2.581
10479SOL    HW232337   6.917   4.006   2.601
10480SOL     OW32338   2.355   0.903   2.938
10480SOL    HW132339   2.342   0.813   2.897
10480SOL    HW232340   2.275   0.960   2.920
10481SOL     OW32341   6.310   0.923   1.479
10481SOL    HW132342   6.217   0.936   1.513
10481SOL    HW232343   6.330   0.989   1.407
10482SOL     OW32344   4.841   4.110   4.019
10482SOL    HW132345   4.899   4.042   4.064
10482SOL    HW232346   4.864   4.201   4.052
10483SOL     OW32347   5.702   0.555   6.654
10483SOL    HW132348   5.699   0.530   6.751
10483SOL    HW232349   5.698   0.655   6.646
10484SOL     OW32350   6.068   0.567   1.939
10484SOL    HW132351   5.990   0.618   1.902
10484SOL    HW232352   6.153   0.616   1.918
10485SOL     OW32353   5.706   3.262   5.896
10485SOL    HW132354   5.690   3.333   5.965
10485SOL    HW232355   5.623   3.247   5.843
10486SOL     OW32356   5.975   3.167   2.130
10486SOL    HW132357   5.915   3.111   2.187
10486SOL    HW232358   6.026   3.108   2.068
10487SOL     OW32359   3.624   6.566   2.531
10487SOL    HW132360   3.603   6.509   2.451
10487SOL    HW232361   3.673   6.512   2.599
10488SOL     OW32362   4.154   4.254   6.467
10488SOL    HW132363   4.175   4.218   6.376
10488SOL    HW232364   4.071   4.209   6.502
10489SOL     OW32365   1.935   5.458   5.415
10489SOL    HW132366   1.855   5.405   5.443
10489SOL    HW232367   2.006   5.451   5.486
10490SOL     OW32368   6.203   6.915   4.617
10490SOL    HW132369   6.253   7.001   4.606
10490SOL    HW232370   6.106   6.929   4.594
10491SOL     OW32371   6.429   5.730   4.879
10491SOL    HW132372   6.424   5.692   4.971
10491SOL    HW232373   6.348   5.703   4.827
10492SOL     OW32374   5.337   4.220   5.469
10492SOL    HW132375   5.283   4.256   5.545
10492SOL    HW232376   5.429   4.259   5.471
10493SOL     OW32377   3.256   1.444   0.765
10493SOL    HW132378   3.310   1.399   0.837
10493SOL    HW232379   3.171   1.392   0.750
10494SOL     OW32380   5.499   1.256   5.255
10494SOL    HW132381   5.542   1.255   5.345
10494SOL    HW232382   5.401   1.277   5.266
10495SOL     OW32383   1.584   0.228   6.385
10495SOL    HW132384   1.606   0.226   6.288
10495SOL    HW232385   1.542   0.315   6.408
10496SOL     OW32386   6.473   6.882   5.410
10496SOL    HW132387   6.437   6.901   5.501
10496SOL    HW232388   6.445   6.790   5.382
10497SOL     OW32389   1.891   1.350   6.787
10497SOL    HW132390   1.880   1.294   6.705
10497SOL    HW232391   1.909   1.445   6.761
10498SOL     OW32392   3.200   5.239   5.654
10498SOL    HW132393   3.142   5.160   5.672
10498SOL    HW232394   3.167   5.317   5.709
10499SOL     OW32395   2.603   5.679   2.787
10499SOL    HW132396   2.594   5.648   2.882
10499SOL    HW232397   2.519   5.658   2.737
10500SOL     OW32398   2.322   1.961   0.022
10500SOL    HW132399   2.295   2.003   6.955
10500SOL    HW232400   2.289   1.867   0.025
10501SOL     OW32401   1.861   3.890   3.285
10501SOL    HW132402   1.900   3.861   3.372
10501SOL    HW232403   1.932   3.933   3.229
10502SOL     OW32404   3.043   5.894   4.384
10502SOL    HW132405   3.050   5.806   4.337
10502SOL    HW232406   2.949   5.908   4.414
10503SOL     OW32407   2.019   3.086   6.505
10503SOL    HW132408   1.968   3.134   6.576
10503SOL    HW232409   2.109   3.128   6.494
10504SOL     OW32410   2.302   3.503   0.748
10504SOL    HW132411   2.301   3.477   0.652
10504SOL    HW232412   2.208   3.501   0.784
10505SOL     OW32413   1.078   6.501   6.947
10505SOL    HW132414   1.100   6.503   6.849
10505SOL    HW232415   1.069   6.406   6.977
10506SOL     OW32416   6.695   4.862   5.747
10506SOL    HW132417   6.703   4.790   5.816
10506SOL    HW232418   6.598   4.883   5.732
10507SOL     OW32419   2.588   0.487   3.303
10507SOL    HW132420   2.633   0.422   3.241
10507SOL    HW232421   2.494   0.458   3.320
10508SOL     OW32422   5.717   4.252   2.305
10508SOL    HW132423   5.625   4.275   2.339
10508SOL    HW232424   5.735   4.305   2.222
10509SOL     OW32425   2.345   1.063   5.385
10509SOL    HW132426   2.326   1.134   5.453
10509SOL    HW232427   2.294   1.082   5.302
10510SOL     OW32428   5.684   0.823   6.640
10510SOL    HW132429   5.608   0.797   6.581
10510SOL    HW232430   5.768   0.831   6.585
10511SOL     OW32431   6.832   2.868   1.933
10511SOL    HW132432   6.862   2.878   1.839
10511SOL    HW232433   6.793   2.776   1.946
10512SOL     OW32434   2.279   0.074   6.472
10512SOL    HW132435   2.233   0.055   6.558
10512SOL    HW232436   2.347   0.146   6.486
10513SOL     OW32437   7.006   2.151   0.780
10513SOL    HW132438   0.043   2.232   0.787
10513SOL    HW232439   6.953   2.154   0.695
10514SOL     OW32440   1.188   3.141   1.642
10514SOL    HW132441   1.274   3.100   1.613
10514SOL    HW232442   1.162   3.213   1.578
10515SOL     OW32443   0.070   2.999   5.380
10515SOL    HW132444   0.055   2.900   5.377
10515SOL    HW232445   0.094   3.032   5.289
10516SOL     OW32446   2.422   6.971   1.129
10516SOL    HW132447   2.512   6.929   1.146
10516SOL    HW232448   2.360   6.949   1.205
10517SOL     OW32449   0.668   2.579   3.236
10517SOL    HW132450   0.760   2.588   3.273
10517SOL    HW232451   0.603   2.624   3.297
10518SOL     OW32452   0.391   6.215   3.335
10518SOL    HW132453   0.308   6.163   3.358
10518SOL    HW232454   0.472   6.159   3.351
10519SOL     OW32455   4.269   2.663   5.635
10519SOL    HW132456   4.363   2.642   5.609
10519SOL    HW232457   4.250   2.760   5.616
10520SOL     OW32458   3.134   4.851   6.106
10520SOL    HW132459   3.183   4.938   6.107
10520SOL    HW232460   3.090   4.837   6.195
10521SOL     OW32461   0.046   5.563   2.165
10521SOL    HW132462   0.130   5.582   2.114
10521SOL    HW232463   6.995   5.627   2.135
10522SOL     OW32464   6.914   7.006   2.344
10522SOL    HW132465   6.890   6.917   2.306
10522SOL    HW232466   6.998   6.997   2.399
10523SOL     OW32467   6.268   6.475   6.140
10523SOL    HW132468   6.313   6.483   6.051
10523SOL    HW232469   6.203   6.549   6.152
10524SOL     OW32470   4.697   0.799   4.580
10524SOL    HW132471   4.765   0.864   4.615
10524SOL    HW232472   4.623   0.849   4.534
10525SOL     OW32473   2.719   0.027   4.977
10525SOL    HW132474   2.784   7.005   4.914
10525SOL    HW232475   2.627   0.027   4.936
10526SOL     OW32476   4.227   6.318   2.851
10526SOL    HW132477   4.185   6.329   2.941
10526SOL    HW232478   4.156   6.302   2.782
10527SOL     OW32479   1.952   2.759   4.723
10527SOL    HW132480   1.989   2.749   4.816
10527SOL    HW232481   2.011   2.820   4.670
10528SOL     OW32482   6.170   4.981   5.906
10528SOL    HW132483   6.098   5.047   5.885
10528SOL    HW232484   6.132   4.905   5.958
10529SOL     OW32485   0.105   5.700   5.204
10529SOL    HW132486   0.041   5.717   5.279
10529SOL    HW232487   0.058   5.713   5.117
10530SOL     OW32488   1.434   2.201   5.210
10530SOL    HW132489   1.367   2.228   5.142
10530SOL    HW232490   1.521   2.180   5.165
10531SOL     OW32491   2.248   2.432   4.741
10531SOL    HW132492   2.209   2.497   4.807
10531SOL    HW232493   2.336   2.467   4.708
10532SOL     OW32494   3.277   3.675   4.812
10532SOL    HW132495   3.313   3.739   4.880
10532SOL    HW232496   3.304   3.705   4.720
10533SOL     OW32497   3.588   0.608   6.233
10533SOL    HW132498   3.673   0.659   6.222
10533SOL    HW232499   3.597   0.518   6.191
10534SOL     OW32500   5.981   4.870   1.575
10534SOL    HW132501   6.072   4.871   1.534
10534SOL    HW232502   5.987   4.843   1.671
10535SOL     OW32503   0.222   1.352   1.790
10535SOL    HW132504   0.169   1.277   1.830
10535SOL    HW232505   0.161   1.410   1.736
10536SOL     OW32506   5.711   5.437   3.629
10536SOL    HW132507   5.614   5.455   3.614
10536SOL    HW232508   5.741   5.365   3.565
10537SOL     OW32509   6.495   5.662   1.922
10537SOL    HW132510   6.513   5.624   2.013
10537SOL    HW232511   6.460   5.590   1.862
10538SOL     OW32512   4.110   3.356   6.888
10538SOL    HW132513   4.172   3.434   6.876
10538SOL    HW232514   4.015   3.388   6.880
10539SOL     OW32515   0.748   2.910   4.881
10539SOL    HW132516   0.668   2.968   4.893
10539SOL    HW232517   0.799   2.939   4.800
10540SOL     OW32518   3.626   0.852   0.124
10540SOL    HW132519   3.567   0.776   0.097
10540SOL    HW232520   3.701   0.817   0.180
10541SOL     OW32521   3.735   2.753   1.712
10541SOL    HW132522   3.635   2.753   1.703
10541SOL    HW232523   3.774   2.821   1.651
10542SOL     OW32524   1.529   1.929   0.415
10542SOL    HW132525   1.533   1.851   0.353
10542SOL    HW232526   1.622   1.953   0.444
10543SOL     OW32527   2.165   0.414   4.456
10543SOL    HW132528   2.260   0.412   4.423
10543SOL    HW232529   2.120   0.496   4.422
10544SOL     OW32530   0.032   2.015   1.728
10544SOL    HW132531   0.056   1.989   1.635
10544SOL    HW232532   0.066   2.107   1.748
10545SOL     OW32533   4.576   1.542   2.947
10545SOL    HW132534   4.634   1.477   2.898
10545SOL    HW232535   4.533   1.497   3.026
10546SOL     OW32536   4.712   0.912   5.610
10546SOL    HW132537   4.800   0.897   5.655
10546SOL    HW232538   4.728   0.939   5.515
10547SOL     OW32539   4.765   6.064   1.835
10547SOL    HW132540   4.803   6.083   1.926
10547SOL    HW232541   4.698   5.991   1.841
10548SOL     OW32542   4.437   3.983   5.552
10548SOL    HW132543   4.366   3.927   5.509
10548SOL    HW232544   4.499   3.924   5.604
10549SOL     OW32545   0.913   1.569   1.674
10549SOL    HW132546   0.837   1.619   1.633
10549SOL    HW232547   0.969   1.528   1.602
10550SOL     OW32548   4.520   6.827   4.725
10550SOL    HW132549   4.549   6.825   4.629
10550SOL    HW232550   4.580   6.768   4.779
10551SOL     OW32551   1.301   3.116   6.321
10551SOL    HW132552   1.369   3.067   6.268
10551SOL    HW232553   1.225   3.143   6.261
10552SOL     OW32554   3.499   1.468   5.177
10552SOL    HW132555   3.407   1.461   5.216
10552SOL    HW232556   3.493   1.477   5.078
10553SOL     OW32557   2.837   5.174   6.169
10553SOL    HW132558   2.923   5.172   6.220
10553SOL    HW232559   2.807   5.269   6.158
10554SOL     OW32560   6.212   3.611   6.140
10554SOL    HW132561   6.164   3.585   6.057
10554SOL    HW232562   6.308   3.582   6.133
10555SOL     OW32563   3.649   2.989   1.583
10555SOL    HW132564   3.589   2.986   1.663
10555SOL    HW232565   3.616   3.059   1.519
10556SOL     OW32566   1.091   3.927   4.048
10556SOL    HW132567   1.123   3.987   4.121
10556SOL    HW232568   1.031   3.979   3.987
10557SOL     OW32569   5.432   1.431   3.375
10557SOL    HW132570   5.391   1.514   3.337
10557SOL    HW232571   5.363   1.359   3.379
10558SOL     OW32572   5.631   5.907   5.418
10558SOL    HW132573   5.598   5.936   5.508
10558SOL    HW232574   5.673   5.817   5.426
10559SOL     OW32575   4.392   2.586   0.354
10559SOL    HW132576   4.354   2.595   0.447
10559SOL    HW232577   4.336   2.639   0.290
10560SOL     OW32578   6.344   2.107   4.225
10560SOL    HW132579   6.434   2.100   4.270
10560SOL    HW232580   6.272   2.104   4.294
10561SOL     OW32581   2.340   3.745   6.865
10561SOL    HW132582   2.305   3.684   6.793
10561SOL    HW232583   2.304   3.715   6.953
10562SOL     OW32584   4.028   1.965   0.173
10562SOL    HW132585   4.057   2.055   0.141
10562SOL    HW232586   4.002   1.971   0.269
10563SOL     OW32587   1.216   2.142   2.817
10563SOL    HW132588   1.289   2.162   2.751
10563SOL    HW232589   1.154   2.220   2.824
10564SOL     OW32590   6.951   1.829   2.383
10564SOL    HW132591   6.911   1.752   2.433
10564SOL    HW232592   0.011   1.862   2.433
10565SOL     OW32593   5.021   1.408   5.058
10565SOL    HW132594   5.117   1.423   5.038
10565SOL    HW232595   4.977   1.496   5.080
10566SOL     OW32596   4.578   5.156   6.371
10566SOL    HW132597   4.625   5.191   6.452
10566SOL    HW232598   4.563   5.058   6.380
10567SOL     OW32599   2.124   5.519   4.980
10567SOL    HW132600   2.165   5.491   4.894
10567SOL    HW232601   2.083   5.610   4.970
10568SOL     OW32602   3.175   1.547   2.947
10568SOL    HW132603   3.131   1.582   3.029
10568SOL    HW232604   3.167   1.613   2.873
10569SOL     OW32605   6.626   2.351   3.908
10569SOL    HW132606   6.634   2.436   3.960
10569SOL    HW232607   6.535   2.312   3.921
10570SOL     OW32608   1.054   3.870   0.909
10570SOL    HW132609   0.956   3.890   0.920
10570SOL    HW232610   1.074   3.781   0.951
10571SOL     OW32611   6.573   6.893   4.571
10571SOL    HW132612   6.651   6.933   4.523
10571SOL    HW232613   6.520   6.965   4.616
10572SOL     OW32614   6.574   4.047   1.738
10572SOL    HW132615   6.634   3.983   1.787
10572SOL    HW232616   6.480   4.036   1.771
10573SOL     OW32617   6.343   5.347   5.301
10573SOL    HW132618   6.288   5.263   5.306
10573SOL    HW232619   6.435   5.328   5.335
10574SOL     OW32620   0.523   2.076   2.883
10574SOL    HW132621   0.519   2.097   2.785
10574SOL    HW232622   0.517   2.161   2.936
10575SOL     OW32623   0.364   6.924   6.188
10575SOL    HW132624   0.430   6.907   6.115
10575SOL    HW232625   0.404   6.987   6.254
10576SOL     OW32626   1.019   5.816   3.228
10576SOL    HW132627   0.990   5.735   3.280
10576SOL    HW232628   1.118   5.819   3.224
10577SOL     OW32629   0.269   2.281   6.027
10577SOL    HW132630   0.290   2.378   6.010
10577SOL    HW232631   0.240   2.237   5.942
10578SOL     OW32632   4.928   0.643   5.518
10578SOL    HW132633   4.841   0.663   5.473
10578SOL    HW232634   4.961   0.554   5.488
10579SOL     OW32635   5.365   0.063   0.777
10579SOL    HW132636   5.382   0.142   0.718
10579SOL    HW232637   5.370   7.000   0.723
10580SOL     OW32638   0.788   5.534   0.045
10580SOL    HW132639   0.754   5.535   6.971
10580SOL    HW232640   0.727   5.479   0.102
10581SOL     OW32641   4.396   2.335   3.080
10581SOL    HW132642   4.311   2.336   3.131
10581SOL    HW232643   4.462   2.397   3.123
10582SOL     OW32644   3.419   4.333   6.911
10582SOL    HW132645   3.452   4.379   6.829
10582SOL    HW232646   3.335   4.282   6.888
10583SOL     OW32647   4.945   1.316   1.310
10583SOL    HW132648   4.921   1.302   1.214
10583SOL    HW232649   4.876   1.273   1.369
10584SOL     OW32650   5.905   6.559   1.330
10584SOL    HW132651   5.887   6.477   1.275
10584SOL    HW232652   5.890   6.640   1.274
10585SOL     OW32653   2.907   4.309   6.054
10585SOL    HW132654   2.967   4.347   5.984
10585SOL    HW232655   2.812   4.313   6.023
10586SOL     OW32656   4.730   1.884   1.509
10586SOL    HW132657   4.678   1.880   1.595
10586SOL    HW232658   4.803   1.816   1.512
10587SOL     OW32659   6.810   3.221   0.227
10587SOL    HW132660   6.844   3.315   0.231
10587SOL    HW232661   6.848   3.169   0.303
10588SOL     OW32662   1.383   4.758   3.128
10588SOL    HW132663   1.442   4.679   3.148
10588SOL    HW232664   1.301   4.753   3.184
10589SOL     OW32665   6.259   1.271   4.147
10589SOL    HW132666   6.171   1.240   4.182
10589SOL    HW232667   6.266   1.250   4.049
10590SOL     OW32668   1.685   0.076   5.102
10590SOL    HW132669   1.758   0.054   5.167
10590SOL    HW232670   1.701   0.028   5.016
10591SOL     OW32671   1.555   2.248   1.646
10591SOL    HW132672   1.491   2.251   1.568
10591SOL    HW232673   1.608   2.332   1.649
10592SOL     OW32674   5.618   1.117   6.507
10592SOL    HW132675   5.565   1.168   6.440
10592SOL    HW232676   5.665   1.041   6.461
10593SOL     OW32677   1.394   3.561   2.367
10593SOL    HW132678   1.426   3.596   2.279
10593SOL    HW232679   1.328   3.626   2.405
10594SOL     OW32680   1.216   1.397   4.737
10594SOL    HW132681   1.213   1.323   4.670
10594SOL    HW232682   1.152   1.469   4.709
10595SOL     OW32683   1.533   5.903   4.682
10595SOL    HW132684   1.496   5.853   4.604
10595SOL    HW232685   1.498   5.863   4.767
10596SOL     OW32686   2.886   1.183   1.360
10596SOL    HW132687   2.861   1.088   1.344
10596SOL    HW232688   2.808   1.232   1.397
10597SOL     OW32689   1.448   0.820   3.985
10597SOL    HW132690   1.371   0.757   3.985
10597SOL    HW232691   1.441   0.882   4.064
10598SOL     OW32692   2.563   0.517   0.660
10598SOL    HW132693   2.524   0.566   0.738
10598SOL    HW232694   2.532   0.422   0.661
10599SOL     OW32695   4.783   0.153   6.402
10599SOL    HW132696   4.837   0.230   6.436
10599SOL    HW232697   4.795   0.075   6.462
10600SOL     OW32698   1.926   3.292   5.054
10600SOL    HW132699   2.015   3.304   5.097
10600SOL    HW232700   1.854   3.292   5.124
10601SOL     OW32701   3.907   6.346   5.359
10601SOL    HW132702   3.886   6.319   5.265
10601SOL    HW232703   3.880   6.441   5.374
10602SOL     OW32704   4.754   2.217   2.241
10602SOL    HW132705   4.845   2.249   2.213
10602SOL    HW232706   4.689   2.293   2.233
10603SOL     OW32707   0.374   5.322   4.932
10603SOL    HW132708   0.333   5.235   4.959
10603SOL    HW232709   0.335   5.396   4.986
10604SOL     OW32710   0.392   4.033   6.058
10604SOL    HW132711   0.389   4.092   5.977
10604SOL    HW232712   0.341   4.076   6.133
10605SOL     OW32713   1.418   5.153   6.343
10605SOL    HW132714   1.464   5.239   6.322
10605SOL    HW232715   1.320   5.170   6.356
10606SOL     OW32716   0.770   1.468   2.031
10606SOL    HW132717   0.708   1.396   1.998
10606SOL    HW232718   0.767   1.471   2.130
10607SOL     OW32719   5.962   3.791   6.585
10607SOL    HW132720   5.879   3.735   6.581
10607SOL    HW232721   6.040   3.737   6.553
10608SOL     OW32722   5.603   6.391   2.212
10608SOL    HW132723   5.551   6.476   2.204
10608SOL    HW232724   5.542   6.317   2.239
10609SOL     OW32725   4.043   6.756   2.979
10609SOL    HW132726   3.956   6.727   2.938
10609SOL    HW232727   4.070   6.690   3.050
10610SOL     OW32728   1.948   4.458   4.924
10610SOL    HW132729   1.959   4.551   4.888
10610SOL    HW232730   2.036   4.411   4.923
10611SOL     OW32731   5.055   2.014   5.746
10611SOL    HW132732   4.992   2.046   5.675
10611SOL    HW232733   5.008   2.010   5.834
10612SOL     OW32734   1.963   0.338   1.398
10612SOL    HW132735   1.963   0.414   1.463
10612SOL    HW232736   2.051   0.335   1.350
10613SOL     OW32737   1.059   6.246   0.035
10613SOL    HW132738   1.084   6.152   0.011
10613SOL    HW232739   0.960   6.257   0.026
10614SOL     OW32740   0.488   0.801   2.732
10614SOL    HW132741   0.395   0.786   2.766
10614SOL    HW232742   0.522   0.889   2.765
10615SOL     OW32743   0.037   6.917   5.037
10615SOL    HW132744   0.099   6.839   5.049
10615SOL    HW232745   6.975   6.903   5.092
10616SOL     OW32746   3.431   5.788   1.307
10616SOL    HW132747   3.426   5.874   1.256
10616SOL    HW232748   3.475   5.718   1.250
10617SOL     OW32749   6.903   1.594   6.521
10617SOL    HW132750   6.839   1.519   6.507
10617SOL    HW232751   6.883   1.639   6.608
10618SOL     OW32752   6.459   4.131   0.888
10618SOL    HW132753   6.463   4.223   0.850
10618SOL    HW232754   6.453   4.136   0.987
10619SOL     OW32755   0.295   2.839   3.744
10619SOL    HW132756   0.377   2.893   3.725
10619SOL    HW232757   0.218   2.900   3.759
10620SOL     OW32758   1.726   5.412   4.063
10620SOL    HW132759   1.712   5.392   3.966
10620SOL    HW232760   1.673   5.347   4.118
10621SOL     OW32761   3.646   6.830   1.042
10621SOL    HW132762   3.676   6.801   1.133
10621SOL    HW232763   3.715   6.891   1.002
10622SOL     OW32764   4.013   1.958   0.552
10622SOL    HW132765   4.064   2.037   0.586
10622SOL    HW232766   4.034   1.878   0.608
10623SOL     OW32767   0.451   1.501   4.986
10623SOL    HW132768   0.545   1.496   4.952
10623SOL    HW232769   0.417   1.408   5.001
10624SOL     OW32770   2.651   1.406   4.147
10624SOL    HW132771   2.564   1.423   4.100
10624SOL    HW232772   2.724   1.398   4.079
10625SOL     OW32773   0.598   2.712   0.808
10625SOL    HW132774   0.689   2.713   0.766
10625SOL    HW232775   0.536   2.772   0.758
10626SOL     OW32776   0.060   1.936   3.289
10626SOL    HW132777   0.079   1.869   3.217
10626SOL    HW232778   0.037   2.024   3.247
10627SOL     OW32779   4.669   5.565   4.603
10627SOL    HW132780   4.593   5.518   4.648
10627SOL    HW232781   4.645   5.584   4.509
10628SOL     OW32782   6.899   6.643   4.993
10628SOL    HW132783   6.806   6.606   5.005
10628SOL    HW232784   6.903   6.736   5.029
10629SOL     OW32785   2.493   3.940   6.247
10629SOL    HW132786   2.591   3.946   6.229
10629SOL    HW232787   2.475   3.968   6.342
10630SOL     OW32788   5.555   1.251   1.869
10630SOL    HW132789   5.532   1.244   1.772
10630SOL    HW232790   5.501   1.185   1.920
10631SOL     OW32791   1.469   6.895   4.488
10631SOL    HW132792   1.459   6.955   4.409
10631SOL    HW232793   1.397   6.825   4.485
10632SOL     OW32794   0.033   3.221   0.042
10632SOL    HW132795   6.982   3.288   0.062
10632SOL    HW232796   0.058   3.172   0.125
10633SOL     OW32797   1.406   5.388   6.956
10633SOL    HW132798   1.400   5.432   0.026
10633SOL    HW232799   1.501   5.384   6.927
10634SOL     OW32800   3.350   6.925   2.414
10634SOL    HW132801   3.424   6.881   2.362
10634SOL    HW232802   3.307   6.858   2.474
10635SOL     OW32803   1.507   1.064   1.564
10635SOL    HW132804   1.410   1.066   1.588
10635SOL    HW232805   1.557   1.126   1.623
10636SOL     OW32806   5.332   1.877   0.021
10636SOL    HW132807   5.272   1.798   0.029
10636SOL    HW232808   5.312   1.942   0.095
10637SOL     OW32809   3.037   3.675   6.417
10637SOL    HW132810   3.016   3.663   6.320
10637SOL    HW232811   3.136   3.676   6.430
10638SOL     OW32812   6.410   0.639   5.769
10638SOL    HW132813   6.440   0.682   5.855
10638SOL    HW232814   6.312   0.655   5.757
10639SOL     OW32815   3.697   2.012   5.116
10639SOL    HW132816   3.676   1.974   5.026
10639SOL    HW232817   3.662   1.951   5.187
10640SOL     OW32818   4.656   6.620   0.553
10640SOL    HW132819   4.714   6.698   0.527
10640SOL    HW232820   4.652   6.614   0.652
10641SOL     OW32821   3.481   6.674   7.014
10641SOL    HW132822   3.520   6.766   7.012
10641SOL    HW232823   3.392   6.674   6.967
10642SOL     OW32824   0.796   5.575   1.251
10642SOL    HW132825   0.875   5.579   1.190
10642SOL    HW232826   0.752   5.664   1.254
10643SOL     OW32827   3.475   3.367   5.324
10643SOL    HW132828   3.441   3.433   5.257
10643SOL    HW232829   3.570   3.344   5.303
10644SOL     OW32830   3.497   1.002   5.637
10644SOL    HW132831   3.401   0.977   5.647
10644SOL    HW232832   3.520   1.009   5.540
10645SOL     OW32833   1.914   0.249   4.086
10645SOL    HW132834   1.956   0.269   4.174
10645SOL    HW232835   1.879   0.333   4.045
10646SOL     OW32836   6.603   5.570   6.501
10646SOL    HW132837   6.677   5.621   6.456
10646SOL    HW232838   6.580   5.615   6.587
10647SOL     OW32839   6.981   6.004   0.868
10647SOL    HW132840   0.003   5.916   0.849
10647SOL    HW232841   0.004   6.045   0.948
10648SOL     OW32842   5.202   3.925   6.198
10648SOL    HW132843   5.268   3.988   6.159
10648SOL    HW232844   5.116   3.973   6.217
10649SOL     OW32845   6.864   5.053   6.548
10649SOL    HW132846   6.826   4.963   6.571
10649SOL    HW232847   6.929   5.045   6.473
10650SOL     OW32848   2.151   0.141   5.795
10650SOL    HW132849   2.083   0.069   5.809
10650SOL    HW232850   2.154   0.165   5.698
10651SOL     OW32851   1.716   0.711   4.840
10651SOL    HW132852   1.688   0.629   4.789
10651SOL    HW232853   1.748   0.780   4.776
10652SOL     OW32854   4.826   0.874   0.584
10652SOL    HW132855   4.847   0.906   0.676
10652SOL    HW232856   4.907   0.834   0.542
10653SOL     OW32857   6.296   3.972   4.532
10653SOL    HW132858   6.229   3.976   4.606
10653SOL    HW232859   6.250   3.943   4.448
10654SOL     OW32860   4.415   0.530   1.384
10654SOL    HW132861   4.509   0.531   1.417
10654SOL    HW232862   4.415   0.543   1.285
10655SOL     OW32863   2.383   5.907   1.088
10655SOL    HW132864   2.451   5.852   1.138
10655SOL    HW232865   2.304   5.850   1.067
10656SOL     OW32866   6.573   3.085   6.190
10656SOL    HW132867   6.542   2.996   6.225
10656SOL    HW232868   6.600   3.075   6.094
10657SOL     OW32869   6.151   7.001   0.720
10657SOL    HW132870   6.076   6.954   0.674
10657SOL    HW232871   6.237   6.983   0.672
10658SOL     OW32872   0.062   6.102   3.800
10658SOL    HW132873   0.097   6.192   3.827
10658SOL    HW232874   6.993   6.087   3.842
10659SOL     OW32875   5.244   1.114   1.697
10659SOL    HW132876   5.167   1.055   1.721
10659SOL    HW232877   5.221   1.167   1.616
10660SOL     OW32878   5.243   4.817   5.559
10660SOL    HW132879   5.284   4.907   5.573
10660SOL    HW232880   5.147   4.819   5.588
10661SOL     OW32881   7.009   1.392   1.622
10661SOL    HW132882   7.018   1.460   1.550
10661SOL    HW232883   7.001   1.301   1.581
10662SOL     OW32884   7.007   1.846   0.733
10662SOL    HW132885   0.080   1.825   0.704
10662SOL    HW232886   6.995   1.945   0.739
10663SOL     OW32887   0.452   2.417   1.949
10663SOL    HW132888   0.544   2.456   1.948
10663SOL    HW232889   0.392   2.476   2.003
10664SOL     OW32890   2.381   5.477   5.992
10664SOL    HW132891   2.372   5.380   6.015
10664SOL    HW232892   2.426   5.525   6.068
10665SOL     OW32893   5.604   1.912   7.014
10665SOL    HW132894   5.639   1.936   0.084
10665SOL    HW232895   5.506   1.895   7.020
10666SOL     OW32896   0.714   6.799   0.288
10666SOL    HW132897   0.669   6.763   0.370
10666SOL    HW232898   0.662   6.771   0.207
10667SOL     OW32899   3.159   2.208   5.874
10667SOL    HW132900   3.140   2.182   5.780
10667SOL    HW232901   3.250   2.175   5.900
10668SOL     OW32902   1.457   0.591   6.312
10668SOL    HW132903   1.547   0.635   6.312
10668SOL    HW232904   1.445   0.540   6.398
10669SOL     OW32905   2.207   5.954   6.538
10669SOL    HW132906   2.301   5.952   6.503
10669SOL    HW232907   2.154   6.022   6.487
10670SOL     OW32908   5.704   4.346   4.917
10670SOL    HW132909   5.726   4.310   4.826
10670SOL    HW232910   5.786   4.347   4.974
10671SOL     OW32911   2.186   2.835   3.299
10671SOL    HW132912   2.265   2.774   3.303
10671SOL    HW232913   2.123   2.804   3.227
10672SOL     OW32914   6.526   2.230   0.698
10672SOL    HW132915   6.569   2.313   0.663
10672SOL    HW232916   6.428   2.245   0.708
10673SOL     OW32917   3.463   4.154   3.830
10673SOL    HW132918   3.387   4.138   3.768
10673SOL    HW232919   3.429   4.160   3.924
10674SOL     OW32920   4.528   1.398   2.613
10674SOL    HW132921   4.458   1.469   2.614
10674SOL    HW232922   4.499   1.322   2.671
10675SOL     OW32923   1.419   1.503   5.890
10675SOL    HW132924   1.328   1.469   5.869
10675SOL    HW232925   1.422   1.602   5.876
10676SOL     OW32926   6.317   0.706   0.065
10676SOL    HW132927   6.236   0.762   0.044
10676SOL    HW232928   6.305   0.663   0.155
10677SOL     OW32929   5.212   1.434   0.277
10677SOL    HW132930   5.215   1.429   0.177
10677SOL    HW232931   5.232   1.344   0.316
10678SOL     OW32932   1.297   5.204   3.912
10678SOL    HW132933   1.300   5.301   3.937
10678SOL    HW232934   1.215   5.162   3.950
10679SOL     OW32935   5.767   5.065   3.826
10679SOL    HW132936   5.752   4.996   3.756
10679SOL    HW232937   5.681   5.110   3.848
10680SOL     OW32938   0.055   2.504   3.926
10680SOL    HW132939   0.054   2.405   3.912
10680SOL    HW232940   0.136   2.543   3.882
10681SOL     OW32941   0.749   3.526   6.923
10681SOL    HW132942   0.771   3.475   7.006
10681SOL    HW232943   0.657   3.502   6.892
10682SOL     OW32944   6.224   2.196   3.402
10682SOL    HW132945   6.310   2.198   3.454
10682SOL    HW232946   6.150   2.234   3.458
10683SOL     OW32947   0.778   0.333   3.987
10683SOL    HW132948   0.762   0.266   3.915
10683SOL    HW232949   0.726   0.308   4.068
10684SOL     OW32950   5.203   6.141   0.746
10684SOL    HW132951   5.271   6.129   0.818
10684SOL    HW232952   5.164   6.051   0.722
10685SOL     OW32953   6.482   2.882   3.100
10685SOL    HW132954   6.506   2.819   3.026
10685SOL    HW232955   6.387   2.909   3.091
10686SOL     OW32956   4.633   4.427   1.502
10686SOL    HW132957   4.668   4.399   1.591
10686SOL    HW232958   4.546   4.381   1.485
10687SOL     OW32959   0.211   5.408   0.808
10687SOL    HW132960   0.117   5.378   0.827
10687SOL    HW232961   0.215   5.447   0.716
10688SOL     OW32962   1.491   4.367   0.851
10688SOL    HW132963   1.538   4.411   0.927
10688SOL    HW232964   1.507   4.421   0.767
10689SOL     OW32965   0.393   0.129   0.982
10689SOL    HW132966   0.455   0.145   0.905
10689SOL    HW232967   0.426   0.050   1.035
10690SOL     OW32968   3.554   0.419   3.196
10690SOL    HW132969   3.489   0.343   3.202
10690SOL    HW232970   3.598   0.432   3.285
10691SOL     OW32971   5.312   1.602   1.553
10691SOL    HW132972   5.240   1.668   1.573
10691SOL    HW232973   5.395   1.652   1.525
10692SOL     OW32974   5.824   6.325   3.852
10692SOL    HW132975   5.785   6.233   3.856
10692SOL    HW232976   5.923   6.320   3.845
10693SOL     OW32977   4.862   2.461   4.202
10693SOL    HW132978   4.934   2.525   4.176
10693SOL    HW232979   4.777   2.486   4.156
10694SOL     OW32980   2.319   5.984   0.078
10694SOL    HW132981   2.327   5.985   6.998
10694SOL    HW232982   2.400   6.026   0.118
10695SOL     OW32983   6.014   2.943   5.841
10695SOL    HW132984   6.065   2.857   5.834
10695SOL    HW232985   5.916   2.924   5.846
10696SOL     OW32986   6.200   0.105   0.976
10696SOL    HW132987   6.292   0.070   0.991
10696SOL    HW232988   6.178   0.100   0.879
10697SOL     OW32989   2.193   5.785   2.965
10697SOL    HW132990   2.203   5.689   2.937
10697SOL    HW232991   2.241   5.800   3.052
10698SOL     OW32992   3.595   0.164   3.654
10698SOL    HW132993   3.581   0.237   3.721
10698SOL    HW232994   3.579   0.075   3.697
10699SOL     OW32995   0.558   3.107   3.364
10699SOL    HW132996   0.481   3.158   3.404
10699SOL    HW232997   0.556   3.012   3.395
10700SOL     OW32998   1.149   3.098   2.547
10700SOL    HW132999   1.110   3.151   2.623
10700SOL    HW233000   1.202   3.022   2.583
10701SOL     OW33001   2.731   6.792   1.226
10701SOL    HW133002   2.768   6.879   1.194
10701SOL    HW233003   2.732   6.790   1.326
10702SOL     OW33004   4.770   2.119   0.552
10702SOL    HW133005   4.714   2.068   0.617
10702SOL    HW233006   4.866   2.118   0.581
10703SOL     OW33007   3.912   3.996   3.902
10703SOL    HW133008   3.814   3.977   3.906
10703SOL    HW233009   3.935   4.065   3.971
10704SOL     OW33010   5.342   5.828   1.732
10704SOL    HW133011   5.296   5.792   1.813
10704SOL    HW233012   5.323   5.767   1.654
10705SOL     OW33013   1.589   2.986   6.827
10705SOL    HW133014   1.491   2.984   6.805
10705SOL    HW233015   1.642   2.970   6.743
10706SOL     OW33016   3.394   3.658   0.512
10706SOL    HW133017   3.445   3.628   0.593
10706SOL    HW233018   3.342   3.741   0.534
10707SOL     OW33019   5.948   0.463   6.519
10707SOL    HW133020   5.885   0.468   6.597
10707SOL    HW233021   5.897   0.478   6.435
10708SOL     OW33022   4.590   2.338   1.472
10708SOL    HW133023   4.537   2.323   1.388
10708SOL    HW233024   4.530   2.332   1.551
10709SOL     OW33025   0.720   1.251   6.431
10709SOL    HW133026   0.781   1.181   6.467
10709SOL    HW233027   0.679   1.219   6.345
10710SOL     OW33028   0.030   7.004   3.326
10710SOL    HW133029   0.038   0.082   3.312
10710SOL    HW233030   0.096   6.956   3.268
10711SOL     OW33031   1.901   4.021   5.539
10711SOL    HW133032   1.823   4.077   5.567
10711SOL    HW233033   1.943   4.060   5.457
10712SOL     OW33034   3.727   1.652   6.187
10712SOL    HW133035   3.795   1.645   6.114
10712SOL    HW233036   3.645   1.602   6.161
10713SOL     OW33037   2.607   0.022   0.269
10713SOL    HW133038   2.569   0.114   0.266
10713SOL    HW233039   2.705   0.026   0.254
10714SOL     OW33040   4.902   5.346   4.391
10714SOL    HW133041   4.803   5.343   4.404
10714SOL    HW233042   4.923   5.394   4.306
10715SOL     OW33043   5.606   0.043   2.580
10715SOL    HW133044   5.604   0.109   2.505
10715SOL    HW233045   5.637   0.090   2.663
10716SOL     OW33046   0.055   1.973   2.172
10716SOL    HW133047   0.032   2.071   2.167
10716SOL    HW233048   0.009   1.933   2.251
10717SOL     OW33049   0.716   6.316   1.859
10717SOL    HW133050   0.745   6.387   1.923
10717SOL    HW233051   0.796   6.270   1.822
10718SOL     OW33052   6.652   4.875   5.050
10718SOL    HW133053   6.617   4.782   5.042
10718SOL    HW233054   6.581   4.935   5.088
10719SOL     OW33055   3.372   6.526   3.533
10719SOL    HW133056   3.453   6.495   3.583
10719SOL    HW233057   3.397   6.547   3.439
10720SOL     OW33058   0.507   2.656   5.956
10720SOL    HW133059   0.525   2.754   5.947
10720SOL    HW233060   0.592   2.608   5.976
10721SOL     OW33061   5.408   1.308   4.055
10721SOL    HW133062   5.455   1.221   4.067
10721SOL    HW233063   5.350   1.304   3.974
10722SOL     OW33064   0.884   5.521   0.524
10722SOL    HW133065   0.911   5.531   0.429
10722SOL    HW233066   0.931   5.443   0.565
10723SOL     OW33067   0.014   3.912   6.169
10723SOL    HW133068   6.963   3.981   6.177
10723SOL    HW233069   0.035   3.896   6.073
10724SOL     OW33070   3.951   6.257   5.802
10724SOL    HW133071   4.049   6.278   5.804
10724SOL    HW233072   3.901   6.338   5.770
10725SOL     OW33073   0.013   0.383   5.356
10725SOL    HW133074   6.997   0.377   5.449
10725SOL    HW233075   7.015   0.297   5.307
10726SOL     OW33076   6.934   0.445   3.410
10726SOL    HW133077   6.890   0.384   3.476
10726SOL    HW233078   6.905   0.421   3.318
10727SOL     OW33079   4.923   6.046   6.490
10727SOL    HW133080   5.005   5.995   6.462
10727SOL    HW233081   4.939   6.144   6.479
10728SOL     OW33082   5.397   5.906   4.332
10728SOL    HW133083   5.463   5.889   4.259
10728SOL    HW233084   5.343   5.823   4.348
10729SOL     OW33085   6.555   2.918   4.308
10729SOL    HW133086   6.567   3.010   4.347
10729SOL    HW233087   6.641   2.868   4.316
10730SOL     OW33088   1.469   6.293   4.273
10730SOL    HW133089   1.424   6.329   4.191
10730SOL    HW233090   1.527   6.216   4.248
10731SOL     OW33091   5.099   3.953   5.087
10731SOL    HW133092   5.003   3.924   5.092
10731SOL    HW233093   5.116   4.023   5.156
10732SOL     OW33094   5.560   5.782   2.400
10732SOL    HW133095   5.492   5.711   2.381
10732SOL    HW233096   5.652   5.742   2.398
10733SOL     OW33097   0.650   1.715   5.724
10733SOL    HW133098   0.591   1.669   5.791
10733SOL    HW233099   0.612   1.702   5.632
10734SOL     OW33100   0.497   0.729   4.318
10734SOL    HW133101   0.525   0.741   4.223
10734SOL    HW233102   0.399   0.711   4.321
10735SOL     OW33103   6.942   0.872   1.886
10735SOL    HW133104   6.887   0.952   1.908
10735SOL    HW233105   0.013   0.883   1.925
10736SOL     OW33106   5.763   5.509   3.882
10736SOL    HW133107   5.777   5.485   3.785
10736SOL    HW233108   5.693   5.450   3.921
10737SOL     OW33109   6.540   0.661   0.645
10737SOL    HW133110   6.581   0.600   0.713
10737SOL    HW233111   6.605   0.734   0.623
10738SOL     OW33112   1.178   6.419   1.751
10738SOL    HW133113   1.274   6.391   1.746
10738SOL    HW233114   1.174   6.517   1.773
10739SOL     OW33115   4.956   2.629   3.925
10739SOL    HW133116   4.884   2.561   3.918
10739SOL    HW233117   4.916   2.721   3.924
10740SOL     OW33118   2.758   0.692   6.497
10740SOL    HW133119   2.798   0.673   6.408
10740SOL    HW233120   2.829   0.728   6.558
10741SOL     OW33121   2.118   2.645   4.373
10741SOL    HW133122   2.192   2.648   4.440
10741SOL    HW233123   2.131   2.718   4.305
10742SOL     OW33124   0.320   0.090   2.066
10742SOL    HW133125   0.301   0.170   2.009
10742SOL    HW233126   0.308   0.114   2.162
10743SOL     OW33127   3.785   2.582   6.163
10743SOL    HW133128   3.850   2.561   6.089
10743SOL    HW233129   3.787   2.509   6.231
10744SOL     OW33130   1.587   1.857   0.731
10744SOL    HW133131   1.553   1.926   0.668
10744SOL    HW233132   1.661   1.805   0.687
10745SOL     OW33133   3.494   5.595   1.546
10745SOL    HW133134   3.522   5.657   1.473
10745SOL    HW233135   3.556   5.517   1.549
10746SOL     OW33136   2.627   6.094   5.662
10746SOL    HW133137   2.615   5.995   5.664
10746SOL    HW233138   2.693   6.121   5.731
10747SOL     OW33139   0.058   0.278   4.623
10747SOL    HW133140   0.099   0.275   4.714
10747SOL    HW233141   0.047   0.373   4.594
10748SOL     OW33142   2.888   6.316   2.473
10748SOL    HW133143   2.789   6.303   2.473
10748SOL    HW233144   2.932   6.240   2.425
10749SOL     OW33145   4.804   2.885   2.517
10749SOL    HW133146   4.863   2.960   2.546
10749SOL    HW233147   4.766   2.905   2.426
10750SOL     OW33148   3.140   1.339   4.274
10750SOL    HW133149   3.212   1.397   4.237
10750SOL    HW233150   3.079   1.393   4.332
10751SOL     OW33151   6.031   5.882   3.636
10751SOL    HW133152   5.985   5.793   3.636
10751SOL    HW233153   6.061   5.904   3.543
10752SOL     OW33154   0.170   6.202   6.776
10752SOL    HW133155   0.138   6.162   6.862
10752SOL    HW233156   0.168   6.133   6.704
10753SOL     OW33157   5.347   6.655   4.968
10753SOL    HW133158   5.365   6.708   4.885
10753SOL    HW233159   5.250   6.660   4.992
10754SOL     OW33160   0.062   5.878   2.383
10754SOL    HW133161   6.999   5.888   2.329
10754SOL    HW233162   0.097   5.784   2.374
10755SOL     OW33163   1.049   1.850   2.355
10755SOL    HW133164   0.986   1.909   2.406
10755SOL    HW233165   1.036   1.864   2.257
10756SOL     OW33166   0.477   0.243   6.632
10756SOL    HW133167   0.505   0.301   6.708
10756SOL    HW233168   0.392   0.278   6.593
10757SOL     OW33169   0.096   2.576   1.729
10757SOL    HW133170   0.174   2.628   1.695
10757SOL    HW233171   0.013   2.606   1.682
10758SOL     OW33172   0.261   1.795   0.367
10758SOL    HW133173   0.358   1.772   0.373
10758SOL    HW233174   0.225   1.765   0.279
10759SOL     OW33175   3.547   5.283   5.202
10759SOL    HW133176   3.543   5.353   5.273
10759SOL    HW233177   3.461   5.231   5.202
10760SOL     OW33178   0.914   4.893   0.256
10760SOL    HW133179   0.937   4.988   0.275
10760SOL    HW233180   0.906   4.880   0.157
10761SOL     OW33181   1.560   1.528   6.391
10761SOL    HW133182   1.558   1.463   6.315
10761SOL    HW233183   1.467   1.541   6.427
10762SOL     OW33184   1.923   6.135   1.103
10762SOL    HW133185   1.824   6.133   1.089
10762SOL    HW233186   1.944   6.186   1.187
10763SOL     OW33187   4.820   1.154   2.643
10763SOL    HW133188   4.816   1.209   2.559
10763SOL    HW233189   4.840   1.059   2.620
10764SOL     OW33190   5.194   6.272   4.516
10764SOL    HW133191   5.203   6.191   4.459
10764SOL    HW233192   5.249   6.260   4.599
10765SOL     OW33193   6.628   2.829   1.518
10765SOL    HW133194   6.663   2.857   1.608
10765SOL    HW233195   6.555   2.761   1.531
10766SOL     OW33196   3.374   5.279   6.709
10766SOL    HW133197   3.304   5.230   6.761
10766SOL    HW233198   3.397   5.364   6.755
10767SOL     OW33199   1.739   4.989   6.489
10767SOL    HW133200   1.656   4.974   6.435
10767SOL    HW233201   1.752   4.912   6.551
10768SOL     OW33202   5.934   6.153   0.216
10768SOL    HW133203   5.924   6.228   0.281
10768SOL    HW233204   5.987   6.184   0.137
10769SOL     OW33205   3.393   3.860   4.971
10769SOL    HW133206   3.346   3.945   4.996
10769SOL    HW233207   3.486   3.861   5.009
10770SOL     OW33208   4.318   6.833   4.138
10770SOL    HW133209   4.289   6.885   4.218
10770SOL    HW233210   4.283   6.739   4.146
10771SOL     OW33211   4.896   6.100   5.814
10771SOL    HW133212   4.984   6.073   5.775
10771SOL    HW233213   4.905   6.113   5.913
10772SOL     OW33214   5.264   3.404   3.945
10772SOL    HW133215   5.185   3.395   4.005
10772SOL    HW233216   5.335   3.457   3.992
10773SOL     OW33217   1.153   4.619   0.667
10773SOL    HW133218   1.174   4.665   0.753
10773SOL    HW233219   1.102   4.535   0.685
10774SOL     OW33220   0.071   2.938   0.569
10774SOL    HW133221   0.101   3.030   0.593
10774SOL    HW233222   0.031   2.894   0.649
10775SOL     OW33223   2.574   4.559   6.144
10775SOL    HW133224   2.582   4.578   6.046
10775SOL    HW233225   2.663   4.532   6.180
10776SOL     OW33226   0.383   3.809   3.091
10776SOL    HW133227   0.304   3.821   3.030
10776SOL    HW233228   0.350   3.782   3.182
10777SOL     OW33229   1.015   6.319   1.941
10777SOL    HW133230   1.075   6.336   2.020
10777SOL    HW233231   1.057   6.357   1.859
10778SOL     OW33232   5.001   0.010   3.845
10778SOL    HW133233   4.940   0.014   3.766
10778SOL    HW233234   5.074   6.964   3.827
10779SOL     OW33235   5.742   2.925   5.911
10779SOL    HW133236   5.690   2.949   5.829
10779SOL    HW233237   5.745   3.004   5.973
10780SOL     OW33238   0.870   5.185   4.698
10780SOL    HW133239   0.926   5.115   4.742
10780SOL    HW233240   0.777   5.180   4.734
10781SOL     OW33241   5.989   2.544   6.068
10781SOL    HW133242   5.968   2.549   5.970
10781SOL    HW233243   6.070   2.487   6.081
10782SOL     OW33244   1.302   3.268   5.259
10782SOL    HW133245   1.225   3.323   5.291
10782SOL    HW233246   1.271   3.175   5.239
10783SOL     OW33247   1.608   3.927   3.940
10783SOL    HW133248   1.602   3.832   3.909
10783SOL    HW233249   1.551   3.940   4.021
10784SOL     OW33250   4.593   5.281   4.088
10784SOL    HW133251   4.602   5.367   4.139
10784SOL    HW233252   4.619   5.204   4.147
10785SOL     OW33253   1.830   5.341   1.636
10785SOL    HW133254   1.813   5.382   1.546
10785SOL    HW233255   1.744   5.306   1.674
10786SOL     OW33256   5.046   1.720   2.462
10786SOL    HW133257   5.107   1.673   2.525
10786SOL    HW233258   5.025   1.812   2.497
10787SOL     OW33259   3.112   1.670   3.613
10787SOL    HW133260   3.151   1.586   3.653
10787SOL    HW233261   3.012   1.667   3.622
10788SOL     OW33262   1.362   3.330   0.049
10788SOL    HW133263   1.364   3.336   6.970
10788SOL    HW233264   1.441   3.277   0.081
10789SOL     OW33265   6.529   2.134   2.626
10789SOL    HW133266   6.572   2.043   2.624
10789SOL    HW233267   6.433   2.125   2.599
10790SOL     OW33268   6.770   2.373   5.311
10790SOL    HW133269   6.810   2.457   5.273
10790SOL    HW233270   6.840   2.302   5.314
10791SOL     OW33271   1.869   2.960   3.262
10791SOL    HW133272   1.923   2.939   3.344
10791SOL    HW233273   1.929   2.966   3.183
10792SOL     OW33274   3.748   1.511   2.155
10792SOL    HW133275   3.776   1.606   2.167
10792SOL    HW233276   3.799   1.470   2.080
10793SOL     OW33277   4.031   2.193   4.043
10793SOL    HW133278   3.966   2.170   3.971
10793SOL    HW233279   4.095   2.117   4.056
10794SOL     OW33280   4.192   2.812   6.876
10794SOL    HW133281   4.248   2.748   6.824
10794SOL    HW233282   4.249   2.887   6.909
10795SOL     OW33283   6.221   2.943   2.996
10795SOL    HW133284   6.164   3.022   3.019
10795SOL    HW233285   6.195   2.909   2.905
10796SOL     OW33286   6.876   1.942   6.312
10796SOL    HW133287   6.952   1.877   6.318
10796SOL    HW233288   6.888   2.000   6.232
10797SOL     OW33289   5.906   4.459   6.508
10797SOL    HW133290   5.828   4.487   6.452
10797SOL    HW233291   5.990   4.497   6.470
10798SOL     OW33292   2.358   5.822   0.327
10798SOL    HW133293   2.311   5.910   0.325
10798SOL    HW233294   2.457   5.837   0.328
10799SOL     OW33295   1.881   1.074   3.205
10799SOL    HW133296   1.819   1.076   3.284
10799SOL    HW233297   1.916   1.166   3.188
10800SOL     OW33298   1.410   0.632   5.169
10800SOL    HW133299   1.421   0.533   5.171
10800SOL    HW233300   1.443   0.668   5.081
10801SOL     OW33301   3.036   5.975   6.841
10801SOL    HW133302   3.001   5.895   6.793
10801SOL    HW233303   2.965   6.013   6.900
10802SOL     OW33304   0.381   4.420   3.714
10802SOL    HW133305   0.401   4.323   3.725
10802SOL    HW233306   0.397   4.447   3.619
10803SOL     OW33307   0.224   4.274   5.014
10803SOL    HW133308   0.268   4.224   4.939
10803SOL    HW233309   0.142   4.319   4.979
10804SOL     OW33310   4.084   4.946   6.452
10804SOL    HW133311   4.105   4.926   6.357
10804SOL    HW233312   4.124   5.033   6.478
10805SOL     OW33313   5.061   6.063   0.491
10805SOL    HW133314   5.072   5.964   0.483
10805SOL    HW233315   5.151   6.107   0.493
10806SOL     OW33316   5.936   2.917   5.031
10806SOL    HW133317   6.030   2.938   5.001
10806SOL    HW233318   5.912   2.825   5.002
10807SOL     OW33319   4.431   2.691   5.263
10807SOL    HW133320   4.397   2.784   5.278
10807SOL    HW233321   4.355   2.633   5.232
10808SOL     OW33322   0.768   2.634   1.164
10808SOL    HW133323   0.798   2.687   1.243
10808SOL    HW233324   0.847   2.588   1.123
10809SOL     OW33325   1.078   1.062   3.100
10809SOL    HW133326   1.032   0.977   3.076
10809SOL    HW233327   1.099   1.113   3.017
10810SOL     OW33328   1.842   1.968   6.275
10810SOL    HW133329   1.939   1.954   6.295
10810SOL    HW233330   1.799   1.881   6.252
10811SOL     OW33331   4.037   5.803   6.694
10811SOL    HW133332   3.943   5.837   6.685
10811SOL    HW233333   4.041   5.734   6.766
10812SOL     OW33334   6.814   3.383   2.449
10812SOL    HW133335   6.783   3.292   2.479
10812SOL    HW233336   6.743   3.425   2.392
10813SOL     OW33337   3.322   6.187   2.151
10813SOL    HW133338   3.276   6.218   2.235
10813SOL    HW233339   3.361   6.266   2.104
10814SOL     OW33340   1.668   5.820   4.294
10814SOL    HW133341   1.678   5.914   4.264
10814SOL    HW233342   1.582   5.809   4.344
10815SOL     OW33343   5.267   2.832   5.857
10815SOL    HW133344   5.196   2.761   5.864
10815SOL    HW233345   5.254   2.899   5.930
10816SOL     OW33346   2.395   2.421   0.867
10816SOL    HW133347   2.319   2.477   0.901
10816SOL    HW233348   2.418   2.351   0.936
10817SOL     OW33349   3.744   1.945   1.662
10817SOL    HW133350   3.687   1.966   1.583
10817SOL    HW233351   3.811   2.018   1.676
10818SOL     OW33352   4.678   3.570   5.827
10818SOL    HW133353   4.706   3.568   5.731
10818SOL    HW233354   4.599   3.630   5.837
10819SOL     OW33355   2.115   3.067   4.876
10819SOL    HW133356   2.104   3.136   4.947
10819SOL    HW233357   2.190   3.005   4.900
10820SOL     OW33358   1.023   6.647   5.255
10820SOL    HW133359   1.048   6.730   5.205
10820SOL    HW233360   1.039   6.661   5.353
10821SOL     OW33361   6.941   0.378   6.876
10821SOL    HW133362   6.846   0.382   6.910
10821SOL    HW233363   7.002   0.364   6.954
10822SOL     OW33364   0.390   5.352   5.949
10822SOL    HW133365   0.320   5.309   5.891
10822SOL    HW233366   0.473   5.297   5.947
10823SOL     OW33367   2.557   2.206   0.706
10823SOL    HW133368   2.582   2.277   0.640
10823SOL    HW233369   2.560   2.244   0.798
10824SOL     OW33370   5.139   1.587   4.627
10824SOL    HW133371   5.181   1.655   4.568
10824SOL    HW233372   5.129   1.624   4.719
10825SOL     OW33373   3.720   1.403   1.794
10825SOL    HW133374   3.734   1.477   1.859
10825SOL    HW233375   3.774   1.419   1.711
10826SOL     OW33376   0.335   3.461   1.044
10826SOL    HW133377   0.346   3.559   1.055
10826SOL    HW233378   0.416   3.423   0.999
10827SOL     OW33379   6.965   2.517   4.787
10827SOL    HW133380   0.001   2.533   4.706
10827SOL    HW233381   6.870   2.506   4.760
10828SOL     OW33382   2.527   4.463   6.998
10828SOL    HW133383   2.527   4.563   6.998
10828SOL    HW233384   2.445   4.429   6.952
10829SOL     OW33385   2.180   3.507   1.422
10829SOL    HW133386   2.164   3.415   1.458
10829SOL    HW233387   2.226   3.562   1.491
10830SOL     OW33388   6.383   0.105   3.924
10830SOL    HW133389   6.466   0.065   3.885
10830SOL    HW233390   6.381   0.203   3.905
10831SOL     OW33391   5.421   3.032   2.191
10831SOL    HW133392   5.448   2.965   2.121
10831SOL    HW233393   5.343   3.084   2.158
10832SOL     OW33394   1.780   2.876   1.937
10832SOL    HW133395   1.830   2.961   1.955
10832SOL    HW233396   1.685   2.887   1.966
10833SOL     OW33397   3.387   6.835   4.924
10833SOL    HW133398   3.333   6.903   4.974
10833SOL    HW233399   3.325   6.774   4.875
10834SOL     OW33400   0.093   2.254   5.756
10834SOL    HW133401   0.102   2.351   5.777
10834SOL    HW233402   0.011   2.239   5.702
10835SOL     OW33403   0.443   1.557   0.367
10835SOL    HW133404   0.348   1.545   0.339
10835SOL    HW233405   0.501   1.569   0.287
10836SOL     OW33406   0.334   1.781   1.428
10836SOL    HW133407   0.295   1.872   1.414
10836SOL    HW233408   0.428   1.789   1.460
10837SOL     OW33409   1.581   5.226   0.464
10837SOL    HW133410   1.540   5.283   0.393
10837SOL    HW233411   1.547   5.132   0.455
10838SOL     OW33412   6.775   5.797   1.121
10838SOL    HW133413   6.798   5.882   1.169
10838SOL    HW233414   6.700   5.751   1.167
10839SOL     OW33415   2.723   1.898   6.527
10839SOL    HW133416   2.720   1.960   6.605
10839SOL    HW233417   2.776   1.817   6.552
10840SOL     OW33418   1.232   1.107   3.333
10840SOL    HW133419   1.168   1.087   3.258
10840SOL    HW233420   1.197   1.184   3.386
10841SOL     OW33421   4.580   4.136   0.229
10841SOL    HW133422   4.674   4.119   0.203
10841SOL    HW233423   4.575   4.156   0.327
10842SOL     OW33424   5.810   2.073   1.892
10842SOL    HW133425   5.766   2.059   1.803
10842SOL    HW233426   5.777   2.004   1.956
10843SOL     OW33427   0.991   2.118   1.568
10843SOL    HW133428   0.981   2.019   1.561
10843SOL    HW233429   1.071   2.140   1.623
10844SOL     OW33430   4.756   6.563   3.922
10844SOL    HW133431   4.666   6.520   3.924
10844SOL    HW233432   4.815   6.513   3.858
10845SOL     OW33433   2.725   3.790   1.720
10845SOL    HW133434   2.813   3.781   1.673
10845SOL    HW233435   2.690   3.699   1.742
10846SOL     OW33436   3.469   2.764   1.698
10846SOL    HW133437   3.408   2.774   1.777
10846SOL    HW233438   3.426   2.804   1.617
10847SOL     OW33439   5.128   1.756   5.460
10847SOL    HW133440   5.188   1.683   5.427
10847SOL    HW233441   5.100   1.813   5.383
10848SOL     OW33442   2.151   0.397   6.783
10848SOL    HW133443   2.204   0.313   6.791
10848SOL    HW233444   2.155   0.431   6.689
10849SOL     OW33445   0.950   3.985   4.984
10849SOL    HW133446   0.878   3.964   4.918
10849SOL    HW233447   0.987   4.076   4.965
10850SOL     OW33448   5.936   0.610   2.927
10850SOL    HW133449   5.847   0.570   2.946
10850SOL    HW233450   5.930   0.710   2.932
10851SOL     OW33451   4.627   2.710   0.376
10851SOL    HW133452   4.618   2.772   0.297
10851SOL    HW233453   4.557   2.639   0.370
10852SOL     OW33454   6.037   1.287   5.726
10852SOL    HW133455   5.992   1.376   5.721
10852SOL    HW233456   6.000   1.235   5.803
10853SOL     OW33457   2.443   0.041   5.627
10853SOL    HW133458   2.397   6.990   5.680
10853SOL    HW233459   2.451   0.123   5.683
10854SOL     OW33460   5.646   0.557   6.926
10854SOL    HW133461   5.592   0.519   7.000
10854SOL    HW233462   5.608   0.646   6.898
10855SOL     OW33463   1.144   5.970   0.012
10855SOL    HW133464   1.100   5.907   0.076
10855SOL    HW233465   1.243   5.971   0.028
10856SOL     OW33466   4.834   6.873   6.266
10856SOL    HW133467   4.873   6.781   6.269
10856SOL    HW233468   4.903   6.938   6.234
10857SOL     OW33469   6.525   6.792   4.856
10857SOL    HW133470   6.435   6.749   4.854
10857SOL    HW233471   6.548   6.826   4.765
10858SOL     OW33472   2.105   2.709   0.691
10858SOL    HW133473   2.033   2.727   0.624
10858SOL    HW233474   2.074   2.638   0.754
10859SOL     OW33475   2.614   5.249   1.829
10859SOL    HW133476   2.553   5.248   1.909
10859SOL    HW233477   2.634   5.154   1.803
10860SOL     OW33478   5.585   1.481   1.613
10860SOL    HW133479   5.554   1.545   1.684
10860SOL    HW233480   5.520   1.405   1.607
10861SOL     OW33481   2.347   4.660   0.743
10861SOL    HW133482   2.419   4.630   0.680
10861SOL    HW233483   2.286   4.724   0.696
10862SOL     OW33484   3.936   4.784   5.278
10862SOL    HW133485   3.845   4.767   5.313
10862SOL    HW233486   3.992   4.701   5.287
10863SOL     OW33487   0.441   0.016   4.011
10863SOL    HW133488   0.404   6.968   3.948
10863SOL    HW233489   0.376   0.031   4.086
10864SOL     OW33490   2.939   3.814   2.452
10864SOL    HW133491   2.934   3.878   2.376
10864SOL    HW233492   2.907   3.724   2.423
10865SOL     OW33493   3.164   2.132   2.303
10865SOL    HW133494   3.259   2.158   2.289
10865SOL    HW233495   3.155   2.033   2.294
10866SOL     OW33496   0.261   3.449   4.984
10866SOL    HW133497   0.208   3.520   4.937
10866SOL    HW233498   0.331   3.413   4.922
10867SOL     OW33499   4.917   3.252   0.293
10867SOL    HW133500   4.977   3.331   0.304
10867SOL    HW233501   4.832   3.267   0.344
10868SOL     OW33502   0.146   6.586   6.179
10868SOL    HW133503   0.230   6.533   6.167
10868SOL    HW233504   0.137   6.613   6.275
10869NA      NA33505   6.637   0.946   6.770
10870NA      NA33506   4.714   4.631   4.934
10871NA      NA33507   0.874   4.570   2.932
10872NA      NA33508   6.414   3.500   3.632
10873NA      NA33509   4.319   2.315   5.202
10874NA      NA33510   2.562   3.298   0.083
10875NA      NA33511   1.821   5.491   0.013
10876NA      NA33512   4.141   5.142   2.094
10877NA      NA33513   5.310   3.723   1.220
10878NA      NA33514   3.784   1.977   0.535
10879NA      NA33515   5.001   6.569   1.476
10880NA      NA33516   2.764   6.302   4.509
10881NA      NA33517   2.949   5.463   2.552
10882NA      NA33518   4.273   4.918   6.101
   7.02026   7.02026   7.02026
